Generated by trjconv : CNT in water t=  21.00000
33518
    1C        C    1   2.839   2.765   4.746
    1C        C    2   2.895   2.717   4.867
    1C        C    3   2.837   2.770   4.983
    1C        C    4   2.849   2.774   4.257
    1C        C    5   2.905   2.731   4.380
    1C        C    6   2.846   2.770   4.502
    1C        C    7   3.009   2.639   4.626
    1C        C    8   2.888   2.713   4.624
    1C        C    9   3.075   2.601   4.745
    1C        C   10   3.009   2.634   4.865
    1C        C   11   3.174   2.487   4.973
    1C        C   12   3.055   2.562   4.976
    1C        C   13   2.845   2.767   3.769
    1C        C   14   2.898   2.716   3.890
    1C        C   15   2.848   2.768   4.012
    1C        C   16   3.014   2.640   4.136
    1C        C   17   2.904   2.728   4.135
    1C        C   18   3.072   2.605   4.259
    1C        C   19   3.018   2.647   4.383
    1C        C   20   3.209   2.561   4.502
    1C        C   21   3.075   2.605   4.506
    1C        C   22   3.276   2.535   4.624
    1C        C   23   3.206   2.548   4.746
    1C        C   24   3.409   2.481   4.866
    1C        C   25   3.266   2.494   4.864
    1C        C   26   3.484   2.470   4.983
    1C        C   27   2.846   2.761   3.280
    1C        C   28   2.899   2.715   3.403
    1C        C   29   2.853   2.768   3.526
    1C        C   30   3.015   2.634   3.649
    1C        C   31   2.903   2.720   3.649
    1C        C   32   3.076   2.600   3.772
    1C        C   33   3.014   2.637   3.894
    1C        C   34   3.207   2.547   4.016
    1C        C   35   3.077   2.601   4.015
    1C        C   36   3.273   2.528   4.140
    1C        C   37   3.204   2.553   4.260
    1C        C   38   3.415   2.509   4.380
    1C        C   39   3.276   2.534   4.380
    1C        C   40   3.484   2.502   4.503
    1C        C   41   3.412   2.501   4.625
    1C        C   42   3.627   2.484   4.747
    1C        C   43   3.485   2.481   4.745
    1C        C   44   3.702   2.485   4.867
    1C        C   45   3.623   2.473   4.982
    1C        C   46   2.830   2.749   2.789
    1C        C   47   2.889   2.709   2.912
    1C        C   48   2.842   2.757   3.036
    1C        C   49   3.013   2.633   3.158
    1C        C   50   2.896   2.712   3.158
    1C        C   51   3.074   2.600   3.282
    1C        C   52   3.014   2.634   3.405
    1C        C   53   3.208   2.546   3.527
    1C        C   54   3.077   2.598   3.527
    1C        C   55   3.275   2.524   3.649
    1C        C   56   3.205   2.543   3.771
    1C        C   57   3.414   2.508   3.895
    1C        C   58   3.275   2.532   3.893
    1C        C   59   3.486   2.495   4.016
    1C        C   60   3.413   2.506   4.136
    1C        C   61   3.625   2.494   4.260
    1C        C   62   3.484   2.498   4.257
    1C        C   63   3.697   2.502   4.381
    1C        C   64   3.625   2.499   4.502
    1C        C   65   3.831   2.540   4.622
    1C        C   66   3.695   2.504   4.625
    1C        C   67   3.900   2.562   4.743
    1C        C   68   3.837   2.527   4.865
    1C        C   69   4.052   2.581   4.974
    1C        C   70   3.921   2.531   4.976
    1C        C   71   2.822   2.726   2.308
    1C        C   72   2.884   2.692   2.430
    1C        C   73   2.826   2.743   2.549
    1C        C   74   3.005   2.625   2.670
    1C        C   75   2.884   2.697   2.669
    1C        C   76   3.068   2.592   2.792
    1C        C   77   3.010   2.637   2.913
    1C        C   78   3.204   2.548   3.038
    1C        C   79   3.073   2.601   3.035
    1C        C   80   3.272   2.528   3.160
    1C        C   81   3.203   2.542   3.283
    1C        C   82   3.413   2.501   3.400
    1C        C   83   3.273   2.521   3.404
    1C        C   84   3.480   2.498   3.524
    1C        C   85   3.415   2.504   3.649
    1C        C   86   3.626   2.497   3.765
    1C        C   87   3.484   2.499   3.772
    1C        C   88   3.694   2.501   3.889
    1C        C   89   3.627   2.493   4.014
    1C        C   90   3.830   2.545   4.132
    1C        C   91   3.695   2.502   4.137
    1C        C   92   3.895   2.573   4.255
    1C        C   93   3.831   2.546   4.378
    1C        C   94   4.024   2.631   4.496
    1C        C   95   3.898   2.568   4.500
    1C        C   96   4.088   2.666   4.617
    1C        C   97   4.028   2.623   4.738
    1C        C   98   4.192   2.759   4.857
    1C        C   99   4.099   2.650   4.858
    1C        C  100   4.212   2.838   4.971
    1C        C  101   2.825   2.726   2.066
    1C        C  102   2.990   2.588   2.187
    1C        C  103   2.875   2.674   2.186
    1C        C  104   3.067   2.579   2.306
    1C        C  105   3.004   2.618   2.426
    1C        C  106   3.196   2.529   2.550
    1C        C  107   3.068   2.589   2.549
    1C        C  108   3.267   2.515   2.671
    1C        C  109   3.198   2.537   2.793
    1C        C  110   3.408   2.501   2.911
    1C        C  111   3.268   2.523   2.915
    1C        C  112   3.478   2.489   3.033
    1C        C  113   3.410   2.498   3.156
    1C        C  114   3.623   2.494   3.275
    1C        C  115   3.482   2.489   3.277
    1C        C  116   3.689   2.504   3.400
    1C        C  117   3.622   2.494   3.524
    1C        C  118   3.833   2.541   3.645
    1C        C  119   3.697   2.502   3.643
    1C        C  120   3.895   2.568   3.770
    1C        C  121   3.830   2.539   3.892
    1C        C  122   4.023   2.637   4.009
    1C        C  123   3.898   2.570   4.012
    1C        C  124   4.082   2.673   4.133
    1C        C  125   4.023   2.632   4.255
    1C        C  126   4.192   2.766   4.374
    1C        C  127   4.085   2.673   4.375
    1C        C  128   4.236   2.823   4.496
    1C        C  129   4.189   2.765   4.616
    1C        C  130   4.325   2.931   4.737
    1C        C  131   4.239   2.818   4.737
    1C        C  132   4.353   2.999   4.858
    1C        C  133   4.290   2.953   4.974
    1C        C  134   3.170   2.460   2.081
    1C        C  135   3.037   2.506   2.080
    1C        C  136   3.257   2.478   2.189
    1C        C  137   3.196   2.520   2.310
    1C        C  138   3.405   2.476   2.426
    1C        C  139   3.266   2.500   2.431
    1C        C  140   3.476   2.483   2.548
    1C        C  141   3.405   2.486   2.670
    1C        C  142   3.621   2.486   2.787
    1C        C  143   3.480   2.487   2.790
    1C        C  144   3.689   2.498   2.910
    1C        C  145   3.619   2.493   3.033
    1C        C  146   3.830   2.539   3.153
    1C        C  147   3.693   2.505   3.153
    1C        C  148   3.892   2.564   3.278
    1C        C  149   3.825   2.543   3.400
    1C        C  150   4.023   2.626   3.521
    1C        C  151   3.895   2.565   3.521
    1C        C  152   4.081   2.666   3.643
    1C        C  153   4.020   2.633   3.766
    1C        C  154   4.196   2.757   3.886
    1C        C  155   4.083   2.672   3.886
    1C        C  156   4.241   2.810   4.010
    1C        C  157   4.192   2.761   4.133
    1C        C  158   4.337   2.920   4.248
    1C        C  159   4.250   2.809   4.253
    1C        C  160   4.375   2.980   4.370
    1C        C  161   4.327   2.930   4.494
    1C        C  162   4.431   3.116   4.612
    1C        C  163   4.366   2.990   4.616
    1C        C  164   4.467   3.182   4.731
    1C        C  165   4.432   3.116   4.851
    1C        C  166   4.510   3.314   4.968
    1C        C  167   4.476   3.179   4.968
    1C        C  168   3.473   2.432   2.071
    1C        C  169   3.397   2.459   2.186
    1C        C  170   3.617   2.461   2.303
    1C        C  171   3.475   2.458   2.304
    1C        C  172   3.691   2.478   2.423
    1C        C  173   3.617   2.483   2.543
    1C        C  174   3.824   2.538   2.665
    1C        C  175   3.688   2.500   2.663
    1C        C  176   3.893   2.563   2.786
    1C        C  177   3.825   2.537   2.907
    1C        C  178   4.019   2.627   3.033
    1C        C  179   3.892   2.564   3.029
    1C        C  180   4.077   2.669   3.154
    1C        C  181   4.015   2.633   3.276
    1C        C  182   4.191   2.751   3.396
    1C        C  183   4.081   2.663   3.397
    1C        C  184   4.244   2.800   3.518
    1C        C  185   4.194   2.751   3.640
    1C        C  186   4.331   2.915   3.762
    1C        C  187   4.245   2.802   3.762
    1C        C  188   4.372   2.973   3.883
    1C        C  189   4.334   2.916   4.007
    1C        C  190   4.449   3.101   4.125
    1C        C  191   4.378   2.978   4.126
    1C        C  192   4.467   3.171   4.246
    1C        C  193   4.439   3.106   4.368
    1C        C  194   4.507   3.311   4.490
    1C        C  195   4.462   3.177   4.488
    1C        C  196   4.527   3.385   4.608
    1C        C  197   4.513   3.316   4.731
    1C        C  198   4.551   3.531   4.850
    1C        C  199   4.529   3.390   4.851
    1C        C  200   4.577   3.618   4.961
    1C        C  201   3.611   2.413   2.070
    1C        C  202   3.822   2.511   2.182
    1C        C  203   3.689   2.457   2.181
    1C        C  204   3.895   2.537   2.301
    1C        C  205   3.828   2.512   2.423
    1C        C  206   4.018   2.616   2.542
    1C        C  207   3.894   2.548   2.542
    1C        C  208   4.082   2.653   2.662
    1C        C  209   4.021   2.622   2.786
    1C        C  210   4.190   2.745   2.906
    1C        C  211   4.081   2.655   2.909
    1C        C  212   4.243   2.796   3.027
    1C        C  213   4.194   2.748   3.150
    1C        C  214   4.330   2.908   3.271
    1C        C  215   4.245   2.795   3.274
    1C        C  216   4.371   2.967   3.392
    1C        C  217   4.335   2.908   3.515
    1C        C  218   4.433   3.096   3.634
    1C        C  219   4.371   2.969   3.638
    1C        C  220   4.460   3.165   3.755
    1C        C  221   4.436   3.099   3.878
    1C        C  222   4.496   3.301   3.999
    1C        C  223   4.470   3.162   3.999
    1C        C  224   4.505   3.374   4.120
    1C        C  225   4.500   3.308   4.245
    1C        C  226   4.524   3.520   4.364
    1C        C  227   4.518   3.379   4.366
    1C        C  228   4.518   3.595   4.483
    1C        C  229   4.527   3.527   4.606
    1C        C  230   4.503   3.739   4.723
    1C        C  231   4.535   3.600   4.726
    1C        C  232   4.496   3.818   4.839
    1C        C  233   4.542   3.753   4.955
    1C        C  234   4.010   2.617   2.058
    1C        C  235   3.888   2.551   2.064
    1C        C  236   4.081   2.639   2.176
    1C        C  237   4.021   2.602   2.299
    1C        C  238   4.192   2.735   2.420
    1C        C  239   4.079   2.649   2.419
    1C        C  240   4.250   2.780   2.541
    1C        C  241   4.197   2.735   2.663
    1C        C  242   4.335   2.900   2.782
    1C        C  243   4.245   2.791   2.784
    1C        C  244   4.378   2.958   2.903
    1C        C  245   4.338   2.900   3.026
    1C        C  246   4.433   3.091   3.143
    1C        C  247   4.370   2.965   3.147
    1C        C  248   4.457   3.157   3.265
    1C        C  249   4.430   3.096   3.390
    1C        C  250   4.489   3.300   3.511
    1C        C  251   4.454   3.163   3.512
    1C        C  252   4.500   3.372   3.632
    1C        C  253   4.493   3.302   3.755
    1C        C  254   4.515   3.513   3.878
    1C        C  255   4.509   3.372   3.877
    1C        C  256   4.510   3.587   3.998
    1C        C  257   4.515   3.515   4.120
    1C        C  258   4.492   3.727   4.239
    1C        C  259   4.520   3.588   4.240
    1C        C  260   4.469   3.800   4.358
    1C        C  261   4.492   3.734   4.481
    1C        C  262   4.418   3.934   4.600
    1C        C  263   4.479   3.806   4.601
    1C        C  264   4.395   4.008   4.718
    1C        C  265   4.431   3.944   4.839
    1C        C  266   4.313   4.126   4.954
    1C        C  267   4.395   4.014   4.954
    1C        C  268   4.258   2.773   2.065
    1C        C  269   4.193   2.726   2.179
    1C        C  270   4.341   2.887   2.300
    1C        C  271   4.247   2.780   2.298
    1C        C  272   4.380   2.950   2.420
    1C        C  273   4.338   2.891   2.541
    1C        C  274   4.452   3.075   2.658
    1C        C  275   4.383   2.952   2.660
    1C        C  276   4.468   3.148   2.778
    1C        C  277   4.442   3.084   2.902
    1C        C  278   4.505   3.290   3.020
    1C        C  279   4.471   3.153   3.021
    1C        C  280   4.501   3.363   3.141
    1C        C  281   4.491   3.294   3.264
    1C        C  282   4.509   3.506   3.388
    1C        C  283   4.504   3.364   3.386
    1C        C  284   4.505   3.578   3.509
    1C        C  285   4.508   3.513   3.634
    1C        C  286   4.488   3.723   3.749
    1C        C  287   4.508   3.584   3.756
    1C        C  288   4.472   3.790   3.873
    1C        C  289   4.489   3.727   3.998
    1C        C  290   4.423   3.930   4.112
    1C        C  291   4.474   3.799   4.119
    1C        C  292   4.396   3.995   4.234
    1C        C  293   4.421   3.933   4.358
    1C        C  294   4.323   4.124   4.476
    1C        C  295   4.384   3.997   4.478
    1C        C  296   4.281   4.189   4.594
    1C        C  297   4.325   4.132   4.715
    1C        C  298   4.196   4.309   4.835
    1C        C  299   4.278   4.192   4.835
    1C        C  300   4.162   4.395   4.944
    1C        C  301   4.346   2.880   2.063
    1C        C  302   4.471   3.062   2.176
    1C        C  303   4.394   2.941   2.180
    1C        C  304   4.483   3.139   2.295
    1C        C  305   4.446   3.075   2.415
    1C        C  306   4.500   3.282   2.536
    1C        C  307   4.473   3.143   2.536
    1C        C  308   4.511   3.357   2.655
    1C        C  309   4.502   3.285   2.776
    1C        C  310   4.522   3.498   2.897
    1C        C  311   4.522   3.356   2.896
    1C        C  312   4.509   3.570   3.018
    1C        C  313   4.504   3.504   3.142
    1C        C  314   4.479   3.714   3.260
    1C        C  315   4.505   3.575   3.265
    1C        C  316   4.468   3.785   3.382
    1C        C  317   4.484   3.718   3.505
    1C        C  318   4.417   3.921   3.626
    1C        C  319   4.471   3.790   3.626
    1C        C  320   4.386   3.983   3.749
    1C        C  321   4.419   3.921   3.871
    1C        C  322   4.311   4.110   3.988
    1C        C  323   4.389   3.992   3.989
    1C        C  324   4.274   4.168   4.111
    1C        C  325   4.322   4.116   4.234
    1C        C  326   4.186   4.284   4.348
    1C        C  327   4.281   4.180   4.353
    1C        C  328   4.133   4.336   4.468
    1C        C  329   4.184   4.292   4.592
    1C        C  330   4.020   4.431   4.710
    1C        C  331   4.134   4.347   4.712
    1C        C  332   3.967   4.487   4.828
    1C        C  333   4.048   4.476   4.942
    1C        C  334   4.544   3.264   2.058
    1C        C  335   4.533   3.124   2.063
    1C        C  336   4.532   3.346   2.170
    1C        C  337   4.514   3.278   2.292
    1C        C  338   4.517   3.492   2.408
    1C        C  339   4.516   3.351   2.413
    1C        C  340   4.513   3.565   2.529
    1C        C  341   4.520   3.498   2.653
    1C        C  342   4.487   3.707   2.772
    1C        C  343   4.513   3.568   2.775
    1C        C  344   4.470   3.778   2.893
    1C        C  345   4.481   3.709   3.016
    1C        C  346   4.422   3.915   3.138
    1C        C  347   4.467   3.781   3.136
    1C        C  348   4.387   3.984   3.256
    1C        C  349   4.420   3.918   3.376
    1C        C  350   4.315   4.099   3.500
    1C        C  351   4.393   3.980   3.500
    1C        C  352   4.272   4.160   3.620
    1C        C  353   4.317   4.106   3.742
    1C        C  354   4.177   4.267   3.864
    1C        C  355   4.273   4.164   3.863
    1C        C  356   4.122   4.316   3.985
    1C        C  357   4.177   4.270   4.107
    1C        C  358   4.004   4.397   4.229
    1C        C  359   4.126   4.324   4.227
    1C        C  360   3.949   4.445   4.349
    1C        C  361   4.019   4.419   4.469
    1C        C  362   3.829   4.522   4.588
    1C        C  363   3.958   4.465   4.588
    1C        C  364   3.763   4.552   4.710
    1C        C  365   3.836   4.539   4.830
    1C        C  366   3.627   4.588   4.946
    1C        C  367   3.765   4.572   4.946
    1C        C  368   4.509   3.561   2.049
    1C        C  369   4.520   3.487   2.168
    1C        C  370   4.503   3.703   2.283
    1C        C  371   4.521   3.563   2.286
    1C        C  372   4.475   3.772   2.403
    1C        C  373   4.495   3.705   2.526
    1C        C  374   4.427   3.907   2.648
    1C        C  375   4.471   3.772   2.648
    1C        C  376   4.397   3.975   2.768
    1C        C  377   4.427   3.913   2.891
    1C        C  378   4.316   4.093   3.008
    1C        C  379   4.397   3.977   3.013
    1C        C  380   4.274   4.155   3.127
    1C        C  381   4.314   4.105   3.253
    1C        C  382   4.175   4.257   3.374
    1C        C  383   4.275   4.158   3.378
    1C        C  384   4.118   4.303   3.495
    1C        C  385   4.173   4.262   3.619
    1C        C  386   4.006   4.390   3.741
    1C        C  387   4.123   4.311   3.741
    1C        C  388   3.941   4.426   3.861
    1C        C  389   4.005   4.396   3.983
    1C        C  390   3.815   4.487   4.105
    1C        C  391   3.946   4.434   4.106
    1C        C  392   3.748   4.518   4.226
    1C        C  393   3.819   4.501   4.347
    1C        C  394   3.613   4.545   4.471
    1C        C  395   3.753   4.526   4.469
    1C        C  396   3.545   4.562   4.594
    1C        C  397   3.622   4.560   4.712
    1C        C  398   3.410   4.543   4.835
    1C        C  399   3.548   4.572   4.832
    1C        C  400   3.341   4.513   4.954
    1C        C  401   4.492   3.699   2.047
    1C        C  402   4.449   3.912   2.164
    1C        C  403   4.492   3.777   2.163
    1C        C  404   4.413   3.976   2.285
    1C        C  405   4.426   3.905   2.406
    1C        C  406   4.328   4.095   2.521
    1C        C  407   4.398   3.973   2.527
    1C        C  408   4.279   4.148   2.642
    1C        C  409   4.318   4.092   2.766
    1C        C  410   4.171   4.250   2.884
    1C        C  411   4.267   4.146   2.886
    1C        C  412   4.116   4.296   3.006
    1C        C  413   4.175   4.256   3.128
    1C        C  414   4.003   4.379   3.253
    1C        C  415   4.121   4.301   3.251
    1C        C  416   3.938   4.412   3.374
    1C        C  417   3.999   4.378   3.497
    1C        C  418   3.810   4.473   3.621
    1C        C  419   3.941   4.420   3.619
    1C        C  420   3.739   4.499   3.740
    1C        C  421   3.812   4.484   3.860
    1C        C  422   3.609   4.538   3.983
    1C        C  423   3.746   4.506   3.983
    1C        C  424   3.538   4.545   4.105
    1C        C  425   3.608   4.536   4.227
    1C        C  426   3.398   4.544   4.355
    1C        C  427   3.540   4.548   4.350
    1C        C  428   3.327   4.543   4.477
    1C        C  429   3.404   4.555   4.594
    1C        C  430   3.195   4.511   4.720
    1C        C  431   3.335   4.537   4.716
    1C        C  432   3.125   4.491   4.842
    1C        C  433   3.205   4.483   4.957
    1C        C  434   4.387   4.119   2.053
    1C        C  435   4.441   3.991   2.048
    1C        C  436   4.301   4.158   2.162
    1C        C  437   4.332   4.093   2.284
    1C        C  438   4.185   4.255   2.399
    1C        C  439   4.286   4.156   2.401
    1C        C  440   4.123   4.293   2.521
    1C        C  441   4.178   4.247   2.643
    1C        C  442   4.001   4.374   2.761
    1C        C  443   4.118   4.296   2.761
    1C        C  444   3.940   4.410   2.883
    1C        C  445   3.997   4.372   3.007
    1C        C  446   3.811   4.467   3.131
    1C        C  447   3.940   4.410   3.131
    1C        C  448   3.746   4.493   3.253
    1C        C  449   3.812   4.476   3.377
    1C        C  450   3.605   4.521   3.494
    1C        C  451   3.744   4.500   3.499
    1C        C  452   3.534   4.537   3.615
    1C        C  453   3.602   4.533   3.739
    1C        C  454   3.393   4.539   3.860
    1C        C  455   3.535   4.544   3.863
    1C        C  456   3.328   4.529   3.985
    1C        C  457   3.397   4.538   4.108
    1C        C  458   3.194   4.492   4.235
    1C        C  459   3.331   4.529   4.232
    1C        C  460   3.121   4.478   4.355
    1C        C  461   3.190   4.508   4.475
    1C        C  462   2.999   4.424   4.603
    1C        C  463   3.127   4.483   4.599
    1C        C  464   2.934   4.393   4.725
    1C        C  465   2.990   4.443   4.845
    1C        C  466   2.798   4.335   4.955
    1C        C  467   2.903   4.428   4.957
    1C        C  468   4.120   4.275   2.038
    1C        C  469   4.186   4.243   2.157
    1C        C  470   4.004   4.363   2.273
    1C        C  471   4.130   4.297   2.276
    1C        C  472   3.940   4.395   2.395
    1C        C  473   4.001   4.364   2.518
    1C        C  474   3.808   4.459   2.642
    1C        C  475   3.936   4.401   2.638
    1C        C  476   3.743   4.487   2.764
    1C        C  477   3.809   4.463   2.887
    1C        C  478   3.603   4.513   3.007
    1C        C  479   3.740   4.479   3.009
    1C        C  480   3.533   4.524   3.129
    1C        C  481   3.607   4.517   3.250
    1C        C  482   3.394   4.525   3.372
    1C        C  483   3.535   4.527   3.371
    1C        C  484   3.323   4.525   3.494
    1C        C  485   3.392   4.538   3.616
    1C        C  486   3.185   4.496   3.742
    1C        C  487   3.322   4.531   3.739
    1C        C  488   3.123   4.473   3.867
    1C        C  489   3.191   4.495   3.989
    1C        C  490   2.999   4.413   4.111
    1C        C  491   3.126   4.476   4.112
    1C        C  492   2.940   4.380   4.235
    1C        C  493   2.994   4.418   4.360
    1C        C  494   2.820   4.303   4.481
    1C        C  495   2.933   4.388   4.483
    1C        C  496   2.771   4.253   4.603
    1C        C  497   2.820   4.307   4.724
    1C        C  498   2.661   4.161   4.843
    1C        C  499   2.749   4.271   4.841
    1C        C  500   2.591   4.120   4.957
    1C        C  501   4.003   4.350   2.039
    1C        C  502   3.813   4.460   2.154
    1C        C  503   3.943   4.405   2.153
    1C        C  504   3.742   4.478   2.274
    1C        C  505   3.811   4.452   2.395
    1C        C  506   3.605   4.504   2.521
    1C        C  507   3.744   4.477   2.517
    1C        C  508   3.531   4.514   2.641
    1C        C  509   3.604   4.514   2.762
    1C        C  510   3.392   4.528   2.884
    1C        C  511   3.534   4.521   2.884
    1C        C  512   3.320   4.523   3.004
    1C        C  513   3.392   4.525   3.126
    1C        C  514   3.186   4.490   3.254
    1C        C  515   3.323   4.521   3.249
    1C        C  516   3.117   4.469   3.376
    1C        C  517   3.186   4.492   3.497
    1C        C  518   2.994   4.405   3.621
    1C        C  519   3.119   4.472   3.620
    1C        C  520   2.937   4.367   3.744
    1C        C  521   2.999   4.406   3.865
    1C        C  522   2.836   4.276   3.995
    1C        C  523   2.947   4.364   3.989
    1C        C  524   2.784   4.232   4.118
    1C        C  525   2.833   4.288   4.238
    1C        C  526   2.685   4.137   4.362
    1C        C  527   2.775   4.246   4.360
    1C        C  528   2.649   4.075   4.484
    1C        C  529   2.690   4.137   4.604
    1C        C  530   2.579   3.958   4.728
    1C        C  531   2.634   4.089   4.724
    1C        C  532   2.537   3.900   4.851
    1C        C  533   2.533   3.993   4.960
    1C        C  534   3.619   4.548   2.038
    1C        C  535   3.754   4.509   2.037
    1C        C  536   3.537   4.530   2.154
    1C        C  537   3.602   4.504   2.278
    1C        C  538   3.392   4.513   2.397
    1C        C  539   3.533   4.514   2.400
    1C        C  540   3.319   4.508   2.519
    1C        C  541   3.390   4.518   2.640
    1C        C  542   3.183   4.482   2.763
    1C        C  543   3.320   4.515   2.763
    1C        C  544   3.123   4.450   2.887
    1C        C  545   3.185   4.479   3.010
    1C        C  546   2.995   4.391   3.134
    1C        C  547   3.120   4.457   3.133
    1C        C  548   2.933   4.363   3.258
    1C        C  549   2.988   4.411   3.379
    1C        C  550   2.821   4.278   3.506
    1C        C  551   2.928   4.370   3.501
    1C        C  552   2.768   4.230   3.628
    1C        C  553   2.825   4.280   3.747
    1C        C  554   2.700   4.116   3.874
    1C        C  555   2.785   4.229   3.872
    1C        C  556   2.660   4.058   3.997
    1C        C  557   2.695   4.122   4.118
    1C        C  558   2.590   3.943   4.242
    1C        C  559   2.650   4.071   4.241
    1C        C  560   2.567   3.878   4.365
    1C        C  561   2.590   3.947   4.486
    1C        C  562   2.525   3.748   4.612
    1C        C  563   2.559   3.885   4.609
    1C        C  564   2.511   3.680   4.735
    1C        C  565   2.518   3.759   4.853
    1C        C  566   2.519   3.546   4.975
    1C        C  567   2.512   3.685   4.972
    1C        C  568   3.327   4.477   2.042
    1C        C  569   3.396   4.511   2.159
    1C        C  570   3.180   4.471   2.280
    1C        C  571   3.318   4.507   2.277
    1C        C  572   3.113   4.450   2.402
    1C        C  573   3.181   4.477   2.522
    1C        C  574   2.983   4.400   2.647
    1C        C  575   3.110   4.460   2.643
    1C        C  576   2.925   4.359   2.769
    1C        C  577   2.998   4.385   2.887
    1C        C  578   2.822   4.272   3.016
    1C        C  579   2.936   4.354   3.011
    1C        C  580   2.771   4.222   3.138
    1C        C  581   2.827   4.270   3.258
    1C        C  582   2.690   4.114   3.381
    1C        C  583   2.778   4.224   3.383
    1C        C  584   2.651   4.057   3.504
    1C        C  585   2.683   4.116   3.629
    1C        C  586   2.590   3.932   3.753
    1C        C  587   2.653   4.058   3.754
    1C        C  588   2.575   3.866   3.877
    1C        C  589   2.602   3.929   4.000
    1C        C  590   2.532   3.732   4.123
    1C        C  591   2.571   3.868   4.124
    1C        C  592   2.522   3.667   4.248
    1C        C  593   2.529   3.742   4.368
    1C        C  594   2.508   3.534   4.495
    1C        C  595   2.515   3.675   4.491
    1C        C  596   2.518   3.463   4.617
    1C        C  597   2.519   3.538   4.736
    1C        C  598   2.531   3.327   4.859
    1C        C  599   2.522   3.468   4.859
    1C        C  600   2.524   3.245   4.973
    1C        C  601   3.195   4.437   2.042
    1C        C  602   2.983   4.389   2.157
    1C        C  603   3.115   4.444   2.156
    1C        C  604   2.919   4.358   2.281
    1C        C  605   2.983   4.394   2.401
    1C        C  606   2.813   4.272   2.526
    1C        C  607   2.923   4.360   2.525
    1C        C  608   2.767   4.219   2.650
    1C        C  609   2.816   4.269   2.773
    1C        C  610   2.682   4.107   2.892
    1C        C  611   2.768   4.219   2.896
    1C        C  612   2.645   4.054   3.018
    1C        C  613   2.683   4.111   3.141
    1C        C  614   2.586   3.923   3.264
    1C        C  615   2.644   4.051   3.263
    1C        C  616   2.558   3.862   3.389
    1C        C  617   2.590   3.930   3.509
    1C        C  618   2.530   3.727   3.634
    1C        C  619   2.567   3.864   3.632
    1C        C  620   2.514   3.659   3.757
    1C        C  621   2.530   3.732   3.877
    1C        C  622   2.507   3.523   4.008
    1C        C  623   2.516   3.664   4.001
    1C        C  624   2.509   3.452   4.130
    1C        C  625   2.509   3.526   4.250
    1C        C  626   2.535   3.321   4.375
    1C        C  627   2.511   3.460   4.375
    1C        C  628   2.556   3.251   4.497
    1C        C  629   2.539   3.323   4.617
    1C        C  630   2.592   3.118   4.741
    1C        C  631   2.550   3.254   4.740
    1C        C  632   2.608   3.043   4.861
    1C        C  633   2.558   3.110   4.978
    1C        C  634   2.780   4.307   2.049
    1C        C  635   2.895   4.387   2.044
    1C        C  636   2.748   4.230   2.161
    1C        C  637   2.806   4.272   2.282
    1C        C  638   2.679   4.106   2.407
    1C        C  639   2.758   4.223   2.406
    1C        C  640   2.641   4.043   2.528
    1C        C  641   2.685   4.105   2.647
    1C        C  642   2.588   3.917   2.775
    1C        C  643   2.647   4.046   2.770
    1C        C  644   2.560   3.854   2.898
    1C        C  645   2.586   3.925   3.017
    1C        C  646   2.521   3.724   3.147
    1C        C  647   2.564   3.858   3.140
    1C        C  648   2.509   3.653   3.269
    1C        C  649   2.525   3.725   3.389
    1C        C  650   2.511   3.515   3.516
    1C        C  651   2.518   3.656   3.513
    1C        C  652   2.514   3.448   3.640
    1C        C  653   2.513   3.518   3.763
    1C        C  654   2.530   3.311   3.886
    1C        C  655   2.507   3.450   3.886
    1C        C  656   2.553   3.246   4.010
    1C        C  657   2.535   3.313   4.133
    1C        C  658   2.608   3.116   4.255
    1C        C  659   2.557   3.248   4.256
    1C        C  660   2.639   3.055   4.378
    1C        C  661   2.604   3.119   4.500
    1C        C  662   2.706   2.934   4.624
    1C        C  663   2.630   3.053   4.622
    1C        C  664   2.746   2.873   4.744
    1C        C  665   2.694   2.929   4.864
    1C        C  666   2.739   2.869   4.982
    1C        C  667   2.672   4.023   2.055
    1C        C  668   2.682   4.104   2.169
    1C        C  669   2.588   3.908   2.289
    1C        C  670   2.644   4.039   2.288
    1C        C  671   2.558   3.843   2.411
    1C        C  672   2.585   3.914   2.531
    1C        C  673   2.514   3.716   2.656
    1C        C  674   2.556   3.851   2.654
    1C        C  675   2.504   3.648   2.780
    1C        C  676   2.522   3.718   2.902
    1C        C  677   2.502   3.511   3.027
    1C        C  678   2.509   3.652   3.026
    1C        C  679   2.506   3.442   3.150
    1C        C  680   2.505   3.512   3.273
    1C        C  681   2.529   3.302   3.396
    1C        C  682   2.507   3.441   3.395
    1C        C  683   2.550   3.237   3.520
    1C        C  684   2.531   3.308   3.641
    1C        C  685   2.606   3.112   3.766
    1C        C  686   2.551   3.242   3.764
    1C        C  687   2.636   3.050   3.889
    1C        C  688   2.604   3.114   4.011
    1C        C  689   2.711   2.930   4.135
    1C        C  690   2.635   3.050   4.133
    1C        C  691   2.754   2.879   4.259
    1C        C  692   2.709   2.932   4.382
    1C        C  693   2.752   2.875   4.504
    1C        C  694   2.630   3.890   2.054
    1C        C  695   2.532   3.699   2.172
    1C        C  696   2.578   3.832   2.171
    1C        C  697   2.506   3.634   2.295
    1C        C  698   2.519   3.708   2.415
    1C        C  699   2.492   3.500   2.539
    1C        C  700   2.497   3.641   2.538
    1C        C  701   2.503   3.433   2.663
    1C        C  702   2.502   3.507   2.783
    1C        C  703   2.526   3.298   2.904
    1C        C  704   2.502   3.437   2.906
    1C        C  705   2.548   3.232   3.027
    1C        C  706   2.530   3.303   3.149
    1C        C  707   2.598   3.104   3.275
    1C        C  708   2.548   3.236   3.272
    1C        C  709   2.630   3.042   3.398
    1C        C  710   2.599   3.105   3.521
    1C        C  711   2.709   2.927   3.645
    1C        C  712   2.635   3.047   3.644
    1C        C  713   2.755   2.876   3.769
    1C        C  714   2.713   2.931   3.892
    1C        C  715   2.752   2.871   4.014
    1C        C  716   2.450   3.495   2.059
    1C        C  717   2.489   3.630   2.058
    1C        C  718   2.463   3.418   2.178
    1C        C  719   2.480   3.494   2.296
    1C        C  720   2.509   3.286   2.421
    1C        C  721   2.484   3.425   2.419
    1C        C  722   2.534   3.222   2.544
    1C        C  723   2.515   3.293   2.665
    1C        C  724   2.586   3.090   2.786
    1C        C  725   2.539   3.223   2.785
    1C        C  726   2.620   3.031   2.910
    1C        C  727   2.598   3.100   3.031
    1C        C  728   2.710   2.923   3.158
    1C        C  729   2.626   3.037   3.154
    1C        C  730   2.755   2.869   3.281
    1C        C  731   2.713   2.928   3.402
    1C        C  732   2.752   2.867   3.524
    1C        C  733   2.492   3.196   2.069
    1C        C  734   2.486   3.276   2.184
    1C        C  735   2.587   3.082   2.300
    1C        C  736   2.528   3.211   2.303
    1C        C  737   2.618   3.020   2.423
    1C        C  738   2.587   3.091   2.541
    1C        C  739   2.694   2.908   2.668
    1C        C  740   2.620   3.028   2.663
    1C        C  741   2.735   2.853   2.792
    1C        C  742   2.697   2.913   2.914
    1C        C  743   2.751   2.866   3.036
    1C        C  744   2.546   3.068   2.069
    1C        C  745   2.690   2.895   2.182
    1C        C  746   2.610   3.010   2.180
    1C        C  747   2.729   2.833   2.303
    1C        C  748   2.684   2.894   2.422
    1C        C  749   2.727   2.844   2.547
    1C        C  750   2.736   2.833   2.065
    1C        C  751   3.652   2.291   1.996
    1C        O  752   3.654   2.184   2.063
    1C        O  753   3.636   2.276   1.858
    1C        C  754   4.605   3.044   1.961
    1C        O  755   4.576   3.044   1.838
    1C        O  756   4.741   3.017   1.980
    1C        C  757   4.449   4.220   1.964
    1C        O  758   4.541   4.293   2.009
    1C        O  759   4.432   4.215   1.825
    1C        C  760   3.604   4.663   1.946
    1C        O  761   3.643   4.779   1.971
    1C        O  762   3.587   4.639   1.809
    1C        C  763   2.876   4.516   1.974
    1C        O  764   2.852   4.510   1.850
    1C        O  765   2.787   4.615   2.017
    1C        C  766   2.360   3.451   1.950
    1C        O  767   2.405   3.391   1.848
    1C        O  768   2.240   3.512   1.912
    1C        C  769   4.650   3.573   5.082
    1C        O  770   4.619   3.606   5.199
    1C        O  771   4.766   3.494   5.084
    1C        C  772   4.255   4.422   5.055
    1C        O  773   4.242   4.382   5.174
    1C        O  774   4.364   4.511   5.045
    1C        C  775   4.152   2.500   5.047
    1C        O  776   4.186   2.391   4.994
    1C        O  777   4.207   2.517   5.175
    1C        C  778   2.881   4.540   5.051
    1C        O  779   2.822   4.641   5.003
    1C        O  780   2.941   4.551   5.177
    1C        C  781   2.467   3.039   5.069
    1C        O  782   2.361   2.984   5.029
    1C        O  783   2.511   2.991   5.192
    1C        C  784   2.426   3.981   5.062
    1C        O  785   2.311   4.026   5.038
    1C        O  786   2.451   3.939   5.194
    1C        C  787   2.951   2.444   1.976
    1C        O  788   2.963   2.453   1.851
    1C        O  789   2.881   2.328   2.007
    1C        C  790   3.156   2.363   5.052
    1C        O  791   3.119   2.256   4.997
    1C        O  792   3.160   2.363   5.192
    1C        H  793   4.314   2.999   5.068
    1C        H  794   4.127   2.844   5.036
    1C        H  795   4.513   3.123   5.052
    1C        H  796   4.499   3.368   5.059
    1C        H  797   4.557   3.806   5.046
    1C        H  798   4.412   3.967   5.049
    1C        H  799   4.250   4.139   5.040
    1C        H  800   4.035   4.538   5.029
    1C        H  801   3.805   4.560   5.045
    1C        H  802   3.579   4.616   5.037
    1C        H  803   3.403   4.467   5.028
    1C        H  804   3.159   4.490   5.053
    1C        H  805   3.884   2.500   5.072
    1C        H  806   3.662   2.524   5.068
    1C        H  807   3.006   2.581   5.069
    1C        H  808   3.433   2.487   5.076
    1C        H  809   2.851   2.725   5.078
    1C        H  810   2.732   2.932   5.069
    1C        H  811   2.491   3.294   5.063
    1C        H  812   2.512   3.500   5.072
    1C        H  813   2.505   3.738   5.065
    1C        H  814   2.575   4.188   5.038
    1C        H  815   2.730   4.337   5.038
    1C        H  816   2.683   2.848   1.973
    1C        H  817   2.825   2.672   1.974
    1C        H  818   3.190   2.373   2.021
    1C        H  819   3.419   2.397   1.986
    1C        H  820   3.858   2.509   1.971
    1C        H  821   4.062   2.605   1.965
    1C        H  822   4.242   2.736   1.966
    1C        H  823   4.355   2.932   1.970
    1C        H  824   4.572   3.309   1.965
    1C        H  825   4.498   3.516   1.953
    1C        H  826   4.444   3.745   1.963
    1C        H  827   3.818   4.555   1.965
    1C        H  828   3.974   4.386   1.942
    1C        H  829   4.178   4.282   1.948
    1C        H  830   4.491   3.974   1.955
    1C        H  831   2.632   3.839   1.960
    1C        H  832   2.705   4.068   1.964
    1C        H  833   2.705   4.329   1.976
    1C        H  834   3.379   4.491   1.949
    1C        H  835   3.157   4.398   1.949
    1C        H  836   2.528   3.010   1.981
    1C        H  837   2.409   3.201   2.003
    1C        H  838   2.492   3.684   1.966
    2V3OU   H29  839   2.800   3.545   0.808
    2V3OU   C27  840   2.778   3.498   0.907
    2V3OU   H27  841   2.724   3.565   0.979
    2V3OU   H28  842   2.724   3.400   0.902
    2V3OU   O11  843   2.907   3.474   0.965
    2V3OU   C15  844   2.917   3.393   1.076
    2V3OU   C13  845   3.048   3.371   1.125
    2V3OU   C14  846   3.072   3.265   1.213
    2V3OU   C16  847   2.968   3.185   1.258
    2V3OU    H6  848   2.990   3.103   1.327
    2V3OU   C12  849   3.210   3.228   1.252
    2V3OU    O2  850   3.237   3.130   1.325
    2V3OU   C10  851   3.320   3.304   1.189
    2V3OU    C8  852   3.454   3.271   1.205
    2V3OU   O10  853   3.483   3.152   1.264
    2V3OU   H26  854   3.395   3.117   1.287
    2V3OU    C6  855   3.563   3.348   1.155
    2V3OU    C5  856   3.536   3.469   1.092
    2V3OU    C4  857   3.701   3.291   1.159
    2V3OU    H4  858   3.732   3.227   1.247
    2V3OU    H5  859   3.709   3.224   1.068
    2V3OU    C2  860   3.811   3.395   1.144
    2V3OU    O6  861   3.803   3.475   1.262
    2V3OU   H21  862   3.756   3.556   1.237
    2V3OU    C3  863   3.778   3.491   1.029
    2V3OU    H2  864   3.860   3.567   1.025
    2V3OU    H3  865   3.774   3.440   0.929
    2V3OU   C25  866   3.943   3.320   1.126
    2V3OU    O7  867   3.998   3.291   1.019
    2V3OU   C26  868   4.024   3.286   1.250
    2V3OU   H22  869   4.057   3.382   1.296
    2V3OU   H23  870   4.115   3.229   1.221
    2V3OU    O8  871   3.962   3.206   1.348
    2V3OU   H24  872   3.919   3.268   1.409
    2V3OU    C1  873   3.646   3.562   1.052
    2V3OU    H1  874   3.620   3.618   0.957
    2V3OU    O3  875   3.659   3.657   1.158
    2V3OU   C19  876   3.619   3.794   1.144
    2V3OU    H9  877   3.517   3.810   1.098
    2V3OU    O4  878   3.716   3.841   1.053
    2V3OU   C20  879   3.843   3.871   1.111
    2V3OU   H10  880   3.894   3.776   1.146
    2V3OU   C24  881   3.610   3.854   1.284
    2V3OU   H16  882   3.539   3.790   1.342
    2V3OU   H17  883   3.562   3.954   1.272
    2V3OU   C23  884   3.751   3.864   1.344
    2V3OU   H15  885   3.796   3.760   1.354
    2V3OU    N1  886   3.742   3.947   1.462
    2V3OU   H19  887   3.809   3.921   1.531
    2V3OU   H20  888   3.651   3.926   1.497
    2V3OU   C21  889   3.844   3.943   1.246
    2V3OU   H11  890   3.951   3.930   1.281
    2V3OU    O5  891   3.820   4.083   1.247
    2V3OU   H18  892   3.774   4.094   1.332
    2V3OU   C22  893   3.910   3.952   1.001
    2V3OU   H12  894   3.856   4.050   0.995
    2V3OU   H13  895   3.902   3.898   0.904
    2V3OU   H14  896   4.021   3.959   1.016
    2V3OU   C11  897   3.154   3.470   1.101
    2V3OU    O1  898   3.127   3.581   1.050
    2V3OU    C9  899   3.294   3.425   1.119
    2V3OU    C7  900   3.398   3.503   1.071
    2V3OU    O9  901   3.385   3.618   0.996
    2V3OU   H25  902   3.292   3.629   0.971
    2V3OU   C17  903   2.812   3.312   1.124
    2V3OU    H7  904   2.709   3.347   1.110
    2V3OU   C18  905   2.839   3.208   1.211
    2V3OU    H8  906   2.762   3.135   1.240
    3SOL     OW  907   0.452   4.569   0.691
    3SOL    HW1  908   0.393   4.614   0.758
    3SOL    HW2  909   0.403   4.494   0.648
    4SOL     OW  910   5.792   0.824   2.272
    4SOL    HW1  911   5.828   0.732   2.263
    4SOL    HW2  912   5.797   0.853   2.368
    5SOL     OW  913   3.632   2.928   1.074
    5SOL    HW1  914   3.615   3.007   1.133
    5SOL    HW2  915   3.690   2.862   1.122
    6SOL     OW  916   3.240   2.509   0.387
    6SOL    HW1  917   3.239   2.495   0.288
    6SOL    HW2  918   3.162   2.462   0.428
    7SOL     OW  919   5.544   0.472   1.922
    7SOL    HW1  920   5.528   0.567   1.894
    7SOL    HW2  921   5.555   0.415   1.841
    8SOL     OW  922   3.520   2.060   3.327
    8SOL    HW1  923   3.615   2.029   3.333
    8SOL    HW2  924   3.500   2.091   3.235
    9SOL     OW  925   6.252   4.411   6.228
    9SOL    HW1  926   6.351   4.422   6.221
    9SOL    HW2  927   6.216   4.476   6.295
   10SOL     OW  928   6.958   4.663   1.246
   10SOL    HW1  929   6.936   4.570   1.217
   10SOL    HW2  930   6.988   4.662   1.342
   11SOL     OW  931   3.981   6.772   6.821
   11SOL    HW1  932   3.980   6.679   6.783
   11SOL    HW2  933   3.956   6.837   6.750
   12SOL     OW  934   5.581   6.908   2.008
   12SOL    HW1  935   5.587   6.859   1.921
   12SOL    HW2  936   5.606   7.004   1.994
   13SOL     OW  937   2.122   0.133   2.715
   13SOL    HW1  938   2.065   0.185   2.651
   13SOL    HW2  939   2.072   0.052   2.747
   14SOL     OW  940   2.787   0.149   3.272
   14SOL    HW1  941   2.708   0.170   3.330
   14SOL    HW2  942   2.845   0.230   3.264
   15SOL     OW  943   2.716   6.415   6.201
   15SOL    HW1  944   2.735   6.319   6.181
   15SOL    HW2  945   2.625   6.439   6.167
   16SOL     OW  946   6.670   2.340   0.055
   16SOL    HW1  947   6.748   2.389   0.094
   16SOL    HW2  948   6.585   2.379   0.092
   17SOL     OW  949   4.042   5.720   3.088
   17SOL    HW1  950   3.975   5.765   3.029
   17SOL    HW2  951   4.025   5.621   3.087
   18SOL     OW  952   1.412   0.681   6.842
   18SOL    HW1  953   1.472   0.738   6.786
   18SOL    HW2  954   1.318   0.686   6.807
   19SOL     OW  955   1.113   0.072   1.615
   19SOL    HW1  956   1.080   6.999   1.642
   19SOL    HW2  957   1.036   0.136   1.613
   20SOL     OW  958   3.652   0.443   4.376
   20SOL    HW1  959   3.562   0.441   4.332
   20SOL    HW2  960   3.697   0.529   4.355
   21SOL     OW  961   3.085   3.119   1.603
   21SOL    HW1  962   2.989   3.147   1.607
   21SOL    HW2  963   3.104   3.079   1.513
   22SOL     OW  964   1.462   1.370   5.233
   22SOL    HW1  965   1.371   1.331   5.232
   22SOL    HW2  966   1.458   1.465   5.266
   23SOL     OW  967   2.662   6.235   5.008
   23SOL    HW1  968   2.594   6.263   5.075
   23SOL    HW2  969   2.666   6.135   5.005
   24SOL     OW  970   4.391   1.614   5.259
   24SOL    HW1  971   4.484   1.607   5.223
   24SOL    HW2  972   4.348   1.697   5.225
   25SOL     OW  973   2.266   5.795   0.858
   25SOL    HW1  974   2.254   5.762   0.952
   25SOL    HW2  975   2.179   5.828   0.822
   26SOL     OW  976   5.431   1.170   2.712
   26SOL    HW1  977   5.474   1.259   2.729
   26SOL    HW2  978   5.398   1.166   2.618
   27SOL     OW  979   5.945   0.129   2.805
   27SOL    HW1  980   5.918   0.089   2.893
   27SOL    HW2  981   5.945   0.229   2.812
   28SOL     OW  982   2.724   1.299   0.258
   28SOL    HW1  983   2.794   1.362   0.224
   28SOL    HW2  984   2.761   1.207   0.260
   29SOL     OW  985   4.800   3.018   1.701
   29SOL    HW1  986   4.719   2.994   1.754
   29SOL    HW2  987   4.868   3.061   1.761
   30SOL     OW  988   4.036   1.512   5.868
   30SOL    HW1  989   4.077   1.537   5.780
   30SOL    HW2  990   4.028   1.594   5.925
   31SOL     OW  991   0.696   1.654   5.423
   31SOL    HW1  992   0.631   1.657   5.499
   31SOL    HW2  993   0.774   1.712   5.443
   32SOL     OW  994   6.593   2.137   2.078
   32SOL    HW1  995   6.550   2.119   2.167
   32SOL    HW2  996   6.572   2.231   2.050
   33SOL     OW  997   1.698   1.423   4.892
   33SOL    HW1  998   1.797   1.428   4.873
   33SOL    HW2  999   1.680   1.352   4.959
   34SOL     OW 1000   0.796   1.061   4.758
   34SOL    HW1 1001   0.756   1.147   4.791
   34SOL    HW2 1002   0.787   1.057   4.659
   35SOL     OW 1003   4.605   2.269   6.552
   35SOL    HW1 1004   4.566   2.266   6.644
   35SOL    HW2 1005   4.663   2.189   6.538
   36SOL     OW 1006   0.948   2.155   5.574
   36SOL    HW1 1007   0.954   2.095   5.655
   36SOL    HW2 1008   0.853   2.181   5.559
   37SOL     OW 1009   3.091   6.784   1.710
   37SOL    HW1 1010   3.169   6.746   1.661
   37SOL    HW2 1011   3.112   6.878   1.737
   38SOL     OW 1012   0.018   5.960   2.023
   38SOL    HW1 1013   0.097   5.931   1.970
   38SOL    HW2 1014   0.024   5.921   2.115
   39SOL     OW 1015   6.857   2.525   6.517
   39SOL    HW1 1016   6.769   2.487   6.547
   39SOL    HW2 1017   6.924   2.516   6.591
   40SOL     OW 1018   0.155   1.309   1.584
   40SOL    HW1 1019   0.091   1.293   1.509
   40SOL    HW2 1020   0.125   1.388   1.638
   41SOL     OW 1021   1.094   0.623   5.979
   41SOL    HW1 1022   1.131   0.586   5.894
   41SOL    HW2 1023   1.157   0.691   6.016
   42SOL     OW 1024   3.583   0.169   0.211
   42SOL    HW1 1025   3.656   0.111   0.247
   42SOL    HW2 1026   3.500   0.115   0.198
   43SOL     OW 1027   4.311   5.614   5.088
   43SOL    HW1 1028   4.327   5.518   5.068
   43SOL    HW2 1029   4.390   5.668   5.059
   44SOL     OW 1030   1.057   3.954   0.327
   44SOL    HW1 1031   1.009   3.946   0.239
   44SOL    HW2 1032   1.102   4.044   0.333
   45SOL     OW 1033   2.231   0.244   1.662
   45SOL    HW1 1034   2.218   0.250   1.761
   45SOL    HW2 1035   2.143   0.256   1.616
   46SOL     OW 1036   0.971   5.528   3.501
   46SOL    HW1 1037   0.905   5.520   3.575
   46SOL    HW2 1038   1.061   5.551   3.539
   47SOL     OW 1039   5.899   4.369   2.995
   47SOL    HW1 1040   5.846   4.298   2.950
   47SOL    HW2 1041   5.870   4.378   3.090
   48SOL     OW 1042   0.697   1.331   5.720
   48SOL    HW1 1043   0.776   1.371   5.674
   48SOL    HW2 1044   0.710   1.336   5.820
   49SOL     OW 1045   5.790   3.239   0.142
   49SOL    HW1 1046   5.801   3.230   0.241
   49SOL    HW2 1047   5.843   3.317   0.109
   50SOL     OW 1048   0.680   3.763   4.529
   50SOL    HW1 1049   0.648   3.809   4.612
   50SOL    HW2 1050   0.686   3.829   4.454
   51SOL     OW 1051   3.472   5.871   2.122
   51SOL    HW1 1052   3.558   5.913   2.095
   51SOL    HW2 1053   3.427   5.831   2.041
   52SOL     OW 1054   0.488   2.262   1.897
   52SOL    HW1 1055   0.410   2.279   1.956
   52SOL    HW2 1056   0.529   2.174   1.919
   53SOL     OW 1057   4.713   6.625   3.571
   53SOL    HW1 1058   4.783   6.647   3.639
   53SOL    HW2 1059   4.715   6.527   3.552
   54SOL     OW 1060   5.158   4.410   5.270
   54SOL    HW1 1061   5.112   4.425   5.357
   54SOL    HW2 1062   5.191   4.316   5.265
   55SOL     OW 1063   3.430   2.204   1.371
   55SOL    HW1 1064   3.512   2.262   1.375
   55SOL    HW2 1065   3.458   2.109   1.360
   56SOL     OW 1066   0.649   0.217   2.211
   56SOL    HW1 1067   0.586   0.144   2.184
   56SOL    HW2 1068   0.742   0.182   2.215
   57SOL     OW 1069   5.485   0.529   0.763
   57SOL    HW1 1070   5.451   0.623   0.769
   57SOL    HW2 1071   5.416   0.471   0.719
   58SOL     OW 1072   6.621   0.276   6.718
   58SOL    HW1 1073   6.613   0.275   6.817
   58SOL    HW2 1074   6.718   0.273   6.692
   59SOL     OW 1075   0.265   6.851   5.611
   59SOL    HW1 1076   0.284   6.767   5.661
   59SOL    HW2 1077   0.211   6.913   5.668
   60SOL     OW 1078   4.811   0.037   4.905
   60SOL    HW1 1079   4.812   0.116   4.965
   60SOL    HW2 1080   4.887   0.043   4.840
   61SOL     OW 1081   3.699   6.771   5.506
   61SOL    HW1 1082   3.738   6.857   5.473
   61SOL    HW2 1083   3.621   6.746   5.450
   62SOL     OW 1084   2.722   0.386   5.001
   62SOL    HW1 1085   2.752   0.359   5.092
   62SOL    HW2 1086   2.799   0.381   4.937
   63SOL     OW 1087   0.099   3.115   3.386
   63SOL    HW1 1088   0.020   3.095   3.443
   63SOL    HW2 1089   0.173   3.050   3.406
   64SOL     OW 1090   6.919   2.554   5.508
   64SOL    HW1 1091   6.847   2.523   5.570
   64SOL    HW2 1092   6.993   2.488   5.507
   65SOL     OW 1093   1.138   3.982   6.000
   65SOL    HW1 1094   1.062   4.004   6.062
   65SOL    HW2 1095   1.131   4.038   5.917
   66SOL     OW 1096   2.642   0.855   1.356
   66SOL    HW1 1097   2.711   0.888   1.292
   66SOL    HW2 1098   2.610   0.765   1.328
   67SOL     OW 1099   4.798   5.138   4.483
   67SOL    HW1 1100   4.766   5.124   4.576
   67SOL    HW2 1101   4.729   5.107   4.418
   68SOL     OW 1102   5.435   3.082   6.727
   68SOL    HW1 1103   5.364   3.048   6.789
   68SOL    HW2 1104   5.397   3.093   6.635
   69SOL     OW 1105   2.687   3.033   5.746
   69SOL    HW1 1106   2.592   3.065   5.747
   69SOL    HW2 1107   2.699   2.963   5.676
   70SOL     OW 1108   5.658   0.029   2.669
   70SOL    HW1 1109   5.738   0.076   2.707
   70SOL    HW2 1110   5.598   0.096   2.625
   71SOL     OW 1111   1.875   4.323   2.228
   71SOL    HW1 1112   1.865   4.224   2.234
   71SOL    HW2 1113   1.806   4.367   2.286
   72SOL     OW 1114   3.641   5.317   3.401
   72SOL    HW1 1115   3.657   5.324   3.499
   72SOL    HW2 1116   3.619   5.222   3.377
   73SOL     OW 1117   3.703   2.930   6.672
   73SOL    HW1 1118   3.721   2.979   6.757
   73SOL    HW2 1119   3.607   2.943   6.646
   74SOL     OW 1120   5.007   6.818   5.998
   74SOL    HW1 1121   4.966   6.851   6.083
   74SOL    HW2 1122   5.044   6.895   5.946
   75SOL     OW 1123   3.661   5.173   5.185
   75SOL    HW1 1124   3.656   5.086   5.234
   75SOL    HW2 1125   3.739   5.225   5.218
   76SOL     OW 1126   2.561   3.133   0.989
   76SOL    HW1 1127   2.518   3.210   1.036
   76SOL    HW2 1128   2.530   3.048   1.031
   77SOL     OW 1129   5.977   4.131   6.387
   77SOL    HW1 1130   5.979   4.197   6.462
   77SOL    HW2 1131   6.069   4.117   6.353
   78SOL     OW 1132   6.105   6.741   5.888
   78SOL    HW1 1133   6.095   6.753   5.789
   78SOL    HW2 1134   6.072   6.823   5.935
   79SOL     OW 1135   3.130   0.011   0.556
   79SOL    HW1 1136   3.181   0.087   0.515
   79SOL    HW2 1137   3.191   6.952   0.570
   80SOL     OW 1138   0.476   0.885   4.233
   80SOL    HW1 1139   0.432   0.821   4.295
   80SOL    HW2 1140   0.415   0.904   4.156
   81SOL     OW 1141   1.943   6.806   3.268
   81SOL    HW1 1142   1.876   6.818   3.196
   81SOL    HW2 1143   1.937   6.881   3.333
   82SOL     OW 1144   6.583   4.952   5.746
   82SOL    HW1 1145   6.580   4.881   5.816
   82SOL    HW2 1146   6.622   4.915   5.662
   83SOL     OW 1147   6.239   6.502   5.343
   83SOL    HW1 1148   6.234   6.487   5.244
   83SOL    HW2 1149   6.268   6.596   5.361
   84SOL     OW 1150   6.864   4.080   1.691
   84SOL    HW1 1151   6.826   3.992   1.720
   84SOL    HW2 1152   6.917   4.120   1.765
   85SOL     OW 1153   0.649   1.033   5.075
   85SOL    HW1 1154   0.698   1.119   5.087
   85SOL    HW2 1155   0.715   0.958   5.072
   86SOL     OW 1156   2.065   1.244   4.435
   86SOL    HW1 1157   2.034   1.339   4.439
   86SOL    HW2 1158   2.030   1.194   4.515
   87SOL     OW 1159   4.732   6.832   1.859
   87SOL    HW1 1160   4.708   6.876   1.772
   87SOL    HW2 1161   4.783   6.896   1.915
   88SOL     OW 1162   6.078   0.665   1.734
   88SOL    HW1 1163   6.153   0.601   1.721
   88SOL    HW2 1164   5.997   0.615   1.767
   89SOL     OW 1165   1.780   1.593   5.134
   89SOL    HW1 1166   1.775   1.672   5.073
   89SOL    HW2 1167   1.720   1.521   5.100
   90SOL     OW 1168   6.616   6.078   3.297
   90SOL    HW1 1169   6.609   6.133   3.214
   90SOL    HW2 1170   6.559   5.997   3.290
   91SOL     OW 1171   4.415   5.053   4.646
   91SOL    HW1 1172   4.454   5.137   4.607
   91SOL    HW2 1173   4.487   5.002   4.693
   92SOL     OW 1174   3.584   5.790   1.523
   92SOL    HW1 1175   3.611   5.728   1.450
   92SOL    HW2 1176   3.494   5.830   1.501
   93SOL     OW 1177   2.987   4.723   5.916
   93SOL    HW1 1178   3.016   4.650   5.854
   93SOL    HW2 1179   3.026   4.707   6.007
   94SOL     OW 1180   2.168   6.526   1.950
   94SOL    HW1 1181   2.189   6.604   1.892
   94SOL    HW2 1182   2.183   6.441   1.898
   95SOL     OW 1183   6.555   6.876   5.326
   95SOL    HW1 1184   6.529   6.917   5.414
   95SOL    HW2 1185   6.591   6.947   5.266
   96SOL     OW 1186   1.565   6.992   4.913
   96SOL    HW1 1187   1.575   0.016   5.003
   96SOL    HW2 1188   1.655   6.972   4.875
   97SOL     OW 1189   6.249   2.519   4.479
   97SOL    HW1 1190   6.220   2.569   4.560
   97SOL    HW2 1191   6.231   2.421   4.492
   98SOL     OW 1192   4.771   1.000   5.841
   98SOL    HW1 1193   4.781   0.953   5.753
   98SOL    HW2 1194   4.844   0.973   5.903
   99SOL     OW 1195   5.007   1.559   0.634
   99SOL    HW1 1196   5.026   1.475   0.685
   99SOL    HW2 1197   4.948   1.619   0.689
  100SOL     OW 1198   6.366   5.844   6.708
  100SOL    HW1 1199   6.326   5.849   6.799
  100SOL    HW2 1200   6.347   5.929   6.658
  101SOL     OW 1201   1.241   0.240   4.027
  101SOL    HW1 1202   1.148   0.247   4.063
  101SOL    HW2 1203   1.289   0.165   4.074
  102SOL     OW 1204   4.388   0.578   2.940
  102SOL    HW1 1205   4.328   0.657   2.946
  102SOL    HW2 1206   4.341   0.497   2.977
  103SOL     OW 1207   3.727   1.706   1.759
  103SOL    HW1 1208   3.807   1.664   1.716
  103SOL    HW2 1209   3.741   1.804   1.766
  104SOL     OW 1210   6.236   6.200   2.328
  104SOL    HW1 1211   6.233   6.120   2.268
  104SOL    HW2 1212   6.272   6.279   2.278
  105SOL     OW 1213   5.311   0.761   6.137
  105SOL    HW1 1214   5.358   0.737   6.052
  105SOL    HW2 1215   5.246   0.689   6.161
  106SOL     OW 1216   3.622   6.767   1.448
  106SOL    HW1 1217   3.721   6.753   1.442
  106SOL    HW2 1218   3.577   6.719   1.373
  107SOL     OW 1219   2.664   3.292   0.050
  107SOL    HW1 1220   2.645   3.220   7.001
  107SOL    HW2 1221   2.613   3.272   0.134
  108SOL     OW 1222   4.684   4.173   4.984
  108SOL    HW1 1223   4.724   4.161   4.893
  108SOL    HW2 1224   4.748   4.138   5.053
  109SOL     OW 1225   6.258   0.641   2.003
  109SOL    HW1 1226   6.188   0.710   1.987
  109SOL    HW2 1227   6.289   0.647   2.098
  110SOL     OW 1228   3.486   6.238   4.572
  110SOL    HW1 1229   3.518   6.143   4.574
  110SOL    HW2 1230   3.563   6.300   4.584
  111SOL     OW 1231   2.999   1.226   3.185
  111SOL    HW1 1232   3.065   1.155   3.208
  111SOL    HW2 1233   2.931   1.190   3.121
  112SOL     OW 1234   0.001   1.453   6.554
  112SOL    HW1 1235   6.968   1.535   6.576
  112SOL    HW2 1236   0.090   1.456   6.600
  113SOL     OW 1237   6.906   6.669   3.840
  113SOL    HW1 1238   6.820   6.630   3.872
  113SOL    HW2 1239   6.950   6.606   3.776
  114SOL     OW 1240   1.050   6.385   0.581
  114SOL    HW1 1241   1.018   6.310   0.524
  114SOL    HW2 1242   1.049   6.357   0.677
  115SOL     OW 1243   5.340   0.987   5.417
  115SOL    HW1 1244   5.356   0.938   5.331
  115SOL    HW2 1245   5.376   1.080   5.408
  116SOL     OW 1246   6.188   3.933   2.996
  116SOL    HW1 1247   6.125   3.994   2.948
  116SOL    HW2 1248   6.234   3.874   2.929
  117SOL     OW 1249   1.128   6.787   6.453
  117SOL    HW1 1250   1.104   6.755   6.361
  117SOL    HW2 1251   1.160   6.709   6.507
  118SOL     OW 1252   2.059   0.729   2.892
  118SOL    HW1 1253   1.972   0.696   2.928
  118SOL    HW2 1254   2.132   0.667   2.919
  119SOL     OW 1255   6.550   2.404   5.936
  119SOL    HW1 1256   6.570   2.306   5.943
  119SOL    HW2 1257   6.560   2.446   6.027
  120SOL     OW 1258   4.945   6.004   1.850
  120SOL    HW1 1259   4.944   6.058   1.934
  120SOL    HW2 1260   4.971   5.910   1.871
  121SOL     OW 1261   2.955   3.052   5.797
  121SOL    HW1 1262   2.994   2.991   5.729
  121SOL    HW2 1263   2.872   3.095   5.759
  122SOL     OW 1264   1.129   3.091   4.968
  122SOL    HW1 1265   1.104   3.134   4.881
  122SOL    HW2 1266   1.066   3.122   5.040
  123SOL     OW 1267   6.876   2.156   1.624
  123SOL    HW1 1268   6.848   2.251   1.643
  123SOL    HW2 1269   6.880   2.105   1.710
  124SOL     OW 1270   5.074   3.872   1.304
  124SOL    HW1 1271   5.019   3.837   1.228
  124SOL    HW2 1272   5.016   3.882   1.385
  125SOL     OW 1273   2.488   3.552   1.659
  125SOL    HW1 1274   2.587   3.552   1.672
  125SOL    HW2 1275   2.445   3.496   1.730
  126SOL     OW 1276   4.034   4.079   0.486
  126SOL    HW1 1277   4.042   4.096   0.387
  126SOL    HW2 1278   3.986   4.155   0.529
  127SOL     OW 1279   0.644   5.385   5.754
  127SOL    HW1 1280   0.717   5.416   5.693
  127SOL    HW2 1281   0.575   5.457   5.763
  128SOL     OW 1282   4.435   2.532   0.588
  128SOL    HW1 1283   4.531   2.556   0.573
  128SOL    HW2 1284   4.387   2.608   0.632
  129SOL     OW 1285   2.798   3.848   0.308
  129SOL    HW1 1286   2.836   3.777   0.368
  129SOL    HW2 1287   2.758   3.921   0.363
  130SOL     OW 1288   1.630   2.452   4.809
  130SOL    HW1 1289   1.691   2.443   4.888
  130SOL    HW2 1290   1.676   2.503   4.736
  131SOL     OW 1291   5.857   1.051   2.134
  131SOL    HW1 1292   5.822   0.962   2.161
  131SOL    HW2 1293   5.900   1.044   2.044
  132SOL     OW 1294   0.378   2.478   2.182
  132SOL    HW1 1295   0.462   2.447   2.226
  132SOL    HW2 1296   0.399   2.548   2.114
  133SOL     OW 1297   6.746   5.936   2.918
  133SOL    HW1 1298   6.653   5.934   2.956
  133SOL    HW2 1299   6.802   5.868   2.965
  134SOL     OW 1300   1.105   3.446   3.005
  134SOL    HW1 1301   1.066   3.360   2.972
  134SOL    HW2 1302   1.149   3.430   3.094
  135SOL     OW 1303   4.497   1.254   3.998
  135SOL    HW1 1304   4.555   1.194   4.054
  135SOL    HW2 1305   4.412   1.206   3.975
  136SOL     OW 1306   5.278   5.011   5.937
  136SOL    HW1 1307   5.296   4.974   5.846
  136SOL    HW2 1308   5.364   5.015   5.989
  137SOL     OW 1309   3.645   0.765   5.583
  137SOL    HW1 1310   3.657   0.674   5.622
  137SOL    HW2 1311   3.729   0.818   5.596
  138SOL     OW 1312   5.591   4.223   5.566
  138SOL    HW1 1313   5.618   4.318   5.550
  138SOL    HW2 1314   5.670   4.164   5.554
  139SOL     OW 1315   3.255   5.758   6.061
  139SOL    HW1 1316   3.180   5.696   6.036
  139SOL    HW2 1317   3.330   5.747   5.996
  140SOL     OW 1318   6.287   3.894   4.544
  140SOL    HW1 1319   6.359   3.848   4.596
  140SOL    HW2 1320   6.258   3.834   4.469
  141SOL     OW 1321   1.318   2.052   2.279
  141SOL    HW1 1322   1.336   2.101   2.363
  141SOL    HW2 1323   1.244   1.986   2.294
  142SOL     OW 1324   1.643   5.405   1.101
  142SOL    HW1 1325   1.718   5.375   1.042
  142SOL    HW2 1326   1.628   5.336   1.172
  143SOL     OW 1327   5.021   4.324   2.114
  143SOL    HW1 1328   5.032   4.365   2.205
  143SOL    HW2 1329   4.967   4.241   2.122
  144SOL     OW 1330   2.658   6.686   1.147
  144SOL    HW1 1331   2.705   6.636   1.074
  144SOL    HW2 1332   2.704   6.669   1.234
  145SOL     OW 1333   6.734   5.442   0.687
  145SOL    HW1 1334   6.651   5.482   0.648
  145SOL    HW2 1335   6.754   5.355   0.641
  146SOL     OW 1336   6.766   4.911   0.442
  146SOL    HW1 1337   6.694   4.980   0.433
  146SOL    HW2 1338   6.841   4.934   0.380
  147SOL     OW 1339   5.839   2.419   0.882
  147SOL    HW1 1340   5.787   2.396   0.800
  147SOL    HW2 1341   5.879   2.510   0.872
  148SOL     OW 1342   0.896   5.591   5.377
  148SOL    HW1 1343   0.952   5.509   5.362
  148SOL    HW2 1344   0.955   5.670   5.386
  149SOL     OW 1345   3.198   1.055   6.124
  149SOL    HW1 1346   3.245   1.076   6.210
  149SOL    HW2 1347   3.186   0.956   6.115
  150SOL     OW 1348   6.991   5.995   5.007
  150SOL    HW1 1349   6.985   5.926   4.934
  150SOL    HW2 1350   6.931   6.071   4.985
  151SOL     OW 1351   4.350   0.727   2.043
  151SOL    HW1 1352   4.348   0.671   1.960
  151SOL    HW2 1353   4.398   0.678   2.115
  152SOL     OW 1354   2.774   0.634   4.736
  152SOL    HW1 1355   2.697   0.572   4.725
  152SOL    HW2 1356   2.787   0.654   4.834
  153SOL     OW 1357   1.026   0.374   2.740
  153SOL    HW1 1358   0.952   0.409   2.796
  153SOL    HW2 1359   1.039   0.276   2.758
  154SOL     OW 1360   0.365   2.141   3.063
  154SOL    HW1 1361   0.458   2.134   3.099
  154SOL    HW2 1362   0.368   2.167   2.966
  155SOL     OW 1363   0.399   1.290   3.130
  155SOL    HW1 1364   0.395   1.191   3.146
  155SOL    HW2 1365   0.321   1.317   3.074
  156SOL     OW 1366   0.119   2.485   1.447
  156SOL    HW1 1367   0.104   2.584   1.454
  156SOL    HW2 1368   0.077   2.452   1.363
  157SOL     OW 1369   0.128   2.347   2.672
  157SOL    HW1 1370   0.128   2.346   2.572
  157SOL    HW2 1371   0.037   2.324   2.706
  158SOL     OW 1372   1.897   1.769   3.599
  158SOL    HW1 1373   1.799   1.753   3.615
  158SOL    HW2 1374   1.923   1.857   3.639
  159SOL     OW 1375   5.112   3.398   1.915
  159SOL    HW1 1376   5.031   3.345   1.941
  159SOL    HW2 1377   5.170   3.343   1.855
  160SOL     OW 1378   6.117   4.572   6.435
  160SOL    HW1 1379   6.207   4.581   6.479
  160SOL    HW2 1380   6.103   4.649   6.372
  161SOL     OW 1381   2.923   4.803   5.285
  161SOL    HW1 1382   2.927   4.722   5.226
  161SOL    HW2 1383   2.832   4.811   5.325
  162SOL     OW 1384   4.397   6.167   2.367
  162SOL    HW1 1385   4.331   6.093   2.382
  162SOL    HW2 1386   4.469   6.136   2.305
  163SOL     OW 1387   6.122   0.340   1.694
  163SOL    HW1 1388   6.144   0.349   1.791
  163SOL    HW2 1389   6.030   0.304   1.683
  164SOL     OW 1390   6.606   3.023   1.013
  164SOL    HW1 1391   6.674   3.084   0.973
  164SOL    HW2 1392   6.610   3.028   1.113
  165SOL     OW 1393   6.332   3.531   6.933
  165SOL    HW1 1394   6.416   3.568   6.975
  165SOL    HW2 1395   6.252   3.575   6.974
  166SOL     OW 1396   1.677   0.351   0.796
  166SOL    HW1 1397   1.662   0.268   0.850
  166SOL    HW2 1398   1.631   0.343   0.708
  167SOL     OW 1399   6.245   2.628   1.249
  167SOL    HW1 1400   6.203   2.577   1.174
  167SOL    HW2 1401   6.174   2.680   1.298
  168SOL     OW 1402   2.520   5.684   1.517
  168SOL    HW1 1403   2.538   5.760   1.455
  168SOL    HW2 1404   2.422   5.662   1.515
  169SOL     OW 1405   0.914   0.046   1.252
  169SOL    HW1 1406   0.877   0.074   1.163
  169SOL    HW2 1407   0.989   0.108   1.277
  170SOL     OW 1408   0.253   1.716   3.274
  170SOL    HW1 1409   0.162   1.707   3.233
  170SOL    HW2 1410   0.318   1.747   3.204
  171SOL     OW 1411   3.459   3.944   0.518
  171SOL    HW1 1412   3.496   3.855   0.492
  171SOL    HW2 1413   3.504   3.977   0.601
  172SOL     OW 1414   0.227   2.878   2.013
  172SOL    HW1 1415   0.320   2.912   2.027
  172SOL    HW2 1416   0.163   2.955   2.018
  173SOL     OW 1417   0.067   6.383   6.036
  173SOL    HW1 1418   0.124   6.421   6.108
  173SOL    HW2 1419   0.120   6.319   5.981
  174SOL     OW 1420   2.634   6.114   4.015
  174SOL    HW1 1421   2.586   6.159   3.939
  174SOL    HW2 1422   2.588   6.135   4.101
  175SOL     OW 1423   0.181   5.067   3.764
  175SOL    HW1 1424   0.137   5.105   3.683
  175SOL    HW2 1425   0.265   5.021   3.738
  176SOL     OW 1426   2.658   5.120   6.885
  176SOL    HW1 1427   2.679   5.028   6.853
  176SOL    HW2 1428   2.743   5.171   6.898
  177SOL     OW 1429   4.408   1.581   2.716
  177SOL    HW1 1430   4.464   1.515   2.765
  177SOL    HW2 1431   4.435   1.583   2.620
  178SOL     OW 1432   5.288   3.900   6.244
  178SOL    HW1 1433   5.242   3.952   6.172
  178SOL    HW2 1434   5.254   3.806   6.244
  179SOL     OW 1435   2.876   6.584   0.497
  179SOL    HW1 1436   2.841   6.492   0.515
  179SOL    HW2 1437   2.800   6.647   0.483
  180SOL     OW 1438   1.360   2.172   6.910
  180SOL    HW1 1439   1.457   2.160   6.928
  180SOL    HW2 1440   1.341   2.270   6.895
  181SOL     OW 1441   2.893   3.547   4.039
  181SOL    HW1 1442   2.888   3.574   4.135
  181SOL    HW2 1443   2.864   3.452   4.029
  182SOL     OW 1444   5.643   2.761   4.956
  182SOL    HW1 1445   5.554   2.742   4.998
  182SOL    HW2 1446   5.670   2.855   4.975
  183SOL     OW 1447   6.073   1.450   2.104
  183SOL    HW1 1448   6.173   1.445   2.107
  183SOL    HW2 1449   6.034   1.375   2.156
  184SOL     OW 1450   0.382   4.762   2.806
  184SOL    HW1 1451   0.375   4.740   2.904
  184SOL    HW2 1452   0.470   4.730   2.771
  185SOL     OW 1453   3.017   3.746   6.176
  185SOL    HW1 1454   3.078   3.710   6.246
  185SOL    HW2 1455   2.997   3.674   6.109
  186SOL     OW 1456   6.275   6.409   3.487
  186SOL    HW1 1457   6.219   6.432   3.566
  186SOL    HW2 1458   6.242   6.325   3.445
  187SOL     OW 1459   5.304   0.275   4.120
  187SOL    HW1 1460   5.320   0.315   4.030
  187SOL    HW2 1461   5.217   0.308   4.157
  188SOL     OW 1462   6.554   1.854   4.694
  188SOL    HW1 1463   6.482   1.875   4.760
  188SOL    HW2 1464   6.629   1.920   4.704
  189SOL     OW 1465   1.748   4.632   3.408
  189SOL    HW1 1466   1.756   4.726   3.439
  189SOL    HW2 1467   1.835   4.584   3.422
  190SOL     OW 1468   3.677   1.058   6.710
  190SOL    HW1 1469   3.582   1.057   6.742
  190SOL    HW2 1470   3.686   1.121   6.634
  191SOL     OW 1471   5.286   5.860   6.292
  191SOL    HW1 1472   5.331   5.777   6.325
  191SOL    HW2 1473   5.291   5.931   6.363
  192SOL     OW 1474   6.021   0.679   6.951
  192SOL    HW1 1475   6.040   0.774   6.977
  192SOL    HW2 1476   6.104   0.636   6.916
  193SOL     OW 1477   6.315   4.155   0.041
  193SOL    HW1 1478   6.299   4.197   0.130
  193SOL    HW2 1479   6.375   4.076   0.053
  194SOL     OW 1480   4.128   0.064   4.683
  194SOL    HW1 1481   4.180   0.070   4.598
  194SOL    HW2 1482   4.118   0.155   4.724
  195SOL     OW 1483   0.036   5.488   3.169
  195SOL    HW1 1484   6.959   5.456   3.164
  195SOL    HW2 1485   0.042   5.581   3.135
  196SOL     OW 1486   0.832   1.044   0.940
  196SOL    HW1 1487   0.832   0.946   0.959
  196SOL    HW2 1488   0.788   1.060   0.851
  197SOL     OW 1489   1.968   0.697   0.813
  197SOL    HW1 1490   1.913   0.627   0.857
  197SOL    HW2 1491   2.062   0.693   0.848
  198SOL     OW 1492   2.740   1.135   4.509
  198SOL    HW1 1493   2.689   1.219   4.531
  198SOL    HW2 1494   2.690   1.085   4.438
  199SOL     OW 1495   1.123   1.237   4.535
  199SOL    HW1 1496   1.209   1.244   4.585
  199SOL    HW2 1497   1.068   1.318   4.551
  200SOL     OW 1498   6.263   2.118   0.330
  200SOL    HW1 1499   6.212   2.064   0.397
  200SOL    HW2 1500   6.328   2.177   0.378
  201SOL     OW 1501   0.385   1.400   6.038
  201SOL    HW1 1502   0.456   1.467   6.018
  201SOL    HW2 1503   0.319   1.439   6.102
  202SOL     OW 1504   5.357   7.017   0.086
  202SOL    HW1 1505   5.262   0.013   0.112
  202SOL    HW2 1506   5.374   0.044   7.016
  203SOL     OW 1507   6.737   3.060   0.104
  203SOL    HW1 1508   6.779   3.063   0.195
  203SOL    HW2 1509   6.640   3.038   0.113
  204SOL     OW 1510   6.564   0.768   5.244
  204SOL    HW1 1511   6.513   0.682   5.239
  204SOL    HW2 1512   6.508   0.842   5.207
  205SOL     OW 1513   2.267   4.509   3.289
  205SOL    HW1 1514   2.341   4.515   3.222
  205SOL    HW2 1515   2.306   4.502   3.381
  206SOL     OW 1516   0.517   4.074   0.897
  206SOL    HW1 1517   0.590   4.141   0.910
  206SOL    HW2 1518   0.490   4.073   0.801
  207SOL     OW 1519   6.431   2.853   4.641
  207SOL    HW1 1520   6.495   2.776   4.640
  207SOL    HW2 1521   6.338   2.819   4.637
  208SOL     OW 1522   1.317   2.921   4.865
  208SOL    HW1 1523   1.402   2.920   4.917
  208SOL    HW2 1524   1.261   2.999   4.895
  209SOL     OW 1525   6.326   4.296   2.628
  209SOL    HW1 1526   6.255   4.290   2.558
  209SOL    HW2 1527   6.315   4.382   2.678
  210SOL     OW 1528   4.944   3.716   1.104
  210SOL    HW1 1529   4.855   3.671   1.097
  210SOL    HW2 1530   5.017   3.649   1.086
  211SOL     OW 1531   1.264   1.175   1.571
  211SOL    HW1 1532   1.184   1.138   1.616
  211SOL    HW2 1533   1.345   1.160   1.629
  212SOL     OW 1534   2.482   3.834   1.660
  212SOL    HW1 1535   2.488   3.734   1.666
  212SOL    HW2 1536   2.410   3.866   1.722
  213SOL     OW 1537   1.091   5.263   1.253
  213SOL    HW1 1538   1.141   5.178   1.269
  213SOL    HW2 1539   1.004   5.243   1.207
  214SOL     OW 1540   5.535   6.682   2.310
  214SOL    HW1 1541   5.600   6.626   2.260
  214SOL    HW2 1542   5.575   6.773   2.325
  215SOL     OW 1543   2.252   4.877   2.606
  215SOL    HW1 1544   2.241   4.902   2.510
  215SOL    HW2 1545   2.256   4.778   2.615
  216SOL     OW 1546   1.541   6.295   3.239
  216SOL    HW1 1547   1.581   6.385   3.252
  216SOL    HW2 1548   1.585   6.250   3.161
  217SOL     OW 1549   6.962   5.353   5.106
  217SOL    HW1 1550   6.963   5.323   5.011
  217SOL    HW2 1551   0.039   5.365   5.138
  218SOL     OW 1552   2.833   2.228   5.500
  218SOL    HW1 1553   2.910   2.278   5.462
  218SOL    HW2 1554   2.793   2.168   5.430
  219SOL     OW 1555   4.971   2.406   1.280
  219SOL    HW1 1556   4.904   2.477   1.297
  219SOL    HW2 1557   5.063   2.447   1.277
  220SOL     OW 1558   2.642   6.345   0.682
  220SOL    HW1 1559   2.584   6.379   0.609
  220SOL    HW2 1560   2.732   6.321   0.646
  221SOL     OW 1561   4.755   4.622   2.166
  221SOL    HW1 1562   4.670   4.587   2.125
  221SOL    HW2 1563   4.791   4.696   2.110
  222SOL     OW 1564   1.756   4.003   6.707
  222SOL    HW1 1565   1.693   4.022   6.632
  222SOL    HW2 1566   1.844   3.971   6.669
  223SOL     OW 1567   6.754   2.026   4.740
  223SOL    HW1 1568   6.827   2.061   4.682
  223SOL    HW2 1569   6.776   2.042   4.836
  224SOL     OW 1570   3.449   2.450   5.744
  224SOL    HW1 1571   3.520   2.385   5.770
  224SOL    HW2 1572   3.481   2.543   5.763
  225SOL     OW 1573   4.195   5.923   6.949
  225SOL    HW1 1574   4.289   5.921   6.981
  225SOL    HW2 1575   4.173   5.836   6.903
  226SOL     OW 1576   1.643   1.895   0.730
  226SOL    HW1 1577   1.593   1.809   0.720
  226SOL    HW2 1578   1.642   1.946   0.644
  227SOL     OW 1579   1.725   4.066   0.901
  227SOL    HW1 1580   1.720   4.131   0.978
  227SOL    HW2 1581   1.741   3.974   0.937
  228SOL     OW 1582   0.826   0.490   2.534
  228SOL    HW1 1583   0.769   0.478   2.453
  228SOL    HW2 1584   0.908   0.434   2.526
  229SOL     OW 1585   4.146   0.743   6.270
  229SOL    HW1 1586   4.150   0.843   6.264
  229SOL    HW2 1587   4.059   0.715   6.310
  230SOL     OW 1588   5.865   4.298   5.801
  230SOL    HW1 1589   5.946   4.294   5.860
  230SOL    HW2 1590   5.782   4.297   5.857
  231SOL     OW 1591   5.228   0.913   0.069
  231SOL    HW1 1592   5.200   1.006   0.092
  231SOL    HW2 1593   5.147   0.857   0.051
  232SOL     OW 1594   1.159   2.034   5.433
  232SOL    HW1 1595   1.070   2.077   5.453
  232SOL    HW2 1596   1.163   2.011   5.336
  233SOL     OW 1597   3.446   1.388   3.622
  233SOL    HW1 1598   3.440   1.314   3.689
  233SOL    HW2 1599   3.532   1.437   3.634
  234SOL     OW 1600   5.540   0.061   0.306
  234SOL    HW1 1601   5.525   7.014   0.381
  234SOL    HW2 1602   5.480   0.037   0.229
  235SOL     OW 1603   5.380   3.013   2.303
  235SOL    HW1 1604   5.314   3.088   2.307
  235SOL    HW2 1605   5.463   3.045   2.255
  236SOL     OW 1606   3.700   2.721   6.041
  236SOL    HW1 1607   3.708   2.811   6.084
  236SOL    HW2 1608   3.662   2.656   6.107
  237SOL     OW 1609   6.217   3.534   2.710
  237SOL    HW1 1610   6.316   3.527   2.723
  237SOL    HW2 1611   6.178   3.443   2.703
  238SOL     OW 1612   6.035   1.731   0.357
  238SOL    HW1 1613   6.097   1.674   0.303
  238SOL    HW2 1614   6.005   1.808   0.302
  239SOL     OW 1615   1.299   3.327   0.448
  239SOL    HW1 1616   1.322   3.421   0.423
  239SOL    HW2 1617   1.267   3.325   0.543
  240SOL     OW 1618   5.466   3.483   3.984
  240SOL    HW1 1619   5.373   3.513   3.959
  240SOL    HW2 1620   5.468   3.383   3.986
  241SOL     OW 1621   2.137   2.414   4.038
  241SOL    HW1 1622   2.237   2.413   4.029
  241SOL    HW2 1623   2.102   2.505   4.015
  242SOL     OW 1624   3.872   3.572   2.175
  242SOL    HW1 1625   3.872   3.476   2.205
  242SOL    HW2 1626   3.910   3.629   2.248
  243SOL     OW 1627   3.940   2.743   6.271
  243SOL    HW1 1628   4.033   2.748   6.308
  243SOL    HW2 1629   3.945   2.726   6.172
  244SOL     OW 1630   4.926   3.386   4.908
  244SOL    HW1 1631   5.009   3.396   4.962
  244SOL    HW2 1632   4.847   3.420   4.960
  245SOL     OW 1633   3.280   1.244   3.066
  245SOL    HW1 1634   3.345   1.287   3.129
  245SOL    HW2 1635   3.195   1.297   3.064
  246SOL     OW 1636   6.764   1.405   2.137
  246SOL    HW1 1637   6.830   1.333   2.160
  246SOL    HW2 1638   6.683   1.364   2.096
  247SOL     OW 1639   1.961   1.127   1.889
  247SOL    HW1 1640   2.034   1.059   1.894
  247SOL    HW2 1641   1.978   1.200   1.956
  248SOL     OW 1642   3.199   3.594   1.378
  248SOL    HW1 1643   3.253   3.531   1.433
  248SOL    HW2 1644   3.256   3.671   1.350
  249SOL     OW 1645   4.664   6.626   5.363
  249SOL    HW1 1646   4.746   6.654   5.313
  249SOL    HW2 1647   4.624   6.705   5.409
  250SOL     OW 1648   3.474   2.585   0.114
  250SOL    HW1 1649   3.442   2.492   0.097
  250SOL    HW2 1650   3.491   2.631   0.027
  251SOL     OW 1651   4.466   5.238   5.401
  251SOL    HW1 1652   4.550   5.184   5.387
  251SOL    HW2 1653   4.486   5.317   5.458
  252SOL     OW 1654   6.498   6.149   4.959
  252SOL    HW1 1655   6.453   6.068   4.922
  252SOL    HW2 1656   6.437   6.195   5.023
  253SOL     OW 1657   4.109   6.066   6.417
  253SOL    HW1 1658   4.070   5.995   6.476
  253SOL    HW2 1659   4.167   6.023   6.348
  254SOL     OW 1660   6.238   2.090   5.509
  254SOL    HW1 1661   6.196   2.180   5.497
  254SOL    HW2 1662   6.330   2.091   5.470
  255SOL     OW 1663   1.281   4.501   6.570
  255SOL    HW1 1664   1.350   4.431   6.556
  255SOL    HW2 1665   1.203   4.484   6.510
  256SOL     OW 1666   4.741   2.284   5.234
  256SOL    HW1 1667   4.647   2.295   5.202
  256SOL    HW2 1668   4.746   2.208   5.299
  257SOL     OW 1669   4.876   6.335   2.289
  257SOL    HW1 1670   4.785   6.346   2.249
  257SOL    HW2 1671   4.871   6.273   2.367
  258SOL     OW 1672   2.022   3.425   5.726
  258SOL    HW1 1673   1.929   3.401   5.753
  258SOL    HW2 1674   2.086   3.391   5.795
  259SOL     OW 1675   3.249   0.200   3.765
  259SOL    HW1 1676   3.162   0.219   3.811
  259SOL    HW2 1677   3.289   0.116   3.802
  260SOL     OW 1678   3.861   5.494   3.112
  260SOL    HW1 1679   3.784   5.540   3.068
  260SOL    HW2 1680   3.892   5.418   3.056
  261SOL     OW 1681   4.084   4.953   7.015
  261SOL    HW1 1682   4.066   4.903   6.931
  261SOL    HW2 1683   4.183   4.960   0.011
  262SOL     OW 1684   1.069   3.503   6.661
  262SOL    HW1 1685   1.048   3.550   6.575
  262SOL    HW2 1686   1.131   3.559   6.715
  263SOL     OW 1687   1.542   0.170   3.946
  263SOL    HW1 1688   1.530   0.245   4.012
  263SOL    HW2 1689   1.503   0.197   3.858
  264SOL     OW 1690   6.330   2.789   6.526
  264SOL    HW1 1691   6.337   2.723   6.600
  264SOL    HW2 1692   6.347   2.881   6.561
  265SOL     OW 1693   6.906   6.942   3.162
  265SOL    HW1 1694   6.846   7.012   3.201
  265SOL    HW2 1695   6.925   6.963   3.067
  266SOL     OW 1696   3.721   0.818   6.069
  266SOL    HW1 1697   3.694   0.727   6.102
  266SOL    HW2 1698   3.814   0.813   6.031
  267SOL     OW 1699   2.344   0.056   2.873
  267SOL    HW1 1700   2.255   0.075   2.830
  267SOL    HW2 1701   2.416   0.105   2.824
  268SOL     OW 1702   3.348   2.289   0.680
  268SOL    HW1 1703   3.304   2.303   0.769
  268SOL    HW2 1704   3.430   2.347   0.675
  269SOL     OW 1705   5.302   1.968   0.158
  269SOL    HW1 1706   5.277   1.871   0.152
  269SOL    HW2 1707   5.233   2.018   0.210
  270SOL     OW 1708   5.451   1.131   0.259
  270SOL    HW1 1709   5.492   1.054   0.210
  270SOL    HW2 1710   5.521   1.199   0.279
  271SOL     OW 1711   0.558   4.123   6.160
  271SOL    HW1 1712   0.646   4.096   6.197
  271SOL    HW2 1713   0.512   4.185   6.223
  272SOL     OW 1714   3.092   5.956   3.123
  272SOL    HW1 1715   3.131   6.011   3.198
  272SOL    HW2 1716   2.995   5.941   3.141
  273SOL     OW 1717   1.874   5.624   5.867
  273SOL    HW1 1718   1.947   5.582   5.813
  273SOL    HW2 1719   1.812   5.673   5.805
  274SOL     OW 1720   4.365   2.333   4.031
  274SOL    HW1 1721   4.296   2.310   3.961
  274SOL    HW2 1722   4.319   2.353   4.117
  275SOL     OW 1723   5.753   6.942   1.656
  275SOL    HW1 1724   5.818   6.909   1.587
  275SOL    HW2 1725   5.678   6.990   1.611
  276SOL     OW 1726   0.798   0.000   4.672
  276SOL    HW1 1727   0.792   0.013   4.573
  276SOL    HW2 1728   0.707   7.016   4.711
  277SOL     OW 1729   2.014   4.705   1.505
  277SOL    HW1 1730   2.091   4.768   1.510
  277SOL    HW2 1731   2.040   4.626   1.449
  278SOL     OW 1732   0.359   2.686   2.946
  278SOL    HW1 1733   0.354   2.633   2.862
  278SOL    HW2 1734   0.404   2.631   3.017
  279SOL     OW 1735   6.406   1.107   3.252
  279SOL    HW1 1736   6.386   1.057   3.336
  279SOL    HW2 1737   6.365   1.198   3.257
  280SOL     OW 1738   1.615   5.037   2.948
  280SOL    HW1 1739   1.583   4.950   2.987
  280SOL    HW2 1740   1.581   5.113   3.003
  281SOL     OW 1741   2.368   4.364   1.102
  281SOL    HW1 1742   2.351   4.462   1.091
  281SOL    HW2 1743   2.361   4.340   1.199
  282SOL     OW 1744   2.000   1.426   5.641
  282SOL    HW1 1745   1.950   1.357   5.588
  282SOL    HW2 1746   2.097   1.418   5.621
  283SOL     OW 1747   3.321   3.046   6.210
  283SOL    HW1 1748   3.385   3.120   6.187
  283SOL    HW2 1749   3.279   3.011   6.127
  284SOL     OW 1750   0.333   3.769   3.693
  284SOL    HW1 1751   0.372   3.830   3.763
  284SOL    HW2 1752   0.383   3.683   3.693
  285SOL     OW 1753   5.412   4.325   4.038
  285SOL    HW1 1754   5.462   4.249   4.079
  285SOL    HW2 1755   5.324   4.336   4.084
  286SOL     OW 1756   3.048   4.263   0.899
  286SOL    HW1 1757   3.045   4.190   0.830
  286SOL    HW2 1758   2.958   4.273   0.940
  287SOL     OW 1759   0.946   2.785   6.962
  287SOL    HW1 1760   0.935   2.758   0.039
  287SOL    HW2 1761   0.947   2.885   6.956
  288SOL     OW 1762   4.986   3.269   1.494
  288SOL    HW1 1763   4.988   3.169   1.498
  288SOL    HW2 1764   5.021   3.299   1.405
  289SOL     OW 1765   3.780   5.410   6.944
  289SOL    HW1 1766   3.794   5.508   6.962
  289SOL    HW2 1767   3.822   5.357   7.017
  290SOL     OW 1768   1.915   1.121   4.655
  290SOL    HW1 1769   1.882   1.065   4.731
  290SOL    HW2 1770   1.843   1.132   4.588
  291SOL     OW 1771   6.420   1.868   3.251
  291SOL    HW1 1772   6.466   1.806   3.187
  291SOL    HW2 1773   6.487   1.912   3.310
  292SOL     OW 1774   3.660   0.302   3.945
  292SOL    HW1 1775   3.599   0.314   4.023
  292SOL    HW2 1776   3.629   0.223   3.891
  293SOL     OW 1777   3.080   5.041   3.686
  293SOL    HW1 1778   3.118   5.106   3.620
  293SOL    HW2 1779   3.057   4.955   3.640
  294SOL     OW 1780   4.939   0.387   0.414
  294SOL    HW1 1781   4.850   0.405   0.456
  294SOL    HW2 1782   4.931   0.309   0.352
  295SOL     OW 1783   5.681   0.367   4.210
  295SOL    HW1 1784   5.703   0.460   4.180
  295SOL    HW2 1785   5.678   0.306   4.131
  296SOL     OW 1786   2.593   1.984   2.994
  296SOL    HW1 1787   2.604   2.078   2.962
  296SOL    HW2 1788   2.621   1.920   2.922
  297SOL     OW 1789   1.931   5.012   2.299
  297SOL    HW1 1790   1.990   5.084   2.261
  297SOL    HW2 1791   1.965   4.922   2.270
  298SOL     OW 1792   6.563   5.020   0.789
  298SOL    HW1 1793   6.607   4.931   0.801
  298SOL    HW2 1794   6.588   5.080   0.865
  299SOL     OW 1795   6.165   2.323   3.829
  299SOL    HW1 1796   6.086   2.280   3.872
  299SOL    HW2 1797   6.216   2.376   3.898
  300SOL     OW 1798   5.894   6.865   1.864
  300SOL    HW1 1799   5.941   6.797   1.807
  300SOL    HW2 1800   5.827   6.914   1.808
  301SOL     OW 1801   4.849   2.848   5.589
  301SOL    HW1 1802   4.753   2.853   5.617
  301SOL    HW2 1803   4.892   2.770   5.633
  302SOL     OW 1804   1.277   5.358   4.259
  302SOL    HW1 1805   1.299   5.440   4.313
  302SOL    HW2 1806   1.361   5.322   4.218
  303SOL     OW 1807   5.885   0.173   3.810
  303SOL    HW1 1808   5.827   0.153   3.731
  303SOL    HW2 1809   5.970   0.121   3.804
  304SOL     OW 1810   3.744   0.475   3.677
  304SOL    HW1 1811   3.803   0.397   3.658
  304SOL    HW2 1812   3.649   0.451   3.655
  305SOL     OW 1813   1.281   5.163   0.831
  305SOL    HW1 1814   1.334   5.188   0.912
  305SOL    HW2 1815   1.311   5.074   0.798
  306SOL     OW 1816   1.962   1.314   3.326
  306SOL    HW1 1817   2.009   1.301   3.414
  306SOL    HW2 1818   1.891   1.384   3.336
  307SOL     OW 1819   3.492   0.534   1.467
  307SOL    HW1 1820   3.488   0.471   1.545
  307SOL    HW2 1821   3.436   0.614   1.486
  308SOL     OW 1822   0.720   4.890   3.720
  308SOL    HW1 1823   0.705   4.919   3.815
  308SOL    HW2 1824   0.790   4.948   3.678
  309SOL     OW 1825   3.669   4.661   5.376
  309SOL    HW1 1826   3.678   4.566   5.347
  309SOL    HW2 1827   3.632   4.664   5.469
  310SOL     OW 1828   1.587   6.023   6.293
  310SOL    HW1 1829   1.625   5.997   6.204
  310SOL    HW2 1830   1.634   5.973   6.365
  311SOL     OW 1831   0.085   0.887   1.466
  311SOL    HW1 1832   0.165   0.901   1.406
  311SOL    HW2 1833   0.116   0.876   1.560
  312SOL     OW 1834   3.946   1.507   5.434
  312SOL    HW1 1835   3.954   1.412   5.404
  312SOL    HW2 1836   3.991   1.518   5.523
  313SOL     OW 1837   0.102   4.850   1.104
  313SOL    HW1 1838   0.202   4.852   1.114
  313SOL    HW2 1839   0.064   4.780   1.164
  314SOL     OW 1840   3.467   6.032   2.371
  314SOL    HW1 1841   3.463   5.961   2.301
  314SOL    HW2 1842   3.556   6.078   2.368
  315SOL     OW 1843   0.769   3.630   2.809
  315SOL    HW1 1844   0.735   3.665   2.721
  315SOL    HW2 1845   0.730   3.539   2.825
  316SOL     OW 1846   2.241   3.020   4.272
  316SOL    HW1 1847   2.258   3.114   4.243
  316SOL    HW2 1848   2.257   3.012   4.371
  317SOL     OW 1849   6.463   1.560   0.290
  317SOL    HW1 1850   6.364   1.571   0.293
  317SOL    HW2 1851   6.494   1.516   0.374
  318SOL     OW 1852   2.747   3.912   1.030
  318SOL    HW1 1853   2.829   3.864   0.999
  318SOL    HW2 1854   2.728   3.889   1.125
  319SOL     OW 1855   0.995   0.558   6.202
  319SOL    HW1 1856   1.042   0.594   6.121
  319SOL    HW2 1857   0.900   0.590   6.202
  320SOL     OW 1858   5.278   3.286   1.301
  320SOL    HW1 1859   5.287   3.276   1.400
  320SOL    HW2 1860   5.185   3.265   1.273
  321SOL     OW 1861   2.166   1.288   2.292
  321SOL    HW1 1862   2.214   1.368   2.255
  321SOL    HW2 1863   2.189   1.277   2.388
  322SOL     OW 1864   3.393   2.830   5.252
  322SOL    HW1 1865   3.318   2.896   5.246
  322SOL    HW2 1866   3.357   2.741   5.278
  323SOL     OW 1867   1.483   4.245   1.592
  323SOL    HW1 1868   1.570   4.196   1.601
  323SOL    HW2 1869   1.435   4.213   1.511
  324SOL     OW 1870   6.867   2.684   3.978
  324SOL    HW1 1871   6.880   2.764   4.038
  324SOL    HW2 1872   6.769   2.665   3.970
  325SOL     OW 1873   1.878   2.202   2.890
  325SOL    HW1 1874   1.824   2.235   2.813
  325SOL    HW2 1875   1.919   2.114   2.867
  326SOL     OW 1876   1.876   4.073   4.601
  326SOL    HW1 1877   1.858   4.032   4.511
  326SOL    HW2 1878   1.808   4.039   4.667
  327SOL     OW 1879   6.475   3.439   6.356
  327SOL    HW1 1880   6.387   3.392   6.357
  327SOL    HW2 1881   6.471   3.519   6.415
  328SOL     OW 1882   3.637   5.654   3.068
  328SOL    HW1 1883   3.587   5.572   3.095
  328SOL    HW2 1884   3.640   5.719   3.144
  329SOL     OW 1885   3.518   4.135   2.073
  329SOL    HW1 1886   3.465   4.055   2.102
  329SOL    HW2 1887   3.609   4.131   2.113
  330SOL     OW 1888   2.541   2.223   1.684
  330SOL    HW1 1889   2.633   2.252   1.712
  330SOL    HW2 1890   2.517   2.267   1.598
  331SOL     OW 1891   6.354   4.011   5.614
  331SOL    HW1 1892   6.302   3.953   5.551
  331SOL    HW2 1893   6.412   3.954   5.672
  332SOL     OW 1894   3.833   1.756   3.760
  332SOL    HW1 1895   3.771   1.832   3.745
  332SOL    HW2 1896   3.887   1.740   3.677
  333SOL     OW 1897   4.579   6.405   0.935
  333SOL    HW1 1898   4.674   6.426   0.958
  333SOL    HW2 1899   4.561   6.431   0.840
  334SOL     OW 1900   4.829   6.352   2.656
  334SOL    HW1 1901   4.810   6.290   2.581
  334SOL    HW2 1902   4.744   6.375   2.703
  335SOL     OW 1903   3.173   0.366   2.445
  335SOL    HW1 1904   3.146   0.320   2.360
  335SOL    HW2 1905   3.214   0.299   2.507
  336SOL     OW 1906   4.242   0.714   4.776
  336SOL    HW1 1907   4.145   0.731   4.761
  336SOL    HW2 1908   4.264   0.620   4.748
  337SOL     OW 1909   1.008   4.368   2.088
  337SOL    HW1 1910   0.952   4.421   2.024
  337SOL    HW2 1911   0.960   4.284   2.113
  338SOL     OW 1912   2.205   2.171   1.315
  338SOL    HW1 1913   2.188   2.254   1.263
  338SOL    HW2 1914   2.184   2.091   1.258
  339SOL     OW 1915   4.400   1.137   3.092
  339SOL    HW1 1916   4.349   1.081   3.026
  339SOL    HW2 1917   4.371   1.232   3.084
  340SOL     OW 1918   5.383   3.328   4.508
  340SOL    HW1 1919   5.466   3.345   4.562
  340SOL    HW2 1920   5.330   3.413   4.501
  341SOL     OW 1921   4.725   4.312   5.810
  341SOL    HW1 1922   4.656   4.290   5.742
  341SOL    HW2 1923   4.701   4.270   5.898
  342SOL     OW 1924   6.198   3.749   0.866
  342SOL    HW1 1925   6.098   3.744   0.861
  342SOL    HW2 1926   6.236   3.658   0.874
  343SOL     OW 1927   2.689   0.674   2.427
  343SOL    HW1 1928   2.731   0.763   2.443
  343SOL    HW2 1929   2.607   0.664   2.483
  344SOL     OW 1930   3.406   6.969   0.184
  344SOL    HW1 1931   3.415   6.908   0.262
  344SOL    HW2 1932   3.451   6.928   0.104
  345SOL     OW 1933   1.176   1.211   4.956
  345SOL    HW1 1934   1.106   1.276   4.984
  345SOL    HW2 1935   1.133   1.125   4.927
  346SOL     OW 1936   2.590   0.871   5.478
  346SOL    HW1 1937   2.531   0.814   5.422
  346SOL    HW2 1938   2.553   0.876   5.571
  347SOL     OW 1939   5.174   6.034   5.848
  347SOL    HW1 1940   5.174   6.133   5.856
  347SOL    HW2 1941   5.080   5.999   5.858
  348SOL     OW 1942   3.000   6.700   3.413
  348SOL    HW1 1943   2.932   6.628   3.398
  348SOL    HW2 1944   3.091   6.665   3.392
  349SOL     OW 1945   2.305   5.419   2.161
  349SOL    HW1 1946   2.239   5.348   2.188
  349SOL    HW2 1947   2.387   5.412   2.218
  350SOL     OW 1948   4.733   3.244   1.372
  350SOL    HW1 1949   4.731   3.231   1.273
  350SOL    HW2 1950   4.826   3.270   1.400
  351SOL     OW 1951   3.198   2.033   0.640
  351SOL    HW1 1952   3.178   2.044   0.543
  351SOL    HW2 1953   3.273   2.094   0.666
  352SOL     OW 1954   3.073   2.120   6.381
  352SOL    HW1 1955   3.058   2.182   6.303
  352SOL    HW2 1956   2.993   2.062   6.393
  353SOL     OW 1957   2.110   6.979   1.495
  353SOL    HW1 1958   2.048   6.966   1.573
  353SOL    HW2 1959   2.189   6.919   1.505
  354SOL     OW 1960   5.066   0.243   2.104
  354SOL    HW1 1961   5.068   0.237   2.004
  354SOL    HW2 1962   5.078   0.152   2.143
  355SOL     OW 1963   0.743   1.620   2.248
  355SOL    HW1 1964   0.674   1.692   2.239
  355SOL    HW2 1965   0.739   1.581   2.340
  356SOL     OW 1966   3.077   6.878   3.012
  356SOL    HW1 1967   3.063   6.820   2.932
  356SOL    HW2 1968   3.173   6.906   3.018
  357SOL     OW 1969   1.085   5.350   4.840
  357SOL    HW1 1970   1.028   5.284   4.890
  357SOL    HW2 1971   1.157   5.300   4.791
  358SOL     OW 1972   4.768   0.888   3.322
  358SOL    HW1 1973   4.782   0.868   3.419
  358SOL    HW2 1974   4.696   0.956   3.312
  359SOL     OW 1975   0.246   1.418   0.552
  359SOL    HW1 1976   0.192   1.377   0.478
  359SOL    HW2 1977   0.340   1.432   0.520
  360SOL     OW 1978   5.169   6.910   6.691
  360SOL    HW1 1979   5.159   6.998   6.738
  360SOL    HW2 1980   5.266   6.887   6.683
  361SOL     OW 1981   2.943   0.617   2.120
  361SOL    HW1 1982   3.037   0.590   2.101
  361SOL    HW2 1983   2.905   0.557   2.191
  362SOL     OW 1984   2.911   3.841   0.633
  362SOL    HW1 1985   2.824   3.797   0.653
  362SOL    HW2 1986   2.974   3.775   0.593
  363SOL     OW 1987   5.051   4.203   3.813
  363SOL    HW1 1988   5.063   4.267   3.737
  363SOL    HW2 1989   5.106   4.120   3.795
  364SOL     OW 1990   2.657   5.755   6.630
  364SOL    HW1 1991   2.716   5.757   6.549
  364SOL    HW2 1992   2.705   5.797   6.707
  365SOL     OW 1993   5.016   6.397   2.881
  365SOL    HW1 1994   5.010   6.482   2.932
  365SOL    HW2 1995   4.953   6.400   2.803
  366SOL     OW 1996   5.252   1.310   0.135
  366SOL    HW1 1997   5.250   1.389   0.196
  366SOL    HW2 1998   5.313   1.240   0.174
  367SOL     OW 1999   5.933   2.463   2.229
  367SOL    HW1 2000   5.840   2.498   2.241
  367SOL    HW2 2001   5.931   2.378   2.176
  368SOL     OW 2002   6.922   5.278   4.829
  368SOL    HW1 2003   6.825   5.263   4.814
  368SOL    HW2 2004   6.973   5.196   4.804
  369SOL     OW 2005   1.080   3.975   1.990
  369SOL    HW1 2006   1.065   3.909   2.064
  369SOL    HW2 2007   1.178   3.993   1.981
  370SOL     OW 2008   3.786   1.893   6.454
  370SOL    HW1 2009   3.784   1.810   6.510
  370SOL    HW2 2010   3.692   1.920   6.431
  371SOL     OW 2011   3.442   2.574   6.591
  371SOL    HW1 2012   3.379   2.568   6.514
  371SOL    HW2 2013   3.498   2.491   6.596
  372SOL     OW 2014   2.187   5.913   0.031
  372SOL    HW1 2015   2.093   5.895   0.060
  372SOL    HW2 2016   2.247   5.840   0.064
  373SOL     OW 2017   6.217   6.865   6.517
  373SOL    HW1 2018   6.257   6.900   6.432
  373SOL    HW2 2019   6.192   6.942   6.575
  374SOL     OW 2020   5.395   0.786   0.814
  374SOL    HW1 2021   5.417   0.765   0.909
  374SOL    HW2 2022   5.403   0.885   0.799
  375SOL     OW 2023   6.777   4.022   1.432
  375SOL    HW1 2024   6.828   4.054   1.511
  375SOL    HW2 2025   6.751   4.100   1.375
  376SOL     OW 2026   2.223   4.204   5.219
  376SOL    HW1 2027   2.296   4.223   5.285
  376SOL    HW2 2028   2.251   4.130   5.158
  377SOL     OW 2029   5.013   1.015   4.113
  377SOL    HW1 2030   4.947   1.088   4.096
  377SOL    HW2 2031   5.091   1.024   4.052
  378SOL     OW 2032   5.281   2.144   5.654
  378SOL    HW1 2033   5.230   2.067   5.614
  378SOL    HW2 2034   5.280   2.221   5.590
  379SOL     OW 2035   6.379   2.994   0.872
  379SOL    HW1 2036   6.355   2.899   0.891
  379SOL    HW2 2037   6.460   3.020   0.925
  380SOL     OW 2038   0.891   2.371   0.073
  380SOL    HW1 2039   0.965   2.322   0.026
  380SOL    HW2 2040   0.927   2.413   0.156
  381SOL     OW 2041   4.503   4.927   0.361
  381SOL    HW1 2042   4.561   4.910   0.440
  381SOL    HW2 2043   4.410   4.948   0.391
  382SOL     OW 2044   2.112   5.622   6.514
  382SOL    HW1 2045   2.059   5.541   6.541
  382SOL    HW2 2046   2.197   5.625   6.565
  383SOL     OW 2047   6.220   1.557   6.977
  383SOL    HW1 2048   6.306   1.535   0.006
  383SOL    HW2 2049   6.241   1.605   6.892
  384SOL     OW 2050   1.346   5.448   4.544
  384SOL    HW1 2051   1.323   5.424   4.639
  384SOL    HW2 2052   1.336   5.546   4.531
  385SOL     OW 2053   4.475   4.837   1.261
  385SOL    HW1 2054   4.501   4.929   1.231
  385SOL    HW2 2055   4.461   4.778   1.182
  386SOL     OW 2056   2.197   5.919   4.427
  386SOL    HW1 2057   2.128   5.951   4.492
  386SOL    HW2 2058   2.284   5.904   4.475
  387SOL     OW 2059   0.387   0.519   5.491
  387SOL    HW1 2060   0.324   0.462   5.438
  387SOL    HW2 2061   0.385   0.490   5.587
  388SOL     OW 2062   0.133   1.921   4.538
  388SOL    HW1 2063   0.071   1.847   4.515
  388SOL    HW2 2064   0.224   1.902   4.501
  389SOL     OW 2065   4.902   3.084   2.721
  389SOL    HW1 2066   4.926   3.163   2.664
  389SOL    HW2 2067   4.985   3.040   2.754
  390SOL     OW 2068   3.465   3.030   0.471
  390SOL    HW1 2069   3.430   2.970   0.398
  390SOL    HW2 2070   3.534   3.091   0.433
  391SOL     OW 2071   3.713   3.667   3.648
  391SOL    HW1 2072   3.761   3.625   3.571
  391SOL    HW2 2073   3.618   3.637   3.649
  392SOL     OW 2074   1.826   3.235   1.588
  392SOL    HW1 2075   1.799   3.173   1.662
  392SOL    HW2 2076   1.926   3.241   1.584
  393SOL     OW 2077   1.301   6.518   1.301
  393SOL    HW1 2078   1.296   6.618   1.299
  393SOL    HW2 2079   1.385   6.489   1.256
  394SOL     OW 2080   5.843   1.384   6.253
  394SOL    HW1 2081   5.798   1.320   6.315
  394SOL    HW2 2082   5.881   1.460   6.306
  395SOL     OW 2083   6.252   5.100   6.513
  395SOL    HW1 2084   6.163   5.137   6.485
  395SOL    HW2 2085   6.249   5.077   6.610
  396SOL     OW 2086   0.654   0.858   1.279
  396SOL    HW1 2087   0.581   0.921   1.254
  396SOL    HW2 2088   0.708   0.898   1.353
  397SOL     OW 2089   4.641   2.006   4.916
  397SOL    HW1 2090   4.739   2.018   4.932
  397SOL    HW2 2091   4.625   1.924   4.861
  398SOL     OW 2092   6.983   1.525   2.911
  398SOL    HW1 2093   6.924   1.455   2.872
  398SOL    HW2 2094   7.017   1.585   2.838
  399SOL     OW 2095   5.998   5.634   4.211
  399SOL    HW1 2096   5.988   5.732   4.228
  399SOL    HW2 2097   6.093   5.614   4.188
  400SOL     OW 2098   0.072   6.379   3.157
  400SOL    HW1 2099   0.108   6.376   3.064
  400SOL    HW2 2100   7.003   6.426   3.158
  401SOL     OW 2101   1.233   6.120   4.869
  401SOL    HW1 2102   1.249   6.190   4.800
  401SOL    HW2 2103   1.258   6.031   4.833
  402SOL     OW 2104   5.899   1.259   4.482
  402SOL    HW1 2105   5.862   1.340   4.528
  402SOL    HW2 2106   5.824   1.193   4.465
  403SOL     OW 2107   2.397   1.809   5.467
  403SOL    HW1 2108   2.299   1.791   5.473
  403SOL    HW2 2109   2.418   1.850   5.379
  404SOL     OW 2110   2.674   6.182   3.377
  404SOL    HW1 2111   2.717   6.202   3.465
  404SOL    HW2 2112   2.576   6.199   3.383
  405SOL     OW 2113   2.406   5.084   3.903
  405SOL    HW1 2114   2.409   5.131   3.991
  405SOL    HW2 2115   2.364   4.994   3.915
  406SOL     OW 2116   1.181   0.190   0.358
  406SOL    HW1 2117   1.140   0.154   0.442
  406SOL    HW2 2118   1.229   0.117   0.311
  407SOL     OW 2119   2.037   3.610   4.057
  407SOL    HW1 2120   1.950   3.575   4.092
  407SOL    HW2 2121   2.098   3.534   4.037
  408SOL     OW 2122   2.815   2.067   1.950
  408SOL    HW1 2123   2.834   2.165   1.955
  408SOL    HW2 2124   2.852   2.029   1.865
  409SOL     OW 2125   0.449   2.488   1.710
  409SOL    HW1 2126   0.452   2.393   1.740
  409SOL    HW2 2127   0.528   2.507   1.652
  410SOL     OW 2128   1.812   3.328   1.939
  410SOL    HW1 2129   1.793   3.231   1.923
  410SOL    HW2 2130   1.904   3.339   1.977
  411SOL     OW 2131   6.413   1.423   1.183
  411SOL    HW1 2132   6.469   1.461   1.256
  411SOL    HW2 2133   6.471   1.393   1.108
  412SOL     OW 2134   2.476   4.517   3.057
  412SOL    HW1 2135   2.496   4.573   2.977
  412SOL    HW2 2136   2.532   4.548   3.134
  413SOL     OW 2137   6.428   4.923   2.986
  413SOL    HW1 2138   6.488   4.938   2.908
  413SOL    HW2 2139   6.432   4.827   3.013
  414SOL     OW 2140   2.471   6.748   2.392
  414SOL    HW1 2141   2.532   6.807   2.340
  414SOL    HW2 2142   2.392   6.723   2.335
  415SOL     OW 2143   5.929   2.969   1.217
  415SOL    HW1 2144   5.993   3.022   1.162
  415SOL    HW2 2145   5.977   2.895   1.263
  416SOL     OW 2146   6.076   3.275   6.916
  416SOL    HW1 2147   5.999   3.325   6.873
  416SOL    HW2 2148   6.106   3.325   6.997
  417SOL     OW 2149   2.268   2.576   5.681
  417SOL    HW1 2150   2.261   2.541   5.588
  417SOL    HW2 2151   2.320   2.662   5.681
  418SOL     OW 2152   3.914   5.955   6.619
  418SOL    HW1 2153   3.953   6.009   6.693
  418SOL    HW2 2154   3.878   5.869   6.656
  419SOL     OW 2155   5.800   6.979   0.506
  419SOL    HW1 2156   5.774   0.018   0.428
  419SOL    HW2 2157   5.900   6.981   0.516
  420SOL     OW 2158   3.127   6.767   0.945
  420SOL    HW1 2159   3.137   6.863   0.967
  420SOL    HW2 2160   3.216   6.726   0.928
  421SOL     OW 2161   5.254   4.718   2.968
  421SOL    HW1 2162   5.165   4.759   2.988
  421SOL    HW2 2163   5.327   4.777   3.002
  422SOL     OW 2164   4.189   1.526   2.175
  422SOL    HW1 2165   4.205   1.624   2.165
  422SOL    HW2 2166   4.095   1.511   2.206
  423SOL     OW 2167   2.250   1.022   5.832
  423SOL    HW1 2168   2.250   1.069   5.921
  423SOL    HW2 2169   2.179   0.952   5.832
  424SOL     OW 2170   1.387   4.487   4.252
  424SOL    HW1 2171   1.402   4.584   4.229
  424SOL    HW2 2172   1.340   4.481   4.340
  425SOL     OW 2173   3.276   1.298   6.747
  425SOL    HW1 2174   3.340   1.356   6.697
  425SOL    HW2 2175   3.221   1.245   6.682
  426SOL     OW 2176   2.485   2.512   2.923
  426SOL    HW1 2177   2.491   2.563   2.838
  426SOL    HW2 2178   2.458   2.573   2.997
  427SOL     OW 2179   4.415   1.458   4.175
  427SOL    HW1 2180   4.414   1.361   4.152
  427SOL    HW2 2181   4.365   1.509   4.105
  428SOL     OW 2182   2.062   2.059   6.275
  428SOL    HW1 2183   1.962   2.052   6.265
  428SOL    HW2 2184   2.106   2.024   6.192
  429SOL     OW 2185   6.852   6.691   3.345
  429SOL    HW1 2186   6.856   6.743   3.431
  429SOL    HW2 2187   6.865   6.754   3.268
  430SOL     OW 2188   1.620   1.672   3.598
  430SOL    HW1 2189   1.597   1.585   3.643
  430SOL    HW2 2190   1.572   1.747   3.642
  431SOL     OW 2191   2.579   0.955   1.603
  431SOL    HW1 2192   2.596   0.884   1.672
  431SOL    HW2 2193   2.584   0.914   1.512
  432SOL     OW 2194   5.402   1.867   2.202
  432SOL    HW1 2195   5.403   1.955   2.249
  432SOL    HW2 2196   5.428   1.880   2.106
  433SOL     OW 2197   2.098   4.011   6.889
  433SOL    HW1 2198   2.180   3.994   6.943
  433SOL    HW2 2199   2.022   4.035   6.949
  434SOL     OW 2200   3.867   5.729   2.851
  434SOL    HW1 2201   3.839   5.639   2.816
  434SOL    HW2 2202   3.794   5.795   2.833
  435SOL     OW 2203   2.582   2.798   6.726
  435SOL    HW1 2204   2.547   2.884   6.688
  435SOL    HW2 2205   2.547   2.721   6.673
  436SOL     OW 2206   5.392   6.304   2.550
  436SOL    HW1 2207   5.399   6.238   2.624
  436SOL    HW2 2208   5.300   6.344   2.550
  437SOL     OW 2209   0.009   1.248   5.708
  437SOL    HW1 2210   0.053   1.182   5.646
  437SOL    HW2 2211   0.075   1.319   5.733
  438SOL     OW 2212   0.831   3.703   1.472
  438SOL    HW1 2213   0.845   3.785   1.417
  438SOL    HW2 2214   0.889   3.708   1.554
  439SOL     OW 2215   0.813   1.464   6.783
  439SOL    HW1 2216   0.752   1.452   6.861
  439SOL    HW2 2217   0.767   1.518   6.713
  440SOL     OW 2218   3.770   1.388   1.097
  440SOL    HW1 2219   3.796   1.371   1.193
  440SOL    HW2 2220   3.844   1.358   1.037
  441SOL     OW 2221   1.357   4.388   2.822
  441SOL    HW1 2222   1.403   4.435   2.747
  441SOL    HW2 2223   1.409   4.402   2.906
  442SOL     OW 2224   3.060   3.466   4.764
  442SOL    HW1 2225   3.017   3.381   4.793
  442SOL    HW2 2226   3.049   3.536   4.835
  443SOL     OW 2227   4.923   2.594   2.003
  443SOL    HW1 2228   4.916   2.620   1.906
  443SOL    HW2 2229   5.020   2.586   2.028
  444SOL     OW 2230   4.361   2.294   0.917
  444SOL    HW1 2231   4.350   2.244   0.831
  444SOL    HW2 2232   4.287   2.361   0.925
  445SOL     OW 2233   2.280   6.070   3.817
  445SOL    HW1 2234   2.195   6.120   3.836
  445SOL    HW2 2235   2.287   5.991   3.878
  446SOL     OW 2236   0.348   6.745   0.526
  446SOL    HW1 2237   0.261   6.790   0.505
  446SOL    HW2 2238   0.370   6.759   0.623
  447SOL     OW 2239   6.452   3.234   0.231
  447SOL    HW1 2240   6.432   3.253   0.135
  447SOL    HW2 2241   6.476   3.138   0.243
  448SOL     OW 2242   3.566   6.876   4.381
  448SOL    HW1 2243   3.607   6.801   4.330
  448SOL    HW2 2244   3.601   6.963   4.346
  449SOL     OW 2245   0.937   3.945   5.029
  449SOL    HW1 2246   1.006   3.909   4.966
  449SOL    HW2 2247   0.901   4.031   4.993
  450SOL     OW 2248   6.349   3.746   4.003
  450SOL    HW1 2249   6.378   3.652   4.017
  450SOL    HW2 2250   6.415   3.793   3.944
  451SOL     OW 2251   2.723   1.611   6.484
  451SOL    HW1 2252   2.698   1.648   6.394
  451SOL    HW2 2253   2.816   1.576   6.481
  452SOL     OW 2254   4.800   4.830   1.353
  452SOL    HW1 2255   4.867   4.852   1.283
  452SOL    HW2 2256   4.753   4.913   1.382
  453SOL     OW 2257   4.255   1.012   0.172
  453SOL    HW1 2258   4.267   1.079   0.098
  453SOL    HW2 2259   4.158   1.008   0.197
  454SOL     OW 2260   6.868   2.932   3.586
  454SOL    HW1 2261   6.896   2.844   3.626
  454SOL    HW2 2262   6.783   2.920   3.535
  455SOL     OW 2263   5.816   5.415   0.394
  455SOL    HW1 2264   5.727   5.402   0.352
  455SOL    HW2 2265   5.805   5.431   0.493
  456SOL     OW 2266   1.658   1.232   3.133
  456SOL    HW1 2267   1.575   1.177   3.136
  456SOL    HW2 2268   1.720   1.204   3.206
  457SOL     OW 2269   3.017   5.953   0.766
  457SOL    HW1 2270   3.113   5.928   0.776
  457SOL    HW2 2271   3.001   5.989   0.674
  458SOL     OW 2272   3.110   1.117   4.238
  458SOL    HW1 2273   3.071   1.134   4.147
  458SOL    HW2 2274   3.041   1.073   4.295
  459SOL     OW 2275   3.148   1.389   3.916
  459SOL    HW1 2276   3.145   1.344   3.826
  459SOL    HW2 2277   3.226   1.353   3.968
  460SOL     OW 2278   1.096   1.545   6.833
  460SOL    HW1 2279   1.072   1.454   6.800
  460SOL    HW2 2280   1.020   1.608   6.813
  461SOL     OW 2281   1.155   7.013   4.485
  461SOL    HW1 2282   1.162   0.037   4.576
  461SOL    HW2 2283   1.240   0.011   4.435
  462SOL     OW 2284   3.788   4.028   5.243
  462SOL    HW1 2285   3.852   4.024   5.320
  462SOL    HW2 2286   3.712   4.089   5.266
  463SOL     OW 2287   5.803   6.380   3.108
  463SOL    HW1 2288   5.779   6.306   3.171
  463SOL    HW2 2289   5.747   6.461   3.128
  464SOL     OW 2290   4.260   5.975   4.830
  464SOL    HW1 2291   4.246   5.994   4.733
  464SOL    HW2 2292   4.188   6.020   4.883
  465SOL     OW 2293   0.433   5.529   0.980
  465SOL    HW1 2294   0.531   5.542   0.962
  465SOL    HW2 2295   0.385   5.516   0.893
  466SOL     OW 2296   3.375   4.924   3.788
  466SOL    HW1 2297   3.458   4.898   3.837
  466SOL    HW2 2298   3.299   4.932   3.852
  467SOL     OW 2299   0.040   6.918   1.289
  467SOL    HW1 2300   0.065   7.002   1.337
  467SOL    HW2 2301   0.117   6.854   1.290
  468SOL     OW 2302   2.582   6.645   6.791
  468SOL    HW1 2303   2.624   6.660   6.880
  468SOL    HW2 2304   2.594   6.728   6.735
  469SOL     OW 2305   3.876   4.999   5.510
  469SOL    HW1 2306   3.947   5.070   5.509
  469SOL    HW2 2307   3.918   4.909   5.519
  470SOL     OW 2308   2.819   5.009   2.222
  470SOL    HW1 2309   2.794   4.954   2.142
  470SOL    HW2 2310   2.854   5.098   2.193
  471SOL     OW 2311   1.222   2.261   4.171
  471SOL    HW1 2312   1.293   2.208   4.124
  471SOL    HW2 2313   1.252   2.280   4.265
  472SOL     OW 2314   5.101   3.745   6.589
  472SOL    HW1 2315   5.196   3.747   6.558
  472SOL    HW2 2316   5.048   3.687   6.527
  473SOL     OW 2317   5.446   3.528   1.881
  473SOL    HW1 2318   5.436   3.444   1.829
  473SOL    HW2 2319   5.543   3.547   1.897
  474SOL     OW 2320   4.968   4.979   3.991
  474SOL    HW1 2321   4.908   5.053   4.021
  474SOL    HW2 2322   5.034   5.014   3.925
  475SOL     OW 2323   4.764   1.241   0.503
  475SOL    HW1 2324   4.694   1.311   0.520
  475SOL    HW2 2325   4.814   1.223   0.587
  476SOL     OW 2326   1.273   2.719   6.930
  476SOL    HW1 2327   1.326   2.796   6.965
  476SOL    HW2 2328   1.177   2.730   6.955
  477SOL     OW 2329   5.617   5.909   4.017
  477SOL    HW1 2330   5.711   5.902   3.982
  477SOL    HW2 2331   5.607   5.850   4.097
  478SOL     OW 2332   6.758   5.083   1.630
  478SOL    HW1 2333   6.711   4.996   1.646
  478SOL    HW2 2334   6.813   5.107   1.710
  479SOL     OW 2335   3.651   3.653   2.882
  479SOL    HW1 2336   3.577   3.653   2.815
  479SOL    HW2 2337   3.651   3.740   2.932
  480SOL     OW 2338   0.048   0.290   1.909
  480SOL    HW1 2339   0.095   0.352   1.972
  480SOL    HW2 2340   0.005   0.344   1.836
  481SOL     OW 2341   6.213   6.395   1.090
  481SOL    HW1 2342   6.286   6.348   1.140
  481SOL    HW2 2343   6.204   6.356   0.999
  482SOL     OW 2344   3.758   5.029   2.994
  482SOL    HW1 2345   3.806   5.004   2.910
  482SOL    HW2 2346   3.661   5.040   2.974
  483SOL     OW 2347   5.889   2.152   4.723
  483SOL    HW1 2348   5.811   2.128   4.780
  483SOL    HW2 2349   5.878   2.246   4.689
  484SOL     OW 2350   2.580   5.457   3.692
  484SOL    HW1 2351   2.675   5.484   3.705
  484SOL    HW2 2352   2.549   5.406   3.773
  485SOL     OW 2353   4.686   2.710   0.887
  485SOL    HW1 2354   4.650   2.624   0.852
  485SOL    HW2 2355   4.701   2.702   0.985
  486SOL     OW 2356   5.836   6.257   5.335
  486SOL    HW1 2357   5.758   6.306   5.375
  486SOL    HW2 2358   5.882   6.203   5.406
  487SOL     OW 2359   6.526   0.918   6.733
  487SOL    HW1 2360   6.503   0.970   6.650
  487SOL    HW2 2361   6.454   0.851   6.750
  488SOL     OW 2362   1.648   6.253   3.935
  488SOL    HW1 2363   1.622   6.272   4.030
  488SOL    HW2 2364   1.676   6.338   3.890
  489SOL     OW 2365   2.723   4.503   5.329
  489SOL    HW1 2366   2.743   4.455   5.414
  489SOL    HW2 2367   2.807   4.516   5.277
  490SOL     OW 2368   1.291   3.686   5.082
  490SOL    HW1 2369   1.332   3.748   5.014
  490SOL    HW2 2370   1.207   3.727   5.117
  491SOL     OW 2371   6.215   3.354   1.451
  491SOL    HW1 2372   6.126   3.316   1.475
  491SOL    HW2 2373   6.264   3.380   1.535
  492SOL     OW 2374   1.583   2.559   5.467
  492SOL    HW1 2375   1.586   2.543   5.566
  492SOL    HW2 2376   1.490   2.542   5.434
  493SOL     OW 2377   1.487   5.684   3.653
  493SOL    HW1 2378   1.441   5.702   3.740
  493SOL    HW2 2379   1.586   5.680   3.667
  494SOL     OW 2380   2.771   0.072   2.513
  494SOL    HW1 2381   2.836   0.148   2.516
  494SOL    HW2 2382   2.781   0.016   2.594
  495SOL     OW 2383   4.063   4.392   0.203
  495SOL    HW1 2384   4.116   4.476   0.214
  495SOL    HW2 2385   3.968   4.408   0.228
  496SOL     OW 2386   4.941   0.017   3.072
  496SOL    HW1 2387   5.033   0.052   3.057
  496SOL    HW2 2388   4.874   0.091   3.062
  497SOL     OW 2389   4.902   2.997   0.992
  497SOL    HW1 2390   4.803   2.998   1.004
  497SOL    HW2 2391   4.925   3.020   0.898
  498SOL     OW 2392   1.125   6.963   0.896
  498SOL    HW1 2393   1.161   0.013   0.960
  498SOL    HW2 2394   1.201   6.907   0.862
  499SOL     OW 2395   2.894   6.698   6.526
  499SOL    HW1 2396   2.975   6.670   6.475
  499SOL    HW2 2397   2.812   6.657   6.485
  500SOL     OW 2398   6.114   1.462   6.142
  500SOL    HW1 2399   6.028   1.426   6.177
  500SOL    HW2 2400   6.110   1.466   6.042
  501SOL     OW 2401   1.612   2.247   4.413
  501SOL    HW1 2402   1.530   2.249   4.470
  501SOL    HW2 2403   1.687   2.291   4.462
  502SOL     OW 2404   3.090   2.841   0.129
  502SOL    HW1 2405   3.063   2.925   0.082
  502SOL    HW2 2406   3.078   2.852   0.228
  503SOL     OW 2407   4.140   5.531   1.286
  503SOL    HW1 2408   4.079   5.546   1.208
  503SOL    HW2 2409   4.086   5.500   1.365
  504SOL     OW 2410   6.034   0.943   0.047
  504SOL    HW1 2411   6.004   0.980   0.135
  504SOL    HW2 2412   6.034   1.016   6.997
  505SOL     OW 2413   0.325   3.779   5.348
  505SOL    HW1 2414   0.294   3.718   5.420
  505SOL    HW2 2415   0.392   3.843   5.385
  506SOL     OW 2416   2.821   5.883   2.128
  506SOL    HW1 2417   2.896   5.926   2.178
  506SOL    HW2 2418   2.787   5.804   2.179
  507SOL     OW 2419   2.819   6.870   4.088
  507SOL    HW1 2420   2.857   6.951   4.044
  507SOL    HW2 2421   2.722   6.885   4.108
  508SOL     OW 2422   0.615   5.028   2.829
  508SOL    HW1 2423   0.611   4.931   2.851
  508SOL    HW2 2424   0.528   5.071   2.852
  509SOL     OW 2425   4.802   0.671   5.849
  509SOL    HW1 2426   4.725   0.685   5.787
  509SOL    HW2 2427   4.789   0.725   5.932
  510SOL     OW 2428   6.792   4.653   0.217
  510SOL    HW1 2429   6.703   4.698   0.206
  510SOL    HW2 2430   6.799   4.579   0.150
  511SOL     OW 2431   0.096   1.981   0.722
  511SOL    HW1 2432   0.053   2.008   0.808
  511SOL    HW2 2433   0.195   1.992   0.728
  512SOL     OW 2434   1.510   1.833   4.827
  512SOL    HW1 2435   1.430   1.810   4.772
  512SOL    HW2 2436   1.500   1.926   4.862
  513SOL     OW 2437   5.632   5.602   2.876
  513SOL    HW1 2438   5.695   5.555   2.815
  513SOL    HW2 2439   5.682   5.633   2.957
  514SOL     OW 2440   5.045   1.255   4.539
  514SOL    HW1 2441   4.960   1.307   4.527
  514SOL    HW2 2442   5.032   1.187   4.611
  515SOL     OW 2443   3.112   0.592   6.645
  515SOL    HW1 2444   3.066   0.550   6.567
  515SOL    HW2 2445   3.062   0.571   6.729
  516SOL     OW 2446   0.605   5.661   2.986
  516SOL    HW1 2447   0.573   5.755   2.980
  516SOL    HW2 2448   0.565   5.616   3.066
  517SOL     OW 2449   3.506   5.343   0.586
  517SOL    HW1 2450   3.602   5.330   0.562
  517SOL    HW2 2451   3.473   5.263   0.635
  518SOL     OW 2452   1.825   0.072   3.910
  518SOL    HW1 2453   1.735   0.115   3.905
  518SOL    HW2 2454   1.871   0.080   3.821
  519SOL     OW 2455   6.622   6.863   2.956
  519SOL    HW1 2456   6.664   6.943   2.914
  519SOL    HW2 2457   6.676   6.781   2.935
  520SOL     OW 2458   3.500   5.675   0.671
  520SOL    HW1 2459   3.500   5.613   0.749
  520SOL    HW2 2460   3.484   5.623   0.587
  521SOL     OW 2461   0.269   6.812   5.325
  521SOL    HW1 2462   0.340   6.773   5.267
  521SOL    HW2 2463   0.292   6.794   5.421
  522SOL     OW 2464   3.197   5.326   6.715
  522SOL    HW1 2465   3.280   5.303   6.766
  522SOL    HW2 2466   3.159   5.411   6.750
  523SOL     OW 2467   1.784   6.731   5.983
  523SOL    HW1 2468   1.758   6.823   6.014
  523SOL    HW2 2469   1.724   6.704   5.907
  524SOL     OW 2470   6.688   1.399   1.409
  524SOL    HW1 2471   6.766   1.365   1.462
  524SOL    HW2 2472   6.648   1.477   1.456
  525SOL     OW 2473   0.589   3.204   3.456
  525SOL    HW1 2474   0.492   3.229   3.462
  525SOL    HW2 2475   0.599   3.122   3.400
  526SOL     OW 2476   3.975   6.116   4.725
  526SOL    HW1 2477   4.019   6.192   4.771
  526SOL    HW2 2478   4.025   6.094   4.640
  527SOL     OW 2479   6.504   1.214   0.671
  527SOL    HW1 2480   6.588   1.160   0.684
  527SOL    HW2 2481   6.446   1.168   0.603
  528SOL     OW 2482   0.269   1.499   3.920
  528SOL    HW1 2483   0.353   1.541   3.957
  528SOL    HW2 2484   0.218   1.568   3.869
  529SOL     OW 2485   1.067   1.455   5.912
  529SOL    HW1 2486   1.021   1.521   5.971
  529SOL    HW2 2487   1.163   1.446   5.940
  530SOL     OW 2488   3.436   4.427   1.695
  530SOL    HW1 2489   3.452   4.337   1.734
  530SOL    HW2 2490   3.499   4.493   1.737
  531SOL     OW 2491   0.233   1.399   5.775
  531SOL    HW1 2492   0.306   1.401   5.843
  531SOL    HW2 2493   0.220   1.491   5.738
  532SOL     OW 2494   3.656   0.774   6.742
  532SOL    HW1 2495   3.657   0.711   6.665
  532SOL    HW2 2496   3.707   0.857   6.718
  533SOL     OW 2497   3.672   0.203   4.894
  533SOL    HW1 2498   3.694   0.277   4.830
  533SOL    HW2 2499   3.650   0.120   4.842
  534SOL     OW 2500   2.290   4.223   1.358
  534SOL    HW1 2501   2.207   4.212   1.303
  534SOL    HW2 2502   2.317   4.134   1.395
  535SOL     OW 2503   4.683   4.216   3.281
  535SOL    HW1 2504   4.631   4.284   3.332
  535SOL    HW2 2505   4.723   4.150   3.345
  536SOL     OW 2506   6.465   0.083   1.154
  536SOL    HW1 2507   6.538   0.067   1.088
  536SOL    HW2 2508   6.475   0.020   1.232
  537SOL     OW 2509   3.050   1.722   2.607
  537SOL    HW1 2510   3.127   1.786   2.608
  537SOL    HW2 2511   3.015   1.714   2.513
  538SOL     OW 2512   3.913   5.250   6.006
  538SOL    HW1 2513   3.939   5.331   6.058
  538SOL    HW2 2514   3.922   5.268   5.908
  539SOL     OW 2515   2.592   0.258   0.008
  539SOL    HW1 2516   2.585   0.191   0.082
  539SOL    HW2 2517   2.593   0.212   6.938
  540SOL     OW 2518   2.483   1.551   5.499
  540SOL    HW1 2519   2.456   1.642   5.467
  540SOL    HW2 2520   2.551   1.513   5.436
  541SOL     OW 2521   5.496   5.651   2.092
  541SOL    HW1 2522   5.398   5.633   2.085
  541SOL    HW2 2523   5.512   5.749   2.084
  542SOL     OW 2524   3.870   5.727   5.938
  542SOL    HW1 2525   3.833   5.813   5.901
  542SOL    HW2 2526   3.943   5.748   6.003
  543SOL     OW 2527   6.821   1.871   4.969
  543SOL    HW1 2528   6.869   1.957   4.980
  543SOL    HW2 2529   6.872   1.812   4.906
  544SOL     OW 2530   1.093   2.409   1.274
  544SOL    HW1 2531   1.087   2.341   1.347
  544SOL    HW2 2532   1.003   2.447   1.256
  545SOL     OW 2533   0.063   5.595   0.578
  545SOL    HW1 2534   0.004   5.543   0.517
  545SOL    HW2 2535   0.112   5.665   0.525
  546SOL     OW 2536   6.499   5.989   2.963
  546SOL    HW1 2537   6.426   6.025   3.020
  546SOL    HW2 2538   6.523   6.056   2.893
  547SOL     OW 2539   3.712   6.294   6.880
  547SOL    HW1 2540   3.786   6.360   6.894
  547SOL    HW2 2541   3.630   6.325   6.930
  548SOL     OW 2542   4.116   3.120   6.511
  548SOL    HW1 2543   4.177   3.055   6.557
  548SOL    HW2 2544   4.021   3.089   6.522
  549SOL     OW 2545   5.462   2.543   3.853
  549SOL    HW1 2546   5.433   2.635   3.882
  549SOL    HW2 2547   5.386   2.479   3.866
  550SOL     OW 2548   0.166   5.561   4.004
  550SOL    HW1 2549   0.255   5.526   4.034
  550SOL    HW2 2550   0.119   5.490   3.952
  551SOL     OW 2551   5.310   0.740   0.275
  551SOL    HW1 2552   5.349   0.801   0.345
  551SOL    HW2 2553   5.252   0.793   0.214
  552SOL     OW 2554   0.829   0.355   4.656
  552SOL    HW1 2555   0.834   0.312   4.747
  552SOL    HW2 2556   0.922   0.363   4.619
  553SOL     OW 2557   3.926   2.205   5.460
  553SOL    HW1 2558   3.952   2.193   5.555
  553SOL    HW2 2559   3.947   2.298   5.431
  554SOL     OW 2560   0.364   4.988   0.425
  554SOL    HW1 2561   0.336   5.064   0.367
  554SOL    HW2 2562   0.363   5.017   0.521
  555SOL     OW 2563   3.580   4.894   5.966
  555SOL    HW1 2564   3.563   4.818   5.903
  555SOL    HW2 2565   3.648   4.956   5.928
  556SOL     OW 2566   5.675   6.209   3.299
  556SOL    HW1 2567   5.683   6.109   3.294
  556SOL    HW2 2568   5.614   6.233   3.375
  557SOL     OW 2569   6.537   3.466   0.351
  557SOL    HW1 2570   6.621   3.418   0.327
  557SOL    HW2 2571   6.459   3.405   0.341
  558SOL     OW 2572   3.282   3.486   2.011
  558SOL    HW1 2573   3.279   3.532   2.100
  558SOL    HW2 2574   3.192   3.446   1.992
  559SOL     OW 2575   6.230   0.934   6.238
  559SOL    HW1 2576   6.226   1.019   6.290
  559SOL    HW2 2577   6.207   0.857   6.298
  560SOL     OW 2578   1.735   2.436   3.237
  560SOL    HW1 2579   1.702   2.341   3.235
  560SOL    HW2 2580   1.826   2.439   3.278
  561SOL     OW 2581   0.039   4.125   0.101
  561SOL    HW1 2582   6.958   4.111   0.096
  561SOL    HW2 2583   0.062   4.165   0.190
  562SOL     OW 2584   3.398   5.883   3.435
  562SOL    HW1 2585   3.415   5.966   3.381
  562SOL    HW2 2586   3.452   5.886   3.519
  563SOL     OW 2587   0.735   0.916   4.139
  563SOL    HW1 2588   0.794   0.847   4.098
  563SOL    HW2 2589   0.641   0.881   4.142
  564SOL     OW 2590   6.103   1.652   5.839
  564SOL    HW1 2591   6.052   1.572   5.807
  564SOL    HW2 2592   6.117   1.715   5.762
  565SOL     OW 2593   3.462   3.509   3.601
  565SOL    HW1 2594   3.425   3.508   3.508
  565SOL    HW2 2595   3.388   3.490   3.666
  566SOL     OW 2596   0.958   2.783   3.537
  566SOL    HW1 2597   0.948   2.698   3.486
  566SOL    HW2 2598   0.901   2.778   3.620
  567SOL     OW 2599   1.629   3.160   5.141
  567SOL    HW1 2600   1.649   3.074   5.188
  567SOL    HW2 2601   1.657   3.237   5.199
  568SOL     OW 2602   1.161   0.666   6.758
  568SOL    HW1 2603   1.165   0.571   6.725
  568SOL    HW2 2604   1.066   0.697   6.762
  569SOL     OW 2605   5.136   3.400   5.082
  569SOL    HW1 2606   5.196   3.353   5.018
  569SOL    HW2 2607   5.171   3.387   5.175
  570SOL     OW 2608   3.281   0.361   5.668
  570SOL    HW1 2609   3.185   0.387   5.665
  570SOL    HW2 2610   3.335   0.439   5.701
  571SOL     OW 2611   2.311   4.235   2.153
  571SOL    HW1 2612   2.326   4.330   2.182
  571SOL    HW2 2613   2.373   4.214   2.077
  572SOL     OW 2614   2.655   1.712   4.865
  572SOL    HW1 2615   2.575   1.719   4.805
  572SOL    HW2 2616   2.733   1.759   4.822
  573SOL     OW 2617   0.522   0.025   5.840
  573SOL    HW1 2618   0.425   0.044   5.827
  573SOL    HW2 2619   0.553   0.070   5.924
  574SOL     OW 2620   2.505   0.888   5.767
  574SOL    HW1 2621   2.561   0.959   5.810
  574SOL    HW2 2622   2.408   0.911   5.779
  575SOL     OW 2623   4.081   3.646   0.543
  575SOL    HW1 2624   4.029   3.624   0.626
  575SOL    HW2 2625   4.027   3.621   0.463
  576SOL     OW 2626   6.918   0.513   3.604
  576SOL    HW1 2627   6.938   0.603   3.565
  576SOL    HW2 2628   6.820   0.494   3.595
  577SOL     OW 2629   0.185   0.176   2.234
  577SOL    HW1 2630   0.272   0.128   2.239
  577SOL    HW2 2631   0.119   0.134   2.296
  578SOL     OW 2632   4.093   6.694   0.847
  578SOL    HW1 2633   4.185   6.701   0.886
  578SOL    HW2 2634   4.077   6.772   0.786
  579SOL     OW 2635   0.453   3.892   1.616
  579SOL    HW1 2636   0.469   3.830   1.692
  579SOL    HW2 2637   0.533   3.951   1.603
  580SOL     OW 2638   4.567   4.782   4.986
  580SOL    HW1 2639   4.571   4.869   4.937
  580SOL    HW2 2640   4.495   4.786   5.055
  581SOL     OW 2641   2.539   2.508   3.768
  581SOL    HW1 2642   2.543   2.426   3.825
  581SOL    HW2 2643   2.618   2.511   3.708
  582SOL     OW 2644   5.550   3.980   4.941
  582SOL    HW1 2645   5.460   3.946   4.916
  582SOL    HW2 2646   5.552   4.000   5.039
  583SOL     OW 2647   3.127   5.651   5.719
  583SOL    HW1 2648   3.163   5.592   5.647
  583SOL    HW2 2649   3.200   5.709   5.755
  584SOL     OW 2650   3.897   0.526   5.265
  584SOL    HW1 2651   3.842   0.584   5.205
  584SOL    HW2 2652   3.837   0.480   5.331
  585SOL     OW 2653   3.958   6.382   1.784
  585SOL    HW1 2654   4.009   6.458   1.744
  585SOL    HW2 2655   4.012   6.298   1.778
  586SOL     OW 2656   3.645   0.254   0.827
  586SOL    HW1 2657   3.632   0.253   0.926
  586SOL    HW2 2658   3.558   0.274   0.782
  587SOL     OW 2659   4.733   0.503   2.865
  587SOL    HW1 2660   4.790   0.582   2.889
  587SOL    HW2 2661   4.782   0.419   2.887
  588SOL     OW 2662   2.220   4.087   2.604
  588SOL    HW1 2663   2.277   4.083   2.522
  588SOL    HW2 2664   2.147   4.018   2.598
  589SOL     OW 2665   3.183   4.539   6.115
  589SOL    HW1 2666   3.123   4.608   6.155
  589SOL    HW2 2667   3.278   4.565   6.130
  590SOL     OW 2668   2.166   1.915   6.055
  590SOL    HW1 2669   2.258   1.875   6.047
  590SOL    HW2 2670   2.102   1.845   6.085
  591SOL     OW 2671   2.768   0.326   4.006
  591SOL    HW1 2672   2.813   0.323   4.095
  591SOL    HW2 2673   2.786   0.241   3.957
  592SOL     OW 2674   4.493   2.203   4.294
  592SOL    HW1 2675   4.410   2.255   4.273
  592SOL    HW2 2676   4.534   2.172   4.208
  593SOL     OW 2677   1.442   0.184   0.147
  593SOL    HW1 2678   1.512   0.122   0.112
  593SOL    HW2 2679   1.434   0.264   0.087
  594SOL     OW 2680   3.230   1.209   5.152
  594SOL    HW1 2681   3.264   1.267   5.226
  594SOL    HW2 2682   3.131   1.200   5.159
  595SOL     OW 2683   6.264   3.911   2.152
  595SOL    HW1 2684   6.250   3.842   2.081
  595SOL    HW2 2685   6.320   3.872   2.225
  596SOL     OW 2686   6.363   4.648   4.449
  596SOL    HW1 2687   6.367   4.731   4.394
  596SOL    HW2 2688   6.435   4.586   4.420
  597SOL     OW 2689   4.106   1.648   6.577
  597SOL    HW1 2690   4.092   1.743   6.548
  597SOL    HW2 2691   4.095   1.641   6.676
  598SOL     OW 2692   3.429   3.109   2.245
  598SOL    HW1 2693   3.346   3.066   2.210
  598SOL    HW2 2694   3.474   3.047   2.309
  599SOL     OW 2695   1.781   4.857   1.448
  599SOL    HW1 2696   1.721   4.787   1.409
  599SOL    HW2 2697   1.859   4.812   1.492
  600SOL     OW 2698   0.267   3.155   6.043
  600SOL    HW1 2699   0.338   3.085   6.057
  600SOL    HW2 2700   0.243   3.158   5.946
  601SOL     OW 2701   0.053   0.140   5.697
  601SOL    HW1 2702   0.007   0.175   5.614
  601SOL    HW2 2703   0.107   0.214   5.738
  602SOL     OW 2704   0.432   0.522   3.146
  602SOL    HW1 2705   0.482   0.606   3.124
  602SOL    HW2 2706   0.333   0.538   3.134
  603SOL     OW 2707   1.384   1.662   3.794
  603SOL    HW1 2708   1.468   1.627   3.837
  603SOL    HW2 2709   1.319   1.588   3.783
  604SOL     OW 2710   5.535   2.016   0.766
  604SOL    HW1 2711   5.469   1.943   0.786
  604SOL    HW2 2712   5.551   2.020   0.668
  605SOL     OW 2713   5.431   6.424   1.990
  605SOL    HW1 2714   5.379   6.356   2.042
  605SOL    HW2 2715   5.377   6.507   1.981
  606SOL     OW 2716   2.948   6.308   5.206
  606SOL    HW1 2717   2.867   6.351   5.246
  606SOL    HW2 2718   2.942   6.311   5.107
  607SOL     OW 2719   1.609   3.389   6.044
  607SOL    HW1 2720   1.612   3.472   5.989
  607SOL    HW2 2721   1.699   3.346   6.046
  608SOL     OW 2722   2.925   1.315   6.892
  608SOL    HW1 2723   2.936   1.306   6.793
  608SOL    HW2 2724   2.891   1.406   6.914
  609SOL     OW 2725   4.065   3.181   2.477
  609SOL    HW1 2726   4.157   3.186   2.439
  609SOL    HW2 2727   4.063   3.225   2.567
  610SOL     OW 2728   5.197   2.596   2.040
  610SOL    HW1 2729   5.270   2.533   2.067
  610SOL    HW2 2730   5.187   2.668   2.108
  611SOL     OW 2731   3.732   1.574   2.016
  611SOL    HW1 2732   3.743   1.580   1.917
  611SOL    HW2 2733   3.654   1.516   2.038
  612SOL     OW 2734   4.167   5.362   4.209
  612SOL    HW1 2735   4.098   5.305   4.255
  612SOL    HW2 2736   4.258   5.323   4.224
  613SOL     OW 2737   3.858   5.661   6.631
  613SOL    HW1 2738   3.848   5.697   6.539
  613SOL    HW2 2739   3.771   5.669   6.680
  614SOL     OW 2740   3.492   6.016   6.109
  614SOL    HW1 2741   3.540   6.074   6.043
  614SOL    HW2 2742   3.406   5.985   6.069
  615SOL     OW 2743   6.803   5.066   3.587
  615SOL    HW1 2744   6.791   4.985   3.645
  615SOL    HW2 2745   6.888   5.112   3.611
  616SOL     OW 2746   5.796   2.621   3.868
  616SOL    HW1 2747   5.852   2.608   3.949
  616SOL    HW2 2748   5.729   2.547   3.861
  617SOL     OW 2749   2.261   0.638   5.925
  617SOL    HW1 2750   2.285   0.662   6.019
  617SOL    HW2 2751   2.234   0.542   5.921
  618SOL     OW 2752   2.323   0.553   2.871
  618SOL    HW1 2753   2.339   0.461   2.906
  618SOL    HW2 2754   2.293   0.549   2.776
  619SOL     OW 2755   1.053   2.309   6.595
  619SOL    HW1 2756   1.026   2.247   6.521
  619SOL    HW2 2757   1.003   2.286   6.678
  620SOL     OW 2758   4.824   4.112   0.748
  620SOL    HW1 2759   4.739   4.127   0.799
  620SOL    HW2 2760   4.889   4.062   0.805
  621SOL     OW 2761   0.225   5.907   0.993
  621SOL    HW1 2762   0.270   5.888   1.080
  621SOL    HW2 2763   0.183   5.998   0.997
  622SOL     OW 2764   1.046   1.290   6.738
  622SOL    HW1 2765   1.089   1.207   6.773
  622SOL    HW2 2766   0.951   1.271   6.714
  623SOL     OW 2767   6.323   5.944   5.411
  623SOL    HW1 2768   6.328   5.879   5.335
  623SOL    HW2 2769   6.245   6.005   5.398
  624SOL     OW 2770   0.049   1.649   1.220
  624SOL    HW1 2771   6.990   1.591   1.246
  624SOL    HW2 2772   0.039   1.677   1.124
  625SOL     OW 2773   1.261   0.718   1.968
  625SOL    HW1 2774   1.317   0.801   1.971
  625SOL    HW2 2775   1.176   0.734   2.018
  626SOL     OW 2776   3.873   5.341   5.284
  626SOL    HW1 2777   3.957   5.395   5.272
  626SOL    HW2 2778   3.804   5.396   5.330
  627SOL     OW 2779   4.442   5.628   0.378
  627SOL    HW1 2780   4.352   5.626   0.420
  627SOL    HW2 2781   4.436   5.667   0.286
  628SOL     OW 2782   4.909   3.324   3.832
  628SOL    HW1 2783   4.994   3.333   3.885
  628SOL    HW2 2784   4.908   3.234   3.788
  629SOL     OW 2785   1.740   6.887   1.224
  629SOL    HW1 2786   1.736   6.855   1.130
  629SOL    HW2 2787   1.777   6.980   1.227
  630SOL     OW 2788   2.640   1.463   1.964
  630SOL    HW1 2789   2.584   1.506   1.893
  630SOL    HW2 2790   2.581   1.435   2.040
  631SOL     OW 2791   2.396   1.492   4.116
  631SOL    HW1 2792   2.354   1.403   4.099
  631SOL    HW2 2793   2.463   1.511   4.044
  632SOL     OW 2794   3.036   1.137   0.301
  632SOL    HW1 2795   3.038   1.218   0.360
  632SOL    HW2 2796   3.064   1.164   0.209
  633SOL     OW 2797   2.068   0.390   4.474
  633SOL    HW1 2798   2.123   0.415   4.395
  633SOL    HW2 2799   2.038   0.295   4.465
  634SOL     OW 2800   3.130   5.665   1.897
  634SOL    HW1 2801   3.036   5.695   1.880
  634SOL    HW2 2802   3.151   5.676   1.994
  635SOL     OW 2803   3.321   0.306   1.941
  635SOL    HW1 2804   3.227   0.289   1.911
  635SOL    HW2 2805   3.320   0.339   2.035
  636SOL     OW 2806   4.974   4.566   6.737
  636SOL    HW1 2807   4.902   4.579   6.805
  636SOL    HW2 2808   5.044   4.637   6.748
  637SOL     OW 2809   5.872   5.013   6.198
  637SOL    HW1 2810   5.847   5.097   6.149
  637SOL    HW2 2811   5.822   5.009   6.284
  638SOL     OW 2812   5.333   1.766   3.506
  638SOL    HW1 2813   5.386   1.724   3.432
  638SOL    HW2 2814   5.274   1.697   3.548
  639SOL     OW 2815   3.656   3.610   1.539
  639SOL    HW1 2816   3.603   3.536   1.581
  639SOL    HW2 2817   3.616   3.698   1.566
  640SOL     OW 2818   3.020   2.427   5.403
  640SOL    HW1 2819   3.049   2.396   5.312
  640SOL    HW2 2820   3.100   2.434   5.463
  641SOL     OW 2821   0.157   0.125   5.054
  641SOL    HW1 2822   0.214   0.158   5.129
  641SOL    HW2 2823   0.188   0.164   4.968
  642SOL     OW 2824   0.366   4.747   5.812
  642SOL    HW1 2825   0.293   4.809   5.781
  642SOL    HW2 2826   0.422   4.794   5.880
  643SOL     OW 2827   5.340   6.497   4.608
  643SOL    HW1 2828   5.363   6.591   4.635
  643SOL    HW2 2829   5.302   6.448   4.686
  644SOL     OW 2830   3.385   6.113   1.838
  644SOL    HW1 2831   3.316   6.115   1.910
  644SOL    HW2 2832   3.403   6.018   1.812
  645SOL     OW 2833   0.679   2.986   2.845
  645SOL    HW1 2834   0.627   2.970   2.929
  645SOL    HW2 2835   0.705   2.898   2.805
  646SOL     OW 2836   1.695   3.159   4.439
  646SOL    HW1 2837   1.776   3.110   4.406
  646SOL    HW2 2838   1.656   3.111   4.518
  647SOL     OW 2839   5.612   5.016   0.414
  647SOL    HW1 2840   5.580   4.922   0.429
  647SOL    HW2 2841   5.690   5.034   0.474
  648SOL     OW 2842   4.046   2.208   4.037
  648SOL    HW1 2843   3.961   2.158   4.025
  648SOL    HW2 2844   4.089   2.222   3.947
  649SOL     OW 2845   4.022   4.451   1.291
  649SOL    HW1 2846   4.036   4.352   1.280
  649SOL    HW2 2847   4.097   4.500   1.247
  650SOL     OW 2848   5.668   5.492   0.100
  650SOL    HW1 2849   5.645   5.453   0.189
  650SOL    HW2 2850   5.587   5.537   0.061
  651SOL     OW 2851   1.399   5.601   6.259
  651SOL    HW1 2852   1.493   5.567   6.273
  651SOL    HW2 2853   1.396   5.656   6.176
  652SOL     OW 2854   5.065   2.863   1.204
  652SOL    HW1 2855   4.981   2.903   1.168
  652SOL    HW2 2856   5.136   2.865   1.134
  653SOL     OW 2857   3.504   5.420   3.143
  653SOL    HW1 2858   3.474   5.352   3.076
  653SOL    HW2 2859   3.570   5.378   3.206
  654SOL     OW 2860   0.122   5.191   0.074
  654SOL    HW1 2861   0.130   5.207   6.994
  654SOL    HW2 2862   0.039   5.139   0.093
  655SOL     OW 2863   1.872   1.692   0.699
  655SOL    HW1 2864   1.896   1.681   0.795
  655SOL    HW2 2865   1.941   1.748   0.653
  656SOL     OW 2866   1.709   6.859   0.952
  656SOL    HW1 2867   1.636   6.791   0.948
  656SOL    HW2 2868   1.788   6.826   0.901
  657SOL     OW 2869   3.780   0.196   6.725
  657SOL    HW1 2870   3.798   0.125   6.793
  657SOL    HW2 2871   3.816   0.284   6.757
  658SOL     OW 2872   3.577   5.501   0.250
  658SOL    HW1 2873   3.561   5.408   0.218
  658SOL    HW2 2874   3.573   5.565   0.173
  659SOL     OW 2875   3.825   0.297   6.186
  659SOL    HW1 2876   3.903   0.323   6.244
  659SOL    HW2 2877   3.783   0.215   6.222
  660SOL     OW 2878   2.917   6.685   3.703
  660SOL    HW1 2879   2.935   6.780   3.678
  660SOL    HW2 2880   2.948   6.624   3.630
  661SOL     OW 2881   6.782   4.989   2.784
  661SOL    HW1 2882   6.688   4.997   2.754
  661SOL    HW2 2883   6.793   5.035   2.872
  662SOL     OW 2884   4.466   2.245   6.776
  662SOL    HW1 2885   4.448   2.314   6.846
  662SOL    HW2 2886   4.513   2.167   6.818
  663SOL     OW 2887   1.548   4.065   4.512
  663SOL    HW1 2888   1.565   4.073   4.414
  663SOL    HW2 2889   1.574   4.150   4.558
  664SOL     OW 2890   5.896   6.770   6.214
  664SOL    HW1 2891   5.953   6.725   6.282
  664SOL    HW2 2892   5.833   6.704   6.174
  665SOL     OW 2893   1.825   4.035   2.253
  665SOL    HW1 2894   1.729   4.040   2.226
  665SOL    HW2 2895   1.839   3.956   2.312
  666SOL     OW 2896   3.953   0.775   2.724
  666SOL    HW1 2897   3.964   0.855   2.665
  666SOL    HW2 2898   3.857   0.766   2.751
  667SOL     OW 2899   0.148   0.519   1.434
  667SOL    HW1 2900   0.144   0.467   1.349
  667SOL    HW2 2901   0.239   0.512   1.473
  668SOL     OW 2902   4.960   3.330   6.550
  668SOL    HW1 2903   4.884   3.306   6.610
  668SOL    HW2 2904   5.044   3.338   6.604
  669SOL     OW 2905   5.358   1.353   2.958
  669SOL    HW1 2906   5.378   1.309   2.871
  669SOL    HW2 2907   5.363   1.452   2.947
  670SOL     OW 2908   3.961   1.822   2.020
  670SOL    HW1 2909   3.908   1.738   2.003
  670SOL    HW2 2910   3.904   1.902   2.002
  671SOL     OW 2911   0.968   5.745   1.928
  671SOL    HW1 2912   1.002   5.790   1.845
  671SOL    HW2 2913   1.016   5.659   1.942
  672SOL     OW 2914   0.338   0.044   1.033
  672SOL    HW1 2915   0.347   6.963   1.035
  672SOL    HW2 2916   0.389   0.085   1.109
  673SOL     OW 2917   6.255   6.952   6.234
  673SOL    HW1 2918   6.158   6.977   6.238
  673SOL    HW2 2919   6.310   0.015   6.218
  674SOL     OW 2920   4.802   6.924   4.608
  674SOL    HW1 2921   4.731   6.867   4.650
  674SOL    HW2 2922   4.891   6.901   4.648
  675SOL     OW 2923   1.341   5.358   2.691
  675SOL    HW1 2924   1.297   5.445   2.714
  675SOL    HW2 2925   1.304   5.324   2.604
  676SOL     OW 2926   2.339   5.686   6.673
  676SOL    HW1 2927   2.340   5.610   6.738
  676SOL    HW2 2928   2.431   5.726   6.666
  677SOL     OW 2929   5.584   0.416   1.358
  677SOL    HW1 2930   5.624   0.487   1.300
  677SOL    HW2 2931   5.655   0.352   1.387
  678SOL     OW 2932   0.584   5.518   4.254
  678SOL    HW1 2933   0.554   5.569   4.334
  678SOL    HW2 2934   0.635   5.579   4.193
  679SOL     OW 2935   5.530   1.043   5.749
  679SOL    HW1 2936   5.508   1.141   5.741
  679SOL    HW2 2937   5.592   1.016   5.675
  680SOL     OW 2938   5.745   6.981   4.323
  680SOL    HW1 2939   5.653   6.944   4.316
  680SOL    HW2 2940   5.801   6.921   4.381
  681SOL     OW 2941   4.478   4.559   2.695
  681SOL    HW1 2942   4.534   4.476   2.691
  681SOL    HW2 2943   4.406   4.554   2.626
  682SOL     OW 2944   6.146   1.311   2.984
  682SOL    HW1 2945   6.111   1.386   2.929
  682SOL    HW2 2946   6.220   1.265   2.934
  683SOL     OW 2947   3.253   5.297   0.053
  683SOL    HW1 2948   3.170   5.264   0.097
  683SOL    HW2 2949   3.255   5.397   0.057
  684SOL     OW 2950   5.977   1.921   6.326
  684SOL    HW1 2951   5.986   1.878   6.236
  684SOL    HW2 2952   5.963   2.019   6.314
  685SOL     OW 2953   3.226   6.538   3.378
  685SOL    HW1 2954   3.263   6.491   3.298
  685SOL    HW2 2955   3.239   6.481   3.459
  686SOL     OW 2956   3.444   0.559   5.741
  686SOL    HW1 2957   3.434   0.608   5.828
  686SOL    HW2 2958   3.542   0.546   5.722
  687SOL     OW 2959   0.273   0.763   4.405
  687SOL    HW1 2960   0.216   0.820   4.463
  687SOL    HW2 2961   0.344   0.719   4.461
  688SOL     OW 2962   4.892   3.604   6.830
  688SOL    HW1 2963   4.979   3.648   6.853
  688SOL    HW2 2964   4.849   3.571   6.914
  689SOL     OW 2965   2.745   5.718   0.200
  689SOL    HW1 2966   2.773   5.697   0.293
  689SOL    HW2 2967   2.692   5.803   0.199
  690SOL     OW 2968   5.828   3.659   3.974
  690SOL    HW1 2969   5.822   3.755   3.998
  690SOL    HW2 2970   5.821   3.648   3.875
  691SOL     OW 2971   5.251   0.518   2.888
  691SOL    HW1 2972   5.199   0.504   2.803
  691SOL    HW2 2973   5.227   0.606   2.928
  692SOL     OW 2974   1.067   0.190   3.324
  692SOL    HW1 2975   1.099   0.161   3.234
  692SOL    HW2 2976   1.142   0.187   3.389
  693SOL     OW 2977   6.005   4.048   2.154
  693SOL    HW1 2978   5.985   4.097   2.239
  693SOL    HW2 2979   6.100   4.018   2.153
  694SOL     OW 2980   4.478   4.459   4.310
  694SOL    HW1 2981   4.485   4.469   4.409
  694SOL    HW2 2982   4.559   4.412   4.275
  695SOL     OW 2983   4.516   0.032   3.956
  695SOL    HW1 2984   4.546   0.035   4.052
  695SOL    HW2 2985   4.444   0.099   3.941
  696SOL     OW 2986   6.775   4.686   1.996
  696SOL    HW1 2987   6.862   4.736   1.988
  696SOL    HW2 2988   6.785   4.596   1.953
  697SOL     OW 2989   0.362   6.163   3.344
  697SOL    HW1 2990   0.269   6.143   3.313
  697SOL    HW2 2991   0.425   6.094   3.310
  698SOL     OW 2992   5.682   6.197   5.736
  698SOL    HW1 2993   5.752   6.266   5.757
  698SOL    HW2 2994   5.609   6.240   5.682
  699SOL     OW 2995   3.901   2.934   0.479
  699SOL    HW1 2996   3.995   2.967   0.489
  699SOL    HW2 2997   3.840   2.988   0.536
  700SOL     OW 2998   3.797   6.515   5.586
  700SOL    HW1 2999   3.894   6.509   5.563
  700SOL    HW2 3000   3.758   6.596   5.542
  701SOL     OW 3001   4.567   4.447   1.758
  701SOL    HW1 3002   4.660   4.423   1.785
  701SOL    HW2 3003   4.505   4.372   1.783
  702SOL     OW 3004   4.134   0.973   5.097
  702SOL    HW1 3005   4.229   0.945   5.080
  702SOL    HW2 3006   4.120   1.065   5.062
  703SOL     OW 3007   3.739   2.673   0.586
  703SOL    HW1 3008   3.708   2.697   0.494
  703SOL    HW2 3009   3.761   2.757   0.637
  704SOL     OW 3010   3.953   2.020   0.166
  704SOL    HW1 3011   3.912   1.930   0.149
  704SOL    HW2 3012   4.038   2.028   0.114
  705SOL     OW 3013   6.947   6.600   5.941
  705SOL    HW1 3014   6.881   6.581   5.869
  705SOL    HW2 3015   6.989   6.515   5.972
  706SOL     OW 3016   3.922   0.504   4.946
  706SOL    HW1 3017   3.972   0.456   5.018
  706SOL    HW2 3018   3.924   0.602   4.964
  707SOL     OW 3019   3.276   4.956   4.174
  707SOL    HW1 3020   3.211   4.956   4.251
  707SOL    HW2 3021   3.226   4.939   4.089
  708SOL     OW 3022   2.860   6.359   4.078
  708SOL    HW1 3023   2.877   6.268   4.040
  708SOL    HW2 3024   2.835   6.422   4.004
  709SOL     OW 3025   2.316   6.737   1.775
  709SOL    HW1 3026   2.305   6.775   1.683
  709SOL    HW2 3027   2.339   6.811   1.839
  710SOL     OW 3028   4.916   2.362   2.375
  710SOL    HW1 3029   4.955   2.339   2.286
  710SOL    HW2 3030   4.889   2.458   2.376
  711SOL     OW 3031   6.942   1.254   1.010
  711SOL    HW1 3032   6.911   1.160   0.996
  711SOL    HW2 3033   0.019   1.263   0.981
  712SOL     OW 3034   4.448   4.498   7.015
  712SOL    HW1 3035   4.547   4.493   7.018
  712SOL    HW2 3036   4.417   4.587   0.032
  713SOL     OW 3037   3.880   2.748   5.816
  713SOL    HW1 3038   3.836   2.837   5.825
  713SOL    HW2 3039   3.842   2.685   5.884
  714SOL     OW 3040   4.216   6.773   3.134
  714SOL    HW1 3041   4.291   6.803   3.076
  714SOL    HW2 3042   4.158   6.710   3.082
  715SOL     OW 3043   6.043   4.139   5.522
  715SOL    HW1 3044   6.068   4.163   5.616
  715SOL    HW2 3045   6.005   4.220   5.476
  716SOL     OW 3046   3.215   1.493   3.515
  716SOL    HW1 3047   3.309   1.465   3.536
  716SOL    HW2 3048   3.216   1.556   3.438
  717SOL     OW 3049   5.612   4.588   3.319
  717SOL    HW1 3050   5.520   4.591   3.358
  717SOL    HW2 3051   5.605   4.579   3.219
  718SOL     OW 3052   6.539   1.962   5.268
  718SOL    HW1 3053   6.589   2.040   5.229
  718SOL    HW2 3054   6.572   1.945   5.361
  719SOL     OW 3055   4.531   5.366   2.450
  719SOL    HW1 3056   4.629   5.351   2.446
  719SOL    HW2 3057   4.494   5.323   2.533
  720SOL     OW 3058   2.944   1.579   1.046
  720SOL    HW1 3059   2.984   1.603   1.134
  720SOL    HW2 3060   2.848   1.608   1.044
  721SOL     OW 3061   6.964   2.737   2.442
  721SOL    HW1 3062   0.018   2.678   2.478
  721SOL    HW2 3063   6.924   2.789   2.517
  722SOL     OW 3064   5.256   6.246   2.116
  722SOL    HW1 3065   5.221   6.253   2.209
  722SOL    HW2 3066   5.315   6.166   2.108
  723SOL     OW 3067   2.295   0.469   4.631
  723SOL    HW1 3068   2.290   0.557   4.585
  723SOL    HW2 3069   2.219   0.411   4.601
  724SOL     OW 3070   1.240   2.743   4.696
  724SOL    HW1 3071   1.268   2.832   4.733
  724SOL    HW2 3072   1.288   2.670   4.745
  725SOL     OW 3073   1.586   4.237   3.415
  725SOL    HW1 3074   1.569   4.324   3.370
  725SOL    HW2 3075   1.674   4.200   3.385
  726SOL     OW 3076   2.423   3.526   0.273
  726SOL    HW1 3077   2.488   3.598   0.296
  726SOL    HW2 3078   2.473   3.444   0.243
  727SOL     OW 3079   3.915   5.225   4.989
  727SOL    HW1 3080   3.887   5.301   5.048
  727SOL    HW2 3081   3.992   5.254   4.932
  728SOL     OW 3082   6.193   3.731   3.388
  728SOL    HW1 3083   6.170   3.750   3.484
  728SOL    HW2 3084   6.109   3.712   3.337
  729SOL     OW 3085   0.869   4.927   0.475
  729SOL    HW1 3086   0.871   5.023   0.502
  729SOL    HW2 3087   0.783   4.907   0.428
  730SOL     OW 3088   4.115   1.546   3.121
  730SOL    HW1 3089   4.111   1.461   3.069
  730SOL    HW2 3090   4.194   1.600   3.093
  731SOL     OW 3091   4.903   4.529   4.807
  731SOL    HW1 3092   4.919   4.513   4.709
  731SOL    HW2 3093   4.991   4.538   4.854
  732SOL     OW 3094   4.525   1.116   4.452
  732SOL    HW1 3095   4.564   1.034   4.409
  732SOL    HW2 3096   4.490   1.092   4.543
  733SOL     OW 3097   0.691   4.970   4.532
  733SOL    HW1 3098   0.658   5.009   4.446
  733SOL    HW2 3099   0.690   4.871   4.526
  734SOL     OW 3100   6.085   5.802   3.247
  734SOL    HW1 3101   6.031   5.809   3.163
  734SOL    HW2 3102   6.047   5.730   3.305
  735SOL     OW 3103   4.545   0.557   2.675
  735SOL    HW1 3104   4.638   0.551   2.712
  735SOL    HW2 3105   4.480   0.563   2.751
  736SOL     OW 3106   2.129   1.530   3.217
  736SOL    HW1 3107   2.115   1.595   3.142
  736SOL    HW2 3108   2.041   1.495   3.248
  737SOL     OW 3109   3.688   1.311   6.227
  737SOL    HW1 3110   3.683   1.348   6.135
  737SOL    HW2 3111   3.768   1.250   6.235
  738SOL     OW 3112   1.352   5.384   0.245
  738SOL    HW1 3113   1.302   5.311   0.291
  738SOL    HW2 3114   1.293   5.464   0.234
  739SOL     OW 3115   1.455   0.484   2.758
  739SOL    HW1 3116   1.549   0.507   2.783
  739SOL    HW2 3117   1.394   0.556   2.789
  740SOL     OW 3118   4.523   2.453   2.749
  740SOL    HW1 3119   4.597   2.426   2.688
  740SOL    HW2 3120   4.544   2.543   2.789
  741SOL     OW 3121   3.179   1.336   2.272
  741SOL    HW1 3122   3.192   1.371   2.365
  741SOL    HW2 3123   3.171   1.413   2.209
  742SOL     OW 3124   2.421   0.687   2.530
  742SOL    HW1 3125   2.370   0.757   2.480
  742SOL    HW2 3126   2.381   0.597   2.510
  743SOL     OW 3127   6.939   6.594   2.565
  743SOL    HW1 3128   6.896   6.603   2.475
  743SOL    HW2 3129   6.882   6.536   2.623
  744SOL     OW 3130   5.605   1.177   1.257
  744SOL    HW1 3131   5.600   1.257   1.316
  744SOL    HW2 3132   5.691   1.178   1.207
  745SOL     OW 3133   1.392   6.964   5.846
  745SOL    HW1 3134   1.421   0.030   5.800
  745SOL    HW2 3135   1.312   6.926   5.798
  746SOL     OW 3136   6.379   5.926   4.849
  746SOL    HW1 3137   6.329   5.911   4.934
  746SOL    HW2 3138   6.329   5.882   4.774
  747SOL     OW 3139   3.600   5.192   2.729
  747SOL    HW1 3140   3.611   5.217   2.633
  747SOL    HW2 3141   3.553   5.104   2.735
  748SOL     OW 3142   6.172   4.735   2.814
  748SOL    HW1 3143   6.105   4.717   2.887
  748SOL    HW2 3144   6.124   4.774   2.735
  749SOL     OW 3145   4.852   4.232   4.764
  749SOL    HW1 3146   4.880   4.327   4.753
  749SOL    HW2 3147   4.846   4.188   4.675
  750SOL     OW 3148   2.937   2.028   2.806
  750SOL    HW1 3149   2.857   1.973   2.783
  750SOL    HW2 3150   2.946   2.104   2.742
  751SOL     OW 3151   4.298   0.203   0.346
  751SOL    HW1 3152   4.260   0.204   0.439
  751SOL    HW2 3153   4.225   0.220   0.280
  752SOL     OW 3154   2.941   3.226   4.057
  752SOL    HW1 3155   2.968   3.130   4.064
  752SOL    HW2 3156   2.978   3.266   3.974
  753SOL     OW 3157   3.783   3.741   3.921
  753SOL    HW1 3158   3.877   3.769   3.940
  753SOL    HW2 3159   3.773   3.721   3.823
  754SOL     OW 3160   4.844   0.982   6.367
  754SOL    HW1 3161   4.867   0.978   6.464
  754SOL    HW2 3162   4.919   0.945   6.313
  755SOL     OW 3163   4.843   4.367   5.194
  755SOL    HW1 3164   4.747   4.397   5.190
  755SOL    HW2 3165   4.899   4.443   5.226
  756SOL     OW 3166   3.063   5.567   6.009
  756SOL    HW1 3167   3.095   5.526   5.924
  756SOL    HW2 3168   3.004   5.502   6.057
  757SOL     OW 3169   0.896   6.988   1.854
  757SOL    HW1 3170   0.833   6.943   1.918
  757SOL    HW2 3171   0.990   6.961   1.875
  758SOL     OW 3172   3.563   1.135   4.955
  758SOL    HW1 3173   3.478   1.168   4.914
  758SOL    HW2 3174   3.547   1.114   5.051
  759SOL     OW 3175   6.929   2.670   3.678
  759SOL    HW1 3176   6.863   2.613   3.630
  759SOL    HW2 3177   6.911   2.666   3.777
  760SOL     OW 3178   0.117   5.714   4.445
  760SOL    HW1 3179   0.176   5.781   4.400
  760SOL    HW2 3180   0.056   5.762   4.510
  761SOL     OW 3181   4.859   4.811   6.314
  761SOL    HW1 3182   4.830   4.896   6.269
  761SOL    HW2 3183   4.902   4.751   6.247
  762SOL     OW 3184   3.992   5.960   3.564
  762SOL    HW1 3185   3.913   5.919   3.608
  762SOL    HW2 3186   4.036   6.025   3.627
  763SOL     OW 3187   5.542   1.422   0.485
  763SOL    HW1 3188   5.575   1.405   0.392
  763SOL    HW2 3189   5.603   1.485   0.532
  764SOL     OW 3190   4.962   6.339   4.554
  764SOL    HW1 3191   5.045   6.342   4.498
  764SOL    HW2 3192   4.987   6.341   4.650
  765SOL     OW 3193   5.473   5.944   0.331
  765SOL    HW1 3194   5.566   5.910   0.314
  765SOL    HW2 3195   5.441   5.994   0.250
  766SOL     OW 3196   2.242   1.833   3.636
  766SOL    HW1 3197   2.200   1.878   3.557
  766SOL    HW2 3198   2.190   1.855   3.718
  767SOL     OW 3199   6.520   6.525   3.634
  767SOL    HW1 3200   6.516   6.486   3.542
  767SOL    HW2 3201   6.463   6.470   3.696
  768SOL     OW 3202   3.053   5.863   1.637
  768SOL    HW1 3203   3.015   5.829   1.723
  768SOL    HW2 3204   3.001   5.943   1.607
  769SOL     OW 3205   3.809   1.753   5.248
  769SOL    HW1 3206   3.847   1.755   5.341
  769SOL    HW2 3207   3.712   1.732   5.252
  770SOL     OW 3208   0.813   4.729   6.174
  770SOL    HW1 3209   0.800   4.712   6.076
  770SOL    HW2 3210   0.893   4.787   6.188
  771SOL     OW 3211   1.543   4.902   2.696
  771SOL    HW1 3212   1.601   4.933   2.621
  771SOL    HW2 3213   1.557   4.961   2.776
  772SOL     OW 3214   6.391   4.813   0.353
  772SOL    HW1 3215   6.323   4.743   0.332
  772SOL    HW2 3216   6.457   4.818   0.278
  773SOL     OW 3217   1.540   4.998   4.225
  773SOL    HW1 3218   1.520   5.095   4.211
  773SOL    HW2 3219   1.638   4.985   4.240
  774SOL     OW 3220   1.870   2.567   3.525
  774SOL    HW1 3221   1.905   2.487   3.573
  774SOL    HW2 3222   1.798   2.611   3.580
  775SOL     OW 3223   0.799   4.873   2.549
  775SOL    HW1 3224   0.875   4.879   2.614
  775SOL    HW2 3225   0.796   4.781   2.510
  776SOL     OW 3226   2.632   4.809   0.108
  776SOL    HW1 3227   2.557   4.752   0.076
  776SOL    HW2 3228   2.617   4.904   0.080
  777SOL     OW 3229   1.861   3.704   6.699
  777SOL    HW1 3230   1.764   3.724   6.692
  777SOL    HW2 3231   1.914   3.776   6.654
  778SOL     OW 3232   3.645   5.579   6.780
  778SOL    HW1 3233   3.681   5.507   6.840
  778SOL    HW2 3234   3.545   5.579   6.783
  779SOL     OW 3235   5.803   1.836   3.503
  779SOL    HW1 3236   5.889   1.797   3.534
  779SOL    HW2 3237   5.781   1.801   3.412
  780SOL     OW 3238   5.978   1.664   5.088
  780SOL    HW1 3239   6.034   1.609   5.150
  780SOL    HW2 3240   5.982   1.625   4.996
  781SOL     OW 3241   0.170   5.121   6.400
  781SOL    HW1 3242   0.255   5.173   6.402
  781SOL    HW2 3243   0.162   5.066   6.483
  782SOL     OW 3244   2.229   4.051   5.501
  782SOL    HW1 3245   2.210   4.149   5.503
  782SOL    HW2 3246   2.253   4.023   5.408
  783SOL     OW 3247   0.280   5.224   6.098
  783SOL    HW1 3248   0.238   5.166   6.168
  783SOL    HW2 3249   0.379   5.206   6.095
  784SOL     OW 3250   1.890   6.046   6.002
  784SOL    HW1 3251   1.898   6.123   5.939
  784SOL    HW2 3252   1.803   5.999   5.987
  785SOL     OW 3253   0.525   0.143   4.093
  785SOL    HW1 3254   0.511   0.096   4.006
  785SOL    HW2 3255   0.520   0.077   4.168
  786SOL     OW 3256   6.047   1.569   4.823
  786SOL    HW1 3257   6.144   1.566   4.844
  786SOL    HW2 3258   6.030   1.532   4.732
  787SOL     OW 3259   2.136   6.759   0.425
  787SOL    HW1 3260   2.053   6.706   0.406
  787SOL    HW2 3261   2.191   6.712   0.494
  788SOL     OW 3262   2.161   3.254   2.317
  788SOL    HW1 3263   2.233   3.218   2.376
  788SOL    HW2 3264   2.116   3.331   2.361
  789SOL     OW 3265   3.423   5.414   2.403
  789SOL    HW1 3266   3.428   5.318   2.428
  789SOL    HW2 3267   3.416   5.422   2.303
  790SOL     OW 3268   0.156   3.261   2.586
  790SOL    HW1 3269   0.090   3.201   2.632
  790SOL    HW2 3270   0.176   3.224   2.495
  791SOL     OW 3271   3.289   0.911   3.896
  791SOL    HW1 3272   3.195   0.939   3.916
  791SOL    HW2 3273   3.337   0.895   3.982
  792SOL     OW 3274   3.062   1.016   0.716
  792SOL    HW1 3275   3.134   1.068   0.669
  792SOL    HW2 3276   3.043   0.932   0.665
  793SOL     OW 3277   1.900   5.907   4.511
  793SOL    HW1 3278   1.885   5.891   4.413
  793SOL    HW2 3279   1.848   5.987   4.540
  794SOL     OW 3280   3.455   3.608   2.291
  794SOL    HW1 3281   3.441   3.516   2.326
  794SOL    HW2 3282   3.367   3.655   2.282
  795SOL     OW 3283   4.123   6.706   6.016
  795SOL    HW1 3284   4.112   6.785   5.955
  795SOL    HW2 3285   4.220   6.689   6.031
  796SOL     OW 3286   0.952   2.672   6.334
  796SOL    HW1 3287   0.997   2.760   6.320
  796SOL    HW2 3288   0.933   2.660   6.432
  797SOL     OW 3289   3.114   6.557   0.643
  797SOL    HW1 3290   3.038   6.617   0.616
  797SOL    HW2 3291   3.096   6.519   0.733
  798SOL     OW 3292   5.208   4.059   1.888
  798SOL    HW1 3293   5.190   4.034   1.983
  798SOL    HW2 3294   5.231   3.977   1.836
  799SOL     OW 3295   3.677   3.431   4.925
  799SOL    HW1 3296   3.713   3.437   4.832
  799SOL    HW2 3297   3.700   3.341   4.963
  800SOL     OW 3298   5.570   3.089   3.100
  800SOL    HW1 3299   5.473   3.107   3.121
  800SOL    HW2 3300   5.597   3.003   3.142
  801SOL     OW 3301   1.823   5.286   6.868
  801SOL    HW1 3302   1.837   5.188   6.855
  801SOL    HW2 3303   1.849   5.335   6.785
  802SOL     OW 3304   4.140   2.558   5.967
  802SOL    HW1 3305   4.130   2.577   5.869
  802SOL    HW2 3306   4.180   2.638   6.013
  803SOL     OW 3307   3.198   2.118   2.963
  803SOL    HW1 3308   3.178   2.020   2.953
  803SOL    HW2 3309   3.113   2.168   2.981
  804SOL     OW 3310   4.665   6.669   2.966
  804SOL    HW1 3311   4.647   6.742   3.032
  804SOL    HW2 3312   4.738   6.698   2.904
  805SOL     OW 3313   3.474   1.812   3.899
  805SOL    HW1 3314   3.507   1.795   3.806
  805SOL    HW2 3315   3.532   1.880   3.944
  806SOL     OW 3316   4.272   6.203   5.899
  806SOL    HW1 3317   4.201   6.265   5.934
  806SOL    HW2 3318   4.333   6.178   5.974
  807SOL     OW 3319   1.139   6.476   6.317
  807SOL    HW1 3320   1.178   6.498   6.406
  807SOL    HW2 3321   1.213   6.461   6.251
  808SOL     OW 3322   5.167   2.016   5.985
  808SOL    HW1 3323   5.135   1.947   6.051
  808SOL    HW2 3324   5.147   1.985   5.892
  809SOL     OW 3325   2.802   6.321   5.616
  809SOL    HW1 3326   2.775   6.374   5.697
  809SOL    HW2 3327   2.770   6.227   5.626
  810SOL     OW 3328   3.884   3.848   6.141
  810SOL    HW1 3329   3.909   3.930   6.193
  810SOL    HW2 3330   3.818   3.872   6.070
  811SOL     OW 3331   5.572   5.219   5.370
  811SOL    HW1 3332   5.566   5.247   5.274
  811SOL    HW2 3333   5.482   5.231   5.413
  812SOL     OW 3334   1.407   2.348   0.917
  812SOL    HW1 3335   1.320   2.312   0.951
  812SOL    HW2 3336   1.473   2.352   0.991
  813SOL     OW 3337   2.905   2.104   4.901
  813SOL    HW1 3338   2.913   2.146   4.992
  813SOL    HW2 3339   2.990   2.120   4.850
  814SOL     OW 3340   0.464   4.744   0.962
  814SOL    HW1 3341   0.433   4.792   1.043
  814SOL    HW2 3342   0.457   4.645   0.976
  815SOL     OW 3343   4.511   0.906   3.847
  815SOL    HW1 3344   4.472   0.821   3.811
  815SOL    HW2 3345   4.502   0.908   3.946
  816SOL     OW 3346   4.946   3.586   6.432
  816SOL    HW1 3347   4.855   3.614   6.402
  816SOL    HW2 3348   4.942   3.496   6.476
  817SOL     OW 3349   6.974   5.652   0.187
  817SOL    HW1 3350   7.013   5.576   0.239
  817SOL    HW2 3351   6.986   5.634   0.089
  818SOL     OW 3352   6.659   1.110   5.289
  818SOL    HW1 3353   6.615   1.040   5.345
  818SOL    HW2 3354   6.630   1.099   5.194
  819SOL     OW 3355   5.676   3.646   1.924
  819SOL    HW1 3356   5.644   3.716   1.988
  819SOL    HW2 3357   5.736   3.687   1.856
  820SOL     OW 3358   2.225   2.445   5.448
  820SOL    HW1 3359   2.281   2.363   5.464
  820SOL    HW2 3360   2.144   2.420   5.395
  821SOL     OW 3361   4.948   3.287   6.030
  821SOL    HW1 3362   5.014   3.360   6.015
  821SOL    HW2 3363   4.951   3.224   5.952
  822SOL     OW 3364   6.529   4.305   3.530
  822SOL    HW1 3365   6.596   4.231   3.532
  822SOL    HW2 3366   6.437   4.267   3.546
  823SOL     OW 3367   1.736   2.737   4.198
  823SOL    HW1 3368   1.660   2.772   4.144
  823SOL    HW2 3369   1.722   2.639   4.216
  824SOL     OW 3370   5.144   0.387   6.469
  824SOL    HW1 3371   5.070   0.453   6.455
  824SOL    HW2 3372   5.113   0.314   6.530
  825SOL     OW 3373   6.415   5.832   1.128
  825SOL    HW1 3374   6.413   5.823   1.228
  825SOL    HW2 3375   6.506   5.812   1.094
  826SOL     OW 3376   3.618   2.238   0.377
  826SOL    HW1 3377   3.666   2.240   0.289
  826SOL    HW2 3378   3.624   2.327   0.420
  827SOL     OW 3379   3.740   3.254   5.134
  827SOL    HW1 3380   3.740   3.317   5.212
  827SOL    HW2 3381   3.800   3.176   5.154
  828SOL     OW 3382   0.422   6.429   5.919
  828SOL    HW1 3383   0.450   6.338   5.887
  828SOL    HW2 3384   0.364   6.472   5.850
  829SOL     OW 3385   3.781   3.314   1.511
  829SOL    HW1 3386   3.762   3.386   1.444
  829SOL    HW2 3387   3.759   3.347   1.602
  830SOL     OW 3388   0.538   3.250   6.026
  830SOL    HW1 3389   0.441   3.271   6.040
  830SOL    HW2 3390   0.552   3.151   6.029
  831SOL     OW 3391   5.763   1.671   3.285
  831SOL    HW1 3392   5.694   1.619   3.233
  831SOL    HW2 3393   5.800   1.613   3.357
  832SOL     OW 3394   3.148   2.160   4.738
  832SOL    HW1 3395   3.143   2.215   4.821
  832SOL    HW2 3396   3.141   2.220   4.658
  833SOL     OW 3397   3.571   3.153   6.406
  833SOL    HW1 3398   3.613   3.192   6.487
  833SOL    HW2 3399   3.526   3.067   6.431
  834SOL     OW 3400   5.975   3.494   1.110
  834SOL    HW1 3401   5.905   3.565   1.113
  834SOL    HW2 3402   6.049   3.518   1.173
  835SOL     OW 3403   6.089   6.388   5.094
  835SOL    HW1 3404   6.047   6.472   5.129
  835SOL    HW2 3405   6.024   6.313   5.105
  836SOL     OW 3406   5.921   6.947   4.117
  836SOL    HW1 3407   5.883   6.865   4.074
  836SOL    HW2 3408   5.861   6.975   4.192
  837SOL     OW 3409   0.791   0.454   6.647
  837SOL    HW1 3410   0.804   0.550   6.672
  837SOL    HW2 3411   0.725   0.411   6.709
  838SOL     OW 3412   0.960   6.156   3.337
  838SOL    HW1 3413   1.051   6.162   3.297
  838SOL    HW2 3414   0.922   6.248   3.348
  839SOL     OW 3415   1.615   2.111   6.951
  839SOL    HW1 3416   1.706   2.150   6.969
  839SOL    HW2 3417   1.588   2.053   0.010
  840SOL     OW 3418   4.779   5.212   0.606
  840SOL    HW1 3419   4.749   5.125   0.644
  840SOL    HW2 3420   4.749   5.287   0.665
  841SOL     OW 3421   2.632   4.838   6.801
  841SOL    HW1 3422   2.630   4.748   6.844
  841SOL    HW2 3423   2.697   4.838   6.726
  842SOL     OW 3424   4.530   6.789   1.212
  842SOL    HW1 3425   4.579   6.744   1.138
  842SOL    HW2 3426   4.566   6.881   1.226
  843SOL     OW 3427   1.893   6.931   2.303
  843SOL    HW1 3428   1.973   6.920   2.362
  843SOL    HW2 3429   1.813   6.948   2.360
  844SOL     OW 3430   6.673   6.893   1.600
  844SOL    HW1 3431   6.769   6.894   1.626
  844SOL    HW2 3432   6.617   6.915   1.680
  845SOL     OW 3433   4.217   1.171   1.549
  845SOL    HW1 3434   4.295   1.157   1.488
  845SOL    HW2 3435   4.155   1.092   1.543
  846SOL     OW 3436   1.556   1.130   0.958
  846SOL    HW1 3437   1.545   1.039   0.999
  846SOL    HW2 3438   1.633   1.129   0.895
  847SOL     OW 3439   2.522   3.240   1.506
  847SOL    HW1 3440   2.568   3.328   1.515
  847SOL    HW2 3441   2.428   3.248   1.541
  848SOL     OW 3442   6.520   5.859   0.771
  848SOL    HW1 3443   6.527   5.762   0.796
  848SOL    HW2 3444   6.611   5.897   0.761
  849SOL     OW 3445   5.149   3.451   5.987
  849SOL    HW1 3446   5.179   3.471   6.080
  849SOL    HW2 3447   5.149   3.535   5.933
  850SOL     OW 3448   2.063   1.259   5.129
  850SOL    HW1 3449   2.071   1.352   5.165
  850SOL    HW2 3450   2.057   1.195   5.205
  851SOL     OW 3451   4.615   2.560   6.600
  851SOL    HW1 3452   4.543   2.492   6.583
  851SOL    HW2 3453   4.642   2.556   6.696
  852SOL     OW 3454   6.944   5.212   1.298
  852SOL    HW1 3455   6.944   5.284   1.229
  852SOL    HW2 3456   6.851   5.202   1.335
  853SOL     OW 3457   3.737   2.514   0.999
  853SOL    HW1 3458   3.772   2.576   1.069
  853SOL    HW2 3459   3.655   2.468   1.034
  854SOL     OW 3460   6.802   0.443   6.414
  854SOL    HW1 3461   6.769   0.536   6.428
  854SOL    HW2 3462   6.883   0.427   6.470
  855SOL     OW 3463   4.595   2.030   6.854
  855SOL    HW1 3464   4.561   1.980   6.934
  855SOL    HW2 3465   4.676   1.982   6.818
  856SOL     OW 3466   1.782   5.694   1.654
  856SOL    HW1 3467   1.704   5.648   1.613
  856SOL    HW2 3468   1.784   5.677   1.753
  857SOL     OW 3469   0.438   6.596   5.160
  857SOL    HW1 3470   0.454   6.594   5.062
  857SOL    HW2 3471   0.523   6.619   5.208
  858SOL     OW 3472   3.278   4.324   0.241
  858SOL    HW1 3473   3.201   4.379   0.273
  858SOL    HW2 3474   3.332   4.377   0.176
  859SOL     OW 3475   4.838   5.767   5.576
  859SOL    HW1 3476   4.743   5.786   5.550
  859SOL    HW2 3477   4.893   5.850   5.563
  860SOL     OW 3478   4.652   3.041   0.071
  860SOL    HW1 3479   4.589   3.118   0.079
  860SOL    HW2 3480   4.709   3.036   0.154
  861SOL     OW 3481   0.681   5.985   2.699
  861SOL    HW1 3482   0.720   5.950   2.784
  861SOL    HW2 3483   0.597   6.036   2.719
  862SOL     OW 3484   0.830   4.881   4.254
  862SOL    HW1 3485   0.905   4.924   4.304
  862SOL    HW2 3486   0.743   4.904   4.298
  863SOL     OW 3487   5.388   0.320   1.539
  863SOL    HW1 3488   5.442   0.377   1.477
  863SOL    HW2 3489   5.377   0.367   1.626
  864SOL     OW 3490   6.163   4.658   3.688
  864SOL    HW1 3491   6.151   4.688   3.593
  864SOL    HW2 3492   6.105   4.714   3.748
  865SOL     OW 3493   1.616   5.171   5.020
  865SOL    HW1 3494   1.707   5.140   4.994
  865SOL    HW2 3495   1.622   5.230   5.100
  866SOL     OW 3496   3.740   6.592   1.138
  866SOL    HW1 3497   3.779   6.510   1.180
  866SOL    HW2 3498   3.643   6.597   1.160
  867SOL     OW 3499   5.963   3.793   4.892
  867SOL    HW1 3500   6.005   3.809   4.981
  867SOL    HW2 3501   5.907   3.872   4.867
  868SOL     OW 3502   0.504   1.564   1.980
  868SOL    HW1 3503   0.525   1.480   2.029
  868SOL    HW2 3504   0.543   1.559   1.888
  869SOL     OW 3505   0.803   3.095   1.797
  869SOL    HW1 3506   0.897   3.067   1.776
  869SOL    HW2 3507   0.803   3.160   1.873
  870SOL     OW 3508   3.802   4.502   1.683
  870SOL    HW1 3509   3.732   4.564   1.717
  870SOL    HW2 3510   3.892   4.540   1.702
  871SOL     OW 3511   4.547   1.732   3.987
  871SOL    HW1 3512   4.584   1.812   4.033
  871SOL    HW2 3513   4.518   1.757   3.895
  872SOL     OW 3514   1.757   2.704   5.341
  872SOL    HW1 3515   1.697   2.656   5.405
  872SOL    HW2 3516   1.850   2.668   5.348
  873SOL     OW 3517   3.798   0.365   6.470
  873SOL    HW1 3518   3.772   0.269   6.454
  873SOL    HW2 3519   3.897   0.371   6.479
  874SOL     OW 3520   5.831   3.885   2.539
  874SOL    HW1 3521   5.846   3.831   2.622
  874SOL    HW2 3522   5.819   3.824   2.461
  875SOL     OW 3523   5.517   5.092   2.138
  875SOL    HW1 3524   5.443   5.024   2.141
  875SOL    HW2 3525   5.525   5.129   2.046
  876SOL     OW 3526   6.255   1.223   6.314
  876SOL    HW1 3527   6.260   1.274   6.400
  876SOL    HW2 3528   6.309   1.270   6.245
  877SOL     OW 3529   1.511   3.504   6.590
  877SOL    HW1 3530   1.571   3.440   6.541
  877SOL    HW2 3531   1.448   3.453   6.649
  878SOL     OW 3532   4.375   6.203   4.570
  878SOL    HW1 3533   4.287   6.158   4.587
  878SOL    HW2 3534   4.428   6.205   4.655
  879SOL     OW 3535   5.946   0.011   6.268
  879SOL    HW1 3536   5.941   6.931   6.246
  879SOL    HW2 3537   5.861   0.055   6.238
  880SOL     OW 3538   3.589   2.881   2.915
  880SOL    HW1 3539   3.609   2.872   2.818
  880SOL    HW2 3540   3.502   2.928   2.927
  881SOL     OW 3541   4.785   2.300   0.760
  881SOL    HW1 3542   4.736   2.347   0.834
  881SOL    HW2 3543   4.720   2.251   0.702
  882SOL     OW 3544   1.753   2.873   3.472
  882SOL    HW1 3545   1.829   2.823   3.430
  882SOL    HW2 3546   1.790   2.948   3.526
  883SOL     OW 3547   2.155   6.549   2.596
  883SOL    HW1 3548   2.128   6.508   2.684
  883SOL    HW2 3549   2.185   6.477   2.534
  884SOL     OW 3550   2.573   3.183   6.102
  884SOL    HW1 3551   2.635   3.121   6.054
  884SOL    HW2 3552   2.487   3.188   6.052
  885SOL     OW 3553   4.220   3.389   6.563
  885SOL    HW1 3554   4.313   3.381   6.526
  885SOL    HW2 3555   4.170   3.304   6.548
  886SOL     OW 3556   3.506   1.916   6.338
  886SOL    HW1 3557   3.433   1.887   6.276
  886SOL    HW2 3558   3.468   1.972   6.411
  887SOL     OW 3559   3.973   0.826   5.307
  887SOL    HW1 3560   3.887   0.779   5.287
  887SOL    HW2 3561   3.972   0.916   5.265
  888SOL     OW 3562   0.665   6.987   2.430
  888SOL    HW1 3563   0.759   7.016   2.412
  888SOL    HW2 3564   0.649   6.899   2.387
  889SOL     OW 3565   0.292   3.754   0.787
  889SOL    HW1 3566   0.374   3.763   0.730
  889SOL    HW2 3567   0.290   3.828   0.854
  890SOL     OW 3568   2.410   6.074   4.854
  890SOL    HW1 3569   2.327   6.063   4.800
  890SOL    HW2 3570   2.394   6.141   4.927
  891SOL     OW 3571   4.859   4.401   2.335
  891SOL    HW1 3572   4.917   4.434   2.410
  891SOL    HW2 3573   4.826   4.479   2.281
  892SOL     OW 3574   2.052   4.466   1.356
  892SOL    HW1 3575   2.136   4.433   1.399
  892SOL    HW2 3576   1.997   4.388   1.327
  893SOL     OW 3577   1.610   5.194   2.458
  893SOL    HW1 3578   1.594   5.281   2.506
  893SOL    HW2 3579   1.692   5.150   2.494
  894SOL     OW 3580   0.731   4.595   1.256
  894SOL    HW1 3581   0.781   4.538   1.321
  894SOL    HW2 3582   0.632   4.582   1.270
  895SOL     OW 3583   6.743   5.549   4.571
  895SOL    HW1 3584   6.788   5.470   4.530
  895SOL    HW2 3585   6.806   5.627   4.572
  896SOL     OW 3586   6.968   0.821   6.325
  896SOL    HW1 3587   6.953   0.898   6.264
  896SOL    HW2 3588   0.048   0.811   6.343
  897SOL     OW 3589   5.689   1.231   0.673
  897SOL    HW1 3590   5.615   1.291   0.641
  897SOL    HW2 3591   5.652   1.161   0.733
  898SOL     OW 3592   3.947   1.689   3.497
  898SOL    HW1 3593   3.909   1.655   3.410
  898SOL    HW2 3594   4.008   1.621   3.536
  899SOL     OW 3595   6.794   6.917   0.164
  899SOL    HW1 3596   6.741   6.906   0.248
  899SOL    HW2 3597   6.877   6.970   0.184
  900SOL     OW 3598   5.373   5.178   6.326
  900SOL    HW1 3599   5.447   5.185   6.393
  900SOL    HW2 3600   5.336   5.269   6.308
  901SOL     OW 3601   1.565   0.700   3.001
  901SOL    HW1 3602   1.513   0.743   2.928
  901SOL    HW2 3603   1.620   0.626   2.964
  902SOL     OW 3604   0.147   3.167   2.330
  902SOL    HW1 3605   0.091   3.204   2.255
  902SOL    HW2 3606   0.148   3.068   2.325
  903SOL     OW 3607   6.575   0.924   0.308
  903SOL    HW1 3608   6.593   0.858   0.235
  903SOL    HW2 3609   6.603   0.886   0.396
  904SOL     OW 3610   2.756   1.371   3.361
  904SOL    HW1 3611   2.727   1.366   3.265
  904SOL    HW2 3612   2.717   1.452   3.403
  905SOL     OW 3613   5.869   2.161   6.180
  905SOL    HW1 3614   5.769   2.173   6.182
  905SOL    HW2 3615   5.912   2.243   6.219
  906SOL     OW 3616   6.004   3.202   1.018
  906SOL    HW1 3617   5.992   3.297   1.048
  906SOL    HW2 3618   5.934   3.179   0.951
  907SOL     OW 3619   5.656   4.425   0.041
  907SOL    HW1 3620   5.684   4.395   6.967
  907SOL    HW2 3621   5.706   4.372   0.109
  908SOL     OW 3622   0.416   3.723   3.155
  908SOL    HW1 3623   0.335   3.752   3.206
  908SOL    HW2 3624   0.389   3.695   3.062
  909SOL     OW 3625   5.063   4.673   6.168
  909SOL    HW1 3626   5.050   4.582   6.128
  909SOL    HW2 3627   5.161   4.689   6.183
  910SOL     OW 3628   3.297   4.780   0.105
  910SOL    HW1 3629   3.239   4.698   0.098
  910SOL    HW2 3630   3.313   4.817   0.013
  911SOL     OW 3631   1.231   4.572   6.293
  911SOL    HW1 3632   1.151   4.564   6.234
  911SOL    HW2 3633   1.310   4.530   6.247
  912SOL     OW 3634   5.069   1.533   5.456
  912SOL    HW1 3635   5.019   1.617   5.479
  912SOL    HW2 3636   5.155   1.557   5.411
  913SOL     OW 3637   4.964   5.724   3.045
  913SOL    HW1 3638   4.879   5.671   3.051
  913SOL    HW2 3639   5.038   5.671   3.088
  914SOL     OW 3640   2.445   6.476   5.673
  914SOL    HW1 3641   2.501   6.537   5.617
  914SOL    HW2 3642   2.497   6.395   5.697
  915SOL     OW 3643   5.563   5.200   1.872
  915SOL    HW1 3644   5.623   5.206   1.792
  915SOL    HW2 3645   5.479   5.251   1.855
  916SOL     OW 3646   0.944   3.998   3.375
  916SOL    HW1 3647   0.855   3.987   3.419
  916SOL    HW2 3648   0.934   3.988   3.276
  917SOL     OW 3649   0.533   6.984   6.661
  917SOL    HW1 3650   0.493   6.917   6.598
  917SOL    HW2 3651   0.481   0.050   6.657
  918SOL     OW 3652   3.377   6.183   6.367
  918SOL    HW1 3653   3.288   6.165   6.327
  918SOL    HW2 3654   3.419   6.096   6.396
  919SOL     OW 3655   4.720   0.384   6.155
  919SOL    HW1 3656   4.778   0.308   6.127
  919SOL    HW2 3657   4.716   0.387   6.255
  920SOL     OW 3658   3.132   4.651   1.795
  920SOL    HW1 3659   3.044   4.612   1.823
  920SOL    HW2 3660   3.175   4.591   1.727
  921SOL     OW 3661   4.665   5.863   5.237
  921SOL    HW1 3662   4.744   5.808   5.262
  921SOL    HW2 3663   4.609   5.879   5.318
  922SOL     OW 3664   3.210   4.028   3.232
  922SOL    HW1 3665   3.242   4.090   3.303
  922SOL    HW2 3666   3.280   3.959   3.214
  923SOL     OW 3667   2.541   3.922   5.687
  923SOL    HW1 3668   2.507   3.890   5.599
  923SOL    HW2 3669   2.497   3.869   5.760
  924SOL     OW 3670   1.143   3.118   1.264
  924SOL    HW1 3671   1.207   3.178   1.312
  924SOL    HW2 3672   1.049   3.138   1.294
  925SOL     OW 3673   0.690   1.301   7.009
  925SOL    HW1 3674   0.714   1.210   6.974
  925SOL    HW2 3675   0.646   1.292   0.080
  926SOL     OW 3676   2.045   1.935   1.333
  926SOL    HW1 3677   2.022   1.932   1.431
  926SOL    HW2 3678   1.967   1.971   1.282
  927SOL     OW 3679   6.840   3.320   5.220
  927SOL    HW1 3680   6.912   3.387   5.204
  927SOL    HW2 3681   6.845   3.286   5.314
  928SOL     OW 3682   2.898   4.969   6.126
  928SOL    HW1 3683   2.950   5.029   6.187
  928SOL    HW2 3684   2.908   4.874   6.155
  929SOL     OW 3685   0.967   1.890   5.099
  929SOL    HW1 3686   1.060   1.858   5.119
  929SOL    HW2 3687   0.956   1.900   5.000
  930SOL     OW 3688   5.795   5.066   5.084
  930SOL    HW1 3689   5.811   5.102   5.176
  930SOL    HW2 3690   5.882   5.037   5.044
  931SOL     OW 3691   6.355   0.717   3.695
  931SOL    HW1 3692   6.288   0.680   3.632
  931SOL    HW2 3693   6.329   0.695   3.789
  932SOL     OW 3694   4.160   0.088   3.812
  932SOL    HW1 3695   4.240   0.138   3.845
  932SOL    HW2 3696   4.188   0.000   3.774
  933SOL     OW 3697   1.139   6.049   2.028
  933SOL    HW1 3698   1.067   6.012   2.087
  933SOL    HW2 3699   1.098   6.089   1.946
  934SOL     OW 3700   2.171   3.156   0.924
  934SOL    HW1 3701   2.215   3.121   0.841
  934SOL    HW2 3702   2.086   3.105   0.940
  935SOL     OW 3703   5.527   2.789   5.394
  935SOL    HW1 3704   5.477   2.874   5.377
  935SOL    HW2 3705   5.623   2.802   5.372
  936SOL     OW 3706   1.891   1.103   6.378
  936SOL    HW1 3707   1.891   1.191   6.329
  936SOL    HW2 3708   1.986   1.073   6.391
  937SOL     OW 3709   3.258   2.543   6.323
  937SOL    HW1 3710   3.189   2.535   6.396
  937SOL    HW2 3711   3.212   2.548   6.234
  938SOL     OW 3712   4.890   5.916   5.018
  938SOL    HW1 3713   4.796   5.915   5.053
  938SOL    HW2 3714   4.899   5.988   4.950
  939SOL     OW 3715   1.505   0.502   4.486
  939SOL    HW1 3716   1.528   0.442   4.410
  939SOL    HW2 3717   1.580   0.566   4.503
  940SOL     OW 3718   1.989   5.232   0.742
  940SOL    HW1 3719   2.053   5.309   0.740
  940SOL    HW2 3720   2.039   5.148   0.764
  941SOL     OW 3721   3.834   6.616   0.871
  941SOL    HW1 3722   3.808   6.608   0.967
  941SOL    HW2 3723   3.927   6.654   0.865
  942SOL     OW 3724   6.802   5.238   6.919
  942SOL    HW1 3725   6.742   5.163   6.892
  942SOL    HW2 3726   6.895   5.204   6.928
  943SOL     OW 3727   3.602   6.136   1.038
  943SOL    HW1 3728   3.542   6.215   1.028
  943SOL    HW2 3729   3.547   6.056   1.064
  944SOL     OW 3730   6.345   6.135   3.118
  944SOL    HW1 3731   6.283   6.091   3.053
  944SOL    HW2 3732   6.299   6.144   3.206
  945SOL     OW 3733   0.443   5.176   6.804
  945SOL    HW1 3734   0.458   5.080   6.829
  945SOL    HW2 3735   0.351   5.187   6.768
  946SOL     OW 3736   5.577   1.993   4.050
  946SOL    HW1 3737   5.631   2.057   3.994
  946SOL    HW2 3738   5.492   1.970   4.001
  947SOL     OW 3739   3.744   4.117   2.865
  947SOL    HW1 3740   3.763   4.091   2.960
  947SOL    HW2 3741   3.796   4.058   2.804
  948SOL     OW 3742   3.204   1.685   3.928
  948SOL    HW1 3743   3.186   1.592   3.898
  948SOL    HW2 3744   3.296   1.712   3.899
  949SOL     OW 3745   2.565   6.843   5.324
  949SOL    HW1 3746   2.610   6.822   5.238
  949SOL    HW2 3747   2.547   6.759   5.374
  950SOL     OW 3748   0.211   6.832   1.721
  950SOL    HW1 3749   0.256   6.783   1.647
  950SOL    HW2 3750   0.113   6.838   1.704
  951SOL     OW 3751   1.202   0.147   3.078
  951SOL    HW1 3752   1.243   0.220   3.023
  951SOL    HW2 3753   1.162   0.079   3.017
  952SOL     OW 3754   3.307   1.797   2.657
  952SOL    HW1 3755   3.398   1.828   2.684
  952SOL    HW2 3756   3.313   1.749   2.570
  953SOL     OW 3757   0.942   6.096   5.747
  953SOL    HW1 3758   1.013   6.162   5.722
  953SOL    HW2 3759   0.900   6.125   5.834
  954SOL     OW 3760   4.642   6.666   2.530
  954SOL    HW1 3761   4.599   6.614   2.604
  954SOL    HW2 3762   4.571   6.711   2.476
  955SOL     OW 3763   3.261   4.535   1.524
  955SOL    HW1 3764   3.328   4.485   1.580
  955SOL    HW2 3765   3.183   4.475   1.505
  956SOL     OW 3766   3.456   0.395   0.723
  956SOL    HW1 3767   3.438   0.439   0.636
  956SOL    HW2 3768   3.464   0.464   0.795
  957SOL     OW 3769   6.126   6.825   2.960
  957SOL    HW1 3770   6.152   6.729   2.965
  957SOL    HW2 3771   6.207   6.880   2.939
  958SOL     OW 3772   5.556   5.468   1.521
  958SOL    HW1 3773   5.578   5.522   1.441
  958SOL    HW2 3774   5.527   5.528   1.596
  959SOL     OW 3775   4.593   6.993   2.161
  959SOL    HW1 3776   4.609   6.992   2.260
  959SOL    HW2 3777   4.553   6.906   2.133
  960SOL     OW 3778   1.116   6.493   5.391
  960SOL    HW1 3779   1.081   6.585   5.375
  960SOL    HW2 3780   1.168   6.463   5.311
  961SOL     OW 3781   3.735   1.226   3.811
  961SOL    HW1 3782   3.699   1.144   3.768
  961SOL    HW2 3783   3.795   1.274   3.747
  962SOL     OW 3784   6.888   0.200   5.047
  962SOL    HW1 3785   6.980   0.161   5.054
  962SOL    HW2 3786   6.855   0.193   4.953
  963SOL     OW 3787   5.697   2.517   1.216
  963SOL    HW1 3788   5.654   2.566   1.141
  963SOL    HW2 3789   5.731   2.428   1.184
  964SOL     OW 3790   3.659   6.581   5.119
  964SOL    HW1 3791   3.680   6.515   5.047
  964SOL    HW2 3792   3.637   6.533   5.204
  965SOL     OW 3793   4.836   1.673   4.339
  965SOL    HW1 3794   4.854   1.752   4.397
  965SOL    HW2 3795   4.739   1.649   4.345
  966SOL     OW 3796   5.063   1.074   3.193
  966SOL    HW1 3797   5.061   1.166   3.155
  966SOL    HW2 3798   5.036   1.077   3.289
  967SOL     OW 3799   3.456   5.436   5.943
  967SOL    HW1 3800   3.502   5.349   5.958
  967SOL    HW2 3801   3.470   5.465   5.848
  968SOL     OW 3802   4.364   0.523   1.573
  968SOL    HW1 3803   4.304   0.559   1.502
  968SOL    HW2 3804   4.413   0.442   1.538
  969SOL     OW 3805   3.069   3.611   6.798
  969SOL    HW1 3806   3.111   3.557   6.725
  969SOL    HW2 3807   2.982   3.570   6.824
  970SOL     OW 3808   4.306   5.979   5.285
  970SOL    HW1 3809   4.331   5.916   5.212
  970SOL    HW2 3810   4.317   6.073   5.253
  971SOL     OW 3811   5.104   3.205   3.555
  971SOL    HW1 3812   5.092   3.295   3.515
  971SOL    HW2 3813   5.193   3.200   3.601
  972SOL     OW 3814   0.510   1.661   0.741
  972SOL    HW1 3815   0.510   1.589   0.672
  972SOL    HW2 3816   0.478   1.623   0.828
  973SOL     OW 3817   6.475   2.616   4.976
  973SOL    HW1 3818   6.569   2.583   4.971
  973SOL    HW2 3819   6.473   2.713   4.951
  974SOL     OW 3820   1.162   3.408   1.885
  974SOL    HW1 3821   1.170   3.467   1.805
  974SOL    HW2 3822   1.251   3.369   1.907
  975SOL     OW 3823   3.182   0.640   1.805
  975SOL    HW1 3824   3.276   0.674   1.805
  975SOL    HW2 3825   3.119   0.714   1.830
  976SOL     OW 3826   0.167   2.836   3.825
  976SOL    HW1 3827   0.068   2.831   3.837
  976SOL    HW2 3828   0.193   2.797   3.736
  977SOL     OW 3829   6.376   1.394   1.942
  977SOL    HW1 3830   6.400   1.337   1.863
  977SOL    HW2 3831   6.426   1.480   1.938
  978SOL     OW 3832   5.590   2.004   0.491
  978SOL    HW1 3833   5.570   1.907   0.510
  978SOL    HW2 3834   5.525   2.038   0.423
  979SOL     OW 3835   0.475   4.966   6.504
  979SOL    HW1 3836   0.484   4.901   6.428
  979SOL    HW2 3837   0.537   5.044   6.488
  980SOL     OW 3838   4.810   1.894   3.739
  980SOL    HW1 3839   4.820   1.811   3.684
  980SOL    HW2 3840   4.899   1.939   3.747
  981SOL     OW 3841   0.506   6.180   5.865
  981SOL    HW1 3842   0.455   6.097   5.844
  981SOL    HW2 3843   0.550   6.171   5.954
  982SOL     OW 3844   0.543   1.069   6.589
  982SOL    HW1 3845   0.615   1.119   6.637
  982SOL    HW2 3846   0.456   1.082   6.637
  983SOL     OW 3847   7.001   3.817   2.204
  983SOL    HW1 3848   6.970   3.911   2.221
  983SOL    HW2 3849   7.016   3.804   2.106
  984SOL     OW 3850   0.320   4.076   3.784
  984SOL    HW1 3851   0.344   4.089   3.880
  984SOL    HW2 3852   0.296   4.164   3.743
  985SOL     OW 3853   5.595   4.852   5.664
  985SOL    HW1 3854   5.661   4.789   5.706
  985SOL    HW2 3855   5.600   4.941   5.709
  986SOL     OW 3856   4.120   5.498   1.562
  986SOL    HW1 3857   4.185   5.424   1.582
  986SOL    HW2 3858   4.167   5.586   1.570
  987SOL     OW 3859   4.502   4.440   4.672
  987SOL    HW1 3860   4.517   4.427   4.770
  987SOL    HW2 3861   4.403   4.439   4.653
  988SOL     OW 3862   3.125   4.846   2.384
  988SOL    HW1 3863   3.036   4.808   2.408
  988SOL    HW2 3864   3.134   4.850   2.284
  989SOL     OW 3865   0.531   2.516   1.412
  989SOL    HW1 3866   0.530   2.574   1.331
  989SOL    HW2 3867   0.500   2.424   1.388
  990SOL     OW 3868   3.669   0.187   5.293
  990SOL    HW1 3869   3.622   0.124   5.355
  990SOL    HW2 3870   3.693   0.138   5.209
  991SOL     OW 3871   1.311   6.352   3.988
  991SOL    HW1 3872   1.334   6.293   3.910
  991SOL    HW2 3873   1.372   6.331   4.064
  992SOL     OW 3874   6.644   3.445   0.594
  992SOL    HW1 3875   6.699   3.396   0.526
  992SOL    HW2 3876   6.547   3.444   0.566
  993SOL     OW 3877   2.159   5.081   6.892
  993SOL    HW1 3878   2.191   5.153   6.953
  993SOL    HW2 3879   2.238   5.035   6.850
  994SOL     OW 3880   3.129   0.225   1.223
  994SOL    HW1 3881   3.190   0.249   1.299
  994SOL    HW2 3882   3.160   0.141   1.180
  995SOL     OW 3883   5.154   4.139   5.350
  995SOL    HW1 3884   5.125   4.116   5.443
  995SOL    HW2 3885   5.147   4.058   5.292
  996SOL     OW 3886   3.882   6.790   5.262
  996SOL    HW1 3887   3.890   6.888   5.278
  996SOL    HW2 3888   3.806   6.772   5.199
  997SOL     OW 3889   1.260   6.368   3.379
  997SOL    HW1 3890   1.203   6.354   3.460
  997SOL    HW2 3891   1.285   6.280   3.340
  998SOL     OW 3892   4.608   0.142   0.139
  998SOL    HW1 3893   4.522   0.193   0.128
  998SOL    HW2 3894   4.683   0.207   0.151
  999SOL     OW 3895   6.023   3.293   2.376
  999SOL    HW1 3896   5.981   3.303   2.467
  999SOL    HW2 3897   6.120   3.273   2.387
 1000SOL     OW 3898   6.166   1.713   1.925
 1000SOL    HW1 3899   6.191   1.710   2.022
 1000SOL    HW2 3900   6.101   1.639   1.905
 1001SOL     OW 3901   2.368   6.791   3.116
 1001SOL    HW1 3902   2.313   6.716   3.153
 1001SOL    HW2 3903   2.447   6.752   3.068
 1002SOL     OW 3904   4.236   2.438   0.160
 1002SOL    HW1 3905   4.306   2.488   0.210
 1002SOL    HW2 3906   4.150   2.442   0.211
 1003SOL     OW 3907   0.915   1.345   3.867
 1003SOL    HW1 3908   0.868   1.259   3.887
 1003SOL    HW2 3909   0.861   1.398   3.801
 1004SOL     OW 3910   4.506   1.207   4.838
 1004SOL    HW1 3911   4.466   1.221   4.747
 1004SOL    HW2 3912   4.444   1.244   4.907
 1005SOL     OW 3913   0.940   5.889   2.160
 1005SOL    HW1 3914   0.957   5.841   2.074
 1005SOL    HW2 3915   0.893   5.828   2.224
 1006SOL     OW 3916   1.548   4.690   1.298
 1006SOL    HW1 3917   1.491   4.724   1.373
 1006SOL    HW2 3918   1.582   4.598   1.321
 1007SOL     OW 3919   4.627   1.197   6.402
 1007SOL    HW1 3920   4.543   1.151   6.433
 1007SOL    HW2 3921   4.701   1.131   6.397
 1008SOL     OW 3922   0.403   4.128   4.567
 1008SOL    HW1 3923   0.417   4.135   4.666
 1008SOL    HW2 3924   0.418   4.217   4.525
 1009SOL     OW 3925   6.241   6.324   6.586
 1009SOL    HW1 3926   6.236   6.420   6.615
 1009SOL    HW2 3927   6.336   6.292   6.593
 1010SOL     OW 3928   3.234   3.853   0.380
 1010SOL    HW1 3929   3.190   3.934   0.342
 1010SOL    HW2 3930   3.313   3.880   0.435
 1011SOL     OW 3931   6.894   5.346   2.237
 1011SOL    HW1 3932   6.918   5.292   2.317
 1011SOL    HW2 3933   6.960   5.421   2.227
 1012SOL     OW 3934   5.289   6.058   3.484
 1012SOL    HW1 3935   5.305   6.124   3.411
 1012SOL    HW2 3936   5.307   6.102   3.573
 1013SOL     OW 3937   0.782   1.243   6.616
 1013SOL    HW1 3938   0.789   1.340   6.638
 1013SOL    HW2 3939   0.797   1.230   6.518
 1014SOL     OW 3940   0.936   4.564   4.578
 1014SOL    HW1 3941   0.964   4.475   4.613
 1014SOL    HW2 3942   0.996   4.590   4.502
 1015SOL     OW 3943   3.382   6.340   6.799
 1015SOL    HW1 3944   3.442   6.364   6.875
 1015SOL    HW2 3945   3.332   6.256   6.822
 1016SOL     OW 3946   6.974   4.841   0.250
 1016SOL    HW1 3947   0.027   4.813   0.313
 1016SOL    HW2 3948   6.908   4.767   0.239
 1017SOL     OW 3949   1.615   0.561   2.445
 1017SOL    HW1 3950   1.536   0.618   2.426
 1017SOL    HW2 3951   1.587   0.465   2.451
 1018SOL     OW 3952   5.676   5.972   5.862
 1018SOL    HW1 3953   5.768   5.970   5.902
 1018SOL    HW2 3954   5.665   6.056   5.808
 1019SOL     OW 3955   6.332   3.426   1.686
 1019SOL    HW1 3956   6.240   3.444   1.722
 1019SOL    HW2 3957   6.396   3.415   1.762
 1020SOL     OW 3958   5.334   1.063   1.128
 1020SOL    HW1 3959   5.429   1.089   1.143
 1020SOL    HW2 3960   5.330   0.971   1.090
 1021SOL     OW 3961   1.566   6.787   0.634
 1021SOL    HW1 3962   1.630   6.799   0.558
 1021SOL    HW2 3963   1.586   6.701   0.681
 1022SOL     OW 3964   1.791   5.231   6.001
 1022SOL    HW1 3965   1.696   5.230   6.031
 1022SOL    HW2 3966   1.851   5.238   6.081
 1023SOL     OW 3967   1.131   1.553   2.135
 1023SOL    HW1 3968   1.087   1.641   2.114
 1023SOL    HW2 3969   1.063   1.492   2.175
 1024SOL     OW 3970   1.932   2.751   4.393
 1024SOL    HW1 3971   1.956   2.815   4.466
 1024SOL    HW2 3972   1.859   2.790   4.337
 1025SOL     OW 3973   4.701   4.498   0.986
 1025SOL    HW1 3974   4.790   4.453   0.987
 1025SOL    HW2 3975   4.713   4.595   1.008
 1026SOL     OW 3976   3.408   2.904   1.882
 1026SOL    HW1 3977   3.326   2.925   1.936
 1026SOL    HW2 3978   3.381   2.883   1.788
 1027SOL     OW 3979   6.476   0.347   0.202
 1027SOL    HW1 3980   6.451   0.417   0.269
 1027SOL    HW2 3981   6.397   0.324   0.146
 1028SOL     OW 3982   0.961   5.444   3.198
 1028SOL    HW1 3983   0.893   5.454   3.271
 1028SOL    HW2 3984   1.048   5.416   3.238
 1029SOL     OW 3985   1.033   0.989   4.887
 1029SOL    HW1 3986   1.068   0.935   4.811
 1029SOL    HW2 3987   0.944   1.027   4.862
 1030SOL     OW 3988   4.134   3.639   1.107
 1030SOL    HW1 3989   4.146   3.617   1.204
 1030SOL    HW2 3990   4.166   3.732   1.090
 1031SOL     OW 3991   4.038   2.645   0.493
 1031SOL    HW1 3992   4.079   2.613   0.579
 1031SOL    HW2 3993   3.984   2.727   0.511
 1032SOL     OW 3994   0.880   0.960   1.545
 1032SOL    HW1 3995   0.785   0.945   1.572
 1032SOL    HW2 3996   0.929   1.005   1.620
 1033SOL     OW 3997   6.176   6.893   1.964
 1033SOL    HW1 3998   6.097   6.885   1.903
 1033SOL    HW2 3999   6.215   6.984   1.956
 1034SOL     OW 4000   2.121   0.828   5.525
 1034SOL    HW1 4001   2.180   0.894   5.480
 1034SOL    HW2 4002   2.099   0.754   5.462
 1035SOL     OW 4003   1.670   0.384   0.113
 1035SOL    HW1 4004   1.607   0.330   0.169
 1035SOL    HW2 4005   1.736   0.323   0.070
 1036SOL     OW 4006   5.405   1.172   2.434
 1036SOL    HW1 4007   5.330   1.107   2.423
 1036SOL    HW2 4008   5.476   1.154   2.365
 1037SOL     OW 4009   0.825   3.958   3.139
 1037SOL    HW1 4010   0.727   3.976   3.132
 1037SOL    HW2 4011   0.868   3.971   3.049
 1038SOL     OW 4012   1.741   6.417   6.848
 1038SOL    HW1 4013   1.743   6.504   6.799
 1038SOL    HW2 4014   1.754   6.433   6.946
 1039SOL     OW 4015   2.911   3.688   3.009
 1039SOL    HW1 4016   2.939   3.783   2.999
 1039SOL    HW2 4017   2.886   3.669   3.104
 1040SOL     OW 4018   3.621   1.375   2.751
 1040SOL    HW1 4019   3.522   1.378   2.763
 1040SOL    HW2 4020   3.645   1.298   2.692
 1041SOL     OW 4021   0.014   6.786   6.759
 1041SOL    HW1 4022   6.983   6.854   6.813
 1041SOL    HW2 4023   0.100   6.763   6.805
 1042SOL     OW 4024   5.651   3.437   3.761
 1042SOL    HW1 4025   5.625   3.473   3.850
 1042SOL    HW2 4026   5.718   3.498   3.718
 1043SOL     OW 4027   2.580   2.088   3.385
 1043SOL    HW1 4028   2.545   2.167   3.435
 1043SOL    HW2 4029   2.656   2.117   3.327
 1044SOL     OW 4030   5.451   4.552   2.427
 1044SOL    HW1 4031   5.539   4.571   2.383
 1044SOL    HW2 4032   5.467   4.519   2.520
 1045SOL     OW 4033   2.178   0.541   2.603
 1045SOL    HW1 4034   2.085   0.555   2.636
 1045SOL    HW2 4035   2.179   0.466   2.538
 1046SOL     OW 4036   3.378   2.350   0.979
 1046SOL    HW1 4037   3.402   2.365   1.075
 1046SOL    HW2 4038   3.400   2.432   0.926
 1047SOL     OW 4039   3.610   0.531   3.235
 1047SOL    HW1 4040   3.670   0.465   3.280
 1047SOL    HW2 4041   3.566   0.589   3.303
 1048SOL     OW 4042   0.020   0.046   2.416
 1048SOL    HW1 4043   0.052   6.971   2.429
 1048SOL    HW2 4044   6.942   0.045   2.387
 1049SOL     OW 4045   3.341   6.698   0.365
 1049SOL    HW1 4046   3.366   6.766   0.434
 1049SOL    HW2 4047   3.422   6.643   0.342
 1050SOL     OW 4048   2.356   1.915   4.453
 1050SOL    HW1 4049   2.300   1.865   4.519
 1050SOL    HW2 4050   2.374   1.856   4.374
 1051SOL     OW 4051   1.595   2.209   5.125
 1051SOL    HW1 4052   1.694   2.203   5.123
 1051SOL    HW2 4053   1.562   2.183   5.216
 1052SOL     OW 4054   4.631   2.344   6.275
 1052SOL    HW1 4055   4.660   2.438   6.255
 1052SOL    HW2 4056   4.632   2.329   6.374
 1053SOL     OW 4057   4.709   2.605   4.163
 1053SOL    HW1 4058   4.747   2.515   4.142
 1053SOL    HW2 4059   4.647   2.598   4.241
 1054SOL     OW 4060   4.930   5.311   6.675
 1054SOL    HW1 4061   4.907   5.285   6.581
 1054SOL    HW2 4062   4.861   5.275   6.738
 1055SOL     OW 4063   5.417   5.624   6.077
 1055SOL    HW1 4064   5.400   5.712   6.033
 1055SOL    HW2 4065   5.437   5.555   6.008
 1056SOL     OW 4066   3.853   3.718   0.104
 1056SOL    HW1 4067   3.903   3.689   0.185
 1056SOL    HW2 4068   3.755   3.705   0.118
 1057SOL     OW 4069   2.953   3.575   6.464
 1057SOL    HW1 4070   2.935   3.530   6.551
 1057SOL    HW2 4071   3.045   3.551   6.432
 1058SOL     OW 4072   3.079   2.047   1.815
 1058SOL    HW1 4073   3.039   2.028   1.726
 1058SOL    HW2 4074   3.156   2.110   1.805
 1059SOL     OW 4075   2.362   5.812   2.566
 1059SOL    HW1 4076   2.283   5.832   2.508
 1059SOL    HW2 4077   2.335   5.816   2.663
 1060SOL     OW 4078   6.455   0.065   5.511
 1060SOL    HW1 4079   6.539   0.116   5.495
 1060SOL    HW2 4080   6.389   0.123   5.558
 1061SOL     OW 4081   0.245   3.801   6.522
 1061SOL    HW1 4082   0.339   3.802   6.556
 1061SOL    HW2 4083   0.209   3.895   6.520
 1062SOL     OW 4084   3.809   4.743   5.680
 1062SOL    HW1 4085   3.903   4.709   5.682
 1062SOL    HW2 4086   3.808   4.838   5.709
 1063SOL     OW 4087   2.782   6.593   4.247
 1063SOL    HW1 4088   2.840   6.537   4.187
 1063SOL    HW2 4089   2.798   6.690   4.226
 1064SOL     OW 4090   0.874   4.365   0.725
 1064SOL    HW1 4091   0.827   4.454   0.724
 1064SOL    HW2 4092   0.901   4.340   0.632
 1065SOL     OW 4093   5.694   0.945   5.220
 1065SOL    HW1 4094   5.752   0.894   5.283
 1065SOL    HW2 4095   5.751   0.993   5.154
 1066SOL     OW 4096   4.211   6.185   1.072
 1066SOL    HW1 4097   4.299   6.163   1.030
 1066SOL    HW2 4098   4.137   6.169   1.007
 1067SOL     OW 4099   3.496   1.003   0.426
 1067SOL    HW1 4100   3.419   1.022   0.486
 1067SOL    HW2 4101   3.558   0.939   0.471
 1068SOL     OW 4102   6.007   2.950   2.154
 1068SOL    HW1 4103   5.968   2.988   2.238
 1068SOL    HW2 4104   5.981   3.007   2.077
 1069SOL     OW 4105   0.017   2.064   2.409
 1069SOL    HW1 4106   0.102   2.070   2.357
 1069SOL    HW2 4107   6.958   2.087   2.349
 1070SOL     OW 4108   1.119   0.762   2.402
 1070SOL    HW1 4109   1.121   0.668   2.438
 1070SOL    HW2 4110   1.057   0.818   2.457
 1071SOL     OW 4111   0.712   2.900   5.770
 1071SOL    HW1 4112   0.756   2.972   5.717
 1071SOL    HW2 4113   0.674   2.831   5.708
 1072SOL     OW 4114   2.472   1.587   1.797
 1072SOL    HW1 4115   2.399   1.620   1.857
 1072SOL    HW2 4116   2.473   1.641   1.713
 1073SOL     OW 4117   5.115   2.081   2.669
 1073SOL    HW1 4118   5.039   2.016   2.660
 1073SOL    HW2 4119   5.182   2.064   2.597
 1074SOL     OW 4120   3.345   5.827   1.822
 1074SOL    HW1 4121   3.251   5.793   1.829
 1074SOL    HW2 4122   3.406   5.751   1.800
 1075SOL     OW 4123   0.079   3.535   4.526
 1075SOL    HW1 4124   0.019   3.456   4.521
 1075SOL    HW2 4125   0.025   3.619   4.527
 1076SOL     OW 4126   2.717   4.192   5.316
 1076SOL    HW1 4127   2.730   4.098   5.284
 1076SOL    HW2 4128   2.746   4.256   5.245
 1077SOL     OW 4129   6.864   6.468   0.606
 1077SOL    HW1 4130   6.830   6.389   0.556
 1077SOL    HW2 4131   6.957   6.490   0.576
 1078SOL     OW 4132   5.521   6.888   4.228
 1078SOL    HW1 4133   5.562   6.798   4.208
 1078SOL    HW2 4134   5.422   6.883   4.214
 1079SOL     OW 4135   1.094   5.874   1.707
 1079SOL    HW1 4136   1.039   5.864   1.624
 1079SOL    HW2 4137   1.101   5.971   1.730
 1080SOL     OW 4138   5.050   5.823   0.142
 1080SOL    HW1 4139   5.006   5.750   0.196
 1080SOL    HW2 4140   5.061   5.904   0.200
 1081SOL     OW 4141   6.833   6.481   3.143
 1081SOL    HW1 4142   6.744   6.434   3.143
 1081SOL    HW2 4143   6.842   6.534   3.227
 1082SOL     OW 4144   4.428   6.983   6.871
 1082SOL    HW1 4145   4.357   6.924   6.911
 1082SOL    HW2 4146   4.516   6.964   6.915
 1083SOL     OW 4147   6.602   4.110   2.314
 1083SOL    HW1 4148   6.616   4.099   2.412
 1083SOL    HW2 4149   6.655   4.188   2.281
 1084SOL     OW 4150   4.143   0.687   5.516
 1084SOL    HW1 4151   4.135   0.737   5.602
 1084SOL    HW2 4152   4.096   0.737   5.443
 1085SOL     OW 4153   1.662   3.404   4.851
 1085SOL    HW1 4154   1.711   3.364   4.773
 1085SOL    HW2 4155   1.588   3.343   4.879
 1086SOL     OW 4156   5.700   4.629   2.295
 1086SOL    HW1 4157   5.795   4.599   2.303
 1086SOL    HW2 4158   5.697   4.729   2.290
 1087SOL     OW 4159   3.675   0.203   5.699
 1087SOL    HW1 4160   3.726   0.222   5.783
 1087SOL    HW2 4161   3.736   0.158   5.633
 1088SOL     OW 4162   6.271   5.551   4.179
 1088SOL    HW1 4163   6.294   5.459   4.210
 1088SOL    HW2 4164   6.334   5.579   4.107
 1089SOL     OW 4165   5.740   5.107   4.417
 1089SOL    HW1 4166   5.659   5.066   4.457
 1089SOL    HW2 4167   5.814   5.040   4.415
 1090SOL     OW 4168   6.024   2.829   5.066
 1090SOL    HW1 4169   6.033   2.784   5.154
 1090SOL    HW2 4170   5.954   2.900   5.072
 1091SOL     OW 4171   1.960   3.748   3.207
 1091SOL    HW1 4172   2.019   3.671   3.185
 1091SOL    HW2 4173   1.869   3.715   3.231
 1092SOL     OW 4174   1.053   6.346   0.120
 1092SOL    HW1 4175   1.134   6.405   0.125
 1092SOL    HW2 4176   1.015   6.350   0.028
 1093SOL     OW 4177   1.716   0.549   2.822
 1093SOL    HW1 4178   1.754   0.537   2.730
 1093SOL    HW2 4179   1.790   0.551   2.888
 1094SOL     OW 4180   0.152   6.822   3.283
 1094SOL    HW1 4181   0.130   6.775   3.369
 1094SOL    HW2 4182   0.067   6.857   3.243
 1095SOL     OW 4183   6.207   4.111   1.115
 1095SOL    HW1 4184   6.282   4.114   1.180
 1095SOL    HW2 4185   6.167   4.203   1.106
 1096SOL     OW 4186   2.044   6.254   2.153
 1096SOL    HW1 4187   1.986   6.232   2.074
 1096SOL    HW2 4188   2.117   6.186   2.161
 1097SOL     OW 4189   3.211   6.246   4.841
 1097SOL    HW1 4190   3.293   6.250   4.900
 1097SOL    HW2 4191   3.223   6.308   4.763
 1098SOL     OW 4192   6.764   4.287   6.837
 1098SOL    HW1 4193   6.684   4.229   6.855
 1098SOL    HW2 4194   6.842   4.229   6.814
 1099SOL     OW 4195   5.444   0.187   6.898
 1099SOL    HW1 4196   5.462   0.256   6.968
 1099SOL    HW2 4197   5.520   0.185   6.833
 1100SOL     OW 4198   4.882   1.275   4.129
 1100SOL    HW1 4199   4.962   1.333   4.145
 1100SOL    HW2 4200   4.817   1.288   4.204
 1101SOL     OW 4201   4.797   3.183   6.929
 1101SOL    HW1 4202   4.752   3.100   6.962
 1101SOL    HW2 4203   4.746   3.219   6.850
 1102SOL     OW 4204   3.301   0.932   4.565
 1102SOL    HW1 4205   3.337   0.945   4.657
 1102SOL    HW2 4206   3.300   1.019   4.517
 1103SOL     OW 4207   3.286   6.809   0.640
 1103SOL    HW1 4208   3.357   6.771   0.699
 1103SOL    HW2 4209   3.207   6.747   0.637
 1104SOL     OW 4210   6.425   1.342   3.508
 1104SOL    HW1 4211   6.392   1.379   3.420
 1104SOL    HW2 4212   6.520   1.314   3.499
 1105SOL     OW 4213   5.016   0.839   6.216
 1105SOL    HW1 4214   5.023   0.868   6.120
 1105SOL    HW2 4215   4.967   0.752   6.221
 1106SOL     OW 4216   6.006   1.512   1.866
 1106SOL    HW1 4217   6.035   1.462   1.947
 1106SOL    HW2 4218   5.906   1.514   1.862
 1107SOL     OW 4219   1.730   2.350   6.638
 1107SOL    HW1 4220   1.726   2.308   6.729
 1107SOL    HW2 4221   1.637   2.371   6.608
 1108SOL     OW 4222   2.120   1.515   2.789
 1108SOL    HW1 4223   2.093   1.529   2.694
 1108SOL    HW2 4224   2.211   1.473   2.791
 1109SOL     OW 4225   4.762   1.654   5.163
 1109SOL    HW1 4226   4.819   1.654   5.081
 1109SOL    HW2 4227   4.716   1.566   5.172
 1110SOL     OW 4228   1.230   0.687   2.694
 1110SOL    HW1 4229   1.218   0.609   2.632
 1110SOL    HW2 4230   1.142   0.711   2.734
 1111SOL     OW 4231   5.529   3.085   6.250
 1111SOL    HW1 4232   5.624   3.092   6.282
 1111SOL    HW2 4233   5.511   3.157   6.183
 1112SOL     OW 4234   5.635   0.379   2.665
 1112SOL    HW1 4235   5.538   0.393   2.647
 1112SOL    HW2 4236   5.662   0.435   2.744
 1113SOL     OW 4237   0.072   1.717   2.728
 1113SOL    HW1 4238   0.008   1.775   2.677
 1113SOL    HW2 4239   0.130   1.775   2.786
 1114SOL     OW 4240   3.354   3.482   4.687
 1114SOL    HW1 4241   3.258   3.459   4.702
 1114SOL    HW2 4242   3.394   3.518   4.771
 1115SOL     OW 4243   2.267   5.254   6.048
 1115SOL    HW1 4244   2.314   5.226   5.964
 1115SOL    HW2 4245   2.291   5.191   6.122
 1116SOL     OW 4246   4.564   0.104   0.428
 1116SOL    HW1 4247   4.468   0.128   0.413
 1116SOL    HW2 4248   4.603   0.069   0.343
 1117SOL     OW 4249   2.208   2.405   1.630
 1117SOL    HW1 4250   2.217   2.460   1.713
 1117SOL    HW2 4251   2.265   2.323   1.639
 1118SOL     OW 4252   4.510   6.473   6.912
 1118SOL    HW1 4253   4.567   6.549   6.943
 1118SOL    HW2 4254   4.519   6.462   6.813
 1119SOL     OW 4255   2.525   5.825   4.109
 1119SOL    HW1 4256   2.559   5.801   4.201
 1119SOL    HW2 4257   2.557   5.917   4.085
 1120SOL     OW 4258   0.428   3.480   1.585
 1120SOL    HW1 4259   0.365   3.538   1.534
 1120SOL    HW2 4260   0.522   3.499   1.558
 1121SOL     OW 4261   5.391   4.343   5.773
 1121SOL    HW1 4262   5.434   4.427   5.805
 1121SOL    HW2 4263   5.461   4.275   5.749
 1122SOL     OW 4264   6.151   0.531   2.350
 1122SOL    HW1 4265   6.155   0.435   2.320
 1122SOL    HW2 4266   6.129   0.534   2.447
 1123SOL     OW 4267   3.478   1.560   4.717
 1123SOL    HW1 4268   3.475   1.461   4.733
 1123SOL    HW2 4269   3.570   1.594   4.736
 1124SOL     OW 4270   2.386   2.692   3.140
 1124SOL    HW1 4271   2.292   2.717   3.160
 1124SOL    HW2 4272   2.443   2.774   3.137
 1125SOL     OW 4273   1.040   3.556   4.160
 1125SOL    HW1 4274   0.990   3.477   4.124
 1125SOL    HW2 4275   1.098   3.595   4.088
 1126SOL     OW 4276   4.625   4.263   3.690
 1126SOL    HW1 4277   4.712   4.310   3.675
 1126SOL    HW2 4278   4.589   4.288   3.780
 1127SOL     OW 4279   5.919   6.770   1.097
 1127SOL    HW1 4280   5.846   6.727   1.045
 1127SOL    HW2 4281   5.961   6.842   1.043
 1128SOL     OW 4282   3.797   1.940   4.841
 1128SOL    HW1 4283   3.713   1.976   4.883
 1128SOL    HW2 4284   3.853   2.017   4.808
 1129SOL     OW 4285   1.282   0.893   0.286
 1129SOL    HW1 4286   1.318   0.814   0.335
 1129SOL    HW2 4287   1.340   0.973   0.304
 1130SOL     OW 4288   2.096   5.443   1.365
 1130SOL    HW1 4289   2.048   5.372   1.314
 1130SOL    HW2 4290   2.030   5.511   1.397
 1131SOL     OW 4291   1.402   5.466   3.846
 1131SOL    HW1 4292   1.444   5.556   3.860
 1131SOL    HW2 4293   1.302   5.476   3.840
 1132SOL     OW 4294   1.626   2.169   3.148
 1132SOL    HW1 4295   1.600   2.133   3.059
 1132SOL    HW2 4296   1.705   2.119   3.183
 1133SOL     OW 4297   1.674   6.332   6.579
 1133SOL    HW1 4298   1.755   6.283   6.547
 1133SOL    HW2 4299   1.679   6.343   6.678
 1134SOL     OW 4300   4.409   6.041   0.917
 1134SOL    HW1 4301   4.495   5.999   0.947
 1134SOL    HW2 4302   4.348   5.969   0.880
 1135SOL     OW 4303   2.164   0.012   3.092
 1135SOL    HW1 4304   2.132   6.936   3.082
 1135SOL    HW2 4305   2.241   0.028   3.030
 1136SOL     OW 4306   1.548   4.750   2.925
 1136SOL    HW1 4307   1.625   4.686   2.925
 1136SOL    HW2 4308   1.546   4.800   2.839
 1137SOL     OW 4309   1.037   5.604   4.231
 1137SOL    HW1 4310   1.076   5.515   4.209
 1137SOL    HW2 4311   0.942   5.593   4.262
 1138SOL     OW 4312   2.227   4.162   4.440
 1138SOL    HW1 4313   2.180   4.099   4.501
 1138SOL    HW2 4314   2.264   4.238   4.493
 1139SOL     OW 4315   3.575   5.580   5.045
 1139SOL    HW1 4316   3.554   5.665   4.998
 1139SOL    HW2 4317   3.503   5.513   5.028
 1140SOL     OW 4318   2.140   2.426   1.230
 1140SOL    HW1 4319   2.111   2.489   1.157
 1140SOL    HW2 4320   2.179   2.479   1.306
 1141SOL     OW 4321   6.420   4.702   5.594
 1141SOL    HW1 4322   6.391   4.719   5.500
 1141SOL    HW2 4323   6.379   4.770   5.655
 1142SOL     OW 4324   0.651   5.406   2.874
 1142SOL    HW1 4325   0.652   5.500   2.908
 1142SOL    HW2 4326   0.581   5.354   2.923
 1143SOL     OW 4327   6.788   4.633   1.635
 1143SOL    HW1 4328   6.881   4.637   1.598
 1143SOL    HW2 4329   6.784   4.561   1.705
 1144SOL     OW 4330   5.075   4.645   0.060
 1144SOL    HW1 4331   5.093   4.599   0.148
 1144SOL    HW2 4332   5.155   4.700   0.035
 1145SOL     OW 4333   6.176   6.788   0.721
 1145SOL    HW1 4334   6.078   6.793   0.704
 1145SOL    HW2 4335   6.219   6.728   0.654
 1146SOL     OW 4336   1.884   0.498   1.395
 1146SOL    HW1 4337   1.968   0.551   1.407
 1146SOL    HW2 4338   1.840   0.483   1.483
 1147SOL     OW 4339   1.610   6.531   0.887
 1147SOL    HW1 4340   1.565   6.466   0.825
 1147SOL    HW2 4341   1.540   6.589   0.929
 1148SOL     OW 4342   3.593   6.239   1.915
 1148SOL    HW1 4343   3.504   6.204   1.888
 1148SOL    HW2 4344   3.581   6.307   1.988
 1149SOL     OW 4345   5.665   1.815   1.263
 1149SOL    HW1 4346   5.731   1.796   1.336
 1149SOL    HW2 4347   5.714   1.836   1.178
 1150SOL     OW 4348   1.561   1.737   0.982
 1150SOL    HW1 4349   1.551   1.741   0.882
 1150SOL    HW2 4350   1.475   1.704   1.023
 1151SOL     OW 4351   5.580   5.789   4.297
 1151SOL    HW1 4352   5.614   5.697   4.279
 1151SOL    HW2 4353   5.656   5.851   4.317
 1152SOL     OW 4354   3.072   6.282   5.612
 1152SOL    HW1 4355   3.098   6.274   5.708
 1152SOL    HW2 4356   2.972   6.292   5.605
 1153SOL     OW 4357   5.485   6.664   1.068
 1153SOL    HW1 4358   5.468   6.750   1.116
 1153SOL    HW2 4359   5.580   6.659   1.040
 1154SOL     OW 4360   1.867   3.228   0.743
 1154SOL    HW1 4361   1.809   3.214   0.663
 1154SOL    HW2 4362   1.847   3.158   0.811
 1155SOL     OW 4363   3.750   5.887   4.131
 1155SOL    HW1 4364   3.811   5.851   4.060
 1155SOL    HW2 4365   3.655   5.860   4.110
 1156SOL     OW 4366   2.715   1.199   1.529
 1156SOL    HW1 4367   2.790   1.175   1.468
 1156SOL    HW2 4368   2.652   1.122   1.536
 1157SOL     OW 4369   2.074   2.288   0.606
 1157SOL    HW1 4370   2.098   2.199   0.644
 1157SOL    HW2 4371   1.981   2.283   0.568
 1158SOL     OW 4372   5.894   4.331   4.014
 1158SOL    HW1 4373   5.976   4.300   4.064
 1158SOL    HW2 4374   5.849   4.403   4.066
 1159SOL     OW 4375   5.603   4.730   0.424
 1159SOL    HW1 4376   5.680   4.732   0.488
 1159SOL    HW2 4377   5.570   4.636   0.413
 1160SOL     OW 4378   4.467   1.972   0.888
 1160SOL    HW1 4379   4.450   2.033   0.966
 1160SOL    HW2 4380   4.398   1.900   0.888
 1161SOL     OW 4381   0.352   5.254   0.645
 1161SOL    HW1 4382   0.374   5.230   0.739
 1161SOL    HW2 4383   0.435   5.248   0.589
 1162SOL     OW 4384   2.228   2.781   4.799
 1162SOL    HW1 4385   2.269   2.739   4.879
 1162SOL    HW2 4386   2.229   2.881   4.809
 1163SOL     OW 4387   5.022   1.676   2.009
 1163SOL    HW1 4388   5.014   1.736   2.089
 1163SOL    HW2 4389   5.111   1.688   1.967
 1164SOL     OW 4390   4.259   2.083   5.496
 1164SOL    HW1 4391   4.273   2.173   5.538
 1164SOL    HW2 4392   4.225   2.019   5.565
 1165SOL     OW 4393   4.273   0.371   3.051
 1165SOL    HW1 4394   4.273   0.283   3.002
 1165SOL    HW2 4395   4.223   0.361   3.137
 1166SOL     OW 4396   3.692   4.148   6.425
 1166SOL    HW1 4397   3.672   4.053   6.448
 1166SOL    HW2 4398   3.757   4.151   6.349
 1167SOL     OW 4399   5.493   4.128   3.510
 1167SOL    HW1 4400   5.409   4.165   3.471
 1167SOL    HW2 4401   5.474   4.038   3.551
 1168SOL     OW 4402   0.811   6.580   0.860
 1168SOL    HW1 4403   0.851   6.645   0.796
 1168SOL    HW2 4404   0.819   6.488   0.824
 1169SOL     OW 4405   5.095   2.257   5.400
 1169SOL    HW1 4406   5.170   2.202   5.365
 1169SOL    HW2 4407   5.027   2.197   5.442
 1170SOL     OW 4408   4.899   4.511   2.675
 1170SOL    HW1 4409   4.863   4.440   2.735
 1170SOL    HW2 4410   4.992   4.487   2.646
 1171SOL     OW 4411   0.177   6.314   0.670
 1171SOL    HW1 4412   0.245   6.258   0.622
 1171SOL    HW2 4413   0.130   6.373   0.604
 1172SOL     OW 4414   5.682   3.174   6.910
 1172SOL    HW1 4415   5.620   3.240   6.868
 1172SOL    HW2 4416   5.708   3.206   7.002
 1173SOL     OW 4417   4.550   2.816   1.441
 1173SOL    HW1 4418   4.636   2.867   1.444
 1173SOL    HW2 4419   4.498   2.835   1.525
 1174SOL     OW 4420   2.883   5.022   0.331
 1174SOL    HW1 4421   2.966   5.041   0.278
 1174SOL    HW2 4422   2.881   4.924   0.354
 1175SOL     OW 4423   3.518   3.987   3.803
 1175SOL    HW1 4424   3.429   4.018   3.838
 1175SOL    HW2 4425   3.511   3.972   3.705
 1176SOL     OW 4426   5.639   3.447   0.320
 1176SOL    HW1 4427   5.715   3.398   0.277
 1176SOL    HW2 4428   5.593   3.504   0.251
 1177SOL     OW 4429   0.898   1.647   4.817
 1177SOL    HW1 4430   0.985   1.671   4.859
 1177SOL    HW2 4431   0.828   1.637   4.888
 1178SOL     OW 4432   4.251   6.536   6.885
 1178SOL    HW1 4433   4.199   6.585   6.955
 1178SOL    HW2 4434   4.343   6.518   6.919
 1179SOL     OW 4435   0.214   5.829   0.600
 1179SOL    HW1 4436   0.229   5.795   0.507
 1179SOL    HW2 4437   0.301   5.836   0.648
 1180SOL     OW 4438   3.712   6.379   0.622
 1180SOL    HW1 4439   3.692   6.308   0.554
 1180SOL    HW2 4440   3.801   6.419   0.604
 1181SOL     OW 4441   6.127   6.208   6.365
 1181SOL    HW1 4442   6.213   6.202   6.313
 1181SOL    HW2 4443   6.146   6.243   6.457
 1182SOL     OW 4444   5.096   3.584   4.298
 1182SOL    HW1 4445   5.024   3.516   4.310
 1182SOL    HW2 4446   5.157   3.583   4.377
 1183SOL     OW 4447   1.852   4.498   0.166
 1183SOL    HW1 4448   1.818   4.447   0.245
 1183SOL    HW2 4449   1.928   4.448   0.124
 1184SOL     OW 4450   0.300   1.444   5.469
 1184SOL    HW1 4451   0.359   1.384   5.523
 1184SOL    HW2 4452   0.278   1.400   5.382
 1185SOL     OW 4453   6.846   1.788   6.413
 1185SOL    HW1 4454   6.856   1.724   6.336
 1185SOL    HW2 4455   6.749   1.806   6.429
 1186SOL     OW 4456   5.034   6.780   4.654
 1186SOL    HW1 4457   5.061   6.747   4.564
 1186SOL    HW2 4458   5.026   6.702   4.717
 1187SOL     OW 4459   6.399   2.339   6.560
 1187SOL    HW1 4460   6.360   2.350   6.468
 1187SOL    HW2 4461   6.419   2.243   6.577
 1188SOL     OW 4462   4.114   1.915   6.547
 1188SOL    HW1 4463   4.205   1.910   6.588
 1188SOL    HW2 4464   4.093   2.009   6.522
 1189SOL     OW 4465   5.890   3.556   3.406
 1189SOL    HW1 4466   5.858   3.612   3.483
 1189SOL    HW2 4467   5.848   3.466   3.412
 1190SOL     OW 4468   3.022   0.344   3.844
 1190SOL    HW1 4469   3.028   0.372   3.748
 1190SOL    HW2 4470   2.950   0.398   3.889
 1191SOL     OW 4471   3.309   7.008   2.996
 1191SOL    HW1 4472   3.332   6.962   3.082
 1191SOL    HW2 4473   3.368   6.973   2.923
 1192SOL     OW 4474   5.889   5.927   3.955
 1192SOL    HW1 4475   5.947   5.880   3.889
 1192SOL    HW2 4476   5.888   6.025   3.935
 1193SOL     OW 4477   6.507   6.085   4.578
 1193SOL    HW1 4478   6.451   6.161   4.545
 1193SOL    HW2 4479   6.476   6.058   4.670
 1194SOL     OW 4480   3.808   0.497   0.792
 1194SOL    HW1 4481   3.897   0.464   0.822
 1194SOL    HW2 4482   3.747   0.420   0.777
 1195SOL     OW 4483   4.947   2.728   2.797
 1195SOL    HW1 4484   4.963   2.711   2.699
 1195SOL    HW2 4485   5.034   2.747   2.842
 1196SOL     OW 4486   0.430   6.627   4.856
 1196SOL    HW1 4487   0.503   6.585   4.804
 1196SOL    HW2 4488   0.341   6.599   4.818
 1197SOL     OW 4489   2.389   6.482   6.853
 1197SOL    HW1 4490   2.324   6.491   6.779
 1197SOL    HW2 4491   2.460   6.552   6.845
 1198SOL     OW 4492   1.440   2.488   0.117
 1198SOL    HW1 4493   1.437   2.407   0.176
 1198SOL    HW2 4494   1.477   2.463   0.028
 1199SOL     OW 4495   5.676   4.081   2.645
 1199SOL    HW1 4496   5.713   3.996   2.607
 1199SOL    HW2 4497   5.580   4.066   2.672
 1200SOL     OW 4498   3.162   3.935   2.364
 1200SOL    HW1 4499   3.100   3.925   2.442
 1200SOL    HW2 4500   3.256   3.920   2.395
 1201SOL     OW 4501   1.469   2.109   4.922
 1201SOL    HW1 4502   1.381   2.156   4.917
 1201SOL    HW2 4503   1.531   2.160   4.981
 1202SOL     OW 4504   1.167   6.191   5.139
 1202SOL    HW1 4505   1.246   6.200   5.199
 1202SOL    HW2 4506   1.197   6.175   5.045
 1203SOL     OW 4507   4.105   5.773   5.113
 1203SOL    HW1 4508   4.086   5.778   5.211
 1203SOL    HW2 4509   4.194   5.730   5.099
 1204SOL     OW 4510   2.115   6.882   2.435
 1204SOL    HW1 4511   2.193   6.940   2.415
 1204SOL    HW2 4512   2.095   6.884   2.533
 1205SOL     OW 4513   5.782   3.297   2.530
 1205SOL    HW1 4514   5.724   3.343   2.463
 1205SOL    HW2 4515   5.726   3.266   2.607
 1206SOL     OW 4516   3.041   3.923   4.189
 1206SOL    HW1 4517   2.996   3.916   4.278
 1206SOL    HW2 4518   3.140   3.919   4.201
 1207SOL     OW 4519   0.976   5.710   3.116
 1207SOL    HW1 4520   0.924   5.758   3.186
 1207SOL    HW2 4521   0.978   5.612   3.136
 1208SOL     OW 4522   3.415   2.978   6.642
 1208SOL    HW1 4523   3.395   3.016   6.733
 1208SOL    HW2 4524   3.377   2.885   6.637
 1209SOL     OW 4525   4.044   6.471   5.205
 1209SOL    HW1 4526   4.052   6.442   5.300
 1209SOL    HW2 4527   4.097   6.555   5.191
 1210SOL     OW 4528   3.156   0.960   2.720
 1210SOL    HW1 4529   3.223   0.981   2.791
 1210SOL    HW2 4530   3.196   0.976   2.630
 1211SOL     OW 4531   0.915   2.717   0.599
 1211SOL    HW1 4532   0.871   2.767   0.673
 1211SOL    HW2 4533   0.846   2.685   0.534
 1212SOL     OW 4534   0.903   6.666   0.425
 1212SOL    HW1 4535   0.893   6.662   0.325
 1212SOL    HW2 4536   0.812   6.677   0.467
 1213SOL     OW 4537   5.742   2.943   1.654
 1213SOL    HW1 4538   5.823   2.987   1.692
 1213SOL    HW2 4539   5.674   2.930   1.726
 1214SOL     OW 4540   0.127   2.309   2.388
 1214SOL    HW1 4541   0.068   2.236   2.425
 1214SOL    HW2 4542   0.171   2.276   2.304
 1215SOL     OW 4543   2.084   5.800   2.824
 1215SOL    HW1 4544   2.043   5.844   2.904
 1215SOL    HW2 4545   2.179   5.832   2.814
 1216SOL     OW 4546   4.435   0.184   1.289
 1216SOL    HW1 4547   4.449   0.254   1.219
 1216SOL    HW2 4548   4.338   0.162   1.296
 1217SOL     OW 4549   3.013   4.157   6.911
 1217SOL    HW1 4550   3.055   4.246   6.926
 1217SOL    HW2 4551   2.984   4.119   6.999
 1218SOL     OW 4552   2.221   4.925   4.090
 1218SOL    HW1 4553   2.205   4.844   4.034
 1218SOL    HW2 4554   2.285   4.902   4.164
 1219SOL     OW 4555   3.709   5.165   2.164
 1219SOL    HW1 4556   3.660   5.127   2.086
 1219SOL    HW2 4557   3.734   5.091   2.227
 1220SOL     OW 4558   0.396   5.017   2.183
 1220SOL    HW1 4559   0.467   4.976   2.127
 1220SOL    HW2 4560   0.387   5.114   2.161
 1221SOL     OW 4561   4.570   4.261   6.716
 1221SOL    HW1 4562   4.653   4.317   6.714
 1221SOL    HW2 4563   4.582   4.182   6.656
 1222SOL     OW 4564   0.123   0.977   6.617
 1222SOL    HW1 4565   0.131   1.017   6.526
 1222SOL    HW2 4566   0.028   0.950   6.633
 1223SOL     OW 4567   3.878   6.348   1.276
 1223SOL    HW1 4568   3.962   6.366   1.224
 1223SOL    HW2 4569   3.847   6.255   1.257
 1224SOL     OW 4570   3.062   0.998   1.554
 1224SOL    HW1 4571   3.022   1.074   1.503
 1224SOL    HW2 4572   3.087   1.029   1.646
 1225SOL     OW 4573   3.564   4.271   6.126
 1225SOL    HW1 4574   3.579   4.176   6.156
 1225SOL    HW2 4575   3.502   4.271   6.048
 1226SOL     OW 4576   2.406   5.150   0.807
 1226SOL    HW1 4577   2.423   5.094   0.725
 1226SOL    HW2 4578   2.415   5.247   0.784
 1227SOL     OW 4579   1.604   4.469   5.753
 1227SOL    HW1 4580   1.638   4.558   5.784
 1227SOL    HW2 4581   1.604   4.405   5.830
 1228SOL     OW 4582   3.847   2.599   0.101
 1228SOL    HW1 4583   3.775   2.659   0.137
 1228SOL    HW2 4584   3.912   2.577   0.173
 1229SOL     OW 4585   3.241   3.874   6.716
 1229SOL    HW1 4586   3.262   3.837   6.626
 1229SOL    HW2 4587   3.199   3.803   6.773
 1230SOL     OW 4588   4.389   0.635   3.789
 1230SOL    HW1 4589   4.442   0.616   3.707
 1230SOL    HW2 4590   4.294   0.608   3.775
 1231SOL     OW 4591   0.700   3.678   3.544
 1231SOL    HW1 4592   0.677   3.644   3.453
 1231SOL    HW2 4593   0.782   3.633   3.577
 1232SOL     OW 4594   1.676   2.726   2.673
 1232SOL    HW1 4595   1.659   2.673   2.591
 1232SOL    HW2 4596   1.762   2.696   2.715
 1233SOL     OW 4597   0.765   2.032   4.509
 1233SOL    HW1 4598   0.676   2.037   4.556
 1233SOL    HW2 4599   0.826   1.971   4.560
 1234SOL     OW 4600   6.533   4.432   4.379
 1234SOL    HW1 4601   6.555   4.340   4.412
 1234SOL    HW2 4602   6.554   4.439   4.282
 1235SOL     OW 4603   6.511   5.232   3.439
 1235SOL    HW1 4604   6.588   5.292   3.460
 1235SOL    HW2 4605   6.458   5.271   3.363
 1236SOL     OW 4606   5.601   0.727   6.621
 1236SOL    HW1 4607   5.555   0.646   6.583
 1236SOL    HW2 4608   5.604   0.799   6.552
 1237SOL     OW 4609   2.121   4.545   6.471
 1237SOL    HW1 4610   2.055   4.543   6.546
 1237SOL    HW2 4611   2.208   4.506   6.502
 1238SOL     OW 4612   1.834   1.390   1.250
 1238SOL    HW1 4613   1.919   1.437   1.272
 1238SOL    HW2 4614   1.831   1.372   1.151
 1239SOL     OW 4615   0.871   6.911   6.078
 1239SOL    HW1 4616   0.907   6.927   5.986
 1239SOL    HW2 4617   0.808   6.985   6.102
 1240SOL     OW 4618   5.799   5.530   0.766
 1240SOL    HW1 4619   5.734   5.598   0.732
 1240SOL    HW2 4620   5.878   5.526   0.705
 1241SOL     OW 4621   0.219   2.083   4.270
 1241SOL    HW1 4622   0.278   2.131   4.204
 1241SOL    HW2 4623   0.136   2.051   4.223
 1242SOL     OW 4624   1.988   2.554   6.749
 1242SOL    HW1 4625   2.049   2.568   6.827
 1242SOL    HW2 4626   1.940   2.467   6.760
 1243SOL     OW 4627   3.133   5.105   5.070
 1243SOL    HW1 4628   3.123   5.005   5.070
 1243SOL    HW2 4629   3.169   5.135   4.981
 1244SOL     OW 4630   0.742   1.837   3.009
 1244SOL    HW1 4631   0.777   1.801   2.923
 1244SOL    HW2 4632   0.775   1.781   3.085
 1245SOL     OW 4633   3.193   3.037   5.286
 1245SOL    HW1 4634   3.111   2.983   5.302
 1245SOL    HW2 4635   3.207   3.050   5.187
 1246SOL     OW 4636   1.290   6.583   2.140
 1246SOL    HW1 4637   1.299   6.491   2.177
 1246SOL    HW2 4638   1.381   6.617   2.113
 1247SOL     OW 4639   1.014   5.995   6.391
 1247SOL    HW1 4640   1.030   6.081   6.341
 1247SOL    HW2 4641   0.998   6.015   6.487
 1248SOL     OW 4642   2.179   6.879   3.944
 1248SOL    HW1 4643   2.224   6.929   4.018
 1248SOL    HW2 4644   2.103   6.826   3.981
 1249SOL     OW 4645   6.285   3.126   3.197
 1249SOL    HW1 4646   6.269   3.079   3.109
 1249SOL    HW2 4647   6.199   3.164   3.230
 1250SOL     OW 4648   0.198   3.087   4.732
 1250SOL    HW1 4649   0.227   3.168   4.680
 1250SOL    HW2 4650   0.278   3.043   4.772
 1251SOL     OW 4651   3.452   0.656   6.218
 1251SOL    HW1 4652   3.420   0.567   6.250
 1251SOL    HW2 4653   3.550   0.651   6.198
 1252SOL     OW 4654   3.636   3.729   0.473
 1252SOL    HW1 4655   3.706   3.774   0.528
 1252SOL    HW2 4656   3.600   3.650   0.523
 1253SOL     OW 4657   4.919   1.349   2.906
 1253SOL    HW1 4658   4.826   1.323   2.935
 1253SOL    HW2 4659   4.928   1.337   2.808
 1254SOL     OW 4660   5.512   1.012   3.483
 1254SOL    HW1 4661   5.565   1.052   3.558
 1254SOL    HW2 4662   5.440   1.076   3.456
 1255SOL     OW 4663   5.934   0.591   2.163
 1255SOL    HW1 4664   6.012   0.584   2.225
 1255SOL    HW2 4665   5.924   0.505   2.113
 1256SOL     OW 4666   5.458   3.095   3.530
 1256SOL    HW1 4667   5.443   3.013   3.475
 1256SOL    HW2 4668   5.440   3.176   3.474
 1257SOL     OW 4669   5.788   1.133   4.066
 1257SOL    HW1 4670   5.865   1.162   4.124
 1257SOL    HW2 4671   5.775   1.199   3.993
 1258SOL     OW 4672   7.002   5.201   3.918
 1258SOL    HW1 4673   6.992   5.298   3.895
 1258SOL    HW2 4674   0.054   5.161   3.859
 1259SOL     OW 4675   5.334   1.997   4.633
 1259SOL    HW1 4676   5.406   2.060   4.606
 1259SOL    HW2 4677   5.271   2.043   4.697
 1260SOL     OW 4678   0.629   1.577   4.938
 1260SOL    HW1 4679   0.618   1.666   4.982
 1260SOL    HW2 4680   0.550   1.520   4.957
 1261SOL     OW 4681   6.613   3.405   1.146
 1261SOL    HW1 4682   6.537   3.361   1.194
 1261SOL    HW2 4683   6.597   3.402   1.048
 1262SOL     OW 4684   4.994   6.124   2.094
 1262SOL    HW1 4685   5.091   6.140   2.076
 1262SOL    HW2 4686   4.958   6.197   2.152
 1263SOL     OW 4687   1.270   2.096   3.154
 1263SOL    HW1 4688   1.322   2.107   3.238
 1263SOL    HW2 4689   1.263   2.185   3.107
 1264SOL     OW 4690   1.042   2.851   5.259
 1264SOL    HW1 4691   1.131   2.897   5.263
 1264SOL    HW2 4692   1.026   2.817   5.166
 1265SOL     OW 4693   6.298   0.679   5.793
 1265SOL    HW1 4694   6.256   0.744   5.857
 1265SOL    HW2 4695   6.398   0.688   5.798
 1266SOL     OW 4696   3.403   1.497   5.766
 1266SOL    HW1 4697   3.424   1.504   5.668
 1266SOL    HW2 4698   3.465   1.556   5.817
 1267SOL     OW 4699   3.193   1.066   2.220
 1267SOL    HW1 4700   3.256   1.025   2.155
 1267SOL    HW2 4701   3.203   1.166   2.218
 1268SOL     OW 4702   4.175   2.227   5.281
 1268SOL    HW1 4703   4.206   2.166   5.354
 1268SOL    HW2 4704   4.101   2.286   5.316
 1269SOL     OW 4705   5.518   2.192   3.365
 1269SOL    HW1 4706   5.458   2.270   3.345
 1269SOL    HW2 4707   5.527   2.182   3.464
 1270SOL     OW 4708   6.033   5.282   3.422
 1270SOL    HW1 4709   6.047   5.243   3.331
 1270SOL    HW2 4710   5.936   5.283   3.444
 1271SOL     OW 4711   1.346   0.505   2.220
 1271SOL    HW1 4712   1.339   0.591   2.272
 1271SOL    HW2 4713   1.394   0.522   2.134
 1272SOL     OW 4714   6.645   2.149   0.411
 1272SOL    HW1 4715   6.624   2.090   0.489
 1272SOL    HW2 4716   6.605   2.111   0.328
 1273SOL     OW 4717   2.136   4.370   5.534
 1273SOL    HW1 4718   2.171   4.372   5.628
 1273SOL    HW2 4719   2.182   4.440   5.480
 1274SOL     OW 4720   0.083   4.766   4.340
 1274SOL    HW1 4721   0.078   4.822   4.257
 1274SOL    HW2 4722   0.178   4.742   4.358
 1275SOL     OW 4723   1.745   1.494   2.778
 1275SOL    HW1 4724   1.774   1.542   2.696
 1275SOL    HW2 4725   1.645   1.502   2.787
 1276SOL     OW 4726   5.816   4.165   3.805
 1276SOL    HW1 4727   5.756   4.201   3.733
 1276SOL    HW2 4728   5.808   4.223   3.886
 1277SOL     OW 4729   1.551   6.299   6.346
 1277SOL    HW1 4730   1.593   6.329   6.432
 1277SOL    HW2 4731   1.571   6.202   6.331
 1278SOL     OW 4732   0.136   6.333   2.895
 1278SOL    HW1 4733   0.181   6.394   2.830
 1278SOL    HW2 4734   0.057   6.290   2.851
 1279SOL     OW 4735   3.059   3.140   0.496
 1279SOL    HW1 4736   3.104   3.225   0.471
 1279SOL    HW2 4737   3.080   3.118   0.591
 1280SOL     OW 4738   2.885   2.202   3.694
 1280SOL    HW1 4739   2.832   2.276   3.651
 1280SOL    HW2 4740   2.968   2.186   3.641
 1281SOL     OW 4741   5.338   6.149   5.467
 1281SOL    HW1 4742   5.292   6.062   5.486
 1281SOL    HW2 4743   5.437   6.134   5.465
 1282SOL     OW 4744   1.243   2.641   1.208
 1282SOL    HW1 4745   1.185   2.561   1.218
 1282SOL    HW2 4746   1.315   2.622   1.141
 1283SOL     OW 4747   1.319   0.749   3.959
 1283SOL    HW1 4748   1.268   0.800   4.029
 1283SOL    HW2 4749   1.280   0.658   3.950
 1284SOL     OW 4750   3.896   2.248   1.755
 1284SOL    HW1 4751   3.814   2.287   1.798
 1284SOL    HW2 4752   3.958   2.323   1.728
 1285SOL     OW 4753   4.085   1.229   4.680
 1285SOL    HW1 4754   3.999   1.276   4.660
 1285SOL    HW2 4755   4.159   1.297   4.687
 1286SOL     OW 4756   4.964   1.021   2.041
 1286SOL    HW1 4757   4.967   1.102   1.983
 1286SOL    HW2 4758   4.871   1.009   2.077
 1287SOL     OW 4759   5.315   4.893   6.510
 1287SOL    HW1 4760   5.394   4.954   6.513
 1287SOL    HW2 4761   5.270   4.901   6.421
 1288SOL     OW 4762   4.571   4.649   6.121
 1288SOL    HW1 4763   4.565   4.565   6.174
 1288SOL    HW2 4764   4.644   4.640   6.053
 1289SOL     OW 4765   1.353   6.485   0.626
 1289SOL    HW1 4766   1.278   6.429   0.591
 1289SOL    HW2 4767   1.428   6.425   0.655
 1290SOL     OW 4768   1.242   6.663   4.320
 1290SOL    HW1 4769   1.337   6.694   4.323
 1290SOL    HW2 4770   1.239   6.565   4.338
 1291SOL     OW 4771   5.196   5.651   3.174
 1291SOL    HW1 4772   5.230   5.670   3.082
 1291SOL    HW2 4773   5.273   5.650   3.239
 1292SOL     OW 4774   0.013   6.917   2.903
 1292SOL    HW1 4775   0.000   6.995   2.842
 1292SOL    HW2 4776   0.096   6.868   2.879
 1293SOL     OW 4777   5.121   0.184   0.794
 1293SOL    HW1 4778   5.057   0.212   0.865
 1293SOL    HW2 4779   5.101   0.090   0.765
 1294SOL     OW 4780   2.253   4.358   5.788
 1294SOL    HW1 4781   2.204   4.396   5.867
 1294SOL    HW2 4782   2.346   4.394   5.786
 1295SOL     OW 4783   0.235   4.858   0.113
 1295SOL    HW1 4784   0.244   4.905   0.201
 1295SOL    HW2 4785   0.195   4.768   0.128
 1296SOL     OW 4786   4.076   0.621   5.861
 1296SOL    HW1 4787   4.020   0.538   5.858
 1296SOL    HW2 4788   4.170   0.596   5.885
 1297SOL     OW 4789   6.320   6.764   6.927
 1297SOL    HW1 4790   6.302   6.860   6.947
 1297SOL    HW2 4791   6.399   6.757   6.866
 1298SOL     OW 4792   5.290   0.377   3.188
 1298SOL    HW1 4793   5.381   0.408   3.219
 1298SOL    HW2 4794   5.234   0.457   3.167
 1299SOL     OW 4795   1.084   4.921   5.028
 1299SOL    HW1 4796   1.124   5.012   5.040
 1299SOL    HW2 4797   1.139   4.868   4.964
 1300SOL     OW 4798   1.558   5.535   7.005
 1300SOL    HW1 4799   1.589   5.518   6.912
 1300SOL    HW2 4800   1.554   5.634   0.003
 1301SOL     OW 4801   6.170   1.420   6.664
 1301SOL    HW1 4802   6.144   1.516   6.671
 1301SOL    HW2 4803   6.087   1.364   6.662
 1302SOL     OW 4804   6.478   6.695   4.963
 1302SOL    HW1 4805   6.486   6.626   5.035
 1302SOL    HW2 4806   6.569   6.729   4.938
 1303SOL     OW 4807   3.302   6.766   1.332
 1303SOL    HW1 4808   3.212   6.806   1.314
 1303SOL    HW2 4809   3.297   6.706   1.411
 1304SOL     OW 4810   6.779   0.465   0.191
 1304SOL    HW1 4811   6.854   0.529   0.212
 1304SOL    HW2 4812   6.817   0.375   0.171
 1305SOL     OW 4813   4.102   4.157   6.039
 1305SOL    HW1 4814   4.157   4.205   5.972
 1305SOL    HW2 4815   4.005   4.180   6.026
 1306SOL     OW 4816   2.631   6.389   4.350
 1306SOL    HW1 4817   2.692   6.416   4.276
 1306SOL    HW2 4818   2.598   6.296   4.334
 1307SOL     OW 4819   2.128   3.468   3.705
 1307SOL    HW1 4820   2.122   3.543   3.770
 1307SOL    HW2 4821   2.220   3.429   3.707
 1308SOL     OW 4822   1.003   3.818   6.273
 1308SOL    HW1 4823   1.024   3.749   6.204
 1308SOL    HW2 4824   1.008   3.777   6.364
 1309SOL     OW 4825   6.147   4.139   6.660
 1309SOL    HW1 4826   6.140   4.108   6.755
 1309SOL    HW2 4827   6.059   4.127   6.615
 1310SOL     OW 4828   2.137   2.902   3.489
 1310SOL    HW1 4829   2.102   2.982   3.538
 1310SOL    HW2 4830   2.198   2.850   3.550
 1311SOL     OW 4831   6.132   5.151   0.236
 1311SOL    HW1 4832   6.134   5.053   0.215
 1311SOL    HW2 4833   6.041   5.188   0.216
 1312SOL     OW 4834   2.268   1.578   6.608
 1312SOL    HW1 4835   2.365   1.567   6.629
 1312SOL    HW2 4836   2.257   1.593   6.510
 1313SOL     OW 4837   5.276   4.992   2.789
 1313SOL    HW1 4838   5.237   5.084   2.779
 1313SOL    HW2 4839   5.203   4.924   2.782
 1314SOL     OW 4840   2.628   1.571   3.979
 1314SOL    HW1 4841   2.640   1.646   3.914
 1314SOL    HW2 4842   2.693   1.498   3.958
 1315SOL     OW 4843   5.957   1.088   3.338
 1315SOL    HW1 4844   5.867   1.060   3.304
 1315SOL    HW2 4845   6.028   1.036   3.292
 1316SOL     OW 4846   5.389   0.393   6.313
 1316SOL    HW1 4847   5.435   0.447   6.384
 1316SOL    HW2 4848   5.302   0.360   6.348
 1317SOL     OW 4849   3.966   3.035   4.131
 1317SOL    HW1 4850   3.901   2.960   4.139
 1317SOL    HW2 4851   4.022   3.040   4.214
 1318SOL     OW 4852   1.850   1.375   6.686
 1318SOL    HW1 4853   1.791   1.301   6.653
 1318SOL    HW2 4854   1.931   1.335   6.729
 1319SOL     OW 4855   6.801   1.848   0.526
 1319SOL    HW1 4856   6.756   1.802   0.449
 1319SOL    HW2 4857   6.745   1.926   0.556
 1320SOL     OW 4858   2.677   2.837   5.934
 1320SOL    HW1 4859   2.579   2.818   5.925
 1320SOL    HW2 4860   2.709   2.885   5.852
 1321SOL     OW 4861   0.237   2.819   1.238
 1321SOL    HW1 4862   0.159   2.779   1.190
 1321SOL    HW2 4863   0.249   2.914   1.208
 1322SOL     OW 4864   2.161   2.790   0.535
 1322SOL    HW1 4865   2.196   2.714   0.479
 1322SOL    HW2 4866   2.187   2.775   0.630
 1323SOL     OW 4867   4.526   0.450   0.982
 1323SOL    HW1 4868   4.570   0.365   0.954
 1323SOL    HW2 4869   4.580   0.528   0.948
 1324SOL     OW 4870   2.381   3.788   5.886
 1324SOL    HW1 4871   2.313   3.811   5.816
 1324SOL    HW2 4872   2.380   3.689   5.902
 1325SOL     OW 4873   4.070   5.742   4.498
 1325SOL    HW1 4874   3.998   5.675   4.481
 1325SOL    HW2 4875   4.129   5.710   4.571
 1326SOL     OW 4876   4.068   1.189   4.958
 1326SOL    HW1 4877   4.100   1.198   4.863
 1326SOL    HW2 4878   3.977   1.229   4.966
 1327SOL     OW 4879   4.980   5.706   1.888
 1327SOL    HW1 4880   5.026   5.657   1.963
 1327SOL    HW2 4881   4.882   5.711   1.906
 1328SOL     OW 4882   1.647   1.944   5.468
 1328SOL    HW1 4883   1.589   2.021   5.440
 1328SOL    HW2 4884   1.609   1.903   5.551
 1329SOL     OW 4885   1.312   3.477   3.875
 1329SOL    HW1 4886   1.251   3.403   3.849
 1329SOL    HW2 4887   1.361   3.510   3.794
 1330SOL     OW 4888   6.743   3.249   2.609
 1330SOL    HW1 4889   6.791   3.163   2.623
 1330SOL    HW2 4890   6.725   3.292   2.697
 1331SOL     OW 4891   3.576   1.820   2.690
 1331SOL    HW1 4892   3.634   1.746   2.654
 1331SOL    HW2 4893   3.629   1.905   2.694
 1332SOL     OW 4894   2.456   6.054   6.736
 1332SOL    HW1 4895   2.373   6.000   6.750
 1332SOL    HW2 4896   2.457   6.090   6.643
 1333SOL     OW 4897   3.864   3.702   2.517
 1333SOL    HW1 4898   3.835   3.611   2.547
 1333SOL    HW2 4899   3.868   3.763   2.596
 1334SOL     OW 4900   6.875   3.894   1.146
 1334SOL    HW1 4901   6.865   3.942   1.233
 1334SOL    HW2 4902   6.855   3.797   1.159
 1335SOL     OW 4903   0.092   3.699   3.042
 1335SOL    HW1 4904   0.037   3.711   3.125
 1335SOL    HW2 4905   0.129   3.606   3.039
 1336SOL     OW 4906   2.480   6.483   6.047
 1336SOL    HW1 4907   2.477   6.572   6.094
 1336SOL    HW2 4908   2.409   6.480   5.977
 1337SOL     OW 4909   0.612   6.743   2.249
 1337SOL    HW1 4910   0.569   6.688   2.177
 1337SOL    HW2 4911   0.663   6.683   2.310
 1338SOL     OW 4912   0.236   3.948   4.883
 1338SOL    HW1 4913   0.252   4.020   4.950
 1338SOL    HW2 4914   0.317   3.939   4.824
 1339SOL     OW 4915   5.638   1.073   6.949
 1339SOL    HW1 4916   5.655   1.040   0.024
 1339SOL    HW2 4917   5.576   1.011   6.902
 1340SOL     OW 4918   2.680   2.453   1.028
 1340SOL    HW1 4919   2.702   2.532   1.084
 1340SOL    HW2 4920   2.580   2.446   1.018
 1341SOL     OW 4921   5.699   5.926   6.473
 1341SOL    HW1 4922   5.737   5.834   6.474
 1341SOL    HW2 4923   5.692   5.958   6.378
 1342SOL     OW 4924   1.930   5.920   1.698
 1342SOL    HW1 4925   1.887   5.924   1.788
 1342SOL    HW2 4926   1.897   5.840   1.648
 1343SOL     OW 4927   4.806   5.956   2.906
 1343SOL    HW1 4928   4.811   6.008   2.992
 1343SOL    HW2 4929   4.843   5.865   2.921
 1344SOL     OW 4930   1.069   0.534   3.607
 1344SOL    HW1 4931   1.148   0.548   3.548
 1344SOL    HW2 4932   1.099   0.498   3.695
 1345SOL     OW 4933   1.440   6.579   5.375
 1345SOL    HW1 4934   1.466   6.534   5.290
 1345SOL    HW2 4935   1.365   6.642   5.357
 1346SOL     OW 4936   2.860   5.944   3.609
 1346SOL    HW1 4937   2.951   5.944   3.650
 1346SOL    HW2 4938   2.799   5.886   3.663
 1347SOL     OW 4939   1.441   0.779   6.453
 1347SOL    HW1 4940   1.401   0.870   6.451
 1347SOL    HW2 4941   1.372   0.711   6.428
 1348SOL     OW 4942   1.524   0.035   4.628
 1348SOL    HW1 4943   1.501   7.012   4.717
 1348SOL    HW2 4944   1.550   6.981   4.564
 1349SOL     OW 4945   5.685   3.865   4.095
 1349SOL    HW1 4946   5.611   3.821   4.144
 1349SOL    HW2 4947   5.662   3.870   3.997
 1350SOL     OW 4948   5.414   4.637   6.425
 1350SOL    HW1 4949   5.417   4.613   6.328
 1350SOL    HW2 4950   5.354   4.716   6.438
 1351SOL     OW 4951   6.762   2.916   6.877
 1351SOL    HW1 4952   6.729   2.914   6.972
 1351SOL    HW2 4953   6.725   2.838   6.827
 1352SOL     OW 4954   6.878   1.055   3.251
 1352SOL    HW1 4955   6.825   0.999   3.315
 1352SOL    HW2 4956   6.839   1.147   3.248
 1353SOL     OW 4957   6.255   2.518   6.128
 1353SOL    HW1 4958   6.334   2.572   6.097
 1353SOL    HW2 4959   6.288   2.442   6.184
 1354SOL     OW 4960   4.973   4.865   3.013
 1354SOL    HW1 4961   5.007   4.959   3.019
 1354SOL    HW2 4962   4.880   4.861   3.050
 1355SOL     OW 4963   3.989   3.484   4.973
 1355SOL    HW1 4964   3.927   3.549   5.016
 1355SOL    HW2 4965   4.084   3.514   4.989
 1356SOL     OW 4966   2.981   3.361   6.676
 1356SOL    HW1 4967   2.888   3.323   6.680
 1356SOL    HW2 4968   3.046   3.292   6.708
 1357SOL     OW 4969   0.452   3.121   5.648
 1357SOL    HW1 4970   0.434   3.201   5.706
 1357SOL    HW2 4971   0.537   3.136   5.597
 1358SOL     OW 4972   2.196   7.013   6.509
 1358SOL    HW1 4973   2.099   6.991   6.523
 1358SOL    HW2 4974   2.209   0.093   6.517
 1359SOL     OW 4975   6.155   4.914   0.040
 1359SOL    HW1 4976   6.223   4.890   6.989
 1359SOL    HW2 4977   6.063   4.898   0.003
 1360SOL     OW 4978   2.407   1.709   5.753
 1360SOL    HW1 4979   2.480   1.765   5.792
 1360SOL    HW2 4980   2.394   1.733   5.657
 1361SOL     OW 4981   6.011   4.961   4.988
 1361SOL    HW1 4982   6.043   4.950   4.893
 1361SOL    HW2 4983   6.045   4.885   5.043
 1362SOL     OW 4984   3.494   3.658   3.928
 1362SOL    HW1 4985   3.495   3.755   3.952
 1362SOL    HW2 4986   3.583   3.631   3.892
 1363SOL     OW 4987   0.315   6.631   3.599
 1363SOL    HW1 4988   0.279   6.589   3.683
 1363SOL    HW2 4989   0.294   6.572   3.521
 1364SOL     OW 4990   3.875   4.291   6.930
 1364SOL    HW1 4991   3.936   4.285   6.851
 1364SOL    HW2 4992   3.814   4.212   6.931
 1365SOL     OW 4993   5.440   2.335   5.884
 1365SOL    HW1 4994   5.453   2.244   5.846
 1365SOL    HW2 4995   5.377   2.387   5.825
 1366SOL     OW 4996   1.697   0.812   4.871
 1366SOL    HW1 4997   1.693   0.763   4.958
 1366SOL    HW2 4998   1.726   0.906   4.888
 1367SOL     OW 4999   2.277   1.524   2.184
 1367SOL    HW1 5000   2.286   1.545   2.087
 1367SOL    HW2 5001   2.276   1.610   2.236
 1368SOL     OW 5002   6.465   0.542   3.289
 1368SOL    HW1 5003   6.516   0.627   3.306
 1368SOL    HW2 5004   6.491   0.504   3.201
 1369SOL     OW 5005   0.023   0.515   2.723
 1369SOL    HW1 5006   6.994   0.589   2.674
 1369SOL    HW2 5007   0.095   0.478   2.665
 1370SOL     OW 5008   1.527   1.106   2.815
 1370SOL    HW1 5009   1.621   1.137   2.827
 1370SOL    HW2 5010   1.524   1.007   2.813
 1371SOL     OW 5011   3.017   0.415   5.658
 1371SOL    HW1 5012   2.975   0.343   5.713
 1371SOL    HW2 5013   2.969   0.502   5.674
 1372SOL     OW 5014   3.064   1.724   1.265
 1372SOL    HW1 5015   3.074   1.738   1.364
 1372SOL    HW2 5016   3.013   1.799   1.225
 1373SOL     OW 5017   1.664   5.464   6.291
 1373SOL    HW1 5018   1.731   5.390   6.289
 1373SOL    HW2 5019   1.700   5.543   6.242
 1374SOL     OW 5020   5.688   3.686   4.910
 1374SOL    HW1 5021   5.718   3.760   4.970
 1374SOL    HW2 5022   5.601   3.711   4.867
 1375SOL     OW 5023   1.247   4.292   4.106
 1375SOL    HW1 5024   1.318   4.333   4.163
 1375SOL    HW2 5025   1.161   4.342   4.117
 1376SOL     OW 5026   5.002   0.437   1.680
 1376SOL    HW1 5027   5.042   0.506   1.740
 1376SOL    HW2 5028   4.909   0.415   1.712
 1377SOL     OW 5029   0.096   4.195   5.075
 1377SOL    HW1 5030   0.154   4.177   5.154
 1377SOL    HW2 5031   0.001   4.177   5.098
 1378SOL     OW 5032   1.988   1.597   0.364
 1378SOL    HW1 5033   2.004   1.555   0.275
 1378SOL    HW2 5034   2.002   1.530   0.436
 1379SOL     OW 5035   4.373   5.321   1.890
 1379SOL    HW1 5036   4.292   5.340   1.946
 1379SOL    HW2 5037   4.451   5.302   1.950
 1380SOL     OW 5038   6.188   5.081   2.839
 1380SOL    HW1 5039   6.094   5.046   2.834
 1380SOL    HW2 5040   6.235   5.037   2.915
 1381SOL     OW 5041   4.429   6.889   2.968
 1381SOL    HW1 5042   4.487   6.913   2.889
 1381SOL    HW2 5043   4.484   6.889   3.051
 1382SOL     OW 5044   0.230   4.198   0.666
 1382SOL    HW1 5045   0.159   4.263   0.694
 1382SOL    HW2 5046   0.190   4.109   0.649
 1383SOL     OW 5047   2.863   6.934   0.548
 1383SOL    HW1 5048   2.858   6.878   0.631
 1383SOL    HW2 5049   2.945   6.992   0.553
 1384SOL     OW 5050   1.251   1.294   2.289
 1384SOL    HW1 5051   1.165   1.333   2.320
 1384SOL    HW2 5052   1.242   1.195   2.282
 1385SOL     OW 5053   5.088   3.306   4.075
 1385SOL    HW1 5054   5.001   3.291   4.121
 1385SOL    HW2 5055   5.123   3.397   4.097
 1386SOL     OW 5056   2.844   2.169   3.296
 1386SOL    HW1 5057   2.903   2.192   3.219
 1386SOL    HW2 5058   2.786   2.247   3.319
 1387SOL     OW 5059   3.382   0.599   4.126
 1387SOL    HW1 5060   3.376   0.589   4.225
 1387SOL    HW2 5061   3.292   0.588   4.085
 1388SOL     OW 5062   4.683   2.290   3.607
 1388SOL    HW1 5063   4.657   2.200   3.642
 1388SOL    HW2 5064   4.603   2.350   3.609
 1389SOL     OW 5065   6.392   0.717   4.396
 1389SOL    HW1 5066   6.413   0.659   4.475
 1389SOL    HW2 5067   6.337   0.665   4.330
 1390SOL     OW 5068   5.462   2.142   2.303
 1390SOL    HW1 5069   5.423   2.183   2.221
 1390SOL    HW2 5070   5.562   2.142   2.296
 1391SOL     OW 5071   5.847   0.835   5.432
 1391SOL    HW1 5072   5.924   0.799   5.379
 1391SOL    HW2 5073   5.862   0.818   5.529
 1392SOL     OW 5074   3.443   0.110   5.031
 1392SOL    HW1 5075   3.400   0.159   5.107
 1392SOL    HW2 5076   3.532   0.150   5.011
 1393SOL     OW 5077   5.089   6.683   6.871
 1393SOL    HW1 5078   5.122   6.761   6.817
 1393SOL    HW2 5079   5.150   6.605   6.858
 1394SOL     OW 5080   4.112   1.005   4.521
 1394SOL    HW1 5081   4.090   0.917   4.564
 1394SOL    HW2 5082   4.098   1.078   4.587
 1395SOL     OW 5083   0.965   5.009   2.371
 1395SOL    HW1 5084   0.932   5.090   2.323
 1395SOL    HW2 5085   0.890   4.945   2.385
 1396SOL     OW 5086   1.326   1.813   3.413
 1396SOL    HW1 5087   1.351   1.804   3.317
 1396SOL    HW2 5088   1.295   1.724   3.448
 1397SOL     OW 5089   2.526   4.390   5.785
 1397SOL    HW1 5090   2.549   4.321   5.716
 1397SOL    HW2 5091   2.610   4.431   5.820
 1398SOL     OW 5092   3.184   0.028   5.937
 1398SOL    HW1 5093   3.208   7.009   6.027
 1398SOL    HW2 5094   3.229   6.992   5.866
 1399SOL     OW 5095   3.605   6.941   6.924
 1399SOL    HW1 5096   3.601   6.849   6.885
 1399SOL    HW2 5097   3.552   7.003   6.867
 1400SOL     OW 5098   0.593   1.846   5.682
 1400SOL    HW1 5099   0.551   1.893   5.760
 1400SOL    HW2 5100   0.541   1.763   5.661
 1401SOL     OW 5101   4.344   0.112   2.119
 1401SOL    HW1 5102   4.259   0.062   2.133
 1401SOL    HW2 5103   4.421   0.049   2.124
 1402SOL     OW 5104   4.872   3.890   2.154
 1402SOL    HW1 5105   4.848   3.911   2.059
 1402SOL    HW2 5106   4.802   3.928   2.215
 1403SOL     OW 5107   3.340   3.058   6.886
 1403SOL    HW1 5108   3.317   3.141   6.938
 1403SOL    HW2 5109   3.391   2.995   6.945
 1404SOL     OW 5110   3.608   6.223   6.635
 1404SOL    HW1 5111   3.655   6.255   6.717
 1404SOL    HW2 5112   3.544   6.293   6.603
 1405SOL     OW 5113   0.988   4.483   6.422
 1405SOL    HW1 5114   0.947   4.420   6.357
 1405SOL    HW2 5115   1.054   4.541   6.375
 1406SOL     OW 5116   1.695   2.541   0.225
 1406SOL    HW1 5117   1.700   2.519   0.322
 1406SOL    HW2 5118   1.604   2.520   0.191
 1407SOL     OW 5119   6.781   2.836   1.152
 1407SOL    HW1 5120   6.796   2.790   1.240
 1407SOL    HW2 5121   6.816   2.929   1.157
 1408SOL     OW 5122   5.698   5.988   1.261
 1408SOL    HW1 5123   5.728   6.083   1.266
 1408SOL    HW2 5124   5.742   5.942   1.184
 1409SOL     OW 5125   5.996   2.015   5.996
 1409SOL    HW1 5126   6.003   1.929   6.046
 1409SOL    HW2 5127   5.967   2.087   6.058
 1410SOL     OW 5128   3.367   0.789   0.707
 1410SOL    HW1 5129   3.396   0.702   0.748
 1410SOL    HW2 5130   3.446   0.836   0.669
 1411SOL     OW 5131   3.099   6.963   0.221
 1411SOL    HW1 5132   3.089   6.870   0.256
 1411SOL    HW2 5133   3.032   0.005   0.264
 1412SOL     OW 5134   2.120   1.672   6.361
 1412SOL    HW1 5135   2.065   1.692   6.280
 1412SOL    HW2 5136   2.160   1.757   6.395
 1413SOL     OW 5137   2.261   1.505   5.093
 1413SOL    HW1 5138   2.265   1.406   5.076
 1413SOL    HW2 5139   2.354   1.540   5.107
 1414SOL     OW 5140   0.086   5.209   2.386
 1414SOL    HW1 5141   0.097   5.194   2.485
 1414SOL    HW2 5142   0.155   5.275   2.355
 1415SOL     OW 5143   3.588   1.804   5.088
 1415SOL    HW1 5144   3.583   1.856   5.003
 1415SOL    HW2 5145   3.580   1.866   5.166
 1416SOL     OW 5146   4.395   0.576   5.486
 1416SOL    HW1 5147   4.301   0.610   5.477
 1416SOL    HW2 5148   4.456   0.635   5.433
 1417SOL     OW 5149   3.953   3.838   4.291
 1417SOL    HW1 5150   3.908   3.927   4.293
 1417SOL    HW2 5151   3.885   3.766   4.306
 1418SOL     OW 5152   3.242   3.643   5.251
 1418SOL    HW1 5153   3.146   3.670   5.264
 1418SOL    HW2 5154   3.296   3.724   5.228
 1419SOL     OW 5155   0.517   5.420   1.875
 1419SOL    HW1 5156   0.505   5.372   1.788
 1419SOL    HW2 5157   0.614   5.443   1.888
 1420SOL     OW 5158   2.604   6.743   3.575
 1420SOL    HW1 5159   2.625   6.804   3.651
 1420SOL    HW2 5160   2.637   6.784   3.490
 1421SOL     OW 5161   1.687   5.410   0.397
 1421SOL    HW1 5162   1.639   5.324   0.413
 1421SOL    HW2 5163   1.639   5.484   0.445
 1422SOL     OW 5164   1.573   3.994   6.916
 1422SOL    HW1 5165   1.622   3.957   6.995
 1422SOL    HW2 5166   1.634   3.993   6.836
 1423SOL     OW 5167   4.950   1.095   4.731
 1423SOL    HW1 5168   4.924   1.120   4.825
 1423SOL    HW2 5169   4.872   1.053   4.685
 1424SOL     OW 5170   6.389   3.707   1.517
 1424SOL    HW1 5171   6.365   3.612   1.537
 1424SOL    HW2 5172   6.354   3.766   1.590
 1425SOL     OW 5173   6.176   6.206   3.325
 1425SOL    HW1 5174   6.129   6.263   3.257
 1425SOL    HW2 5175   6.110   6.142   3.366
 1426SOL     OW 5176   3.858   1.061   1.251
 1426SOL    HW1 5177   3.912   1.138   1.215
 1426SOL    HW2 5178   3.761   1.084   1.246
 1427SOL     OW 5179   1.260   1.153   3.769
 1427SOL    HW1 5180   1.357   1.140   3.789
 1427SOL    HW2 5181   1.244   1.247   3.739
 1428SOL     OW 5182   2.087   3.935   3.978
 1428SOL    HW1 5183   2.047   3.843   3.972
 1428SOL    HW2 5184   2.155   3.937   4.051
 1429SOL     OW 5185   5.902   0.445   1.376
 1429SOL    HW1 5186   5.930   0.527   1.426
 1429SOL    HW2 5187   5.955   0.438   1.291
 1430SOL     OW 5188   2.078   3.786   4.278
 1430SOL    HW1 5189   2.160   3.842   4.266
 1430SOL    HW2 5190   2.067   3.724   4.200
 1431SOL     OW 5191   3.454   1.895   0.529
 1431SOL    HW1 5192   3.543   1.898   0.575
 1431SOL    HW2 5193   3.393   1.832   0.579
 1432SOL     OW 5194   2.916   0.283   2.581
 1432SOL    HW1 5195   2.898   0.269   2.679
 1432SOL    HW2 5196   3.004   0.328   2.569
 1433SOL     OW 5197   3.514   1.531   4.023
 1433SOL    HW1 5198   3.488   1.622   3.990
 1433SOL    HW2 5199   3.609   1.511   3.997
 1434SOL     OW 5200   5.886   3.840   0.971
 1434SOL    HW1 5201   5.971   3.887   0.948
 1434SOL    HW2 5202   5.881   3.824   1.069
 1435SOL     OW 5203   6.941   6.400   4.469
 1435SOL    HW1 5204   6.862   6.427   4.415
 1435SOL    HW2 5205   6.928   6.308   4.504
 1436SOL     OW 5206   5.862   0.504   0.032
 1436SOL    HW1 5207   5.945   0.555   0.007
 1436SOL    HW2 5208   5.793   0.569   0.065
 1437SOL     OW 5209   4.340   0.758   0.181
 1437SOL    HW1 5210   4.393   0.762   0.265
 1437SOL    HW2 5211   4.309   0.850   0.156
 1438SOL     OW 5212   2.764   6.879   3.405
 1438SOL    HW1 5213   2.795   6.973   3.393
 1438SOL    HW2 5214   2.842   6.817   3.399
 1439SOL     OW 5215   6.645   5.239   4.798
 1439SOL    HW1 5216   6.588   5.246   4.716
 1439SOL    HW2 5217   6.617   5.159   4.851
 1440SOL     OW 5218   3.442   3.138   2.644
 1440SOL    HW1 5219   3.359   3.191   2.629
 1440SOL    HW2 5220   3.420   3.054   2.693
 1441SOL     OW 5221   0.646   2.189   6.317
 1441SOL    HW1 5222   0.692   2.235   6.392
 1441SOL    HW2 5223   0.561   2.236   6.295
 1442SOL     OW 5224   5.444   6.061   0.084
 1442SOL    HW1 5225   5.509   6.137   0.082
 1442SOL    HW2 5226   5.471   5.993   0.015
 1443SOL     OW 5227   1.665   3.360   3.962
 1443SOL    HW1 5228   1.671   3.449   4.007
 1443SOL    HW2 5229   1.711   3.364   3.873
 1444SOL     OW 5230   4.582   6.640   4.731
 1444SOL    HW1 5231   4.659   6.615   4.672
 1444SOL    HW2 5232   4.598   6.731   4.769
 1445SOL     OW 5233   6.947   2.326   0.132
 1445SOL    HW1 5234   6.896   2.289   0.054
 1445SOL    HW2 5235   0.014   2.275   0.144
 1446SOL     OW 5236   3.082   5.934   2.271
 1446SOL    HW1 5237   3.140   5.870   2.320
 1446SOL    HW2 5238   3.030   5.990   2.336
 1447SOL     OW 5239   6.551   1.087   4.946
 1447SOL    HW1 5240   6.510   1.077   4.855
 1447SOL    HW2 5241   6.645   1.121   4.937
 1448SOL     OW 5242   5.306   1.228   0.604
 1448SOL    HW1 5243   5.372   1.302   0.589
 1448SOL    HW2 5244   5.223   1.245   0.550
 1449SOL     OW 5245   4.917   5.658   0.346
 1449SOL    HW1 5246   4.962   5.627   0.430
 1449SOL    HW2 5247   4.821   5.629   0.347
 1450SOL     OW 5248   5.522   1.522   3.704
 1450SOL    HW1 5249   5.541   1.620   3.705
 1450SOL    HW2 5250   5.564   1.480   3.784
 1451SOL     OW 5251   0.082   6.833   2.523
 1451SOL    HW1 5252   0.178   6.806   2.514
 1451SOL    HW2 5253   0.028   6.755   2.553
 1452SOL     OW 5254   2.088   0.406   6.256
 1452SOL    HW1 5255   2.034   0.322   6.250
 1452SOL    HW2 5256   2.055   0.461   6.333
 1453SOL     OW 5257   6.038   4.142   4.367
 1453SOL    HW1 5258   6.004   4.060   4.320
 1453SOL    HW2 5259   6.124   4.171   4.326
 1454SOL     OW 5260   5.928   4.364   1.488
 1454SOL    HW1 5261   6.013   4.345   1.535
 1454SOL    HW2 5262   5.939   4.442   1.427
 1455SOL     OW 5263   1.963   1.979   1.983
 1455SOL    HW1 5264   2.030   1.910   2.012
 1455SOL    HW2 5265   2.011   2.061   1.954
 1456SOL     OW 5266   5.445   4.998   4.928
 1456SOL    HW1 5267   5.414   5.086   4.963
 1456SOL    HW2 5268   5.410   4.925   4.988
 1457SOL     OW 5269   2.166   1.569   4.499
 1457SOL    HW1 5270   2.161   1.559   4.599
 1457SOL    HW2 5271   2.080   1.537   4.458
 1458SOL     OW 5272   6.742   5.335   0.192
 1458SOL    HW1 5273   6.745   5.324   0.092
 1458SOL    HW2 5274   6.821   5.289   0.232
 1459SOL     OW 5275   3.010   0.051   1.597
 1459SOL    HW1 5276   2.941   7.002   1.572
 1459SOL    HW2 5277   2.965   0.136   1.626
 1460SOL     OW 5278   0.556   1.716   6.598
 1460SOL    HW1 5279   0.531   1.713   6.695
 1460SOL    HW2 5280   0.638   1.660   6.584
 1461SOL     OW 5281   4.976   4.042   2.699
 1461SOL    HW1 5282   4.913   4.034   2.777
 1461SOL    HW2 5283   4.933   4.095   2.626
 1462SOL     OW 5284   5.788   0.410   5.483
 1462SOL    HW1 5285   5.812   0.349   5.408
 1462SOL    HW2 5286   5.833   0.499   5.470
 1463SOL     OW 5287   0.878   2.436   5.915
 1463SOL    HW1 5288   0.851   2.515   5.970
 1463SOL    HW2 5289   0.814   2.361   5.930
 1464SOL     OW 5290   0.767   0.795   1.026
 1464SOL    HW1 5291   0.720   0.824   1.110
 1464SOL    HW2 5292   0.778   0.696   1.026
 1465SOL     OW 5293   2.098   1.114   3.790
 1465SOL    HW1 5294   2.001   1.090   3.783
 1465SOL    HW2 5295   2.123   1.173   3.713
 1466SOL     OW 5296   5.763   6.015   4.260
 1466SOL    HW1 5297   5.787   6.084   4.192
 1466SOL    HW2 5298   5.679   6.041   4.306
 1467SOL     OW 5299   0.591   4.339   4.801
 1467SOL    HW1 5300   0.607   4.415   4.863
 1467SOL    HW2 5301   0.500   4.299   4.818
 1468SOL     OW 5302   4.452   0.378   2.454
 1468SOL    HW1 5303   4.397   0.315   2.508
 1468SOL    HW2 5304   4.505   0.437   2.515
 1469SOL     OW 5305   6.855   0.345   2.451
 1469SOL    HW1 5306   6.847   0.260   2.503
 1469SOL    HW2 5307   6.827   0.423   2.507
 1470SOL     OW 5308   0.208   0.392   2.538
 1470SOL    HW1 5309   0.176   0.299   2.517
 1470SOL    HW2 5310   0.303   0.387   2.570
 1471SOL     OW 5311   6.125   1.083   1.213
 1471SOL    HW1 5312   6.157   1.158   1.271
 1471SOL    HW2 5313   6.028   1.095   1.194
 1472SOL     OW 5314   4.390   5.165   4.948
 1472SOL    HW1 5315   4.464   5.105   4.918
 1472SOL    HW2 5316   4.315   5.110   4.984
 1473SOL     OW 5317   0.243   3.044   3.990
 1473SOL    HW1 5318   0.341   3.059   3.998
 1473SOL    HW2 5319   0.226   2.959   3.939
 1474SOL     OW 5320   4.827   6.128   2.459
 1474SOL    HW1 5321   4.868   6.066   2.392
 1474SOL    HW2 5322   4.781   6.074   2.529
 1475SOL     OW 5323   6.421   6.632   2.951
 1475SOL    HW1 5324   6.473   6.704   2.995
 1475SOL    HW2 5325   6.331   6.624   2.994
 1476SOL     OW 5326   1.139   2.284   1.016
 1476SOL    HW1 5327   1.171   2.208   1.073
 1476SOL    HW2 5328   1.100   2.355   1.075
 1477SOL     OW 5329   2.376   6.398   4.669
 1477SOL    HW1 5330   2.352   6.353   4.582
 1477SOL    HW2 5331   2.293   6.433   4.712
 1478SOL     OW 5332   0.312   3.945   0.997
 1478SOL    HW1 5333   0.270   3.952   1.087
 1478SOL    HW2 5334   0.388   4.011   0.990
 1479SOL     OW 5335   1.570   4.954   0.052
 1479SOL    HW1 5336   1.619   4.898   7.004
 1479SOL    HW2 5337   1.611   4.944   0.142
 1480SOL     OW 5338   3.246   0.733   6.905
 1480SOL    HW1 5339   3.291   0.776   6.827
 1480SOL    HW2 5340   3.196   0.803   6.957
 1481SOL     OW 5341   0.016   3.024   0.955
 1481SOL    HW1 5342   0.003   3.000   0.859
 1481SOL    HW2 5343   0.020   3.123   0.965
 1482SOL     OW 5344   5.605   0.716   5.785
 1482SOL    HW1 5345   5.612   0.776   5.865
 1482SOL    HW2 5346   5.532   0.750   5.725
 1483SOL     OW 5347   6.987   2.749   0.780
 1483SOL    HW1 5348   6.905   2.799   0.753
 1483SOL    HW2 5349   0.041   2.765   0.713
 1484SOL     OW 5350   6.204   6.936   3.422
 1484SOL    HW1 5351   6.274   7.003   3.399
 1484SOL    HW2 5352   6.114   6.979   3.419
 1485SOL     OW 5353   5.737   3.491   4.392
 1485SOL    HW1 5354   5.772   3.398   4.395
 1485SOL    HW2 5355   5.750   3.535   4.481
 1486SOL     OW 5356   5.095   3.007   1.448
 1486SOL    HW1 5357   5.080   2.956   1.533
 1486SOL    HW2 5358   5.095   2.944   1.370
 1487SOL     OW 5359   0.700   7.015   5.652
 1487SOL    HW1 5360   0.685   6.934   5.594
 1487SOL    HW2 5361   0.628   0.002   5.721
 1488SOL     OW 5362   4.612   2.190   4.041
 1488SOL    HW1 5363   4.692   2.248   4.028
 1488SOL    HW2 5364   4.529   2.242   4.022
 1489SOL     OW 5365   3.552   4.990   4.976
 1489SOL    HW1 5366   3.583   5.075   4.934
 1489SOL    HW2 5367   3.630   4.942   5.017
 1490SOL     OW 5368   2.825   3.133   0.383
 1490SOL    HW1 5369   2.919   3.131   0.418
 1490SOL    HW2 5370   2.762   3.109   0.457
 1491SOL     OW 5371   1.216   1.899   3.930
 1491SOL    HW1 5372   1.127   1.916   3.973
 1491SOL    HW2 5373   1.218   1.806   3.893
 1492SOL     OW 5374   0.102   2.023   1.411
 1492SOL    HW1 5375   0.162   2.102   1.397
 1492SOL    HW2 5376   0.021   2.052   1.462
 1493SOL     OW 5377   6.586   3.046   5.290
 1493SOL    HW1 5378   6.671   3.063   5.241
 1493SOL    HW2 5379   6.606   2.997   5.375
 1494SOL     OW 5380   5.061   1.870   3.528
 1494SOL    HW1 5381   5.157   1.866   3.501
 1494SOL    HW2 5382   5.026   1.962   3.513
 1495SOL     OW 5383   1.587   3.981   1.314
 1495SOL    HW1 5384   1.628   3.968   1.224
 1495SOL    HW2 5385   1.525   4.059   1.312
 1496SOL     OW 5386   0.473   0.375   2.660
 1496SOL    HW1 5387   0.461   0.318   2.741
 1496SOL    HW2 5388   0.526   0.326   2.591
 1497SOL     OW 5389   5.468   4.633   5.817
 1497SOL    HW1 5390   5.416   4.716   5.793
 1497SOL    HW2 5391   5.564   4.647   5.796
 1498SOL     OW 5392   3.199   5.559   6.996
 1498SOL    HW1 5393   3.187   5.653   0.011
 1498SOL    HW2 5394   3.120   5.534   6.939
 1499SOL     OW 5395   1.839   4.354   4.083
 1499SOL    HW1 5396   1.812   4.401   3.999
 1499SOL    HW2 5397   1.774   4.376   4.156
 1500SOL     OW 5398   4.069   5.990   5.699
 1500SOL    HW1 5399   4.159   5.994   5.655
 1500SOL    HW2 5400   4.081   5.983   5.798
 1501SOL     OW 5401   3.694   0.728   0.888
 1501SOL    HW1 5402   3.747   0.796   0.937
 1501SOL    HW2 5403   3.752   0.651   0.864
 1502SOL     OW 5404   0.174   0.810   6.840
 1502SOL    HW1 5405   0.177   0.863   6.755
 1502SOL    HW2 5406   0.099   0.744   6.835
 1503SOL     OW 5407   3.793   3.639   5.059
 1503SOL    HW1 5408   3.738   3.722   5.050
 1503SOL    HW2 5409   3.749   3.565   5.009
 1504SOL     OW 5410   3.005   6.948   3.697
 1504SOL    HW1 5411   3.100   6.980   3.699
 1504SOL    HW2 5412   2.954   6.992   3.772
 1505SOL     OW 5413   5.608   6.571   3.148
 1505SOL    HW1 5414   5.595   6.650   3.208
 1505SOL    HW2 5415   5.630   6.603   3.056
 1506SOL     OW 5416   6.926   6.781   4.249
 1506SOL    HW1 5417   6.862   6.709   4.222
 1506SOL    HW2 5418   6.982   6.748   4.326
 1507SOL     OW 5419   2.095   1.854   6.608
 1507SOL    HW1 5420   2.095   1.764   6.651
 1507SOL    HW2 5421   2.006   1.872   6.567
 1508SOL     OW 5422   4.384   6.623   0.892
 1508SOL    HW1 5423   4.398   6.557   0.965
 1508SOL    HW2 5424   4.462   6.684   0.886
 1509SOL     OW 5425   5.191   1.898   6.720
 1509SOL    HW1 5426   5.135   1.930   6.796
 1509SOL    HW2 5427   5.277   1.861   6.754
 1510SOL     OW 5428   6.462   1.659   1.866
 1510SOL    HW1 5429   6.526   1.709   1.924
 1510SOL    HW2 5430   6.370   1.665   1.905
 1511SOL     OW 5431   0.491   2.685   0.715
 1511SOL    HW1 5432   0.395   2.656   0.718
 1511SOL    HW2 5433   0.532   2.673   0.805
 1512SOL     OW 5434   0.092   0.947   2.716
 1512SOL    HW1 5435   0.107   0.926   2.813
 1512SOL    HW2 5436   0.061   0.865   2.668
 1513SOL     OW 5437   2.531   1.050   2.769
 1513SOL    HW1 5438   2.574   0.960   2.766
 1513SOL    HW2 5439   2.472   1.056   2.850
 1514SOL     OW 5440   4.743   0.385   5.782
 1514SOL    HW1 5441   4.816   0.326   5.748
 1514SOL    HW2 5442   4.783   0.464   5.828
 1515SOL     OW 5443   5.585   5.337   5.730
 1515SOL    HW1 5444   5.497   5.371   5.697
 1515SOL    HW2 5445   5.659   5.377   5.675
 1516SOL     OW 5446   6.070   1.446   2.415
 1516SOL    HW1 5447   5.988   1.411   2.369
 1516SOL    HW2 5448   6.136   1.476   2.346
 1517SOL     OW 5449   3.468   5.143   1.747
 1517SOL    HW1 5450   3.523   5.223   1.721
 1517SOL    HW2 5451   3.506   5.061   1.705
 1518SOL     OW 5452   1.009   4.957   1.120
 1518SOL    HW1 5453   0.991   4.861   1.099
 1518SOL    HW2 5454   1.078   4.963   1.193
 1519SOL     OW 5455   0.736   4.272   0.945
 1519SOL    HW1 5456   0.784   4.299   0.862
 1519SOL    HW2 5457   0.688   4.350   0.984
 1520SOL     OW 5458   1.554   4.153   3.068
 1520SOL    HW1 5459   1.623   4.100   3.118
 1520SOL    HW2 5460   1.582   4.160   2.972
 1521SOL     OW 5461   2.116   5.846   5.431
 1521SOL    HW1 5462   2.049   5.890   5.491
 1521SOL    HW2 5463   2.121   5.748   5.453
 1522SOL     OW 5464   1.551   2.271   5.648
 1522SOL    HW1 5465   1.626   2.217   5.686
 1522SOL    HW2 5466   1.548   2.360   5.693
 1523SOL     OW 5467   5.725   0.615   1.606
 1523SOL    HW1 5468   5.730   0.624   1.506
 1523SOL    HW2 5469   5.678   0.695   1.644
 1524SOL     OW 5470   0.880   1.518   0.937
 1524SOL    HW1 5471   0.861   1.551   1.029
 1524SOL    HW2 5472   0.939   1.437   0.942
 1525SOL     OW 5473   5.230   1.232   5.241
 1525SOL    HW1 5474   5.310   1.286   5.264
 1525SOL    HW2 5475   5.148   1.274   5.280
 1526SOL     OW 5476   5.396   2.769   0.386
 1526SOL    HW1 5477   5.428   2.829   0.459
 1526SOL    HW2 5478   5.422   2.808   0.298
 1527SOL     OW 5479   2.203   0.333   5.094
 1527SOL    HW1 5480   2.294   0.342   5.135
 1527SOL    HW2 5481   2.168   0.423   5.070
 1528SOL     OW 5482   4.967   6.111   3.352
 1528SOL    HW1 5483   5.065   6.089   3.349
 1528SOL    HW2 5484   4.943   6.168   3.274
 1529SOL     OW 5485   1.578   6.819   5.254
 1529SOL    HW1 5486   1.536   6.823   5.345
 1529SOL    HW2 5487   1.665   6.869   5.256
 1530SOL     OW 5488   3.370   6.887   1.570
 1530SOL    HW1 5489   3.431   6.836   1.509
 1530SOL    HW2 5490   3.331   6.965   1.522
 1531SOL     OW 5491   5.640   1.349   6.696
 1531SOL    HW1 5492   5.576   1.330   6.622
 1531SOL    HW2 5493   5.663   1.446   6.696
 1532SOL     OW 5494   2.815   1.090   5.269
 1532SOL    HW1 5495   2.901   1.093   5.319
 1532SOL    HW2 5496   2.830   1.123   5.175
 1533SOL     OW 5497   4.779   3.393   0.833
 1533SOL    HW1 5498   4.682   3.387   0.858
 1533SOL    HW2 5499   4.806   3.310   0.785
 1534SOL     OW 5500   6.990   0.324   0.408
 1534SOL    HW1 5501   0.065   0.292   0.423
 1534SOL    HW2 5502   6.926   0.252   0.435
 1535SOL     OW 5503   4.828   4.472   4.376
 1535SOL    HW1 5504   4.789   4.507   4.291
 1535SOL    HW2 5505   4.764   4.409   4.420
 1536SOL     OW 5506   2.964   6.339   3.145
 1536SOL    HW1 5507   2.965   6.313   3.049
 1536SOL    HW2 5508   3.034   6.287   3.194
 1537SOL     OW 5509   1.473   5.635   4.307
 1537SOL    HW1 5510   1.418   5.717   4.294
 1537SOL    HW2 5511   1.538   5.627   4.231
 1538SOL     OW 5512   3.389   5.932   0.031
 1538SOL    HW1 5513   3.348   5.992   6.981
 1538SOL    HW2 5514   3.354   5.956   0.122
 1539SOL     OW 5515   2.735   6.745   1.989
 1539SOL    HW1 5516   2.713   6.815   1.921
 1539SOL    HW2 5517   2.653   6.694   2.012
 1540SOL     OW 5518   6.146   0.448   5.722
 1540SOL    HW1 5519   6.071   0.437   5.788
 1540SOL    HW2 5520   6.223   0.493   5.766
 1541SOL     OW 5521   5.261   2.297   1.675
 1541SOL    HW1 5522   5.168   2.321   1.705
 1541SOL    HW2 5523   5.273   2.324   1.580
 1542SOL     OW 5524   6.767   5.357   1.557
 1542SOL    HW1 5525   6.808   5.379   1.646
 1542SOL    HW2 5526   6.739   5.261   1.556
 1543SOL     OW 5527   3.213   3.265   2.629
 1543SOL    HW1 5528   3.228   3.364   2.633
 1543SOL    HW2 5529   3.118   3.245   2.655
 1544SOL     OW 5530   3.602   3.124   1.565
 1544SOL    HW1 5531   3.654   3.160   1.488
 1544SOL    HW2 5532   3.578   3.198   1.628
 1545SOL     OW 5533   0.520   6.552   5.606
 1545SOL    HW1 5534   0.518   6.457   5.573
 1545SOL    HW2 5535   0.426   6.584   5.618
 1546SOL     OW 5536   0.425   6.526   0.769
 1546SOL    HW1 5537   0.476   6.442   0.785
 1546SOL    HW2 5538   0.347   6.531   0.831
 1547SOL     OW 5539   2.886   6.312   0.623
 1547SOL    HW1 5540   2.942   6.270   0.551
 1547SOL    HW2 5541   2.930   6.299   0.711
 1548SOL     OW 5542   6.318   3.920   3.237
 1548SOL    HW1 5543   6.298   3.881   3.148
 1548SOL    HW2 5544   6.261   3.876   3.307
 1549SOL     OW 5545   6.057   1.857   1.166
 1549SOL    HW1 5546   6.038   1.838   1.262
 1549SOL    HW2 5547   6.118   1.935   1.158
 1550SOL     OW 5548   2.537   5.089   2.311
 1550SOL    HW1 5549   2.560   5.186   2.303
 1550SOL    HW2 5550   2.600   5.044   2.374
 1551SOL     OW 5551   1.164   2.195   1.537
 1551SOL    HW1 5552   1.171   2.120   1.603
 1551SOL    HW2 5553   1.079   2.246   1.554
 1552SOL     OW 5554   1.619   6.346   2.278
 1552SOL    HW1 5555   1.716   6.340   2.302
 1552SOL    HW2 5556   1.566   6.293   2.345
 1553SOL     OW 5557   5.858   2.030   5.557
 1553SOL    HW1 5558   5.866   2.113   5.502
 1553SOL    HW2 5559   5.797   2.048   5.635
 1554SOL     OW 5560   2.870   3.334   0.227
 1554SOL    HW1 5561   2.862   3.250   0.281
 1554SOL    HW2 5562   2.812   3.327   0.146
 1555SOL     OW 5563   4.854   1.719   0.780
 1555SOL    HW1 5564   4.907   1.802   0.798
 1555SOL    HW2 5565   4.865   1.655   0.856
 1556SOL     OW 5566   2.698   2.333   0.801
 1556SOL    HW1 5567   2.706   2.376   0.890
 1556SOL    HW2 5568   2.788   2.322   0.760
 1557SOL     OW 5569   2.446   2.321   1.430
 1557SOL    HW1 5570   2.520   2.271   1.385
 1557SOL    HW2 5571   2.358   2.280   1.404
 1558SOL     OW 5572   4.754   2.591   0.245
 1558SOL    HW1 5573   4.809   2.633   0.172
 1558SOL    HW2 5574   4.729   2.498   0.218
 1559SOL     OW 5575   2.292   6.429   4.023
 1559SOL    HW1 5576   2.295   6.491   4.101
 1559SOL    HW2 5577   2.385   6.396   4.003
 1560SOL     OW 5578   4.485   3.352   1.490
 1560SOL    HW1 5579   4.401   3.375   1.441
 1560SOL    HW2 5580   4.562   3.352   1.426
 1561SOL     OW 5581   5.938   6.481   0.917
 1561SOL    HW1 5582   6.020   6.511   0.868
 1561SOL    HW2 5583   5.891   6.411   0.864
 1562SOL     OW 5584   2.804   6.987   2.786
 1562SOL    HW1 5585   2.713   6.946   2.796
 1562SOL    HW2 5586   2.837   7.017   2.875
 1563SOL     OW 5587   2.399   4.340   3.516
 1563SOL    HW1 5588   2.364   4.310   3.604
 1563SOL    HW2 5589   2.494   4.309   3.505
 1564SOL     OW 5590   2.063   1.726   3.020
 1564SOL    HW1 5591   2.066   1.667   2.940
 1564SOL    HW2 5592   2.138   1.792   3.016
 1565SOL     OW 5593   5.351   1.671   5.712
 1565SOL    HW1 5594   5.376   1.642   5.619
 1565SOL    HW2 5595   5.425   1.648   5.775
 1566SOL     OW 5596   0.949   3.647   3.668
 1566SOL    HW1 5597   1.018   3.601   3.612
 1566SOL    HW2 5598   0.990   3.727   3.713
 1567SOL     OW 5599   5.418   0.873   4.729
 1567SOL    HW1 5600   5.350   0.928   4.777
 1567SOL    HW2 5601   5.439   0.791   4.782
 1568SOL     OW 5602   1.692   4.658   0.799
 1568SOL    HW1 5603   1.656   4.745   0.763
 1568SOL    HW2 5604   1.721   4.671   0.894
 1569SOL     OW 5605   2.338   1.037   2.305
 1569SOL    HW1 5606   2.406   1.055   2.376
 1569SOL    HW2 5607   2.268   1.109   2.306
 1570SOL     OW 5608   2.927   5.618   6.585
 1570SOL    HW1 5609   2.899   5.588   6.493
 1570SOL    HW2 5610   3.027   5.617   6.591
 1571SOL     OW 5611   1.022   1.107   4.324
 1571SOL    HW1 5612   1.071   1.152   4.249
 1571SOL    HW2 5613   1.054   1.144   4.411
 1572SOL     OW 5614   2.211   5.699   3.482
 1572SOL    HW1 5615   2.276   5.623   3.490
 1572SOL    HW2 5616   2.121   5.664   3.454
 1573SOL     OW 5617   5.334   5.690   0.251
 1573SOL    HW1 5618   5.246   5.704   0.206
 1573SOL    HW2 5619   5.377   5.779   0.268
 1574SOL     OW 5620   0.230   2.851   3.175
 1574SOL    HW1 5621   0.260   2.841   3.270
 1574SOL    HW2 5622   0.299   2.812   3.114
 1575SOL     OW 5623   6.948   2.091   6.977
 1575SOL    HW1 5624   7.001   2.048   0.032
 1575SOL    HW2 5625   7.009   2.139   6.915
 1576SOL     OW 5626   0.843   6.318   2.671
 1576SOL    HW1 5627   0.773   6.302   2.602
 1576SOL    HW2 5628   0.844   6.241   2.735
 1577SOL     OW 5629   4.378   5.855   3.531
 1577SOL    HW1 5630   4.322   5.812   3.602
 1577SOL    HW2 5631   4.350   5.950   3.519
 1578SOL     OW 5632   5.487   2.106   1.763
 1578SOL    HW1 5633   5.548   2.091   1.685
 1578SOL    HW2 5634   5.400   2.145   1.730
 1579SOL     OW 5635   1.430   3.768   2.481
 1579SOL    HW1 5636   1.388   3.692   2.431
 1579SOL    HW2 5637   1.431   3.747   2.579
 1580SOL     OW 5638   3.195   3.624   4.085
 1580SOL    HW1 5639   3.259   3.566   4.036
 1580SOL    HW2 5640   3.101   3.594   4.066
 1581SOL     OW 5641   5.108   3.868   5.208
 1581SOL    HW1 5642   5.015   3.846   5.238
 1581SOL    HW2 5643   5.164   3.785   5.210
 1582SOL     OW 5644   3.852   5.849   3.872
 1582SOL    HW1 5645   3.786   5.921   3.851
 1582SOL    HW2 5646   3.944   5.878   3.845
 1583SOL     OW 5647   0.566   5.674   4.872
 1583SOL    HW1 5648   0.627   5.657   4.950
 1583SOL    HW2 5649   0.480   5.625   4.886
 1584SOL     OW 5650   0.327   4.404   0.182
 1584SOL    HW1 5651   0.303   4.335   0.249
 1584SOL    HW2 5652   0.246   4.457   0.158
 1585SOL     OW 5653   4.633   6.725   4.113
 1585SOL    HW1 5654   4.732   6.716   4.114
 1585SOL    HW2 5655   4.598   6.732   4.206
 1586SOL     OW 5656   2.745   6.201   3.633
 1586SOL    HW1 5657   2.648   6.186   3.652
 1586SOL    HW2 5658   2.790   6.113   3.619
 1587SOL     OW 5659   4.376   0.042   6.603
 1587SOL    HW1 5660   4.443   7.014   6.661
 1587SOL    HW2 5661   4.284   0.022   6.638
 1588SOL     OW 5662   6.283   1.662   4.222
 1588SOL    HW1 5663   6.251   1.640   4.315
 1588SOL    HW2 5664   6.259   1.587   4.161
 1589SOL     OW 5665   0.230   1.353   4.146
 1589SOL    HW1 5666   0.248   1.405   4.063
 1589SOL    HW2 5667   0.137   1.372   4.178
 1590SOL     OW 5668   5.636   0.342   3.515
 1590SOL    HW1 5669   5.664   0.250   3.541
 1590SOL    HW2 5670   5.706   0.382   3.455
 1591SOL     OW 5671   0.298   5.519   0.724
 1591SOL    HW1 5672   0.219   5.559   0.678
 1591SOL    HW2 5673   0.315   5.428   0.686
 1592SOL     OW 5674   6.944   4.347   4.444
 1592SOL    HW1 5675   6.950   4.271   4.378
 1592SOL    HW2 5676   0.018   4.371   4.474
 1593SOL     OW 5677   3.832   5.467   1.390
 1593SOL    HW1 5678   3.857   5.379   1.350
 1593SOL    HW2 5679   3.740   5.491   1.361
 1594SOL     OW 5680   5.165   0.781   2.940
 1594SOL    HW1 5681   5.228   0.843   2.894
 1594SOL    HW2 5682   5.174   0.791   3.039
 1595SOL     OW 5683   6.743   3.989   0.424
 1595SOL    HW1 5684   6.648   4.016   0.414
 1595SOL    HW2 5685   6.788   4.051   0.489
 1596SOL     OW 5686   5.152   4.405   4.120
 1596SOL    HW1 5687   5.093   4.363   4.050
 1596SOL    HW2 5688   5.131   4.365   4.209
 1597SOL     OW 5689   4.213   6.884   1.162
 1597SOL    HW1 5690   4.175   6.793   1.177
 1597SOL    HW2 5691   4.313   6.880   1.167
 1598SOL     OW 5692   0.717   5.803   5.901
 1598SOL    HW1 5693   0.686   5.879   5.957
 1598SOL    HW2 5694   0.648   5.730   5.902
 1599SOL     OW 5695   5.000   5.089   4.285
 1599SOL    HW1 5696   4.977   5.116   4.379
 1599SOL    HW2 5697   4.928   5.121   4.223
 1600SOL     OW 5698   5.312   1.170   1.452
 1600SOL    HW1 5699   5.255   1.225   1.391
 1600SOL    HW2 5700   5.270   1.080   1.464
 1601SOL     OW 5701   6.071   0.589   4.950
 1601SOL    HW1 5702   6.029   0.581   4.860
 1601SOL    HW2 5703   6.109   0.500   4.977
 1602SOL     OW 5704   3.727   5.852   3.505
 1602SOL    HW1 5705   3.707   5.914   3.428
 1602SOL    HW2 5706   3.735   5.758   3.471
 1603SOL     OW 5707   3.330   5.892   1.477
 1603SOL    HW1 5708   3.282   5.922   1.559
 1603SOL    HW2 5709   3.272   5.907   1.397
 1604SOL     OW 5710   4.523   5.512   1.675
 1604SOL    HW1 5711   4.446   5.573   1.692
 1604SOL    HW2 5712   4.608   5.565   1.669
 1605SOL     OW 5713   4.160   4.833   0.454
 1605SOL    HW1 5714   4.121   4.909   0.402
 1605SOL    HW2 5715   4.215   4.870   0.529
 1606SOL     OW 5716   4.754   5.732   4.622
 1606SOL    HW1 5717   4.763   5.702   4.527
 1606SOL    HW2 5718   4.658   5.748   4.643
 1607SOL     OW 5719   4.681   4.260   4.179
 1607SOL    HW1 5720   4.672   4.232   4.275
 1607SOL    HW2 5721   4.764   4.221   4.140
 1608SOL     OW 5722   6.643   3.335   2.845
 1608SOL    HW1 5723   6.708   3.298   2.912
 1608SOL    HW2 5724   6.557   3.356   2.890
 1609SOL     OW 5725   1.252   0.244   0.745
 1609SOL    HW1 5726   1.218   0.164   0.695
 1609SOL    HW2 5727   1.263   0.320   0.681
 1610SOL     OW 5728   5.946   5.461   1.181
 1610SOL    HW1 5729   6.020   5.517   1.220
 1610SOL    HW2 5730   5.983   5.405   1.107
 1611SOL     OW 5731   0.186   4.647   6.761
 1611SOL    HW1 5732   0.246   4.725   6.742
 1611SOL    HW2 5733   0.233   4.583   6.822
 1612SOL     OW 5734   5.487   1.023   1.996
 1612SOL    HW1 5735   5.560   0.959   1.972
 1612SOL    HW2 5736   5.421   0.977   2.056
 1613SOL     OW 5737   0.430   6.125   2.772
 1613SOL    HW1 5738   0.437   6.211   2.722
 1613SOL    HW2 5739   0.358   6.133   2.841
 1614SOL     OW 5740   5.805   1.080   5.998
 1614SOL    HW1 5741   5.709   1.057   6.013
 1614SOL    HW2 5742   5.812   1.169   5.953
 1615SOL     OW 5743   6.480   3.316   5.788
 1615SOL    HW1 5744   6.442   3.353   5.873
 1615SOL    HW2 5745   6.406   3.290   5.727
 1616SOL     OW 5746   1.200   1.583   3.480
 1616SOL    HW1 5747   1.114   1.562   3.433
 1616SOL    HW2 5748   1.204   1.532   3.566
 1617SOL     OW 5749   0.183   6.084   4.354
 1617SOL    HW1 5750   0.162   6.078   4.452
 1617SOL    HW2 5751   0.207   5.993   4.320
 1618SOL     OW 5752   2.878   5.412   3.055
 1618SOL    HW1 5753   2.909   5.507   3.054
 1618SOL    HW2 5754   2.789   5.407   3.100
 1619SOL     OW 5755   0.647   3.646   6.227
 1619SOL    HW1 5756   0.727   3.604   6.270
 1619SOL    HW2 5757   0.652   3.636   6.128
 1620SOL     OW 5758   2.264   0.276   4.833
 1620SOL    HW1 5759   2.268   0.362   4.783
 1620SOL    HW2 5760   2.230   0.293   4.925
 1621SOL     OW 5761   5.950   4.681   1.065
 1621SOL    HW1 5762   5.986   4.623   0.992
 1621SOL    HW2 5763   5.935   4.625   1.147
 1622SOL     OW 5764   6.304   3.020   2.961
 1622SOL    HW1 5765   6.309   3.023   2.862
 1622SOL    HW2 5766   6.363   2.948   2.996
 1623SOL     OW 5767   0.373   2.204   4.080
 1623SOL    HW1 5768   0.455   2.245   4.119
 1623SOL    HW2 5769   0.396   2.157   3.995
 1624SOL     OW 5770   4.081   3.111   0.594
 1624SOL    HW1 5771   4.035   3.200   0.600
 1624SOL    HW2 5772   4.140   3.099   0.674
 1625SOL     OW 5773   0.872   6.272   0.303
 1625SOL    HW1 5774   0.947   6.304   0.244
 1625SOL    HW2 5775   0.793   6.331   0.290
 1626SOL     OW 5776   2.782   1.738   1.938
 1626SOL    HW1 5777   2.825   1.669   1.880
 1626SOL    HW2 5778   2.853   1.790   1.986
 1627SOL     OW 5779   4.655   1.369   5.904
 1627SOL    HW1 5780   4.691   1.441   5.844
 1627SOL    HW2 5781   4.706   1.368   5.990
 1628SOL     OW 5782   5.498   5.694   1.158
 1628SOL    HW1 5783   5.509   5.595   1.157
 1628SOL    HW2 5784   5.548   5.733   1.235
 1629SOL     OW 5785   1.660   6.290   2.971
 1629SOL    HW1 5786   1.748   6.242   2.967
 1629SOL    HW2 5787   1.629   6.309   2.878
 1630SOL     OW 5788   0.444   4.816   6.268
 1630SOL    HW1 5789   0.350   4.840   6.291
 1630SOL    HW2 5790   0.445   4.763   6.183
 1631SOL     OW 5791   5.205   4.365   6.787
 1631SOL    HW1 5792   5.178   4.315   6.869
 1631SOL    HW2 5793   5.132   4.429   6.762
 1632SOL     OW 5794   6.109   5.914   2.505
 1632SOL    HW1 5795   6.186   5.966   2.542
 1632SOL    HW2 5796   6.057   5.873   2.580
 1633SOL     OW 5797   6.967   3.776   4.490
 1633SOL    HW1 5798   0.002   3.852   4.454
 1633SOL    HW2 5799   6.901   3.810   4.557
 1634SOL     OW 5800   1.315   3.792   5.967
 1634SOL    HW1 5801   1.254   3.869   5.984
 1634SOL    HW2 5802   1.397   3.801   6.023
 1635SOL     OW 5803   2.562   1.349   4.498
 1635SOL    HW1 5804   2.595   1.399   4.418
 1635SOL    HW2 5805   2.573   1.405   4.580
 1636SOL     OW 5806   6.988   6.230   1.713
 1636SOL    HW1 5807   0.005   6.223   1.806
 1636SOL    HW2 5808   6.959   6.324   1.695
 1637SOL     OW 5809   0.997   1.093   1.743
 1637SOL    HW1 5810   0.954   1.182   1.725
 1637SOL    HW2 5811   0.999   1.076   1.841
 1638SOL     OW 5812   5.373   2.076   3.573
 1638SOL    HW1 5813   5.282   2.092   3.537
 1638SOL    HW2 5814   5.391   1.977   3.576
 1639SOL     OW 5815   5.264   2.145   0.965
 1639SOL    HW1 5816   5.179   2.197   0.957
 1639SOL    HW2 5817   5.244   2.054   1.001
 1640SOL     OW 5818   6.440   1.019   6.495
 1640SOL    HW1 5819   6.342   1.008   6.514
 1640SOL    HW2 5820   6.452   1.085   6.421
 1641SOL     OW 5821   5.801   1.367   2.317
 1641SOL    HW1 5822   5.768   1.281   2.355
 1641SOL    HW2 5823   5.757   1.443   2.365
 1642SOL     OW 5824   6.926   3.077   6.730
 1642SOL    HW1 5825   6.884   3.016   6.797
 1642SOL    HW2 5826   6.897   3.050   6.638
 1643SOL     OW 5827   2.260   5.461   4.555
 1643SOL    HW1 5828   2.212   5.511   4.483
 1643SOL    HW2 5829   2.358   5.458   4.534
 1644SOL     OW 5830   5.827   1.808   1.009
 1644SOL    HW1 5831   5.905   1.815   1.071
 1644SOL    HW2 5832   5.853   1.844   0.919
 1645SOL     OW 5833   2.505   0.984   3.835
 1645SOL    HW1 5834   2.533   0.915   3.903
 1645SOL    HW2 5835   2.520   1.075   3.872
 1646SOL     OW 5836   6.843   5.742   1.928
 1646SOL    HW1 5837   6.796   5.718   2.013
 1646SOL    HW2 5838   6.925   5.794   1.950
 1647SOL     OW 5839   6.766   3.680   5.291
 1647SOL    HW1 5840   6.693   3.720   5.347
 1647SOL    HW2 5841   6.725   3.626   5.217
 1648SOL     OW 5842   5.640   5.927   2.277
 1648SOL    HW1 5843   5.729   5.947   2.235
 1648SOL    HW2 5844   5.608   6.008   2.327
 1649SOL     OW 5845   3.875   0.946   3.095
 1649SOL    HW1 5846   3.780   0.977   3.100
 1649SOL    HW2 5847   3.878   0.847   3.107
 1650SOL     OW 5848   2.398   1.970   4.954
 1650SOL    HW1 5849   2.477   1.989   4.895
 1650SOL    HW2 5850   2.314   1.983   4.902
 1651SOL     OW 5851   1.772   2.480   3.963
 1651SOL    HW1 5852   1.714   2.424   4.023
 1651SOL    HW2 5853   1.800   2.563   4.011
 1652SOL     OW 5854   0.184   4.108   1.479
 1652SOL    HW1 5855   0.274   4.077   1.511
 1652SOL    HW2 5856   0.165   4.067   1.390
 1653SOL     OW 5857   6.301   4.257   1.853
 1653SOL    HW1 5858   6.220   4.201   1.872
 1653SOL    HW2 5859   6.370   4.240   1.924
 1654SOL     OW 5860   6.815   3.752   1.823
 1654SOL    HW1 5861   6.890   3.761   1.888
 1654SOL    HW2 5862   6.838   3.684   1.754
 1655SOL     OW 5863   0.023   0.369   5.466
 1655SOL    HW1 5864   0.067   0.365   5.556
 1655SOL    HW2 5865   6.977   0.445   5.464
 1656SOL     OW 5866   1.976   4.010   2.969
 1656SOL    HW1 5867   1.913   4.036   2.896
 1656SOL    HW2 5868   2.070   4.021   2.936
 1657SOL     OW 5869   0.546   1.449   6.353
 1657SOL    HW1 5870   0.467   1.388   6.366
 1657SOL    HW2 5871   0.515   1.537   6.317
 1658SOL     OW 5872   5.007   0.389   5.401
 1658SOL    HW1 5873   5.002   0.488   5.417
 1658SOL    HW2 5874   4.915   0.354   5.384
 1659SOL     OW 5875   2.784   0.736   6.483
 1659SOL    HW1 5876   2.747   0.816   6.435
 1659SOL    HW2 5877   2.884   0.743   6.487
 1660SOL     OW 5878   2.970   1.303   1.629
 1660SOL    HW1 5879   2.907   1.234   1.594
 1660SOL    HW2 5880   2.944   1.326   1.723
 1661SOL     OW 5881   4.663   5.034   3.190
 1661SOL    HW1 5882   4.720   5.114   3.170
 1661SOL    HW2 5883   4.714   4.971   3.248
 1662SOL     OW 5884   0.526   1.806   3.461
 1662SOL    HW1 5885   0.432   1.830   3.437
 1662SOL    HW2 5886   0.537   1.808   3.560
 1663SOL     OW 5887   6.108   3.993   0.888
 1663SOL    HW1 5888   6.130   4.022   0.981
 1663SOL    HW2 5889   6.158   3.909   0.866
 1664SOL     OW 5890   1.484   1.430   6.224
 1664SOL    HW1 5891   1.551   1.456   6.293
 1664SOL    HW2 5892   1.447   1.512   6.180
 1665SOL     OW 5893   1.668   3.936   0.176
 1665SOL    HW1 5894   1.750   3.891   0.212
 1665SOL    HW2 5895   1.612   3.969   0.251
 1666SOL     OW 5896   5.373   6.433   5.482
 1666SOL    HW1 5897   5.347   6.337   5.494
 1666SOL    HW2 5898   5.405   6.469   5.569
 1667SOL     OW 5899   6.640   5.199   0.968
 1667SOL    HW1 5900   6.599   5.244   1.048
 1667SOL    HW2 5901   6.712   5.257   0.930
 1668SOL     OW 5902   6.720   3.255   1.988
 1668SOL    HW1 5903   6.735   3.351   2.012
 1668SOL    HW2 5904   6.702   3.249   1.890
 1669SOL     OW 5905   6.280   2.753   5.314
 1669SOL    HW1 5906   6.302   2.844   5.279
 1669SOL    HW2 5907   6.355   2.690   5.294
 1670SOL     OW 5908   3.053   4.348   5.302
 1670SOL    HW1 5909   3.021   4.426   5.249
 1670SOL    HW2 5910   3.047   4.265   5.246
 1671SOL     OW 5911   6.027   2.346   0.578
 1671SOL    HW1 5912   5.993   2.415   0.514
 1671SOL    HW2 5913   5.953   2.318   0.640
 1672SOL     OW 5914   0.590   1.852   1.174
 1672SOL    HW1 5915   0.552   1.780   1.115
 1672SOL    HW2 5916   0.515   1.903   1.215
 1673SOL     OW 5917   0.760   0.679   6.202
 1673SOL    HW1 5918   0.741   0.774   6.175
 1673SOL    HW2 5919   0.700   0.617   6.152
 1674SOL     OW 5920   4.833   2.796   3.311
 1674SOL    HW1 5921   4.876   2.802   3.402
 1674SOL    HW2 5922   4.842   2.884   3.265
 1675SOL     OW 5923   5.453   0.739   1.885
 1675SOL    HW1 5924   5.525   0.777   1.827
 1675SOL    HW2 5925   5.364   0.773   1.855
 1676SOL     OW 5926   1.484   2.450   3.777
 1676SOL    HW1 5927   1.384   2.442   3.774
 1676SOL    HW2 5928   1.519   2.402   3.857
 1677SOL     OW 5929   3.053   3.884   1.580
 1677SOL    HW1 5930   3.130   3.925   1.531
 1677SOL    HW2 5931   3.030   3.940   1.660
 1678SOL     OW 5932   6.839   0.152   0.567
 1678SOL    HW1 5933   6.827   0.069   0.622
 1678SOL    HW2 5934   6.751   0.200   0.561
 1679SOL     OW 5935   5.953   1.928   0.173
 1679SOL    HW1 5936   5.956   1.911   0.075
 1679SOL    HW2 5937   5.979   2.023   0.192
 1680SOL     OW 5938   5.349   1.982   3.264
 1680SOL    HW1 5939   5.436   1.945   3.229
 1680SOL    HW2 5940   5.368   2.058   3.327
 1681SOL     OW 5941   4.259   6.420   3.964
 1681SOL    HW1 5942   4.260   6.480   3.885
 1681SOL    HW2 5943   4.251   6.474   4.048
 1682SOL     OW 5944   4.010   1.897   5.449
 1682SOL    HW1 5945   4.017   1.994   5.473
 1682SOL    HW2 5946   4.079   1.875   5.380
 1683SOL     OW 5947   0.704   3.935   3.465
 1683SOL    HW1 5948   0.613   3.970   3.445
 1683SOL    HW2 5949   0.698   3.839   3.492
 1684SOL     OW 5950   3.215   5.648   1.251
 1684SOL    HW1 5951   3.163   5.639   1.337
 1684SOL    HW2 5952   3.152   5.673   1.177
 1685SOL     OW 5953   0.196   2.240   5.716
 1685SOL    HW1 5954   0.160   2.247   5.809
 1685SOL    HW2 5955   0.207   2.144   5.691
 1686SOL     OW 5956   3.453   5.651   1.101
 1686SOL    HW1 5957   3.381   5.649   1.170
 1686SOL    HW2 5958   3.458   5.742   1.060
 1687SOL     OW 5959   4.650   4.192   0.192
 1687SOL    HW1 5960   4.581   4.170   0.260
 1687SOL    HW2 5961   4.739   4.156   0.221
 1688SOL     OW 5962   2.949   0.360   3.179
 1688SOL    HW1 5963   3.043   0.358   3.215
 1688SOL    HW2 5964   2.951   0.341   3.080
 1689SOL     OW 5965   4.331   0.928   1.704
 1689SOL    HW1 5966   4.357   1.023   1.684
 1689SOL    HW2 5967   4.251   0.927   1.764
 1690SOL     OW 5968   6.996   4.537   4.222
 1690SOL    HW1 5969   0.005   4.620   4.271
 1690SOL    HW2 5970   6.966   4.468   4.288
 1691SOL     OW 5971   4.355   2.892   5.454
 1691SOL    HW1 5972   4.443   2.935   5.473
 1691SOL    HW2 5973   4.371   2.802   5.413
 1692SOL     OW 5974   5.556   5.385   2.586
 1692SOL    HW1 5975   5.555   5.328   2.504
 1692SOL    HW2 5976   5.638   5.365   2.639
 1693SOL     OW 5977   5.932   0.488   5.942
 1693SOL    HW1 5978   5.947   0.419   6.013
 1693SOL    HW2 5979   5.990   0.567   5.959
 1694SOL     OW 5980   4.572   1.327   6.766
 1694SOL    HW1 5981   4.507   1.402   6.751
 1694SOL    HW2 5982   4.646   1.333   6.699
 1695SOL     OW 5983   4.848   0.516   5.149
 1695SOL    HW1 5984   4.826   0.509   5.246
 1695SOL    HW2 5985   4.851   0.424   5.109
 1696SOL     OW 5986   5.438   6.788   0.766
 1696SOL    HW1 5987   5.390   6.865   0.807
 1696SOL    HW2 5988   5.518   6.764   0.821
 1697SOL     OW 5989   4.066   3.657   1.959
 1697SOL    HW1 5990   4.067   3.754   1.983
 1697SOL    HW2 5991   3.983   3.615   1.994
 1698SOL     OW 5992   4.811   1.486   1.310
 1698SOL    HW1 5993   4.721   1.453   1.340
 1698SOL    HW2 5994   4.849   1.546   1.380
 1699SOL     OW 5995   1.842   0.498   0.952
 1699SOL    HW1 5996   1.797   0.476   1.039
 1699SOL    HW2 5997   1.792   0.454   0.877
 1700SOL     OW 5998   5.998   3.119   3.021
 1700SOL    HW1 5999   5.969   3.061   3.098
 1700SOL    HW2 6000   6.066   3.070   2.967
 1701SOL     OW 6001   1.049   5.390   5.331
 1701SOL    HW1 6002   1.053   5.331   5.250
 1701SOL    HW2 6003   1.113   5.356   5.399
 1702SOL     OW 6004   2.147   2.600   6.973
 1702SOL    HW1 6005   2.121   2.599   0.052
 1702SOL    HW2 6006   2.223   2.536   6.959
 1703SOL     OW 6007   1.158   1.614   1.760
 1703SOL    HW1 6008   1.215   1.596   1.841
 1703SOL    HW2 6009   1.201   1.572   1.680
 1704SOL     OW 6010   2.885   3.085   6.694
 1704SOL    HW1 6011   2.833   3.027   6.631
 1704SOL    HW2 6012   2.977   3.099   6.658
 1705SOL     OW 6013   5.723   2.950   1.046
 1705SOL    HW1 6014   5.799   2.954   1.111
 1705SOL    HW2 6015   5.637   2.957   1.096
 1706SOL     OW 6016   5.871   0.714   5.678
 1706SOL    HW1 6017   5.928   0.763   5.744
 1706SOL    HW2 6018   5.785   0.688   5.721
 1707SOL     OW 6019   2.851   1.481   2.224
 1707SOL    HW1 6020   2.820   1.392   2.257
 1707SOL    HW2 6021   2.793   1.510   2.148
 1708SOL     OW 6022   2.796   4.868   1.981
 1708SOL    HW1 6023   2.784   4.770   2.002
 1708SOL    HW2 6024   2.834   4.878   1.889
 1709SOL     OW 6025   5.991   4.587   2.300
 1709SOL    HW1 6026   6.033   4.597   2.390
 1709SOL    HW2 6027   5.991   4.675   2.253
 1710SOL     OW 6028   4.697   2.757   2.028
 1710SOL    HW1 6029   4.726   2.852   2.022
 1710SOL    HW2 6030   4.777   2.698   2.040
 1711SOL     OW 6031   4.186   5.248   0.130
 1711SOL    HW1 6032   4.166   5.270   0.225
 1711SOL    HW2 6033   4.285   5.256   0.115
 1712SOL     OW 6034   0.255   2.284   2.070
 1712SOL    HW1 6035   0.183   2.318   2.009
 1712SOL    HW2 6036   0.292   2.359   2.124
 1713SOL     OW 6037   2.892   1.290   2.561
 1713SOL    HW1 6038   2.946   1.364   2.521
 1713SOL    HW2 6039   2.946   1.241   2.629
 1714SOL     OW 6040   3.056   5.070   1.171
 1714SOL    HW1 6041   3.063   5.086   1.269
 1714SOL    HW2 6042   3.102   5.144   1.121
 1715SOL     OW 6043   1.451   6.122   0.783
 1715SOL    HW1 6044   1.498   6.207   0.758
 1715SOL    HW2 6045   1.389   6.095   0.710
 1716SOL     OW 6046   5.391   1.644   2.902
 1716SOL    HW1 6047   5.421   1.668   2.810
 1716SOL    HW2 6048   5.317   1.705   2.930
 1717SOL     OW 6049   3.474   6.635   4.141
 1717SOL    HW1 6050   3.464   6.663   4.046
 1717SOL    HW2 6051   3.570   6.642   4.168
 1718SOL     OW 6052   1.713   4.097   1.598
 1718SOL    HW1 6053   1.712   4.099   1.698
 1718SOL    HW2 6054   1.806   4.082   1.565
 1719SOL     OW 6055   1.677   4.864   3.650
 1719SOL    HW1 6056   1.776   4.881   3.657
 1719SOL    HW2 6057   1.631   4.898   3.732
 1720SOL     OW 6058   1.530   3.038   5.559
 1720SOL    HW1 6059   1.602   2.999   5.503
 1720SOL    HW2 6060   1.442   2.998   5.534
 1721SOL     OW 6061   2.154   2.622   0.264
 1721SOL    HW1 6062   2.064   2.644   0.227
 1721SOL    HW2 6063   2.147   2.544   0.326
 1722SOL     OW 6064   3.682   2.088   2.678
 1722SOL    HW1 6065   3.762   2.140   2.648
 1722SOL    HW2 6066   3.639   2.045   2.598
 1723SOL     OW 6067   6.552   5.301   1.238
 1723SOL    HW1 6068   6.594   5.388   1.263
 1723SOL    HW2 6069   6.521   5.255   1.321
 1724SOL     OW 6070   6.337   3.940   1.423
 1724SOL    HW1 6071   6.238   3.930   1.416
 1724SOL    HW2 6072   6.379   3.850   1.435
 1725SOL     OW 6073   1.774   6.529   4.885
 1725SOL    HW1 6074   1.712   6.566   4.954
 1725SOL    HW2 6075   1.724   6.516   4.799
 1726SOL     OW 6076   5.797   4.706   3.061
 1726SOL    HW1 6077   5.721   4.641   3.053
 1726SOL    HW2 6078   5.762   4.794   3.095
 1727SOL     OW 6079   2.915   3.545   3.712
 1727SOL    HW1 6080   2.855   3.592   3.778
 1727SOL    HW2 6081   2.952   3.463   3.754
 1728SOL     OW 6082   5.537   2.176   4.540
 1728SOL    HW1 6083   5.594   2.256   4.558
 1728SOL    HW2 6084   5.527   2.163   4.441
 1729SOL     OW 6085   1.431   4.020   3.367
 1729SOL    HW1 6086   1.359   4.020   3.297
 1729SOL    HW2 6087   1.478   4.108   3.365
 1730SOL     OW 6088   2.198   1.013   4.962
 1730SOL    HW1 6089   2.215   1.111   4.966
 1730SOL    HW2 6090   2.117   0.991   5.016
 1731SOL     OW 6091   5.825   4.763   3.692
 1731SOL    HW1 6092   5.743   4.729   3.739
 1731SOL    HW2 6093   5.904   4.752   3.752
 1732SOL     OW 6094   4.080   3.240   5.032
 1732SOL    HW1 6095   4.161   3.269   5.083
 1732SOL    HW2 6096   4.034   3.320   4.994
 1733SOL     OW 6097   1.366   1.764   7.005
 1733SOL    HW1 6098   1.449   1.727   6.965
 1733SOL    HW2 6099   1.287   1.733   6.952
 1734SOL     OW 6100   1.053   4.474   2.534
 1734SOL    HW1 6101   1.147   4.506   2.548
 1734SOL    HW2 6102   1.024   4.495   2.441
 1735SOL     OW 6103   3.292   5.382   6.152
 1735SOL    HW1 6104   3.198   5.419   6.154
 1735SOL    HW2 6105   3.334   5.404   6.064
 1736SOL     OW 6106   4.220   1.869   5.270
 1736SOL    HW1 6107   4.230   1.889   5.173
 1736SOL    HW2 6108   4.270   1.937   5.324
 1737SOL     OW 6109   2.520   0.739   6.905
 1737SOL    HW1 6110   2.459   0.792   6.847
 1737SOL    HW2 6111   2.597   0.706   6.851
 1738SOL     OW 6112   1.365   3.923   1.999
 1738SOL    HW1 6113   1.392   4.011   1.959
 1738SOL    HW2 6114   1.360   3.931   2.098
 1739SOL     OW 6115   4.287   5.474   2.410
 1739SOL    HW1 6116   4.384   5.448   2.417
 1739SOL    HW2 6117   4.280   5.569   2.381
 1740SOL     OW 6118   6.440   2.380   4.183
 1740SOL    HW1 6119   6.382   2.316   4.233
 1740SOL    HW2 6120   6.533   2.342   4.176
 1741SOL     OW 6121   1.180   2.828   4.184
 1741SOL    HW1 6122   1.154   2.781   4.100
 1741SOL    HW2 6123   1.108   2.817   4.253
 1742SOL     OW 6124   5.793   6.980   6.668
 1742SOL    HW1 6125   5.846   0.009   6.739
 1742SOL    HW2 6126   5.746   0.029   6.611
 1743SOL     OW 6127   0.887   2.078   1.660
 1743SOL    HW1 6128   0.873   2.043   1.567
 1743SOL    HW2 6129   0.816   2.146   1.680
 1744SOL     OW 6130   3.141   1.858   5.279
 1744SOL    HW1 6131   3.174   1.920   5.208
 1744SOL    HW2 6132   3.215   1.797   5.307
 1745SOL     OW 6133   6.190   6.726   1.023
 1745SOL    HW1 6134   6.096   6.731   1.058
 1745SOL    HW2 6135   6.192   6.755   0.928
 1746SOL     OW 6136   2.267   5.076   2.802
 1746SOL    HW1 6137   2.263   5.001   2.736
 1746SOL    HW2 6138   2.257   5.040   2.895
 1747SOL     OW 6139   2.849   6.816   1.588
 1747SOL    HW1 6140   2.926   6.773   1.634
 1747SOL    HW2 6141   2.791   6.862   1.655
 1748SOL     OW 6142   0.124   1.677   3.780
 1748SOL    HW1 6143   0.048   1.618   3.750
 1748SOL    HW2 6144   0.110   1.770   3.744
 1749SOL     OW 6145   6.539   5.566   2.590
 1749SOL    HW1 6146   6.521   5.618   2.673
 1749SOL    HW2 6147   6.486   5.605   2.514
 1750SOL     OW 6148   2.600   1.294   1.309
 1750SOL    HW1 6149   2.647   1.258   1.228
 1750SOL    HW2 6150   2.657   1.279   1.390
 1751SOL     OW 6151   6.456   4.545   4.801
 1751SOL    HW1 6152   6.379   4.512   4.746
 1751SOL    HW2 6153   6.537   4.491   4.780
 1752SOL     OW 6154   5.710   0.527   2.901
 1752SOL    HW1 6155   5.631   0.504   2.958
 1752SOL    HW2 6156   5.758   0.605   2.941
 1753SOL     OW 6157   6.548   1.366   0.921
 1753SOL    HW1 6158   6.485   1.440   0.898
 1753SOL    HW2 6159   6.576   1.318   0.838
 1754SOL     OW 6160   2.017   4.518   3.422
 1754SOL    HW1 6161   2.089   4.505   3.354
 1754SOL    HW2 6162   1.988   4.429   3.458
 1755SOL     OW 6163   5.735   6.663   5.319
 1755SOL    HW1 6164   5.756   6.680   5.416
 1755SOL    HW2 6165   5.663   6.726   5.290
 1756SOL     OW 6166   4.627   5.334   1.498
 1756SOL    HW1 6167   4.696   5.390   1.453
 1756SOL    HW2 6168   4.577   5.389   1.565
 1757SOL     OW 6169   2.965   5.056   4.785
 1757SOL    HW1 6170   2.931   4.987   4.849
 1757SOL    HW2 6171   3.020   5.123   4.834
 1758SOL     OW 6172   0.528   6.344   4.005
 1758SOL    HW1 6173   0.458   6.369   4.072
 1758SOL    HW2 6174   0.615   6.386   4.031
 1759SOL     OW 6175   2.033   5.072   5.852
 1759SOL    HW1 6176   2.127   5.088   5.882
 1759SOL    HW2 6177   1.970   5.117   5.915
 1760SOL     OW 6178   5.969   1.322   4.224
 1760SOL    HW1 6179   5.896   1.382   4.193
 1760SOL    HW2 6180   5.950   1.290   4.316
 1761SOL     OW 6181   5.340   2.231   3.828
 1761SOL    HW1 6182   5.370   2.144   3.788
 1761SOL    HW2 6183   5.246   2.250   3.799
 1762SOL     OW 6184   1.060   1.496   5.355
 1762SOL    HW1 6185   0.975   1.454   5.387
 1762SOL    HW2 6186   1.098   1.554   5.427
 1763SOL     OW 6187   1.526   5.303   4.140
 1763SOL    HW1 6188   1.541   5.265   4.049
 1763SOL    HW2 6189   1.569   5.393   4.146
 1764SOL     OW 6190   0.321   5.373   3.530
 1764SOL    HW1 6191   0.297   5.362   3.433
 1764SOL    HW2 6192   0.402   5.319   3.550
 1765SOL     OW 6193   5.427   3.812   2.067
 1765SOL    HW1 6194   5.337   3.853   2.085
 1765SOL    HW2 6195   5.425   3.715   2.093
 1766SOL     OW 6196   4.047   4.809   3.288
 1766SOL    HW1 6197   3.959   4.824   3.331
 1766SOL    HW2 6198   4.034   4.788   3.191
 1767SOL     OW 6199   1.780   4.386   1.536
 1767SOL    HW1 6200   1.791   4.292   1.504
 1767SOL    HW2 6201   1.854   4.408   1.599
 1768SOL     OW 6202   3.449   5.225   2.960
 1768SOL    HW1 6203   3.524   5.239   2.895
 1768SOL    HW2 6204   3.362   5.225   2.910
 1769SOL     OW 6205   5.508   0.151   0.662
 1769SOL    HW1 6206   5.485   0.084   0.591
 1769SOL    HW2 6207   5.468   0.122   0.749
 1770SOL     OW 6208   2.377   4.449   0.450
 1770SOL    HW1 6209   2.312   4.403   0.510
 1770SOL    HW2 6210   2.377   4.547   0.469
 1771SOL     OW 6211   1.420   3.201   6.011
 1771SOL    HW1 6212   1.467   3.284   6.043
 1771SOL    HW2 6213   1.480   3.122   6.021
 1772SOL     OW 6214   3.171   5.377   2.006
 1772SOL    HW1 6215   3.173   5.473   2.034
 1772SOL    HW2 6216   3.244   5.328   2.053
 1773SOL     OW 6217   1.964   6.321   4.827
 1773SOL    HW1 6218   1.999   6.281   4.912
 1773SOL    HW2 6219   1.872   6.356   4.843
 1774SOL     OW 6220   5.535   5.161   1.299
 1774SOL    HW1 6221   5.518   5.115   1.212
 1774SOL    HW2 6222   5.542   5.092   1.372
 1775SOL     OW 6223   2.048   6.767   1.208
 1775SOL    HW1 6224   1.985   6.722   1.271
 1775SOL    HW2 6225   2.111   6.825   1.260
 1776SOL     OW 6226   5.105   3.356   5.709
 1776SOL    HW1 6227   5.062   3.428   5.656
 1776SOL    HW2 6228   5.134   3.394   5.798
 1777SOL     OW 6229   4.753   4.721   6.545
 1777SOL    HW1 6230   4.801   4.753   6.463
 1777SOL    HW2 6231   4.820   4.697   6.615
 1778SOL     OW 6232   6.690   0.240   3.077
 1778SOL    HW1 6233   6.647   0.328   3.097
 1778SOL    HW2 6234   6.725   0.199   3.161
 1779SOL     OW 6235   6.637   6.990   4.684
 1779SOL    HW1 6236   6.553   6.999   4.631
 1779SOL    HW2 6237   6.641   6.900   4.726
 1780SOL     OW 6238   2.655   7.013   4.845
 1780SOL    HW1 6239   2.645   0.006   4.746
 1780SOL    HW2 6240   2.605   6.931   4.873
 1781SOL     OW 6241   4.449   0.925   5.581
 1781SOL    HW1 6242   4.442   0.991   5.656
 1781SOL    HW2 6243   4.417   0.836   5.612
 1782SOL     OW 6244   5.099   0.372   2.426
 1782SOL    HW1 6245   5.024   0.404   2.368
 1782SOL    HW2 6246   5.152   0.303   2.376
 1783SOL     OW 6247   2.011   3.463   0.148
 1783SOL    HW1 6248   1.924   3.474   0.100
 1783SOL    HW2 6249   2.007   3.383   0.207
 1784SOL     OW 6250   2.094   5.845   1.469
 1784SOL    HW1 6251   2.142   5.859   1.556
 1784SOL    HW2 6252   2.040   5.926   1.447
 1785SOL     OW 6253   2.182   5.031   4.781
 1785SOL    HW1 6254   2.204   4.965   4.853
 1785SOL    HW2 6255   2.140   5.112   4.822
 1786SOL     OW 6256   0.483   5.754   2.476
 1786SOL    HW1 6257   0.456   5.812   2.552
 1786SOL    HW2 6258   0.538   5.678   2.510
 1787SOL     OW 6259   2.661   2.286   6.196
 1787SOL    HW1 6260   2.600   2.245   6.129
 1787SOL    HW2 6261   2.617   2.285   6.286
 1788SOL     OW 6262   3.843   3.859   0.640
 1788SOL    HW1 6263   3.937   3.879   0.610
 1788SOL    HW2 6264   3.800   3.943   0.673
 1789SOL     OW 6265   5.978   2.878   3.187
 1789SOL    HW1 6266   6.009   2.790   3.220
 1789SOL    HW2 6267   5.880   2.887   3.202
 1790SOL     OW 6268   2.414   2.240   5.065
 1790SOL    HW1 6269   2.374   2.300   4.996
 1790SOL    HW2 6270   2.405   2.145   5.036
 1791SOL     OW 6271   6.034   0.358   3.444
 1791SOL    HW1 6272   6.041   0.445   3.492
 1791SOL    HW2 6273   6.117   0.342   3.390
 1792SOL     OW 6274   0.171   3.064   6.447
 1792SOL    HW1 6275   0.141   3.159   6.442
 1792SOL    HW2 6276   0.266   3.057   6.416
 1793SOL     OW 6277   0.326   1.751   5.021
 1793SOL    HW1 6278   0.316   1.719   5.115
 1793SOL    HW2 6279   0.422   1.745   4.994
 1794SOL     OW 6280   6.584   1.857   6.390
 1794SOL    HW1 6281   6.496   1.810   6.396
 1794SOL    HW2 6282   6.575   1.939   6.333
 1795SOL     OW 6283   5.867   4.353   0.790
 1795SOL    HW1 6284   5.917   4.269   0.768
 1795SOL    HW2 6285   5.931   4.423   0.819
 1796SOL     OW 6286   6.123   0.224   6.856
 1796SOL    HW1 6287   6.081   0.288   6.792
 1796SOL    HW2 6288   6.052   0.166   6.895
 1797SOL     OW 6289   3.108   6.222   5.881
 1797SOL    HW1 6290   3.058   6.296   5.927
 1797SOL    HW2 6291   3.095   6.137   5.930
 1798SOL     OW 6292   2.719   3.836   6.794
 1798SOL    HW1 6293   2.687   3.901   6.725
 1798SOL    HW2 6294   2.818   3.831   6.791
 1799SOL     OW 6295   3.950   1.758   1.413
 1799SOL    HW1 6296   3.860   1.775   1.374
 1799SOL    HW2 6297   3.941   1.712   1.501
 1800SOL     OW 6298   5.763   2.313   5.688
 1800SOL    HW1 6299   5.729   2.240   5.747
 1800SOL    HW2 6300   5.860   2.328   5.705
 1801SOL     OW 6301   0.612   2.015   1.963
 1801SOL    HW1 6302   0.710   2.034   1.959
 1801SOL    HW2 6303   0.588   1.978   2.053
 1802SOL     OW 6304   6.159   4.714   5.002
 1802SOL    HW1 6305   6.104   4.648   4.951
 1802SOL    HW2 6306   6.249   4.723   4.959
 1803SOL     OW 6307   6.574   6.921   3.837
 1803SOL    HW1 6308   6.588   6.847   3.771
 1803SOL    HW2 6309   6.476   6.934   3.851
 1804SOL     OW 6310   1.382   2.934   6.444
 1804SOL    HW1 6311   1.428   3.002   6.502
 1804SOL    HW2 6312   1.317   2.883   6.500
 1805SOL     OW 6313   6.373   5.147   5.756
 1805SOL    HW1 6314   6.375   5.216   5.684
 1805SOL    HW2 6315   6.457   5.094   5.754
 1806SOL     OW 6316   0.463   1.232   1.895
 1806SOL    HW1 6317   0.424   1.156   1.843
 1806SOL    HW2 6318   0.436   1.319   1.855
 1807SOL     OW 6319   6.295   2.451   2.441
 1807SOL    HW1 6320   6.374   2.458   2.502
 1807SOL    HW2 6321   6.263   2.543   2.418
 1808SOL     OW 6322   6.320   0.747   0.089
 1808SOL    HW1 6323   6.272   0.678   0.034
 1808SOL    HW2 6324   6.267   0.765   0.172
 1809SOL     OW 6325   4.151   0.460   4.507
 1809SOL    HW1 6326   4.147   0.385   4.441
 1809SOL    HW2 6327   4.110   0.430   4.594
 1810SOL     OW 6328   1.317   1.290   4.727
 1810SOL    HW1 6329   1.382   1.365   4.720
 1810SOL    HW2 6330   1.301   1.268   4.823
 1811SOL     OW 6331   3.572   5.555   1.926
 1811SOL    HW1 6332   3.488   5.539   1.874
 1811SOL    HW2 6333   3.627   5.624   1.878
 1812SOL     OW 6334   4.042   0.958   6.921
 1812SOL    HW1 6335   4.067   1.049   6.889
 1812SOL    HW2 6336   3.960   0.963   6.978
 1813SOL     OW 6337   6.134   3.635   1.668
 1813SOL    HW1 6338   6.129   3.725   1.712
 1813SOL    HW2 6339   6.109   3.644   1.571
 1814SOL     OW 6340   6.664   5.774   1.066
 1814SOL    HW1 6341   6.603   5.722   1.007
 1814SOL    HW2 6342   6.704   5.850   1.015
 1815SOL     OW 6343   6.392   5.191   1.479
 1815SOL    HW1 6344   6.402   5.248   1.561
 1815SOL    HW2 6345   6.304   5.209   1.435
 1816SOL     OW 6346   3.512   5.072   4.462
 1816SOL    HW1 6347   3.603   5.044   4.491
 1816SOL    HW2 6348   3.446   5.051   4.534
 1817SOL     OW 6349   6.190   2.850   4.058
 1817SOL    HW1 6350   6.259   2.814   3.996
 1817SOL    HW2 6351   6.192   2.950   4.057
 1818SOL     OW 6352   2.516   1.896   0.245
 1818SOL    HW1 6353   2.536   1.874   0.341
 1818SOL    HW2 6354   2.573   1.973   0.216
 1819SOL     OW 6355   0.981   3.053   0.890
 1819SOL    HW1 6356   1.078   3.047   0.915
 1819SOL    HW2 6357   0.972   3.101   0.803
 1820SOL     OW 6358   3.674   6.852   5.055
 1820SOL    HW1 6359   3.728   6.862   4.971
 1820SOL    HW2 6360   3.652   6.756   5.069
 1821SOL     OW 6361   3.977   1.054   2.617
 1821SOL    HW1 6362   3.916   1.072   2.540
 1821SOL    HW2 6363   4.063   1.016   2.583
 1822SOL     OW 6364   2.198   4.204   4.851
 1822SOL    HW1 6365   2.257   4.166   4.923
 1822SOL    HW2 6366   2.164   4.129   4.793
 1823SOL     OW 6367   4.637   6.830   4.414
 1823SOL    HW1 6368   4.577   6.758   4.450
 1823SOL    HW2 6369   4.707   6.852   4.482
 1824SOL     OW 6370   4.533   2.629   1.823
 1824SOL    HW1 6371   4.619   2.651   1.870
 1824SOL    HW2 6372   4.498   2.710   1.777
 1825SOL     OW 6373   1.312   3.590   0.353
 1825SOL    HW1 6374   1.217   3.617   0.333
 1825SOL    HW2 6375   1.366   3.672   0.372
 1826SOL     OW 6376   4.041   3.224   6.991
 1826SOL    HW1 6377   4.133   3.193   6.966
 1826SOL    HW2 6378   4.019   3.305   6.937
 1827SOL     OW 6379   5.329   4.751   0.944
 1827SOL    HW1 6380   5.257   4.799   0.894
 1827SOL    HW2 6381   5.418   4.786   0.915
 1828SOL     OW 6382   2.670   5.527   5.012
 1828SOL    HW1 6383   2.641   5.583   4.934
 1828SOL    HW2 6384   2.651   5.577   5.097
 1829SOL     OW 6385   1.879   6.332   2.381
 1829SOL    HW1 6386   1.913   6.256   2.436
 1829SOL    HW2 6387   1.931   6.338   2.296
 1830SOL     OW 6388   4.207   1.351   6.802
 1830SOL    HW1 6389   4.125   1.340   6.747
 1830SOL    HW2 6390   4.287   1.352   6.743
 1831SOL     OW 6391   3.849   4.370   6.499
 1831SOL    HW1 6392   3.756   4.372   6.536
 1831SOL    HW2 6393   3.899   4.294   6.541
 1832SOL     OW 6394   2.010   2.674   5.446
 1832SOL    HW1 6395   2.073   2.684   5.369
 1832SOL    HW2 6396   2.036   2.594   5.500
 1833SOL     OW 6397   5.729   1.664   0.139
 1833SOL    HW1 6398   5.734   1.606   0.220
 1833SOL    HW2 6399   5.689   1.752   0.163
 1834SOL     OW 6400   2.020   3.950   6.628
 1834SOL    HW1 6401   2.088   3.887   6.591
 1834SOL    HW2 6402   2.059   4.000   6.705
 1835SOL     OW 6403   6.172   0.101   6.599
 1835SOL    HW1 6404   6.182   0.161   6.677
 1835SOL    HW2 6405   6.164   0.155   6.515
 1836SOL     OW 6406   6.026   1.232   4.850
 1836SOL    HW1 6407   6.095   1.260   4.783
 1836SOL    HW2 6408   5.979   1.150   4.816
 1837SOL     OW 6409   1.161   1.852   1.327
 1837SOL    HW1 6410   1.254   1.869   1.298
 1837SOL    HW2 6411   1.158   1.769   1.383
 1838SOL     OW 6412   5.272   0.338   0.261
 1838SOL    HW1 6413   5.212   0.259   0.264
 1838SOL    HW2 6414   5.320   0.347   0.349
 1839SOL     OW 6415   6.825   2.078   6.302
 1839SOL    HW1 6416   6.893   2.138   6.342
 1839SOL    HW2 6417   6.856   1.983   6.308
 1840SOL     OW 6418   2.236   0.116   5.702
 1840SOL    HW1 6419   2.266   0.021   5.687
 1840SOL    HW2 6420   2.300   0.161   5.764
 1841SOL     OW 6421   2.702   6.951   1.821
 1841SOL    HW1 6422   2.733   6.995   1.905
 1841SOL    HW2 6423   2.660   0.002   1.762
 1842SOL     OW 6424   0.165   4.566   1.725
 1842SOL    HW1 6425   0.105   4.498   1.683
 1842SOL    HW2 6426   0.167   4.552   1.824
 1843SOL     OW 6427   3.300   0.799   6.651
 1843SOL    HW1 6428   3.264   0.706   6.654
 1843SOL    HW2 6429   3.347   0.815   6.564
 1844SOL     OW 6430   5.358   3.827   1.327
 1844SOL    HW1 6431   5.259   3.836   1.331
 1844SOL    HW2 6432   5.397   3.834   1.419
 1845SOL     OW 6433   0.700   2.565   4.727
 1845SOL    HW1 6434   0.688   2.549   4.629
 1845SOL    HW2 6435   0.788   2.526   4.755
 1846SOL     OW 6436   3.887   1.476   2.223
 1846SOL    HW1 6437   3.860   1.514   2.312
 1846SOL    HW2 6438   3.823   1.508   2.153
 1847SOL     OW 6439   3.162   5.995   6.641
 1847SOL    HW1 6440   3.112   6.069   6.685
 1847SOL    HW2 6441   3.261   6.009   6.653
 1848SOL     OW 6442   3.335   5.854   4.641
 1848SOL    HW1 6443   3.332   5.755   4.625
 1848SOL    HW2 6444   3.428   5.887   4.627
 1849SOL     OW 6445   4.578   2.546   2.187
 1849SOL    HW1 6446   4.597   2.618   2.121
 1849SOL    HW2 6447   4.482   2.518   2.179
 1850SOL     OW 6448   5.104   1.346   0.790
 1850SOL    HW1 6449   5.102   1.267   0.851
 1850SOL    HW2 6450   5.129   1.316   0.698
 1851SOL     OW 6451   0.943   5.007   3.592
 1851SOL    HW1 6452   0.979   5.091   3.553
 1851SOL    HW2 6453   1.019   4.945   3.614
 1852SOL     OW 6454   0.290   0.234   3.947
 1852SOL    HW1 6455   0.270   0.148   3.898
 1852SOL    HW2 6456   0.349   0.215   4.025
 1853SOL     OW 6457   1.246   1.915   5.122
 1853SOL    HW1 6458   1.266   2.013   5.112
 1853SOL    HW2 6459   1.330   1.867   5.147
 1854SOL     OW 6460   0.994   6.795   4.042
 1854SOL    HW1 6461   0.940   6.849   3.978
 1854SOL    HW2 6462   1.091   6.819   4.034
 1855SOL     OW 6463   6.582   1.444   5.162
 1855SOL    HW1 6464   6.606   1.534   5.125
 1855SOL    HW2 6465   6.664   1.401   5.200
 1856SOL     OW 6466   4.831   3.878   6.941
 1856SOL    HW1 6467   4.829   3.846   6.847
 1856SOL    HW2 6468   4.776   3.961   6.949
 1857SOL     OW 6469   4.786   0.704   6.666
 1857SOL    HW1 6470   4.853   0.771   6.696
 1857SOL    HW2 6471   4.702   0.712   6.720
 1858SOL     OW 6472   5.013   2.088   4.674
 1858SOL    HW1 6473   4.959   2.156   4.724
 1858SOL    HW2 6474   5.067   2.134   4.603
 1859SOL     OW 6475   6.176   6.036   2.942
 1859SOL    HW1 6476   6.081   6.047   2.914
 1859SOL    HW2 6477   6.199   5.939   2.942
 1860SOL     OW 6478   2.272   0.786   0.986
 1860SOL    HW1 6479   2.276   0.791   0.886
 1860SOL    HW2 6480   2.326   0.707   1.018
 1861SOL     OW 6481   6.618   6.847   5.664
 1861SOL    HW1 6482   6.622   6.751   5.690
 1861SOL    HW2 6483   6.711   6.883   5.658
 1862SOL     OW 6484   3.892   4.967   5.065
 1862SOL    HW1 6485   3.821   4.951   5.134
 1862SOL    HW2 6486   3.873   5.054   5.018
 1863SOL     OW 6487   0.149   1.003   1.203
 1863SOL    HW1 6488   0.179   1.094   1.176
 1863SOL    HW2 6489   0.182   0.936   1.137
 1864SOL     OW 6490   2.516   6.056   2.301
 1864SOL    HW1 6491   2.514   6.124   2.228
 1864SOL    HW2 6492   2.507   5.965   2.262
 1865SOL     OW 6493   6.066   2.566   5.926
 1865SOL    HW1 6494   6.086   2.648   5.872
 1865SOL    HW2 6495   6.142   2.549   5.990
 1866SOL     OW 6496   0.190   4.158   5.347
 1866SOL    HW1 6497   0.130   4.231   5.379
 1866SOL    HW2 6498   0.284   4.192   5.342
 1867SOL     OW 6499   1.273   0.662   0.819
 1867SOL    HW1 6500   1.266   0.744   0.876
 1867SOL    HW2 6501   1.307   0.687   0.729
 1868SOL     OW 6502   5.669   3.608   5.704
 1868SOL    HW1 6503   5.631   3.572   5.618
 1868SOL    HW2 6504   5.768   3.617   5.695
 1869SOL     OW 6505   5.223   0.865   5.109
 1869SOL    HW1 6506   5.302   0.818   5.148
 1869SOL    HW2 6507   5.242   0.963   5.103
 1870SOL     OW 6508   5.692   1.039   5.530
 1870SOL    HW1 6509   5.765   0.977   5.500
 1870SOL    HW2 6510   5.635   1.063   5.452
 1871SOL     OW 6511   2.948   4.766   0.143
 1871SOL    HW1 6512   2.853   4.785   0.166
 1871SOL    HW2 6513   2.975   4.679   0.184
 1872SOL     OW 6514   2.373   3.463   6.980
 1872SOL    HW1 6515   2.311   3.541   6.969
 1872SOL    HW2 6516   2.343   3.408   0.041
 1873SOL     OW 6517   6.183   1.182   1.890
 1873SOL    HW1 6518   6.185   1.139   1.981
 1873SOL    HW2 6519   6.223   1.274   1.896
 1874SOL     OW 6520   2.397   4.967   6.772
 1874SOL    HW1 6521   2.477   4.913   6.798
 1874SOL    HW2 6522   2.424   5.038   6.707
 1875SOL     OW 6523   1.066   6.025   2.717
 1875SOL    HW1 6524   1.022   5.969   2.787
 1875SOL    HW2 6525   1.009   6.025   2.635
 1876SOL     OW 6526   0.632   5.268   5.189
 1876SOL    HW1 6527   0.717   5.227   5.156
 1876SOL    HW2 6528   0.652   5.357   5.231
 1877SOL     OW 6529   0.552   1.263   3.636
 1877SOL    HW1 6530   0.564   1.353   3.595
 1877SOL    HW2 6531   0.470   1.263   3.693
 1878SOL     OW 6532   5.878   3.974   4.585
 1878SOL    HW1 6533   5.884   4.045   4.514
 1878SOL    HW2 6534   5.903   3.885   4.546
 1879SOL     OW 6535   4.042   6.190   5.118
 1879SOL    HW1 6536   4.004   6.122   5.180
 1879SOL    HW2 6537   4.002   6.280   5.139
 1880SOL     OW 6538   1.709   3.726   4.335
 1880SOL    HW1 6539   1.782   3.675   4.289
 1880SOL    HW2 6540   1.745   3.812   4.371
 1881SOL     OW 6541   2.915   2.208   3.032
 1881SOL    HW1 6542   2.823   2.241   3.012
 1881SOL    HW2 6543   2.944   2.145   2.960
 1882SOL     OW 6544   4.230   6.851   6.978
 1882SOL    HW1 6545   4.252   6.849   0.058
 1882SOL    HW2 6546   4.133   6.831   6.965
 1883SOL     OW 6547   2.088   3.524   3.133
 1883SOL    HW1 6548   2.111   3.427   3.123
 1883SOL    HW2 6549   2.136   3.577   3.064
 1884SOL     OW 6550   4.877   0.892   0.013
 1884SOL    HW1 6551   4.903   0.987   0.000
 1884SOL    HW2 6552   4.800   0.887   0.077
 1885SOL     OW 6553   0.001   1.744   0.956
 1885SOL    HW1 6554   6.926   1.765   0.927
 1885SOL    HW2 6555   0.053   1.711   0.877
 1886SOL     OW 6556   3.620   3.134   4.757
 1886SOL    HW1 6557   3.582   3.178   4.675
 1886SOL    HW2 6558   3.718   3.116   4.743
 1887SOL     OW 6559   0.724   5.972   5.603
 1887SOL    HW1 6560   0.790   6.030   5.652
 1887SOL    HW2 6561   0.745   5.876   5.621
 1888SOL     OW 6562   2.054   1.933   5.650
 1888SOL    HW1 6563   2.047   1.846   5.601
 1888SOL    HW2 6564   2.065   2.007   5.584
 1889SOL     OW 6565   3.847   4.013   0.026
 1889SOL    HW1 6566   3.760   4.057   0.047
 1889SOL    HW2 6567   3.842   3.916   0.048
 1890SOL     OW 6568   6.053   6.655   6.416
 1890SOL    HW1 6569   6.110   6.590   6.365
 1890SOL    HW2 6570   6.107   6.734   6.441
 1891SOL     OW 6571   5.164   3.331   6.723
 1891SOL    HW1 6572   5.207   3.419   6.743
 1891SOL    HW2 6573   5.128   3.292   6.807
 1892SOL     OW 6574   3.600   1.107   3.069
 1892SOL    HW1 6575   3.568   1.187   3.120
 1892SOL    HW2 6576   3.565   1.024   3.111
 1893SOL     OW 6577   2.872   2.351   6.803
 1893SOL    HW1 6578   2.815   2.427   6.832
 1893SOL    HW2 6579   2.968   2.380   6.801
 1894SOL     OW 6580   5.034   3.212   1.173
 1894SOL    HW1 6581   4.948   3.161   1.175
 1894SOL    HW2 6582   5.026   3.287   1.106
 1895SOL     OW 6583   4.378   5.644   3.031
 1895SOL    HW1 6584   4.335   5.614   2.946
 1895SOL    HW2 6585   4.320   5.619   3.109
 1896SOL     OW 6586   0.215   1.442   4.711
 1896SOL    HW1 6587   0.181   1.462   4.802
 1896SOL    HW2 6588   0.155   1.375   4.667
 1897SOL     OW 6589   5.475   5.524   3.498
 1897SOL    HW1 6590   5.391   5.559   3.456
 1897SOL    HW2 6591   5.491   5.430   3.469
 1898SOL     OW 6592   5.075   6.205   0.303
 1898SOL    HW1 6593   5.027   6.147   0.369
 1898SOL    HW2 6594   5.016   6.222   0.225
 1899SOL     OW 6595   1.584   3.117   4.070
 1899SOL    HW1 6596   1.593   3.211   4.036
 1899SOL    HW2 6597   1.541   3.118   4.160
 1900SOL     OW 6598   2.881   6.069   1.618
 1900SOL    HW1 6599   2.855   6.165   1.611
 1900SOL    HW2 6600   2.806   6.017   1.660
 1901SOL     OW 6601   0.503   1.690   6.269
 1901SOL    HW1 6602   0.467   1.721   6.181
 1901SOL    HW2 6603   0.571   1.755   6.303
 1902SOL     OW 6604   1.331   2.517   4.839
 1902SOL    HW1 6605   1.421   2.495   4.803
 1902SOL    HW2 6606   1.332   2.509   4.938
 1903SOL     OW 6607   6.957   6.069   3.811
 1903SOL    HW1 6608   7.003   6.069   3.899
 1903SOL    HW2 6609   6.863   6.100   3.822
 1904SOL     OW 6610   0.350   0.479   4.089
 1904SOL    HW1 6611   0.275   0.537   4.057
 1904SOL    HW2 6612   0.353   0.395   4.034
 1905SOL     OW 6613   5.918   3.338   6.013
 1905SOL    HW1 6614   5.896   3.366   6.106
 1905SOL    HW2 6615   5.839   3.356   5.953
 1906SOL     OW 6616   1.939   6.242   5.788
 1906SOL    HW1 6617   1.932   6.335   5.753
 1906SOL    HW2 6618   2.035   6.220   5.804
 1907SOL     OW 6619   4.297   6.811   3.387
 1907SOL    HW1 6620   4.258   6.810   3.295
 1907SOL    HW2 6621   4.378   6.752   3.390
 1908SOL     OW 6622   5.142   4.527   0.917
 1908SOL    HW1 6623   5.092   4.496   0.998
 1908SOL    HW2 6624   5.192   4.610   0.939
 1909SOL     OW 6625   5.153   5.397   3.496
 1909SOL    HW1 6626   5.092   5.338   3.444
 1909SOL    HW2 6627   5.225   5.341   3.538
 1910SOL     OW 6628   5.529   3.644   4.189
 1910SOL    HW1 6629   5.605   3.599   4.238
 1910SOL    HW2 6630   5.504   3.589   4.110
 1911SOL     OW 6631   1.155   2.432   5.891
 1911SOL    HW1 6632   1.055   2.424   5.895
 1911SOL    HW2 6633   1.180   2.529   5.889
 1912SOL     OW 6634   3.501   0.160   2.436
 1912SOL    HW1 6635   3.441   0.178   2.513
 1912SOL    HW2 6636   3.561   0.083   2.456
 1913SOL     OW 6637   3.004   4.075   6.650
 1913SOL    HW1 6638   3.011   4.108   6.744
 1913SOL    HW2 6639   2.909   4.051   6.629
 1914SOL     OW 6640   4.240   1.395   5.276
 1914SOL    HW1 6641   4.285   1.484   5.264
 1914SOL    HW2 6642   4.153   1.395   5.225
 1915SOL     OW 6643   2.525   6.428   5.200
 1915SOL    HW1 6644   2.611   6.461   5.239
 1915SOL    HW2 6645   2.453   6.495   5.214
 1916SOL     OW 6646   3.472   6.448   2.770
 1916SOL    HW1 6647   3.557   6.421   2.726
 1916SOL    HW2 6648   3.401   6.381   2.749
 1917SOL     OW 6649   3.994   3.714   3.234
 1917SOL    HW1 6650   4.058   3.739   3.307
 1917SOL    HW2 6651   4.006   3.617   3.212
 1918SOL     OW 6652   0.925   6.476   5.855
 1918SOL    HW1 6653   0.921   6.387   5.900
 1918SOL    HW2 6654   0.832   6.514   5.847
 1919SOL     OW 6655   5.580   0.472   2.199
 1919SOL    HW1 6656   5.562   0.486   2.101
 1919SOL    HW2 6657   5.615   0.380   2.213
 1920SOL     OW 6658   6.026   6.565   4.291
 1920SOL    HW1 6659   5.956   6.525   4.350
 1920SOL    HW2 6660   6.115   6.523   4.311
 1921SOL     OW 6661   2.359   6.863   6.673
 1921SOL    HW1 6662   2.347   6.889   6.769
 1921SOL    HW2 6663   2.308   6.927   6.615
 1922SOL     OW 6664   3.686   4.739   6.814
 1922SOL    HW1 6665   3.653   4.656   6.860
 1922SOL    HW2 6666   3.741   4.793   6.878
 1923SOL     OW 6667   1.937   3.011   0.924
 1923SOL    HW1 6668   1.928   2.963   1.011
 1923SOL    HW2 6669   1.906   2.952   0.849
 1924SOL     OW 6670   0.678   4.082   1.626
 1924SOL    HW1 6671   0.766   4.078   1.577
 1924SOL    HW2 6672   0.694   4.075   1.724
 1925SOL     OW 6673   3.560   4.444   0.331
 1925SOL    HW1 6674   3.521   4.353   0.342
 1925SOL    HW2 6675   3.534   4.501   0.409
 1926SOL     OW 6676   0.124   0.271   3.365
 1926SOL    HW1 6677   0.195   0.213   3.404
 1926SOL    HW2 6678   0.040   0.261   3.417
 1927SOL     OW 6679   5.272   3.226   1.743
 1927SOL    HW1 6680   5.291   3.306   1.687
 1927SOL    HW2 6681   5.272   3.144   1.685
 1928SOL     OW 6682   0.347   5.442   4.685
 1928SOL    HW1 6683   0.330   5.442   4.586
 1928SOL    HW2 6684   0.359   5.348   4.717
 1929SOL     OW 6685   1.517   4.529   3.332
 1929SOL    HW1 6686   1.595   4.586   3.354
 1929SOL    HW2 6687   1.450   4.534   3.406
 1930SOL     OW 6688   6.475   5.529   6.069
 1930SOL    HW1 6689   6.499   5.432   6.075
 1930SOL    HW2 6690   6.460   5.553   5.973
 1931SOL     OW 6691   2.227   2.459   3.454
 1931SOL    HW1 6692   2.218   2.484   3.550
 1931SOL    HW2 6693   2.140   2.421   3.421
 1932SOL     OW 6694   6.299   3.220   2.123
 1932SOL    HW1 6695   6.321   3.255   2.215
 1932SOL    HW2 6696   6.207   3.249   2.097
 1933SOL     OW 6697   2.200   5.219   0.346
 1933SOL    HW1 6698   2.147   5.302   0.361
 1933SOL    HW2 6699   2.277   5.216   0.410
 1934SOL     OW 6700   6.722   6.216   2.974
 1934SOL    HW1 6701   6.769   6.269   2.904
 1934SOL    HW2 6702   6.763   6.125   2.981
 1935SOL     OW 6703   0.990   1.672   2.384
 1935SOL    HW1 6704   0.897   1.691   2.354
 1935SOL    HW2 6705   1.001   1.573   2.398
 1936SOL     OW 6706   0.464   5.972   4.993
 1936SOL    HW1 6707   0.496   6.053   5.042
 1936SOL    HW2 6708   0.533   5.944   4.927
 1937SOL     OW 6709   4.641   1.671   3.443
 1937SOL    HW1 6710   4.568   1.729   3.407
 1937SOL    HW2 6711   4.601   1.594   3.492
 1938SOL     OW 6712   4.912   0.015   3.836
 1938SOL    HW1 6713   4.902   0.114   3.849
 1938SOL    HW2 6714   4.832   6.996   3.790
 1939SOL     OW 6715   2.587   0.815   4.597
 1939SOL    HW1 6716   2.665   0.759   4.624
 1939SOL    HW2 6717   2.566   0.880   4.670
 1940SOL     OW 6718   6.482   0.019   6.649
 1940SOL    HW1 6719   6.393   0.049   6.617
 1940SOL    HW2 6720   6.510   0.074   6.727
 1941SOL     OW 6721   4.426   4.854   2.661
 1941SOL    HW1 6722   4.489   4.911   2.715
 1941SOL    HW2 6723   4.461   4.760   2.658
 1942SOL     OW 6724   0.214   3.545   2.615
 1942SOL    HW1 6725   0.204   3.450   2.643
 1942SOL    HW2 6726   0.172   3.605   2.684
 1943SOL     OW 6727   3.447   5.253   3.788
 1943SOL    HW1 6728   3.395   5.314   3.848
 1943SOL    HW2 6729   3.384   5.204   3.727
 1944SOL     OW 6730   6.764   6.491   1.867
 1944SOL    HW1 6731   6.851   6.495   1.817
 1944SOL    HW2 6732   6.701   6.430   1.819
 1945SOL     OW 6733   2.975   5.367   2.458
 1945SOL    HW1 6734   2.992   5.275   2.496
 1945SOL    HW2 6735   2.894   5.406   2.501
 1946SOL     OW 6736   1.505   6.597   6.698
 1946SOL    HW1 6737   1.466   6.562   6.783
 1946SOL    HW2 6738   1.580   6.660   6.720
 1947SOL     OW 6739   4.270   1.055   3.674
 1947SOL    HW1 6740   4.317   1.027   3.758
 1947SOL    HW2 6741   4.173   1.071   3.693
 1948SOL     OW 6742   6.481   2.879   4.924
 1948SOL    HW1 6743   6.460   2.957   4.983
 1948SOL    HW2 6744   6.490   2.909   4.829
 1949SOL     OW 6745   4.628   3.692   0.021
 1949SOL    HW1 6746   4.661   3.598   0.026
 1949SOL    HW2 6747   4.707   3.755   0.018
 1950SOL     OW 6748   2.430   4.748   0.789
 1950SOL    HW1 6749   2.375   4.821   0.832
 1950SOL    HW2 6750   2.400   4.735   0.695
 1951SOL     OW 6751   5.785   2.997   6.390
 1951SOL    HW1 6752   5.775   3.047   6.476
 1951SOL    HW2 6753   5.714   2.927   6.384
 1952SOL     OW 6754   2.913   3.505   3.429
 1952SOL    HW1 6755   2.930   3.406   3.428
 1952SOL    HW2 6756   2.886   3.532   3.522
 1953SOL     OW 6757   0.505   2.136   4.609
 1953SOL    HW1 6758   0.468   2.209   4.552
 1953SOL    HW2 6759   0.431   2.095   4.662
 1954SOL     OW 6760   2.263   2.526   4.469
 1954SOL    HW1 6761   2.328   2.485   4.404
 1954SOL    HW2 6762   2.238   2.458   4.538
 1955SOL     OW 6763   6.715   5.498   2.888
 1955SOL    HW1 6764   6.769   5.509   2.804
 1955SOL    HW2 6765   6.709   5.401   2.911
 1956SOL     OW 6766   3.645   5.950   3.271
 1956SOL    HW1 6767   3.570   6.005   3.234
 1956SOL    HW2 6768   3.732   5.989   3.241
 1957SOL     OW 6769   2.280   6.464   5.868
 1957SOL    HW1 6770   2.211   6.392   5.868
 1957SOL    HW2 6771   2.336   6.457   5.786
 1958SOL     OW 6772   4.150   3.680   5.988
 1958SOL    HW1 6773   4.211   3.692   5.909
 1958SOL    HW2 6774   4.178   3.599   6.040
 1959SOL     OW 6775   2.635   0.312   0.905
 1959SOL    HW1 6776   2.540   0.322   0.935
 1959SOL    HW2 6777   2.646   0.352   0.814
 1960SOL     OW 6778   5.199   5.349   3.162
 1960SOL    HW1 6779   5.231   5.444   3.155
 1960SOL    HW2 6780   5.118   5.346   3.220
 1961SOL     OW 6781   5.618   4.108   5.169
 1961SOL    HW1 6782   5.669   4.182   5.124
 1961SOL    HW2 6783   5.561   4.146   5.241
 1962SOL     OW 6784   0.707   6.680   3.930
 1962SOL    HW1 6785   0.655   6.682   4.015
 1962SOL    HW2 6786   0.766   6.600   3.928
 1963SOL     OW 6787   2.485   1.345   3.677
 1963SOL    HW1 6788   2.471   1.283   3.600
 1963SOL    HW2 6789   2.501   1.292   3.760
 1964SOL     OW 6790   6.705   2.728   1.975
 1964SOL    HW1 6791   6.685   2.826   1.971
 1964SOL    HW2 6792   6.749   2.706   2.062
 1965SOL     OW 6793   2.003   0.139   3.273
 1965SOL    HW1 6794   2.048   0.101   3.192
 1965SOL    HW2 6795   1.969   0.064   3.330
 1966SOL     OW 6796   6.821   6.435   6.964
 1966SOL    HW1 6797   6.867   6.377   0.013
 1966SOL    HW2 6798   6.888   6.473   6.901
 1967SOL     OW 6799   5.990   2.610   4.888
 1967SOL    HW1 6800   5.986   2.678   4.960
 1967SOL    HW2 6801   6.085   2.599   4.858
 1968SOL     OW 6802   4.228   5.640   4.285
 1968SOL    HW1 6803   4.158   5.688   4.338
 1968SOL    HW2 6804   4.195   5.549   4.260
 1969SOL     OW 6805   6.383   0.575   1.614
 1969SOL    HW1 6806   6.408   0.480   1.593
 1969SOL    HW2 6807   6.344   0.618   1.533
 1970SOL     OW 6808   2.131   1.541   4.772
 1970SOL    HW1 6809   2.204   1.553   4.838
 1970SOL    HW2 6810   2.073   1.463   4.799
 1971SOL     OW 6811   0.326   1.312   6.408
 1971SOL    HW1 6812   0.295   1.222   6.437
 1971SOL    HW2 6813   0.251   1.359   6.361
 1972SOL     OW 6814   1.127   6.868   3.745
 1972SOL    HW1 6815   1.184   6.880   3.826
 1972SOL    HW2 6816   1.032   6.892   3.766
 1973SOL     OW 6817   3.417   3.202   0.185
 1973SOL    HW1 6818   3.431   3.108   0.214
 1973SOL    HW2 6819   3.343   3.206   0.117
 1974SOL     OW 6820   6.147   6.261   4.319
 1974SOL    HW1 6821   6.160   6.170   4.279
 1974SOL    HW2 6822   6.226   6.284   4.376
 1975SOL     OW 6823   2.543   6.915   4.102
 1975SOL    HW1 6824   2.526   6.958   4.014
 1975SOL    HW2 6825   2.589   6.981   4.163
 1976SOL     OW 6826   6.421   4.726   6.022
 1976SOL    HW1 6827   6.392   4.796   6.087
 1976SOL    HW2 6828   6.363   4.730   5.941
 1977SOL     OW 6829   3.239   2.042   5.107
 1977SOL    HW1 6830   3.192   2.125   5.077
 1977SOL    HW2 6831   3.262   1.986   5.027
 1978SOL     OW 6832   0.098   2.544   4.786
 1978SOL    HW1 6833   0.053   2.606   4.722
 1978SOL    HW2 6834   0.194   2.570   4.796
 1979SOL     OW 6835   6.996   4.007   2.543
 1979SOL    HW1 6836   6.923   3.959   2.591
 1979SOL    HW2 6837   6.977   4.105   2.539
 1980SOL     OW 6838   2.364   0.617   3.179
 1980SOL    HW1 6839   2.424   0.540   3.199
 1980SOL    HW2 6840   2.330   0.609   3.085
 1981SOL     OW 6841   5.710   3.334   1.960
 1981SOL    HW1 6842   5.646   3.309   1.888
 1981SOL    HW2 6843   5.728   3.432   1.957
 1982SOL     OW 6844   6.968   6.745   5.424
 1982SOL    HW1 6845   0.020   6.812   5.400
 1982SOL    HW2 6846   6.987   6.659   5.378
 1983SOL     OW 6847   0.921   4.867   1.678
 1983SOL    HW1 6848   0.896   4.830   1.589
 1983SOL    HW2 6849   0.848   4.846   1.744
 1984SOL     OW 6850   4.091   0.853   5.712
 1984SOL    HW1 6851   4.067   0.786   5.782
 1984SOL    HW2 6852   4.008   0.892   5.673
 1985SOL     OW 6853   1.090   5.493   2.033
 1985SOL    HW1 6854   1.166   5.434   2.057
 1985SOL    HW2 6855   1.042   5.522   2.116
 1986SOL     OW 6856   6.618   2.345   0.785
 1986SOL    HW1 6857   6.705   2.383   0.754
 1986SOL    HW2 6858   6.555   2.419   0.809
 1987SOL     OW 6859   2.515   3.256   0.303
 1987SOL    HW1 6860   2.431   3.262   0.248
 1987SOL    HW2 6861   2.504   3.185   0.372
 1988SOL     OW 6862   5.046   2.707   0.819
 1988SOL    HW1 6863   4.971   2.771   0.800
 1988SOL    HW2 6864   5.117   2.754   0.872
 1989SOL     OW 6865   2.709   2.387   3.563
 1989SOL    HW1 6866   2.733   2.431   3.476
 1989SOL    HW2 6867   2.614   2.357   3.560
 1990SOL     OW 6868   1.047   0.822   2.879
 1990SOL    HW1 6869   1.062   0.767   2.960
 1990SOL    HW2 6870   0.957   0.801   2.840
 1991SOL     OW 6871   4.725   5.944   2.643
 1991SOL    HW1 6872   4.630   5.912   2.644
 1991SOL    HW2 6873   4.753   5.968   2.736
 1992SOL     OW 6874   2.214   5.548   5.412
 1992SOL    HW1 6875   2.292   5.533   5.351
 1992SOL    HW2 6876   2.211   5.476   5.481
 1993SOL     OW 6877   3.104   3.040   4.179
 1993SOL    HW1 6878   3.197   3.039   4.142
 1993SOL    HW2 6879   3.103   3.085   4.268
 1994SOL     OW 6880   6.297   2.189   1.382
 1994SOL    HW1 6881   6.321   2.140   1.466
 1994SOL    HW2 6882   6.353   2.271   1.374
 1995SOL     OW 6883   4.102   2.444   1.441
 1995SOL    HW1 6884   4.144   2.352   1.445
 1995SOL    HW2 6885   4.052   2.461   1.526
 1996SOL     OW 6886   2.181   4.736   5.660
 1996SOL    HW1 6887   2.220   4.758   5.571
 1996SOL    HW2 6888   2.203   4.809   5.725
 1997SOL     OW 6889   5.451   6.304   4.083
 1997SOL    HW1 6890   5.499   6.313   4.170
 1997SOL    HW2 6891   5.355   6.327   4.095
 1998SOL     OW 6892   3.265   4.948   4.871
 1998SOL    HW1 6893   3.339   4.972   4.933
 1998SOL    HW2 6894   3.200   4.888   4.918
 1999SOL     OW 6895   3.445   1.725   1.922
 1999SOL    HW1 6896   3.499   1.765   1.848
 1999SOL    HW2 6897   3.499   1.725   2.006
 2000SOL     OW 6898   2.614   1.365   5.272
 2000SOL    HW1 6899   2.677   1.440   5.292
 2000SOL    HW2 6900   2.608   1.305   5.352
 2001SOL     OW 6901   2.332   2.808   6.920
 2001SOL    HW1 6902   2.342   2.835   6.824
 2001SOL    HW2 6903   2.285   2.720   6.926
 2002SOL     OW 6904   1.629   4.800   5.155
 2002SOL    HW1 6905   1.538   4.823   5.189
 2002SOL    HW2 6906   1.696   4.863   5.194
 2003SOL     OW 6907   6.480   3.733   3.384
 2003SOL    HW1 6908   6.393   3.683   3.377
 2003SOL    HW2 6909   6.499   3.780   3.298
 2004SOL     OW 6910   3.368   0.080   6.832
 2004SOL    HW1 6911   3.303   0.042   6.898
 2004SOL    HW2 6912   3.327   0.158   6.786
 2005SOL     OW 6913   2.604   6.699   5.071
 2005SOL    HW1 6914   2.520   6.673   5.024
 2005SOL    HW2 6915   2.682   6.660   5.023
 2006SOL     OW 6916   4.751   6.997   3.431
 2006SOL    HW1 6917   4.758   6.984   3.332
 2006SOL    HW2 6918   4.806   6.928   3.478
 2007SOL     OW 6919   0.001   5.604   6.936
 2007SOL    HW1 6920   6.963   5.586   6.856
 2007SOL    HW2 6921   0.087   5.648   6.907
 2008SOL     OW 6922   0.319   5.954   5.926
 2008SOL    HW1 6923   0.361   5.908   6.004
 2008SOL    HW2 6924   0.230   5.912   5.906
 2009SOL     OW 6925   1.273   0.583   0.156
 2009SOL    HW1 6926   1.317   0.504   0.112
 2009SOL    HW2 6927   1.179   0.591   0.125
 2010SOL     OW 6928   2.535   0.948   1.012
 2010SOL    HW1 6929   2.567   0.865   0.967
 2010SOL    HW2 6930   2.507   0.927   1.105
 2011SOL     OW 6931   6.517   1.321   4.489
 2011SOL    HW1 6932   6.553   1.394   4.431
 2011SOL    HW2 6933   6.512   1.352   4.584
 2012SOL     OW 6934   6.697   3.534   1.604
 2012SOL    HW1 6935   6.627   3.583   1.552
 2012SOL    HW2 6936   6.787   3.574   1.586
 2013SOL     OW 6937   3.732   2.543   1.603
 2013SOL    HW1 6938   3.648   2.498   1.633
 2013SOL    HW2 6939   3.712   2.637   1.576
 2014SOL     OW 6940   3.127   5.431   3.634
 2014SOL    HW1 6941   3.058   5.454   3.702
 2014SOL    HW2 6942   3.209   5.486   3.649
 2015SOL     OW 6943   2.937   5.348   0.233
 2015SOL    HW1 6944   2.990   5.432   0.235
 2015SOL    HW2 6945   2.909   5.324   0.326
 2016SOL     OW 6946   6.225   5.388   5.049
 2016SOL    HW1 6947   6.173   5.468   5.077
 2016SOL    HW2 6948   6.263   5.403   4.957
 2017SOL     OW 6949   1.490   5.007   1.713
 2017SOL    HW1 6950   1.483   5.104   1.690
 2017SOL    HW2 6951   1.581   4.987   1.748
 2018SOL     OW 6952   0.291   4.470   5.471
 2018SOL    HW1 6953   0.223   4.455   5.399
 2018SOL    HW2 6954   0.269   4.412   5.550
 2019SOL     OW 6955   5.097   0.523   2.662
 2019SOL    HW1 6956   5.056   0.615   2.664
 2019SOL    HW2 6957   5.095   0.488   2.568
 2020SOL     OW 6958   2.457   5.233   3.290
 2020SOL    HW1 6959   2.526   5.196   3.353
 2020SOL    HW2 6960   2.371   5.248   3.340
 2021SOL     OW 6961   1.796   5.944   1.941
 2021SOL    HW1 6962   1.721   5.982   1.995
 2021SOL    HW2 6963   1.791   5.844   1.944
 2022SOL     OW 6964   3.648   5.607   1.278
 2022SOL    HW1 6965   3.602   5.616   1.189
 2022SOL    HW2 6966   3.731   5.663   1.277
 2023SOL     OW 6967   6.363   2.325   5.756
 2023SOL    HW1 6968   6.323   2.356   5.670
 2023SOL    HW2 6969   6.426   2.395   5.791
 2024SOL     OW 6970   5.354   0.251   3.486
 2024SOL    HW1 6971   5.322   0.311   3.412
 2024SOL    HW2 6972   5.445   0.280   3.515
 2025SOL     OW 6973   6.001   0.716   1.469
 2025SOL    HW1 6974   6.081   0.731   1.410
 2025SOL    HW2 6975   6.027   0.730   1.564
 2026SOL     OW 6976   1.752   1.753   4.894
 2026SOL    HW1 6977   1.799   1.680   4.842
 2026SOL    HW2 6978   1.675   1.788   4.840
 2027SOL     OW 6979   6.789   0.057   2.300
 2027SOL    HW1 6980   6.699   0.088   2.331
 2027SOL    HW2 6981   6.794   0.065   2.201
 2028SOL     OW 6982   4.080   4.265   5.637
 2028SOL    HW1 6983   3.982   4.254   5.622
 2028SOL    HW2 6984   4.131   4.219   5.563
 2029SOL     OW 6985   2.111   0.381   0.410
 2029SOL    HW1 6986   2.114   0.325   0.493
 2029SOL    HW2 6987   2.035   0.351   0.352
 2030SOL     OW 6988   2.194   2.952   2.601
 2030SOL    HW1 6989   2.216   2.879   2.537
 2030SOL    HW2 6990   2.244   2.937   2.687
 2031SOL     OW 6991   5.645   6.918   2.418
 2031SOL    HW1 6992   5.722   6.976   2.392
 2031SOL    HW2 6993   5.623   6.932   2.515
 2032SOL     OW 6994   4.329   6.363   2.175
 2032SOL    HW1 6995   4.261   6.434   2.194
 2032SOL    HW2 6996   4.346   6.310   2.258
 2033SOL     OW 6997   0.402   4.791   6.705
 2033SOL    HW1 6998   0.443   4.854   6.638
 2033SOL    HW2 6999   0.414   4.697   6.672
 2034SOL     OW 7000   2.189   5.324   4.269
 2034SOL    HW1 7001   2.115   5.290   4.327
 2034SOL    HW2 7002   2.151   5.379   4.195
 2035SOL     OW 7003   0.766   1.916   3.358
 2035SOL    HW1 7004   0.687   1.896   3.417
 2035SOL    HW2 7005   0.814   1.997   3.392
 2036SOL     OW 7006   0.721   4.866   0.935
 2036SOL    HW1 7007   0.786   4.813   0.989
 2036SOL    HW2 7008   0.628   4.837   0.957
 2037SOL     OW 7009   0.524   2.756   6.829
 2037SOL    HW1 7010   0.529   2.727   6.925
 2037SOL    HW2 7011   0.616   2.753   6.788
 2038SOL     OW 7012   1.686   0.261   4.720
 2038SOL    HW1 7013   1.607   0.322   4.717
 2038SOL    HW2 7014   1.661   0.171   4.684
 2039SOL     OW 7015   1.080   5.475   2.351
 2039SOL    HW1 7016   1.060   5.534   2.429
 2039SOL    HW2 7017   0.995   5.444   2.309
 2040SOL     OW 7018   3.746   2.956   4.537
 2040SOL    HW1 7019   3.715   2.877   4.486
 2040SOL    HW2 7020   3.805   2.926   4.612
 2041SOL     OW 7021   5.181   2.942   6.744
 2041SOL    HW1 7022   5.195   2.844   6.752
 2041SOL    HW2 7023   5.175   2.968   6.648
 2042SOL     OW 7024   3.217   6.391   0.426
 2042SOL    HW1 7025   3.218   6.439   0.339
 2042SOL    HW2 7026   3.174   6.449   0.495
 2043SOL     OW 7027   4.838   5.718   2.526
 2043SOL    HW1 7028   4.823   5.812   2.558
 2043SOL    HW2 7029   4.752   5.679   2.493
 2044SOL     OW 7030   6.653   0.731   2.627
 2044SOL    HW1 7031   6.560   0.729   2.591
 2044SOL    HW2 7032   6.681   0.825   2.641
 2045SOL     OW 7033   3.043   6.699   5.875
 2045SOL    HW1 7034   3.131   6.653   5.861
 2045SOL    HW2 7035   3.024   6.759   5.798
 2046SOL     OW 7036   5.822   0.025   5.779
 2046SOL    HW1 7037   5.776   0.006   5.692
 2046SOL    HW2 7038   5.826   0.123   5.794
 2047SOL     OW 7039   5.047   3.409   0.037
 2047SOL    HW1 7040   5.082   3.407   0.130
 2047SOL    HW2 7041   5.048   3.316   7.017
 2048SOL     OW 7042   4.556   6.239   5.513
 2048SOL    HW1 7043   4.636   6.295   5.490
 2048SOL    HW2 7044   4.489   6.295   5.561
 2049SOL     OW 7045   5.283   5.358   6.617
 2049SOL    HW1 7046   5.207   5.295   6.602
 2049SOL    HW2 7047   5.363   5.328   6.565
 2050SOL     OW 7048   5.771   1.253   3.118
 2050SOL    HW1 7049   5.671   1.249   3.125
 2050SOL    HW2 7050   5.811   1.262   3.209
 2051SOL     OW 7051   3.190   6.050   1.195
 2051SOL    HW1 7052   3.135   6.107   1.256
 2051SOL    HW2 7053   3.130   5.995   1.137
 2052SOL     OW 7054   1.983   2.615   1.023
 2052SOL    HW1 7055   1.889   2.630   1.053
 2052SOL    HW2 7056   1.988   2.532   0.969
 2053SOL     OW 7057   4.553   0.801   0.807
 2053SOL    HW1 7058   4.587   0.744   0.732
 2053SOL    HW2 7059   4.546   0.896   0.777
 2054SOL     OW 7060   0.706   3.016   1.018
 2054SOL    HW1 7061   0.784   3.064   1.057
 2054SOL    HW2 7062   0.707   3.026   0.918
 2055SOL     OW 7063   6.767   1.074   3.669
 2055SOL    HW1 7064   6.808   1.006   3.730
 2055SOL    HW2 7065   6.668   1.077   3.684
 2056SOL     OW 7066   0.274   6.246   2.440
 2056SOL    HW1 7067   0.319   6.293   2.516
 2056SOL    HW2 7068   0.185   6.289   2.423
 2057SOL     OW 7069   4.795   3.080   4.257
 2057SOL    HW1 7070   4.771   2.988   4.287
 2057SOL    HW2 7071   4.783   3.088   4.158
 2058SOL     OW 7072   0.793   1.218   1.178
 2058SOL    HW1 7073   0.867   1.167   1.222
 2058SOL    HW2 7074   0.806   1.218   1.079
 2059SOL     OW 7075   1.720   1.044   6.874
 2059SOL    HW1 7076   1.641   1.106   6.872
 2059SOL    HW2 7077   1.695   0.957   6.833
 2060SOL     OW 7078   0.497   4.928   3.213
 2060SOL    HW1 7079   0.570   4.990   3.184
 2060SOL    HW2 7080   0.485   4.857   3.144
 2061SOL     OW 7081   1.525   0.367   0.583
 2061SOL    HW1 7082   1.580   0.420   0.518
 2061SOL    HW2 7083   1.428   0.378   0.562
 2062SOL     OW 7084   3.876   0.442   4.057
 2062SOL    HW1 7085   3.958   0.442   4.000
 2062SOL    HW2 7086   3.804   0.390   4.011
 2063SOL     OW 7087   2.326   2.791   1.535
 2063SOL    HW1 7088   2.392   2.729   1.493
 2063SOL    HW2 7089   2.375   2.857   1.592
 2064SOL     OW 7090   0.983   1.928   0.822
 2064SOL    HW1 7091   1.046   1.914   0.745
 2064SOL    HW2 7092   0.904   1.868   0.811
 2065SOL     OW 7093   0.404   2.862   2.724
 2065SOL    HW1 7094   0.402   2.846   2.823
 2065SOL    HW2 7095   0.384   2.777   2.676
 2066SOL     OW 7096   0.818   6.428   3.330
 2066SOL    HW1 7097   0.787   6.478   3.411
 2066SOL    HW2 7098   0.772   6.466   3.249
 2067SOL     OW 7099   0.126   0.782   0.558
 2067SOL    HW1 7100   0.061   0.709   0.578
 2067SOL    HW2 7101   0.209   0.743   0.517
 2068SOL     OW 7102   1.987   2.364   5.329
 2068SOL    HW1 7103   1.926   2.301   5.282
 2068SOL    HW2 7104   1.939   2.406   5.406
 2069SOL     OW 7105   1.541   2.226   2.173
 2069SOL    HW1 7106   1.459   2.176   2.202
 2069SOL    HW2 7107   1.621   2.166   2.179
 2070SOL     OW 7108   0.117   1.671   2.242
 2070SOL    HW1 7109   0.146   1.657   2.147
 2070SOL    HW2 7110   0.084   1.584   2.280
 2071SOL     OW 7111   2.189   6.174   5.845
 2071SOL    HW1 7112   2.238   6.144   5.762
 2071SOL    HW2 7113   2.238   6.143   5.926
 2072SOL     OW 7114   4.933   4.745   2.472
 2072SOL    HW1 7115   5.002   4.697   2.417
 2072SOL    HW2 7116   4.970   4.763   2.563
 2073SOL     OW 7117   3.225   6.722   5.126
 2073SOL    HW1 7118   3.147   6.754   5.180
 2073SOL    HW2 7119   3.304   6.781   5.143
 2074SOL     OW 7120   5.595   1.877   3.158
 2074SOL    HW1 7121   5.671   1.815   3.179
 2074SOL    HW2 7122   5.595   1.898   3.060
 2075SOL     OW 7123   3.860   3.205   6.248
 2075SOL    HW1 7124   3.869   3.152   6.333
 2075SOL    HW2 7125   3.841   3.301   6.270
 2076SOL     OW 7126   5.009   6.812   0.086
 2076SOL    HW1 7127   5.009   6.769   0.176
 2076SOL    HW2 7128   5.036   6.745   0.017
 2077SOL     OW 7129   4.379   0.986   4.667
 2077SOL    HW1 7130   4.343   0.895   4.643
 2077SOL    HW2 7131   4.330   1.021   4.746
 2078SOL     OW 7132   4.132   5.969   3.827
 2078SOL    HW1 7133   4.210   6.019   3.865
 2078SOL    HW2 7134   4.165   5.895   3.769
 2079SOL     OW 7135   5.697   0.125   4.038
 2079SOL    HW1 7136   5.770   0.130   3.970
 2079SOL    HW2 7137   5.719   0.052   4.104
 2080SOL     OW 7138   2.988   1.916   3.397
 2080SOL    HW1 7139   2.938   1.984   3.344
 2080SOL    HW2 7140   2.927   1.839   3.418
 2081SOL     OW 7141   0.800   6.013   4.217
 2081SOL    HW1 7142   0.788   5.935   4.278
 2081SOL    HW2 7143   0.881   6.064   4.243
 2082SOL     OW 7144   5.090   0.753   2.418
 2082SOL    HW1 7145   5.111   0.846   2.447
 2082SOL    HW2 7146   5.131   0.736   2.329
 2083SOL     OW 7147   3.402   4.725   6.103
 2083SOL    HW1 7148   3.439   4.801   6.050
 2083SOL    HW2 7149   3.362   4.760   6.188
 2084SOL     OW 7150   0.230   2.415   2.895
 2084SOL    HW1 7151   0.167   2.381   2.826
 2084SOL    HW2 7152   0.312   2.357   2.898
 2085SOL     OW 7153   5.786   6.468   0.206
 2085SOL    HW1 7154   5.781   6.548   0.266
 2085SOL    HW2 7155   5.874   6.468   0.158
 2086SOL     OW 7156   3.435   5.139   6.940
 2086SOL    HW1 7157   3.366   5.207   6.966
 2086SOL    HW2 7158   3.449   5.142   6.841
 2087SOL     OW 7159   5.712   6.145   3.627
 2087SOL    HW1 7160   5.624   6.150   3.580
 2087SOL    HW2 7161   5.734   6.049   3.645
 2088SOL     OW 7162   2.380   6.411   1.577
 2088SOL    HW1 7163   2.424   6.321   1.580
 2088SOL    HW2 7164   2.311   6.417   1.649
 2089SOL     OW 7165   2.701   1.005   6.374
 2089SOL    HW1 7166   2.650   1.015   6.460
 2089SOL    HW2 7167   2.637   0.989   6.299
 2090SOL     OW 7168   3.067   3.979   3.718
 2090SOL    HW1 7169   3.103   3.909   3.657
 2090SOL    HW2 7170   3.024   3.936   3.797
 2091SOL     OW 7171   2.388   4.415   1.519
 2091SOL    HW1 7172   2.335   4.343   1.474
 2091SOL    HW2 7173   2.454   4.373   1.582
 2092SOL     OW 7174   6.266   0.192   0.827
 2092SOL    HW1 7175   6.314   0.235   0.751
 2092SOL    HW2 7176   6.289   0.095   0.832
 2093SOL     OW 7177   1.810   1.518   1.518
 2093SOL    HW1 7178   1.865   1.458   1.576
 2093SOL    HW2 7179   1.789   1.472   1.432
 2094SOL     OW 7180   6.919   0.541   1.974
 2094SOL    HW1 7181   6.996   0.603   1.957
 2094SOL    HW2 7182   6.939   0.483   2.053
 2095SOL     OW 7183   6.215   4.474   5.268
 2095SOL    HW1 7184   6.306   4.498   5.304
 2095SOL    HW2 7185   6.171   4.556   5.232
 2096SOL     OW 7186   5.209   4.342   3.601
 2096SOL    HW1 7187   5.239   4.353   3.506
 2096SOL    HW2 7188   5.288   4.317   3.657
 2097SOL     OW 7189   6.358   3.645   5.823
 2097SOL    HW1 7190   6.270   3.614   5.859
 2097SOL    HW2 7191   6.432   3.591   5.863
 2098SOL     OW 7192   4.105   0.657   3.824
 2098SOL    HW1 7193   4.081   0.563   3.848
 2098SOL    HW2 7194   4.030   0.699   3.774
 2099SOL     OW 7195   2.438   1.708   3.463
 2099SOL    HW1 7196   2.453   1.736   3.368
 2099SOL    HW2 7197   2.381   1.777   3.508
 2100SOL     OW 7198   4.546   4.953   6.051
 2100SOL    HW1 7199   4.508   5.015   6.120
 2100SOL    HW2 7200   4.544   4.859   6.085
 2101SOL     OW 7201   6.034   6.650   1.765
 2101SOL    HW1 7202   6.071   6.626   1.675
 2101SOL    HW2 7203   5.959   6.588   1.788
 2102SOL     OW 7204   0.259   5.602   1.338
 2102SOL    HW1 7205   0.257   5.514   1.386
 2102SOL    HW2 7206   0.165   5.634   1.323
 2103SOL     OW 7207   3.225   3.538   6.580
 2103SOL    HW1 7208   3.222   3.457   6.522
 2103SOL    HW2 7209   3.242   3.619   6.523
 2104SOL     OW 7210   0.990   4.927   6.214
 2104SOL    HW1 7211   1.037   4.918   6.302
 2104SOL    HW2 7212   1.044   4.983   6.152
 2105SOL     OW 7213   6.022   5.790   2.783
 2105SOL    HW1 7214   6.016   5.692   2.764
 2105SOL    HW2 7215   5.944   5.818   2.839
 2106SOL     OW 7216   5.678   6.294   6.093
 2106SOL    HW1 7217   5.774   6.308   6.067
 2106SOL    HW2 7218   5.663   6.332   6.184
 2107SOL     OW 7219   2.506   5.309   0.464
 2107SOL    HW1 7220   2.553   5.228   0.499
 2107SOL    HW2 7221   2.541   5.332   0.373
 2108SOL     OW 7222   5.681   4.702   6.347
 2108SOL    HW1 7223   5.583   4.698   6.367
 2108SOL    HW2 7224   5.704   4.628   6.283
 2109SOL     OW 7225   5.205   5.470   2.778
 2109SOL    HW1 7226   5.115   5.499   2.745
 2109SOL    HW2 7227   5.276   5.522   2.730
 2110SOL     OW 7228   1.057   5.008   5.420
 2110SOL    HW1 7229   1.102   4.949   5.487
 2110SOL    HW2 7230   0.973   4.965   5.388
 2111SOL     OW 7231   1.934   2.093   6.798
 2111SOL    HW1 7232   1.932   2.110   6.699
 2111SOL    HW2 7233   1.878   2.013   6.819
 2112SOL     OW 7234   5.133   3.976   0.539
 2112SOL    HW1 7235   5.225   3.998   0.507
 2112SOL    HW2 7236   5.128   3.879   0.563
 2113SOL     OW 7237   0.031   1.282   3.475
 2113SOL    HW1 7238   0.051   1.186   3.458
 2113SOL    HW2 7239   0.098   1.339   3.429
 2114SOL     OW 7240   1.665   3.114   0.030
 2114SOL    HW1 7241   1.660   3.052   6.970
 2114SOL    HW2 7242   1.722   3.193   0.006
 2115SOL     OW 7243   4.158   5.310   2.101
 2115SOL    HW1 7244   4.101   5.237   2.063
 2115SOL    HW2 7245   4.188   5.284   2.193
 2116SOL     OW 7246   0.570   4.163   4.166
 2116SOL    HW1 7247   0.620   4.138   4.083
 2116SOL    HW2 7248   0.471   4.156   4.148
 2117SOL     OW 7249   6.461   5.838   5.641
 2117SOL    HW1 7250   6.403   5.902   5.590
 2117SOL    HW2 7251   6.525   5.793   5.578
 2118SOL     OW 7252   0.242   2.875   2.339
 2118SOL    HW1 7253   0.311   2.845   2.273
 2118SOL    HW2 7254   0.167   2.808   2.342
 2119SOL     OW 7255   4.116   6.580   0.125
 2119SOL    HW1 7256   4.160   6.539   0.204
 2119SOL    HW2 7257   4.039   6.637   0.155
 2120SOL     OW 7258   6.648   3.855   2.205
 2120SOL    HW1 7259   6.734   3.851   2.154
 2120SOL    HW2 7260   6.638   3.946   2.247
 2121SOL     OW 7261   0.687   3.936   5.263
 2121SOL    HW1 7262   0.635   3.940   5.349
 2121SOL    HW2 7263   0.671   3.848   5.218
 2122SOL     OW 7264   3.719   4.911   5.313
 2122SOL    HW1 7265   3.759   4.948   5.397
 2122SOL    HW2 7266   3.682   4.820   5.332
 2123SOL     OW 7267   4.068   5.775   3.391
 2123SOL    HW1 7268   4.023   5.787   3.302
 2123SOL    HW2 7269   4.059   5.860   3.444
 2124SOL     OW 7270   2.452   2.153   1.926
 2124SOL    HW1 7271   2.439   2.208   1.843
 2124SOL    HW2 7272   2.501   2.069   1.902
 2125SOL     OW 7273   4.850   5.998   0.037
 2125SOL    HW1 7274   4.926   5.935   0.019
 2125SOL    HW2 7275   4.784   5.954   0.098
 2126SOL     OW 7276   2.929   1.969   1.159
 2126SOL    HW1 7277   2.830   1.959   1.166
 2126SOL    HW2 7278   2.950   2.052   1.106
 2127SOL     OW 7279   5.174   2.642   4.351
 2127SOL    HW1 7280   5.227   2.701   4.290
 2127SOL    HW2 7281   5.181   2.547   4.321
 2128SOL     OW 7282   0.717   3.957   4.356
 2128SOL    HW1 7283   0.790   3.924   4.297
 2128SOL    HW2 7284   0.666   4.029   4.309
 2129SOL     OW 7285   4.460   2.166   5.086
 2129SOL    HW1 7286   4.386   2.098   5.088
 2129SOL    HW2 7287   4.547   2.120   5.071
 2130SOL     OW 7288   4.980   6.837   3.245
 2130SOL    HW1 7289   4.949   6.908   3.182
 2130SOL    HW2 7290   4.918   6.759   3.240
 2131SOL     OW 7291   4.992   1.687   6.667
 2131SOL    HW1 7292   5.061   1.757   6.686
 2131SOL    HW2 7293   5.008   1.648   6.577
 2132SOL     OW 7294   1.569   3.602   1.313
 2132SOL    HW1 7295   1.584   3.539   1.237
 2132SOL    HW2 7296   1.656   3.647   1.336
 2133SOL     OW 7297   2.407   3.994   6.492
 2133SOL    HW1 7298   2.450   4.022   6.406
 2133SOL    HW2 7299   2.323   4.046   6.506
 2134SOL     OW 7300   6.932   6.659   0.145
 2134SOL    HW1 7301   6.891   6.588   0.087
 2134SOL    HW2 7302   6.875   6.741   0.143
 2135SOL     OW 7303   6.398   5.328   5.563
 2135SOL    HW1 7304   6.496   5.345   5.548
 2135SOL    HW2 7305   6.357   5.289   5.481
 2136SOL     OW 7306   1.342   5.320   6.837
 2136SOL    HW1 7307   1.399   5.324   6.919
 2136SOL    HW2 7308   1.375   5.388   6.771
 2137SOL     OW 7309   1.529   6.815   3.488
 2137SOL    HW1 7310   1.458   6.744   3.489
 2137SOL    HW2 7311   1.619   6.773   3.481
 2138SOL     OW 7312   5.312   1.651   1.671
 2138SOL    HW1 7313   5.334   1.733   1.619
 2138SOL    HW2 7314   5.298   1.675   1.767
 2139SOL     OW 7315   2.675   6.059   5.689
 2139SOL    HW1 7316   2.630   5.970   5.688
 2139SOL    HW2 7317   2.772   6.047   5.710
 2140SOL     OW 7318   2.255   1.903   2.988
 2140SOL    HW1 7319   2.278   1.946   3.075
 2140SOL    HW2 7320   2.310   1.943   2.915
 2141SOL     OW 7321   6.902   3.375   2.965
 2141SOL    HW1 7322   6.977   3.310   2.979
 2141SOL    HW2 7323   6.918   3.457   3.019
 2142SOL     OW 7324   1.984   1.611   2.097
 2142SOL    HW1 7325   1.919   1.619   2.021
 2142SOL    HW2 7326   2.076   1.631   2.064
 2143SOL     OW 7327   6.451   5.574   5.778
 2143SOL    HW1 7328   6.492   5.662   5.755
 2143SOL    HW2 7329   6.456   5.513   5.698
 2144SOL     OW 7330   6.054   4.296   2.774
 2144SOL    HW1 7331   6.045   4.197   2.757
 2144SOL    HW2 7332   6.026   4.315   2.868
 2145SOL     OW 7333   3.492   1.346   3.243
 2145SOL    HW1 7334   3.520   1.281   3.314
 2145SOL    HW2 7335   3.522   1.438   3.267
 2146SOL     OW 7336   1.780   1.618   6.793
 2146SOL    HW1 7337   1.873   1.655   6.792
 2146SOL    HW2 7338   1.783   1.521   6.766
 2147SOL     OW 7339   6.068   0.066   5.293
 2147SOL    HW1 7340   6.143   0.132   5.294
 2147SOL    HW2 7341   6.047   0.038   5.387
 2148SOL     OW 7342   1.231   2.228   5.166
 2148SOL    HW1 7343   1.139   2.220   5.128
 2148SOL    HW2 7344   1.255   2.325   5.174
 2149SOL     OW 7345   0.353   6.735   0.104
 2149SOL    HW1 7346   0.364   6.637   0.089
 2149SOL    HW2 7347   0.342   6.781   0.016
 2150SOL     OW 7348   1.738   2.715   0.701
 2150SOL    HW1 7349   1.836   2.699   0.704
 2150SOL    HW2 7350   1.720   2.806   0.665
 2151SOL     OW 7351   0.854   5.144   6.436
 2151SOL    HW1 7352   0.913   5.175   6.361
 2151SOL    HW2 7353   0.906   5.088   6.500
 2152SOL     OW 7354   5.203   6.403   4.106
 2152SOL    HW1 7355   5.179   6.493   4.142
 2152SOL    HW2 7356   5.121   6.358   4.071
 2153SOL     OW 7357   5.067   6.898   4.081
 2153SOL    HW1 7358   5.008   6.936   4.151
 2153SOL    HW2 7359   5.033   6.925   3.991
 2154SOL     OW 7360   2.514   6.464   2.355
 2154SOL    HW1 7361   2.455   6.405   2.410
 2154SOL    HW2 7362   2.492   6.560   2.374
 2155SOL     OW 7363   5.208   0.404   0.666
 2155SOL    HW1 7364   5.180   0.320   0.711
 2155SOL    HW2 7365   5.167   0.482   0.714
 2156SOL     OW 7366   6.223   1.582   4.475
 2156SOL    HW1 7367   6.282   1.527   4.534
 2156SOL    HW2 7368   6.187   1.660   4.527
 2157SOL     OW 7369   4.299   6.614   3.755
 2157SOL    HW1 7370   4.363   6.671   3.807
 2157SOL    HW2 7371   4.344   6.581   3.672
 2158SOL     OW 7372   2.904   6.781   0.789
 2158SOL    HW1 7373   2.825   6.731   0.823
 2158SOL    HW2 7374   2.982   6.768   0.851
 2159SOL     OW 7375   0.124   1.609   5.600
 2159SOL    HW1 7376   0.043   1.639   5.550
 2159SOL    HW2 7377   0.179   1.549   5.541
 2160SOL     OW 7378   5.347   6.616   6.750
 2160SOL    HW1 7379   5.320   6.539   6.692
 2160SOL    HW2 7380   5.388   6.687   6.694
 2161SOL     OW 7381   1.397   3.827   0.977
 2161SOL    HW1 7382   1.477   3.767   0.971
 2161SOL    HW2 7383   1.356   3.836   0.886
 2162SOL     OW 7384   1.891   7.016   0.124
 2162SOL    HW1 7385   1.819   0.016   0.190
 2162SOL    HW2 7386   1.950   0.078   0.116
 2163SOL     OW 7387   0.830   2.899   4.461
 2163SOL    HW1 7388   0.860   2.988   4.496
 2163SOL    HW2 7389   0.909   2.843   4.438
 2164SOL     OW 7390   2.212   4.410   1.887
 2164SOL    HW1 7391   2.279   4.354   1.934
 2164SOL    HW2 7392   2.212   4.502   1.926
 2165SOL     OW 7393   6.323   1.623   5.594
 2165SOL    HW1 7394   6.259   1.664   5.528
 2165SOL    HW2 7395   6.373   1.696   5.642
 2166SOL     OW 7396   0.189   2.521   1.699
 2166SOL    HW1 7397   0.288   2.505   1.702
 2166SOL    HW2 7398   0.153   2.496   1.609
 2167SOL     OW 7399   1.540   2.439   2.706
 2167SOL    HW1 7400   1.484   2.521   2.693
 2167SOL    HW2 7401   1.556   2.425   2.803
 2168SOL     OW 7402   1.512   2.823   3.349
 2168SOL    HW1 7403   1.453   2.904   3.350
 2168SOL    HW2 7404   1.599   2.845   3.392
 2169SOL     OW 7405   6.934   6.917   1.044
 2169SOL    HW1 7406   6.974   6.919   1.136
 2169SOL    HW2 7407   6.849   6.863   1.046
 2170SOL     OW 7408   1.857   2.693   6.440
 2170SOL    HW1 7409   1.885   2.605   6.478
 2170SOL    HW2 7410   1.912   2.713   6.359
 2171SOL     OW 7411   6.924   6.316   1.334
 2171SOL    HW1 7412   6.980   6.399   1.331
 2171SOL    HW2 7413   6.834   6.338   1.370
 2172SOL     OW 7414   2.387   2.489   4.878
 2172SOL    HW1 7415   2.458   2.501   4.809
 2172SOL    HW2 7416   2.388   2.566   4.941
 2173SOL     OW 7417   4.608   0.503   4.955
 2173SOL    HW1 7418   4.670   0.504   5.033
 2173SOL    HW2 7419   4.586   0.597   4.929
 2174SOL     OW 7420   5.442   0.183   6.142
 2174SOL    HW1 7421   5.415   0.253   6.208
 2174SOL    HW2 7422   5.390   0.195   6.057
 2175SOL     OW 7423   3.582   2.871   5.628
 2175SOL    HW1 7424   3.572   2.886   5.530
 2175SOL    HW2 7425   3.639   2.944   5.668
 2176SOL     OW 7426   6.458   1.798   2.792
 2176SOL    HW1 7427   6.358   1.795   2.798
 2176SOL    HW2 7428   6.489   1.893   2.797
 2177SOL     OW 7429   0.454   1.251   5.585
 2177SOL    HW1 7430   0.547   1.284   5.600
 2177SOL    HW2 7431   0.431   1.185   5.656
 2178SOL     OW 7432   1.793   2.679   2.147
 2178SOL    HW1 7433   1.754   2.765   2.179
 2178SOL    HW2 7434   1.732   2.604   2.171
 2179SOL     OW 7435   1.832   4.267   6.796
 2179SOL    HW1 7436   1.747   4.319   6.786
 2179SOL    HW2 7437   1.836   4.196   6.726
 2180SOL     OW 7438   0.362   5.208   2.875
 2180SOL    HW1 7439   0.398   5.269   2.804
 2180SOL    HW2 7440   0.297   5.145   2.834
 2181SOL     OW 7441   4.345   4.597   3.862
 2181SOL    HW1 7442   4.342   4.598   3.962
 2181SOL    HW2 7443   4.272   4.654   3.826
 2182SOL     OW 7444   0.293   6.800   1.391
 2182SOL    HW1 7445   0.364   6.755   1.337
 2182SOL    HW2 7446   0.327   6.889   1.422
 2183SOL     OW 7447   3.757   3.078   6.899
 2183SOL    HW1 7448   3.854   3.066   6.921
 2183SOL    HW2 7449   3.716   3.141   6.965
 2184SOL     OW 7450   6.654   1.751   6.939
 2184SOL    HW1 7451   6.688   1.823   6.999
 2184SOL    HW2 7452   6.615   1.677   6.994
 2185SOL     OW 7453   0.842   1.022   6.402
 2185SOL    HW1 7454   0.907   1.068   6.341
 2185SOL    HW2 7455   0.888   0.946   6.448
 2186SOL     OW 7456   6.913   6.181   5.308
 2186SOL    HW1 7457   6.995   6.190   5.250
 2186SOL    HW2 7458   6.853   6.112   5.268
 2187SOL     OW 7459   6.071   4.127   1.840
 2187SOL    HW1 7460   6.093   4.035   1.874
 2187SOL    HW2 7461   5.997   4.165   1.896
 2188SOL     OW 7462   3.137   1.362   1.270
 2188SOL    HW1 7463   3.056   1.321   1.229
 2188SOL    HW2 7464   3.181   1.424   1.205
 2189SOL     OW 7465   2.051   0.584   2.276
 2189SOL    HW1 7466   2.124   0.642   2.239
 2189SOL    HW2 7467   2.092   0.503   2.319
 2190SOL     OW 7468   6.626   4.845   1.715
 2190SOL    HW1 7469   6.543   4.804   1.752
 2190SOL    HW2 7470   6.694   4.773   1.697
 2191SOL     OW 7471   3.311   6.836   6.666
 2191SOL    HW1 7472   3.367   6.911   6.700
 2191SOL    HW2 7473   3.285   6.777   6.742
 2192SOL     OW 7474   4.726   2.515   1.539
 2192SOL    HW1 7475   4.748   2.575   1.462
 2192SOL    HW2 7476   4.628   2.498   1.541
 2193SOL     OW 7477   1.532   0.871   5.415
 2193SOL    HW1 7478   1.468   0.825   5.478
 2193SOL    HW2 7479   1.578   0.945   5.463
 2194SOL     OW 7480   0.805   4.598   5.635
 2194SOL    HW1 7481   0.778   4.573   5.728
 2194SOL    HW2 7482   0.749   4.676   5.604
 2195SOL     OW 7483   0.171   4.280   5.657
 2195SOL    HW1 7484   0.111   4.325   5.723
 2195SOL    HW2 7485   0.177   4.183   5.678
 2196SOL     OW 7486   4.051   1.647   6.882
 2196SOL    HW1 7487   4.008   1.571   6.832
 2196SOL    HW2 7488   4.120   1.611   6.944
 2197SOL     OW 7489   4.227   5.268   6.862
 2197SOL    HW1 7490   4.238   5.206   6.940
 2197SOL    HW2 7491   4.142   5.245   6.814
 2198SOL     OW 7492   1.593   1.156   6.201
 2198SOL    HW1 7493   1.689   1.174   6.221
 2198SOL    HW2 7494   1.536   1.206   6.265
 2199SOL     OW 7495   4.166   6.774   3.966
 2199SOL    HW1 7496   4.170   6.711   3.888
 2199SOL    HW2 7497   4.253   6.823   3.972
 2200SOL     OW 7498   2.615   2.059   4.788
 2200SOL    HW1 7499   2.557   2.057   4.707
 2200SOL    HW2 7500   2.689   1.992   4.778
 2201SOL     OW 7501   6.148   3.262   4.917
 2201SOL    HW1 7502   6.111   3.243   5.008
 2201SOL    HW2 7503   6.109   3.347   4.882
 2202SOL     OW 7504   4.500   7.000   4.236
 2202SOL    HW1 7505   4.488   0.071   4.280
 2202SOL    HW2 7506   4.539   6.936   4.302
 2203SOL     OW 7507   2.141   6.176   1.203
 2203SOL    HW1 7508   2.226   6.149   1.158
 2203SOL    HW2 7509   2.136   6.276   1.206
 2204SOL     OW 7510   4.990   2.978   0.720
 2204SOL    HW1 7511   4.904   2.936   0.692
 2204SOL    HW2 7512   4.992   3.073   0.689
 2205SOL     OW 7513   4.976   5.711   1.069
 2205SOL    HW1 7514   5.028   5.751   0.994
 2205SOL    HW2 7515   4.975   5.611   1.060
 2206SOL     OW 7516   3.604   2.971   5.346
 2206SOL    HW1 7517   3.529   2.910   5.320
 2206SOL    HW2 7518   3.681   2.957   5.283
 2207SOL     OW 7519   4.573   4.929   1.710
 2207SOL    HW1 7520   4.625   4.852   1.747
 2207SOL    HW2 7521   4.553   4.913   1.613
 2208SOL     OW 7522   6.507   6.494   3.360
 2208SOL    HW1 7523   6.543   6.448   3.279
 2208SOL    HW2 7524   6.422   6.449   3.388
 2209SOL     OW 7525   2.240   5.648   3.761
 2209SOL    HW1 7526   2.284   5.566   3.724
 2209SOL    HW2 7527   2.209   5.707   3.687
 2210SOL     OW 7528   5.233   6.613   1.985
 2210SOL    HW1 7529   5.275   6.695   2.024
 2210SOL    HW2 7530   5.134   6.626   1.977
 2211SOL     OW 7531   1.492   0.767   1.646
 2211SOL    HW1 7532   1.401   0.743   1.612
 2211SOL    HW2 7533   1.495   0.865   1.666
 2212SOL     OW 7534   2.852   6.227   6.495
 2212SOL    HW1 7535   2.796   6.294   6.543
 2212SOL    HW2 7536   2.900   6.271   6.419
 2213SOL     OW 7537   3.147   1.280   4.686
 2213SOL    HW1 7538   3.147   1.340   4.766
 2213SOL    HW2 7539   3.202   1.321   4.614
 2214SOL     OW 7540   4.084   4.771   6.544
 2214SOL    HW1 7541   4.157   4.709   6.514
 2214SOL    HW2 7542   4.001   4.719   6.561
 2215SOL     OW 7543   5.986   5.524   6.247
 2215SOL    HW1 7544   6.059   5.510   6.180
 2215SOL    HW2 7545   6.021   5.581   6.322
 2216SOL     OW 7546   0.468   6.281   6.893
 2216SOL    HW1 7547   0.413   6.290   6.809
 2216SOL    HW2 7548   0.450   6.192   6.935
 2217SOL     OW 7549   3.797   1.319   3.302
 2217SOL    HW1 7550   3.763   1.299   3.210
 2217SOL    HW2 7551   3.731   1.287   3.370
 2218SOL     OW 7552   6.302   5.598   5.454
 2218SOL    HW1 7553   6.380   5.660   5.462
 2218SOL    HW2 7554   6.321   5.514   5.505
 2219SOL     OW 7555   5.481   2.187   0.182
 2219SOL    HW1 7556   5.391   2.143   0.186
 2219SOL    HW2 7557   5.472   2.278   0.143
 2220SOL     OW 7558   6.811   6.738   4.559
 2220SOL    HW1 7559   6.881   6.669   4.543
 2220SOL    HW2 7560   6.848   6.829   4.540
 2221SOL     OW 7561   5.142   0.373   3.677
 2221SOL    HW1 7562   5.130   0.283   3.635
 2221SOL    HW2 7563   5.077   0.382   3.753
 2222SOL     OW 7564   3.426   1.119   3.766
 2222SOL    HW1 7565   3.390   1.032   3.800
 2222SOL    HW2 7566   3.435   1.183   3.842
 2223SOL     OW 7567   0.850   0.050   5.416
 2223SOL    HW1 7568   0.812   0.022   5.505
 2223SOL    HW2 7569   0.793   0.122   5.377
 2224SOL     OW 7570   5.446   4.382   6.621
 2224SOL    HW1 7571   5.365   4.392   6.678
 2224SOL    HW2 7572   5.424   4.410   6.527
 2225SOL     OW 7573   6.421   0.362   0.610
 2225SOL    HW1 7574   6.477   0.281   0.596
 2225SOL    HW2 7575   6.423   0.419   0.528
 2226SOL     OW 7576   2.891   3.471   6.967
 2226SOL    HW1 7577   2.870   3.376   6.946
 2226SOL    HW2 7578   2.977   3.476   7.018
 2227SOL     OW 7579   4.501   1.445   1.591
 2227SOL    HW1 7580   4.498   1.345   1.587
 2227SOL    HW2 7581   4.479   1.484   1.502
 2228SOL     OW 7582   4.898   6.495   6.344
 2228SOL    HW1 7583   4.968   6.563   6.364
 2228SOL    HW2 7584   4.939   6.418   6.296
 2229SOL     OW 7585   2.946   3.277   4.324
 2229SOL    HW1 7586   2.945   3.289   4.225
 2229SOL    HW2 7587   2.853   3.255   4.356
 2230SOL     OW 7588   6.923   0.983   6.103
 2230SOL    HW1 7589   6.988   1.053   6.076
 2230SOL    HW2 7590   6.898   0.928   6.023
 2231SOL     OW 7591   1.081   0.038   6.374
 2231SOL    HW1 7592   1.111   6.961   6.370
 2231SOL    HW2 7593   1.158   0.096   6.396
 2232SOL     OW 7594   1.707   1.129   6.574
 2232SOL    HW1 7595   1.628   1.167   6.528
 2232SOL    HW2 7596   1.779   1.108   6.507
 2233SOL     OW 7597   2.912   5.761   1.260
 2233SOL    HW1 7598   2.819   5.725   1.271
 2233SOL    HW2 7599   2.964   5.744   1.344
 2234SOL     OW 7600   5.358   1.891   1.540
 2234SOL    HW1 7601   5.373   1.881   1.442
 2234SOL    HW2 7602   5.310   1.977   1.558
 2235SOL     OW 7603   0.960   2.526   3.401
 2235SOL    HW1 7604   1.043   2.470   3.403
 2235SOL    HW2 7605   0.933   2.542   3.306
 2236SOL     OW 7606   2.584   4.617   5.117
 2236SOL    HW1 7607   2.602   4.588   5.211
 2236SOL    HW2 7608   2.665   4.602   5.061
 2237SOL     OW 7609   5.985   6.988   5.972
 2237SOL    HW1 7610   5.902   6.993   5.916
 2237SOL    HW2 7611   5.960   6.973   6.067
 2238SOL     OW 7612   5.570   3.991   2.262
 2238SOL    HW1 7613   5.519   3.942   2.191
 2238SOL    HW2 7614   5.652   4.032   2.222
 2239SOL     OW 7615   3.863   0.113   2.977
 2239SOL    HW1 7616   3.916   0.069   2.905
 2239SOL    HW2 7617   3.922   0.133   3.055
 2240SOL     OW 7618   4.829   5.348   2.414
 2240SOL    HW1 7619   4.810   5.402   2.497
 2240SOL    HW2 7620   4.886   5.270   2.438
 2241SOL     OW 7621   1.067   1.906   3.059
 2241SOL    HW1 7622   1.134   1.945   3.122
 2241SOL    HW2 7623   1.002   1.850   3.110
 2242SOL     OW 7624   5.301   2.266   4.108
 2242SOL    HW1 7625   5.309   2.246   4.010
 2242SOL    HW2 7626   5.353   2.348   4.130
 2243SOL     OW 7627   2.656   0.638   0.107
 2243SOL    HW1 7628   2.720   0.582   0.054
 2243SOL    HW2 7629   2.599   0.691   0.045
 2244SOL     OW 7630   2.367   1.692   1.286
 2244SOL    HW1 7631   2.460   1.655   1.283
 2244SOL    HW2 7632   2.338   1.702   1.381
 2245SOL     OW 7633   6.962   0.925   0.418
 2245SOL    HW1 7634   6.925   1.012   0.451
 2245SOL    HW2 7635   0.016   0.894   0.480
 2246SOL     OW 7636   5.412   0.776   5.578
 2246SOL    HW1 7637   5.479   0.733   5.518
 2246SOL    HW2 7638   5.381   0.863   5.537
 2247SOL     OW 7639   3.487   3.587   1.852
 2247SOL    HW1 7640   3.533   3.674   1.871
 2247SOL    HW2 7641   3.418   3.570   1.923
 2248SOL     OW 7642   5.548   3.385   4.742
 2248SOL    HW1 7643   5.532   3.295   4.782
 2248SOL    HW2 7644   5.638   3.387   4.698
 2249SOL     OW 7645   2.095   6.066   3.273
 2249SOL    HW1 7646   2.005   6.087   3.310
 2249SOL    HW2 7647   2.156   6.039   3.347
 2250SOL     OW 7648   4.282   5.952   6.217
 2250SOL    HW1 7649   4.323   5.893   6.148
 2250SOL    HW2 7650   4.312   6.046   6.203
 2251SOL     OW 7651   3.891   6.832   4.912
 2251SOL    HW1 7652   3.891   6.732   4.906
 2251SOL    HW2 7653   3.906   6.871   4.822
 2252SOL     OW 7654   3.628   0.997   2.485
 2252SOL    HW1 7655   3.655   1.016   2.579
 2252SOL    HW2 7656   3.708   1.004   2.426
 2253SOL     OW 7657   1.414   3.014   1.580
 2253SOL    HW1 7658   1.391   2.955   1.657
 2253SOL    HW2 7659   1.420   2.959   1.497
 2254SOL     OW 7660   3.106   3.054   2.921
 2254SOL    HW1 7661   3.081   3.081   3.014
 2254SOL    HW2 7662   3.042   3.094   2.856
 2255SOL     OW 7663   1.326   2.144   6.345
 2255SOL    HW1 7664   1.330   2.161   6.444
 2255SOL    HW2 7665   1.230   2.150   6.315
 2256SOL     OW 7666   4.993   0.562   1.063
 2256SOL    HW1 7667   4.925   0.599   1.126
 2256SOL    HW2 7668   4.951   0.493   1.004
 2257SOL     OW 7669   0.112   0.672   6.547
 2257SOL    HW1 7670   0.027   0.666   6.599
 2257SOL    HW2 7671   0.119   0.595   6.484
 2258SOL     OW 7672   2.538   0.229   3.399
 2258SOL    HW1 7673   2.496   0.141   3.375
 2258SOL    HW2 7674   2.495   0.265   3.481
 2259SOL     OW 7675   6.061   0.531   5.468
 2259SOL    HW1 7676   6.073   0.489   5.558
 2259SOL    HW2 7677   6.085   0.628   5.474
 2260SOL     OW 7678   1.359   3.788   1.252
 2260SOL    HW1 7679   1.369   3.806   1.154
 2260SOL    HW2 7680   1.440   3.741   1.285
 2261SOL     OW 7681   4.852   4.334   6.707
 2261SOL    HW1 7682   4.929   4.380   6.753
 2261SOL    HW2 7683   4.848   4.364   6.612
 2262SOL     OW 7684   6.607   0.170   3.912
 2262SOL    HW1 7685   6.637   0.082   3.876
 2262SOL    HW2 7686   6.685   0.219   3.951
 2263SOL     OW 7687   2.359   4.383   6.532
 2263SOL    HW1 7688   2.319   4.298   6.566
 2263SOL    HW2 7689   2.431   4.362   6.467
 2264SOL     OW 7690   1.753   0.379   6.754
 2264SOL    HW1 7691   1.739   0.478   6.755
 2264SOL    HW2 7692   1.819   0.355   6.683
 2265SOL     OW 7693   0.414   6.037   3.658
 2265SOL    HW1 7694   0.400   6.123   3.707
 2265SOL    HW2 7695   0.496   6.044   3.601
 2266SOL     OW 7696   4.820   3.867   6.668
 2266SOL    HW1 7697   4.889   3.813   6.619
 2266SOL    HW2 7698   4.734   3.816   6.671
 2267SOL     OW 7699   5.596   2.947   4.636
 2267SOL    HW1 7700   5.502   2.916   4.622
 2267SOL    HW2 7701   5.652   2.921   4.558
 2268SOL     OW 7702   0.990   6.043   4.460
 2268SOL    HW1 7703   0.924   6.118   4.451
 2268SOL    HW2 7704   0.967   5.987   4.540
 2269SOL     OW 7705   1.844   2.427   5.552
 2269SOL    HW1 7706   1.767   2.484   5.523
 2269SOL    HW2 7707   1.812   2.334   5.568
 2270SOL     OW 7708   4.617   1.707   6.308
 2270SOL    HW1 7709   4.519   1.728   6.315
 2270SOL    HW2 7710   4.656   1.754   6.228
 2271SOL     OW 7711   3.979   5.778   5.426
 2271SOL    HW1 7712   4.029   5.806   5.508
 2271SOL    HW2 7713   3.894   5.732   5.452
 2272SOL     OW 7714   5.947   0.819   6.320
 2272SOL    HW1 7715   5.965   0.757   6.397
 2272SOL    HW2 7716   5.982   0.910   6.343
 2273SOL     OW 7717   0.952   2.183   4.021
 2273SOL    HW1 7718   0.940   2.086   4.039
 2273SOL    HW2 7719   1.037   2.215   4.063
 2274SOL     OW 7720   1.159   1.545   0.064
 2274SOL    HW1 7721   1.145   1.546   6.984
 2274SOL    HW2 7722   1.105   1.472   0.105
 2275SOL     OW 7723   5.513   3.769   3.156
 2275SOL    HW1 7724   5.593   3.710   3.165
 2275SOL    HW2 7725   5.431   3.720   3.187
 2276SOL     OW 7726   1.906   1.857   1.596
 2276SOL    HW1 7727   1.975   1.860   1.668
 2276SOL    HW2 7728   1.815   1.843   1.636
 2277SOL     OW 7729   3.695   2.907   3.170
 2277SOL    HW1 7730   3.686   3.002   3.142
 2277SOL    HW2 7731   3.676   2.847   3.093
 2278SOL     OW 7732   6.677   3.338   3.868
 2278SOL    HW1 7733   6.739   3.410   3.899
 2278SOL    HW2 7734   6.599   3.331   3.930
 2279SOL     OW 7735   0.662   5.158   5.595
 2279SOL    HW1 7736   0.762   5.150   5.592
 2279SOL    HW2 7737   0.637   5.246   5.636
 2280SOL     OW 7738   4.888   2.444   5.847
 2280SOL    HW1 7739   4.801   2.485   5.876
 2280SOL    HW2 7740   4.934   2.504   5.782
 2281SOL     OW 7741   4.951   6.774   2.207
 2281SOL    HW1 7742   4.978   6.725   2.124
 2281SOL    HW2 7743   4.916   6.709   2.275
 2282SOL     OW 7744   3.248   5.301   5.734
 2282SOL    HW1 7745   3.184   5.248   5.790
 2282SOL    HW2 7746   3.197   5.348   5.662
 2283SOL     OW 7747   6.925   0.978   5.122
 2283SOL    HW1 7748   6.891   1.006   5.211
 2283SOL    HW2 7749   6.886   0.890   5.097
 2284SOL     OW 7750   1.644   3.789   6.386
 2284SOL    HW1 7751   1.663   3.696   6.354
 2284SOL    HW2 7752   1.630   3.787   6.485
 2285SOL     OW 7753   1.345   5.104   6.259
 2285SOL    HW1 7754   1.378   5.132   6.350
 2285SOL    HW2 7755   1.317   5.008   6.262
 2286SOL     OW 7756   4.801   4.158   2.526
 2286SOL    HW1 7757   4.817   4.228   2.456
 2286SOL    HW2 7758   4.800   4.068   2.482
 2287SOL     OW 7759   1.458   1.113   4.206
 2287SOL    HW1 7760   1.363   1.118   4.176
 2287SOL    HW2 7761   1.508   1.048   4.148
 2288SOL     OW 7762   6.279   5.083   3.182
 2288SOL    HW1 7763   6.342   5.028   3.126
 2288SOL    HW2 7764   6.271   5.043   3.273
 2289SOL     OW 7765   0.347   5.213   0.251
 2289SOL    HW1 7766   0.272   5.211   0.185
 2289SOL    HW2 7767   0.434   5.214   0.203
 2290SOL     OW 7768   0.968   5.605   6.775
 2290SOL    HW1 7769   0.989   5.572   6.867
 2290SOL    HW2 7770   0.999   5.538   6.708
 2291SOL     OW 7771   1.764   1.901   6.842
 2291SOL    HW1 7772   1.686   1.960   6.864
 2291SOL    HW2 7773   1.731   1.820   6.792
 2292SOL     OW 7774   2.143   0.952   4.405
 2292SOL    HW1 7775   2.119   1.042   4.370
 2292SOL    HW2 7776   2.078   0.884   4.370
 2293SOL     OW 7777   5.015   4.341   3.030
 2293SOL    HW1 7778   5.009   4.246   3.059
 2293SOL    HW2 7779   4.944   4.395   3.075
 2294SOL     OW 7780   3.585   6.649   6.882
 2294SOL    HW1 7781   3.616   6.607   6.968
 2294SOL    HW2 7782   3.624   6.599   6.805
 2295SOL     OW 7783   1.048   0.813   2.118
 2295SOL    HW1 7784   0.955   0.835   2.089
 2295SOL    HW2 7785   1.048   0.785   2.214
 2296SOL     OW 7786   3.009   6.216   0.387
 2296SOL    HW1 7787   2.943   6.228   0.312
 2296SOL    HW2 7788   3.087   6.277   0.373
 2297SOL     OW 7789   4.198   6.345   6.711
 2297SOL    HW1 7790   4.218   6.417   6.778
 2297SOL    HW2 7791   4.253   6.359   6.629
 2298SOL     OW 7792   4.304   3.179   6.831
 2298SOL    HW1 7793   4.342   3.143   6.746
 2298SOL    HW2 7794   4.376   3.223   6.884
 2299SOL     OW 7795   4.443   0.024   1.034
 2299SOL    HW1 7796   4.482   6.963   0.988
 2299SOL    HW2 7797   4.346   0.031   1.012
 2300SOL     OW 7798   1.286   5.459   1.183
 2300SOL    HW1 7799   1.217   5.391   1.161
 2300SOL    HW2 7800   1.317   5.504   1.099
 2301SOL     OW 7801   3.530   3.330   1.755
 2301SOL    HW1 7802   3.536   3.422   1.792
 2301SOL    HW2 7803   3.499   3.267   1.826
 2302SOL     OW 7804   2.781   5.027   2.675
 2302SOL    HW1 7805   2.760   5.107   2.730
 2302SOL    HW2 7806   2.697   4.980   2.649
 2303SOL     OW 7807   0.236   3.573   6.355
 2303SOL    HW1 7808   0.320   3.519   6.362
 2303SOL    HW2 7809   0.244   3.654   6.412
 2304SOL     OW 7810   1.729   1.242   4.451
 2304SOL    HW1 7811   1.681   1.300   4.385
 2304SOL    HW2 7812   1.670   1.164   4.476
 2305SOL     OW 7813   4.160   4.855   1.776
 2305SOL    HW1 7814   4.080   4.905   1.809
 2305SOL    HW2 7815   4.189   4.892   1.688
 2306SOL     OW 7816   0.477   4.210   0.339
 2306SOL    HW1 7817   0.533   4.280   0.297
 2306SOL    HW2 7818   0.435   4.153   0.268
 2307SOL     OW 7819   0.295   0.849   3.223
 2307SOL    HW1 7820   0.254   0.772   3.273
 2307SOL    HW2 7821   0.385   0.823   3.189
 2308SOL     OW 7822   1.347   6.991   0.325
 2308SOL    HW1 7823   1.373   0.039   0.255
 2308SOL    HW2 7824   1.413   6.996   0.401
 2309SOL     OW 7825   2.192   4.780   6.354
 2309SOL    HW1 7826   2.210   4.815   6.446
 2309SOL    HW2 7827   2.119   4.712   6.358
 2310SOL     OW 7828   5.414   1.578   3.318
 2310SOL    HW1 7829   5.463   1.574   3.231
 2310SOL    HW2 7830   5.470   1.536   3.390
 2311SOL     OW 7831   2.528   0.212   2.721
 2311SOL    HW1 7832   2.571   0.290   2.766
 2311SOL    HW2 7833   2.547   0.216   2.622
 2312SOL     OW 7834   2.497   1.133   2.504
 2312SOL    HW1 7835   2.547   1.219   2.491
 2312SOL    HW2 7836   2.515   1.098   2.596
 2313SOL     OW 7837   5.066   4.526   1.936
 2313SOL    HW1 7838   5.038   4.442   1.982
 2313SOL    HW2 7839   4.985   4.576   1.906
 2314SOL     OW 7840   6.409   5.518   3.003
 2314SOL    HW1 7841   6.385   5.606   2.963
 2314SOL    HW2 7842   6.380   5.445   2.941
 2315SOL     OW 7843   4.820   6.355   5.120
 2315SOL    HW1 7844   4.746   6.310   5.168
 2315SOL    HW2 7845   4.906   6.307   5.136
 2316SOL     OW 7846   3.565   1.684   5.924
 2316SOL    HW1 7847   3.494   1.754   5.917
 2316SOL    HW2 7848   3.597   1.678   6.018
 2317SOL     OW 7849   6.833   4.938   2.269
 2317SOL    HW1 7850   6.900   5.012   2.265
 2317SOL    HW2 7851   6.821   4.908   2.363
 2318SOL     OW 7852   1.183   4.718   4.078
 2318SOL    HW1 7853   1.142   4.795   4.030
 2318SOL    HW2 7854   1.162   4.633   4.030
 2319SOL     OW 7855   2.462   5.613   2.921
 2319SOL    HW1 7856   2.538   5.570   2.871
 2319SOL    HW2 7857   2.471   5.592   3.018
 2320SOL     OW 7858   0.889   1.835   5.477
 2320SOL    HW1 7859   0.883   1.905   5.548
 2320SOL    HW2 7860   0.872   1.877   5.388
 2321SOL     OW 7861   1.924   4.972   5.172
 2321SOL    HW1 7862   1.894   5.031   5.098
 2321SOL    HW2 7863   1.862   4.982   5.251
 2322SOL     OW 7864   2.156   4.196   1.714
 2322SOL    HW1 7865   2.082   4.257   1.741
 2322SOL    HW2 7866   2.243   4.236   1.744
 2323SOL     OW 7867   2.676   5.766   0.651
 2323SOL    HW1 7868   2.581   5.735   0.642
 2323SOL    HW2 7869   2.731   5.724   0.580
 2324SOL     OW 7870   6.630   4.934   2.487
 2324SOL    HW1 7871   6.560   4.873   2.450
 2324SOL    HW2 7872   6.611   5.028   2.460
 2325SOL     OW 7873   6.546   4.490   2.796
 2325SOL    HW1 7874   6.449   4.476   2.778
 2325SOL    HW2 7875   6.591   4.522   2.712
 2326SOL     OW 7876   1.994   0.320   0.162
 2326SOL    HW1 7877   1.960   0.412   0.183
 2326SOL    HW2 7878   1.969   0.296   0.069
 2327SOL     OW 7879   6.510   6.329   2.106
 2327SOL    HW1 7880   6.604   6.330   2.140
 2327SOL    HW2 7881   6.476   6.235   2.104
 2328SOL     OW 7882   2.103   3.735   2.302
 2328SOL    HW1 7883   2.174   3.781   2.250
 2328SOL    HW2 7884   2.015   3.743   2.255
 2329SOL     OW 7885   0.616   4.672   2.753
 2329SOL    HW1 7886   0.713   4.670   2.777
 2329SOL    HW2 7887   0.591   4.588   2.704
 2330SOL     OW 7888   6.125   2.846   1.378
 2330SOL    HW1 7889   6.181   2.894   1.446
 2330SOL    HW2 7890   6.049   2.800   1.424
 2331SOL     OW 7891   4.909   6.118   1.244
 2331SOL    HW1 7892   4.955   6.033   1.222
 2331SOL    HW2 7893   4.810   6.106   1.238
 2332SOL     OW 7894   6.180   0.085   5.811
 2332SOL    HW1 7895   6.109   0.046   5.870
 2332SOL    HW2 7896   6.261   0.027   5.814
 2333SOL     OW 7897   1.454   4.583   2.627
 2333SOL    HW1 7898   1.384   4.639   2.582
 2333SOL    HW2 7899   1.544   4.621   2.607
 2334SOL     OW 7900   3.338   1.180   6.335
 2334SOL    HW1 7901   3.428   1.162   6.294
 2334SOL    HW2 7902   3.332   1.276   6.361
 2335SOL     OW 7903   0.026   1.404   3.713
 2335SOL    HW1 7904   0.042   1.358   3.626
 2335SOL    HW2 7905   0.031   1.338   3.787
 2336SOL     OW 7906   1.892   2.117   3.387
 2336SOL    HW1 7907   1.832   2.084   3.460
 2336SOL    HW2 7908   1.886   2.055   3.309
 2337SOL     OW 7909   3.876   1.023   1.696
 2337SOL    HW1 7910   3.844   1.117   1.691
 2337SOL    HW2 7911   3.916   0.996   1.608
 2338SOL     OW 7912   6.763   3.872   3.775
 2338SOL    HW1 7913   6.735   3.829   3.861
 2338SOL    HW2 7914   6.863   3.877   3.772
 2339SOL     OW 7915   3.363   3.017   2.930
 2339SOL    HW1 7916   3.376   3.054   3.022
 2339SOL    HW2 7917   3.268   3.030   2.902
 2340SOL     OW 7918   2.574   4.016   6.997
 2340SOL    HW1 7919   2.583   3.956   6.918
 2340SOL    HW2 7920   2.625   4.100   6.982
 2341SOL     OW 7921   2.770   4.702   4.376
 2341SOL    HW1 7922   2.681   4.658   4.378
 2341SOL    HW2 7923   2.834   4.644   4.325
 2342SOL     OW 7924   3.701   1.100   4.398
 2342SOL    HW1 7925   3.661   1.008   4.393
 2342SOL    HW2 7926   3.646   1.163   4.343
 2343SOL     OW 7927   6.971   0.218   1.182
 2343SOL    HW1 7928   7.014   0.161   1.252
 2343SOL    HW2 7929   6.873   0.225   1.200
 2344SOL     OW 7930   5.951   4.446   0.223
 2344SOL    HW1 7931   5.895   4.368   0.194
 2344SOL    HW2 7932   5.958   4.446   0.323
 2345SOL     OW 7933   3.657   6.341   4.883
 2345SOL    HW1 7934   3.581   6.329   4.947
 2345SOL    HW2 7935   3.703   6.254   4.869
 2346SOL     OW 7936   4.953   3.472   0.493
 2346SOL    HW1 7937   4.902   3.446   0.411
 2346SOL    HW2 7938   5.007   3.554   0.473
 2347SOL     OW 7939   1.577   1.361   1.536
 2347SOL    HW1 7940   1.663   1.409   1.554
 2347SOL    HW2 7941   1.585   1.309   1.451
 2348SOL     OW 7942   0.410   5.549   2.316
 2348SOL    HW1 7943   0.443   5.629   2.367
 2348SOL    HW2 7944   0.434   5.466   2.365
 2349SOL     OW 7945   1.089   4.428   5.175
 2349SOL    HW1 7946   1.064   4.525   5.173
 2349SOL    HW2 7947   1.131   4.406   5.263
 2350SOL     OW 7948   5.306   3.832   0.165
 2350SOL    HW1 7949   5.231   3.881   0.121
 2350SOL    HW2 7950   5.374   3.897   0.197
 2351SOL     OW 7951   2.631   5.958   1.665
 2351SOL    HW1 7952   2.665   5.968   1.759
 2351SOL    HW2 7953   2.596   5.866   1.652
 2352SOL     OW 7954   6.669   2.511   3.171
 2352SOL    HW1 7955   6.750   2.455   3.157
 2352SOL    HW2 7956   6.589   2.452   3.183
 2353SOL     OW 7957   3.053   5.571   4.133
 2353SOL    HW1 7958   3.089   5.479   4.148
 2353SOL    HW2 7959   2.974   5.566   4.071
 2354SOL     OW 7960   2.380   2.535   4.011
 2354SOL    HW1 7961   2.452   2.521   3.943
 2354SOL    HW2 7962   2.377   2.632   4.036
 2355SOL     OW 7963   2.462   5.798   4.505
 2355SOL    HW1 7964   2.506   5.719   4.463
 2355SOL    HW2 7965   2.523   5.878   4.498
 2356SOL     OW 7966   0.002   2.366   6.719
 2356SOL    HW1 7967   0.075   2.317   6.767
 2356SOL    HW2 7968   6.976   2.429   6.783
 2357SOL     OW 7969   2.175   6.772   2.944
 2357SOL    HW1 7970   2.207   6.734   2.857
 2357SOL    HW2 7971   2.250   6.772   3.010
 2358SOL     OW 7972   4.101   5.103   5.837
 2358SOL    HW1 7973   4.058   5.159   5.766
 2358SOL    HW2 7974   4.071   5.134   5.927
 2359SOL     OW 7975   1.712   0.572   5.184
 2359SOL    HW1 7976   1.672   0.661   5.163
 2359SOL    HW2 7977   1.666   0.502   5.130
 2360SOL     OW 7978   6.674   3.872   6.961
 2360SOL    HW1 7979   6.722   3.916   0.019
 2360SOL    HW2 7980   6.737   3.810   6.914
 2361SOL     OW 7981   3.729   1.222   0.341
 2361SOL    HW1 7982   3.699   1.172   0.260
 2361SOL    HW2 7983   3.660   1.212   0.413
 2362SOL     OW 7984   2.758   6.013   3.191
 2362SOL    HW1 7985   2.699   5.934   3.208
 2362SOL    HW2 7986   2.732   6.088   3.252
 2363SOL     OW 7987   3.901   0.975   3.791
 2363SOL    HW1 7988   3.935   0.963   3.884
 2363SOL    HW2 7989   3.900   0.887   3.744
 2364SOL     OW 7990   1.397   2.868   1.308
 2364SOL    HW1 7991   1.389   2.768   1.305
 2364SOL    HW2 7992   1.441   2.900   1.224
 2365SOL     OW 7993   4.981   1.896   0.354
 2365SOL    HW1 7994   5.056   1.960   0.341
 2365SOL    HW2 7995   4.942   1.908   0.445
 2366SOL     OW 7996   4.443   5.502   0.799
 2366SOL    HW1 7997   4.458   5.479   0.895
 2366SOL    HW2 7998   4.452   5.419   0.744
 2367SOL     OW 7999   2.064   3.371   6.178
 2367SOL    HW1 8000   2.104   3.384   6.087
 2367SOL    HW2 8001   1.973   3.331   6.168
 2368SOL     OW 8002   5.832   6.199   1.811
 2368SOL    HW1 8003   5.885   6.211   1.727
 2368SOL    HW2 8004   5.892   6.209   1.890
 2369SOL     OW 8005   2.539   1.613   3.034
 2369SOL    HW1 8006   2.494   1.528   3.062
 2369SOL    HW2 8007   2.517   1.685   3.100
 2370SOL     OW 8008   5.378   2.687   5.987
 2370SOL    HW1 8009   5.392   2.699   5.889
 2370SOL    HW2 8010   5.429   2.608   6.019
 2371SOL     OW 8011   2.079   6.152   1.663
 2371SOL    HW1 8012   2.031   6.072   1.697
 2371SOL    HW2 8013   2.096   6.142   1.566
 2372SOL     OW 8014   6.282   2.905   2.702
 2372SOL    HW1 8015   6.183   2.913   2.689
 2372SOL    HW2 8016   6.307   2.808   2.708
 2373SOL     OW 8017   2.562   3.749   6.501
 2373SOL    HW1 8018   2.576   3.690   6.421
 2373SOL    HW2 8019   2.495   3.819   6.479
 2374SOL     OW 8020   5.477   2.439   4.767
 2374SOL    HW1 8021   5.543   2.389   4.824
 2374SOL    HW2 8022   5.520   2.463   4.680
 2375SOL     OW 8023   1.677   6.985   5.992
 2375SOL    HW1 8024   1.579   6.979   5.975
 2375SOL    HW2 8025   1.696   0.039   6.058
 2376SOL     OW 8026   6.815   2.587   4.295
 2376SOL    HW1 8027   6.877   2.646   4.244
 2376SOL    HW2 8028   6.854   2.495   4.301
 2377SOL     OW 8029   3.359   2.916   4.093
 2377SOL    HW1 8030   3.313   2.829   4.106
 2377SOL    HW2 8031   3.350   2.946   3.998
 2378SOL     OW 8032   5.391   2.333   0.810
 2378SOL    HW1 8033   5.362   2.245   0.847
 2378SOL    HW2 8034   5.330   2.405   0.844
 2379SOL     OW 8035   6.832   6.806   6.356
 2379SOL    HW1 8036   6.733   6.797   6.363
 2379SOL    HW2 8037   6.875   6.768   6.438
 2380SOL     OW 8038   6.180   2.078   2.719
 2380SOL    HW1 8039   6.139   1.992   2.689
 2380SOL    HW2 8040   6.123   2.120   2.790
 2381SOL     OW 8041   1.985   6.178   2.581
 2381SOL    HW1 8042   1.942   6.201   2.668
 2381SOL    HW2 8043   2.082   6.161   2.595
 2382SOL     OW 8044   1.660   3.123   5.831
 2382SOL    HW1 8045   1.625   3.108   5.739
 2382SOL    HW2 8046   1.601   3.078   5.897
 2383SOL     OW 8047   5.915   5.664   2.188
 2383SOL    HW1 8048   5.998   5.695   2.236
 2383SOL    HW2 8049   5.937   5.584   2.132
 2384SOL     OW 8050   4.043   0.940   1.489
 2384SOL    HW1 8051   4.076   0.848   1.507
 2384SOL    HW2 8052   3.985   0.939   1.407
 2385SOL     OW 8053   1.632   2.508   6.929
 2385SOL    HW1 8054   1.588   2.554   6.853
 2385SOL    HW2 8055   1.721   2.472   6.900
 2386SOL     OW 8056   4.371   4.928   4.203
 2386SOL    HW1 8057   4.305   4.931   4.278
 2386SOL    HW2 8058   4.348   4.853   4.141
 2387SOL     OW 8059   1.321   1.359   3.104
 2387SOL    HW1 8060   1.292   1.440   3.054
 2387SOL    HW2 8061   1.419   1.345   3.092
 2388SOL     OW 8062   0.134   1.765   4.108
 2388SOL    HW1 8063   0.218   1.761   4.054
 2388SOL    HW2 8064   0.150   1.727   4.199
 2389SOL     OW 8065   3.554   6.621   2.543
 2389SOL    HW1 8066   3.508   6.675   2.613
 2389SOL    HW2 8067   3.496   6.616   2.461
 2390SOL     OW 8068   3.003   4.637   1.189
 2390SOL    HW1 8069   2.952   4.657   1.273
 2390SOL    HW2 8070   3.101   4.646   1.207
 2391SOL     OW 8071   4.139   5.290   4.838
 2391SOL    HW1 8072   4.205   5.362   4.818
 2391SOL    HW2 8073   4.187   5.211   4.878
 2392SOL     OW 8074   3.931   1.450   6.734
 2392SOL    HW1 8075   3.912   1.362   6.690
 2392SOL    HW2 8076   3.890   1.452   6.825
 2393SOL     OW 8077   3.582   5.266   4.914
 2393SOL    HW1 8078   3.674   5.302   4.892
 2393SOL    HW2 8079   3.557   5.293   5.007
 2394SOL     OW 8080   6.966   4.786   5.613
 2394SOL    HW1 8081   0.028   4.841   5.636
 2394SOL    HW2 8082   6.979   4.747   5.522
 2395SOL     OW 8083   4.501   6.698   6.395
 2395SOL    HW1 8084   4.541   6.751   6.470
 2395SOL    HW2 8085   4.413   6.737   6.370
 2396SOL     OW 8086   2.989   5.530   1.118
 2396SOL    HW1 8087   2.944   5.488   1.197
 2396SOL    HW2 8088   2.952   5.622   1.104
 2397SOL     OW 8089   0.488   3.533   4.516
 2397SOL    HW1 8090   0.566   3.596   4.513
 2397SOL    HW2 8091   0.485   3.488   4.605
 2398SOL     OW 8092   4.578   3.691   5.430
 2398SOL    HW1 8093   4.497   3.749   5.419
 2398SOL    HW2 8094   4.591   3.636   5.348
 2399SOL     OW 8095   4.456   2.435   1.432
 2399SOL    HW1 8096   4.403   2.495   1.491
 2399SOL    HW2 8097   4.395   2.367   1.390
 2400SOL     OW 8098   2.016   5.052   0.126
 2400SOL    HW1 8099   2.041   5.059   0.029
 2400SOL    HW2 8100   2.090   5.088   0.182
 2401SOL     OW 8101   6.439   5.992   6.482
 2401SOL    HW1 8102   6.396   6.034   6.402
 2401SOL    HW2 8103   6.502   5.921   6.452
 2402SOL     OW 8104   6.665   6.638   4.163
 2402SOL    HW1 8105   6.640   6.565   4.100
 2402SOL    HW2 8106   6.623   6.724   4.133
 2403SOL     OW 8107   0.765   1.203   4.231
 2403SOL    HW1 8108   0.735   1.109   4.246
 2403SOL    HW2 8109   0.864   1.205   4.220
 2404SOL     OW 8110   1.362   0.386   7.004
 2404SOL    HW1 8111   1.298   0.315   6.975
 2404SOL    HW2 8112   1.400   0.430   6.923
 2405SOL     OW 8113   2.829   4.627   1.426
 2405SOL    HW1 8114   2.827   4.670   1.517
 2405SOL    HW2 8115   2.743   4.646   1.378
 2406SOL     OW 8116   5.125   0.980   1.501
 2406SOL    HW1 8117   5.155   0.923   1.425
 2406SOL    HW2 8118   5.079   0.923   1.569
 2407SOL     OW 8119   5.405   6.984   3.484
 2407SOL    HW1 8120   5.417   0.061   3.455
 2407SOL    HW2 8121   5.316   6.951   3.454
 2408SOL     OW 8122   4.452   4.807   2.156
 2408SOL    HW1 8123   4.489   4.715   2.163
 2408SOL    HW2 8124   4.460   4.853   2.245
 2409SOL     OW 8125   0.947   4.322   0.444
 2409SOL    HW1 8126   1.035   4.296   0.404
 2409SOL    HW2 8127   0.876   4.318   0.373
 2410SOL     OW 8128   3.917   2.978   2.797
 2410SOL    HW1 8129   4.011   2.967   2.764
 2410SOL    HW2 8130   3.918   2.982   2.897
 2411SOL     OW 8131   3.981   0.805   4.665
 2411SOL    HW1 8132   3.933   0.727   4.624
 2411SOL    HW2 8133   3.915   0.877   4.686
 2412SOL     OW 8134   4.243   3.900   1.133
 2412SOL    HW1 8135   4.341   3.908   1.117
 2412SOL    HW2 8136   4.214   3.974   1.194
 2413SOL     OW 8137   4.075   0.357   3.297
 2413SOL    HW1 8138   4.088   0.456   3.305
 2413SOL    HW2 8139   4.131   0.310   3.366
 2414SOL     OW 8140   5.259   2.860   4.201
 2414SOL    HW1 8141   5.320   2.882   4.276
 2414SOL    HW2 8142   5.186   2.928   4.195
 2415SOL     OW 8143   4.545   0.580   3.579
 2415SOL    HW1 8144   4.506   0.633   3.503
 2415SOL    HW2 8145   4.638   0.613   3.598
 2416SOL     OW 8146   5.693   1.876   6.627
 2416SOL    HW1 8147   5.651   1.966   6.642
 2416SOL    HW2 8148   5.697   1.857   6.529
 2417SOL     OW 8149   3.391   3.871   5.223
 2417SOL    HW1 8150   3.368   3.949   5.282
 2417SOL    HW2 8151   3.478   3.831   5.253
 2418SOL     OW 8152   2.895   3.331   2.439
 2418SOL    HW1 8153   2.982   3.369   2.408
 2418SOL    HW2 8154   2.849   3.286   2.363
 2419SOL     OW 8155   6.671   0.747   3.700
 2419SOL    HW1 8156   6.638   0.654   3.681
 2419SOL    HW2 8157   6.595   0.811   3.693
 2420SOL     OW 8158   2.349   6.994   1.913
 2420SOL    HW1 8159   2.305   0.065   1.910
 2420SOL    HW2 8160   2.445   7.004   1.886
 2421SOL     OW 8161   3.672   2.134   2.947
 2421SOL    HW1 8162   3.765   2.154   2.978
 2421SOL    HW2 8163   3.673   2.117   2.849
 2422SOL     OW 8164   5.100   1.622   1.112
 2422SOL    HW1 8165   5.165   1.589   1.180
 2422SOL    HW2 8166   5.143   1.622   1.022
 2423SOL     OW 8167   1.798   4.942   2.577
 2423SOL    HW1 8168   1.849   4.933   2.492
 2423SOL    HW2 8169   1.806   5.035   2.612
 2424SOL     OW 8170   6.689   0.179   0.256
 2424SOL    HW1 8171   6.608   0.232   0.233
 2424SOL    HW2 8172   6.676   0.136   0.346
 2425SOL     OW 8173   6.897   7.011   4.587
 2425SOL    HW1 8174   6.800   0.011   4.605
 2425SOL    HW2 8175   6.936   0.069   4.536
 2426SOL     OW 8176   2.029   5.285   4.531
 2426SOL    HW1 8177   2.068   5.193   4.524
 2426SOL    HW2 8178   2.099   5.348   4.565
 2427SOL     OW 8179   6.463   0.469   5.630
 2427SOL    HW1 8180   6.423   0.543   5.684
 2427SOL    HW2 8181   6.561   0.462   5.649
 2428SOL     OW 8182   5.418   1.789   0.372
 2428SOL    HW1 8183   5.459   1.832   0.292
 2428SOL    HW2 8184   5.443   1.692   0.374
 2429SOL     OW 8185   4.744   4.983   2.568
 2429SOL    HW1 8186   4.705   4.977   2.476
 2429SOL    HW2 8187   4.726   4.898   2.618
 2430SOL     OW 8188   4.537   6.919   2.722
 2430SOL    HW1 8189   4.540   6.956   2.629
 2430SOL    HW2 8190   4.630   6.896   2.752
 2431SOL     OW 8191   4.412   6.808   2.428
 2431SOL    HW1 8192   4.364   6.893   2.447
 2431SOL    HW2 8193   4.391   6.779   2.334
 2432SOL     OW 8194   2.467   5.811   2.196
 2432SOL    HW1 8195   2.535   5.739   2.184
 2432SOL    HW2 8196   2.378   5.771   2.215
 2433SOL     OW 8197   5.245   6.730   0.581
 2433SOL    HW1 8198   5.321   6.729   0.645
 2433SOL    HW2 8199   5.271   6.680   0.498
 2434SOL     OW 8200   3.076   3.106   4.539
 2434SOL    HW1 8201   3.170   3.111   4.504
 2434SOL    HW2 8202   3.013   3.139   4.470
 2435SOL     OW 8203   5.689   6.012   6.214
 2435SOL    HW1 8204   5.774   5.960   6.199
 2435SOL    HW2 8205   5.703   6.107   6.187
 2436SOL     OW 8206   2.919   4.590   0.917
 2436SOL    HW1 8207   2.852   4.517   0.929
 2436SOL    HW2 8208   2.959   4.614   1.005
 2437SOL     OW 8209   0.103   1.043   5.899
 2437SOL    HW1 8210   0.049   0.959   5.888
 2437SOL    HW2 8211   0.089   1.102   5.819
 2438SOL     OW 8212   3.479   3.566   0.644
 2438SOL    HW1 8213   3.465   3.476   0.683
 2438SOL    HW2 8214   3.430   3.635   0.698
 2439SOL     OW 8215   6.080   4.383   5.948
 2439SOL    HW1 8216   6.150   4.381   6.020
 2439SOL    HW2 8217   6.012   4.453   5.970
 2440SOL     OW 8218   6.161   5.334   5.845
 2440SOL    HW1 8219   6.104   5.354   5.765
 2440SOL    HW2 8220   6.244   5.287   5.815
 2441SOL     OW 8221   6.571   1.988   0.648
 2441SOL    HW1 8222   6.623   2.002   0.732
 2441SOL    HW2 8223   6.476   1.968   0.671
 2442SOL     OW 8224   6.316   2.090   4.266
 2442SOL    HW1 8225   6.303   2.041   4.352
 2442SOL    HW2 8226   6.233   2.083   4.210
 2443SOL     OW 8227   2.740   4.696   5.662
 2443SOL    HW1 8228   2.716   4.753   5.583
 2443SOL    HW2 8229   2.833   4.662   5.652
 2444SOL     OW 8230   3.630   2.452   6.064
 2444SOL    HW1 8231   3.619   2.355   6.039
 2444SOL    HW2 8232   3.726   2.477   6.058
 2445SOL     OW 8233   1.245   0.185   1.010
 2445SOL    HW1 8234   1.275   0.204   0.916
 2445SOL    HW2 8235   1.169   0.245   1.034
 2446SOL     OW 8236   4.635   2.961   6.782
 2446SOL    HW1 8237   4.644   2.877   6.835
 2446SOL    HW2 8238   4.538   2.984   6.770
 2447SOL     OW 8239   1.108   3.752   6.507
 2447SOL    HW1 8240   1.184   3.700   6.470
 2447SOL    HW2 8241   1.142   3.817   6.575
 2448SOL     OW 8242   6.842   0.775   4.865
 2448SOL    HW1 8243   6.941   0.783   4.856
 2448SOL    HW2 8244   6.820   0.731   4.952
 2449SOL     OW 8245   6.950   3.089   5.692
 2449SOL    HW1 8246   6.873   3.124   5.745
 2449SOL    HW2 8247   6.958   2.990   5.705
 2450SOL     OW 8248   2.377   3.554   1.375
 2450SOL    HW1 8249   2.461   3.596   1.341
 2450SOL    HW2 8250   2.370   3.570   1.474
 2451SOL     OW 8251   1.911   5.949   3.727
 2451SOL    HW1 8252   1.977   5.998   3.785
 2451SOL    HW2 8253   1.825   5.999   3.725
 2452SOL     OW 8254   2.459   1.752   4.678
 2452SOL    HW1 8255   2.367   1.792   4.677
 2452SOL    HW2 8256   2.497   1.755   4.585
 2453SOL     OW 8257   6.971   4.196   0.883
 2453SOL    HW1 8258   0.026   4.237   0.937
 2453SOL    HW2 8259   6.903   4.266   0.861
 2454SOL     OW 8260   1.027   6.708   2.156
 2454SOL    HW1 8261   1.116   6.668   2.180
 2454SOL    HW2 8262   1.037   6.762   2.073
 2455SOL     OW 8263   5.636   3.544   1.305
 2455SOL    HW1 8264   5.686   3.554   1.391
 2455SOL    HW2 8265   5.671   3.466   1.254
 2456SOL     OW 8266   2.775   6.652   1.384
 2456SOL    HW1 8267   2.791   6.560   1.420
 2456SOL    HW2 8268   2.820   6.719   1.443
 2457SOL     OW 8269   5.445   5.858   0.774
 2457SOL    HW1 8270   5.487   5.771   0.750
 2457SOL    HW2 8271   5.413   5.855   0.868
 2458SOL     OW 8272   0.690   6.376   1.749
 2458SOL    HW1 8273   0.600   6.369   1.706
 2458SOL    HW2 8274   0.738   6.288   1.739
 2459SOL     OW 8275   1.582   1.948   0.133
 2459SOL    HW1 8276   1.609   1.946   0.230
 2459SOL    HW2 8277   1.542   1.860   0.108
 2460SOL     OW 8278   2.003   4.445   0.949
 2460SOL    HW1 8279   2.035   4.516   1.011
 2460SOL    HW2 8280   2.078   4.382   0.929
 2461SOL     OW 8281   4.412   1.412   3.106
 2461SOL    HW1 8282   4.363   1.481   3.053
 2461SOL    HW2 8283   4.491   1.454   3.151
 2462SOL     OW 8284   2.978   4.214   6.119
 2462SOL    HW1 8285   3.074   4.208   6.093
 2462SOL    HW2 8286   2.930   4.130   6.094
 2463SOL     OW 8287   1.023   3.152   5.214
 2463SOL    HW1 8288   1.017   3.053   5.221
 2463SOL    HW2 8289   1.029   3.192   5.306
 2464SOL     OW 8290   1.263   3.533   0.829
 2464SOL    HW1 8291   1.179   3.534   0.883
 2464SOL    HW2 8292   1.276   3.622   0.785
 2465SOL     OW 8293   6.027   4.039   2.781
 2465SOL    HW1 8294   5.944   3.985   2.791
 2465SOL    HW2 8295   6.084   3.999   2.709
 2466SOL     OW 8296   3.961   1.581   1.646
 2466SOL    HW1 8297   3.992   1.503   1.591
 2466SOL    HW2 8298   4.022   1.593   1.724
 2467SOL     OW 8299   0.790   1.213   4.507
 2467SOL    HW1 8300   0.707   1.180   4.463
 2467SOL    HW2 8301   0.869   1.164   4.471
 2468SOL     OW 8302   6.015   5.232   6.403
 2468SOL    HW1 8303   6.012   5.315   6.348
 2468SOL    HW2 8304   5.972   5.157   6.353
 2469SOL     OW 8305   2.543   2.114   5.994
 2469SOL    HW1 8306   2.552   2.054   5.914
 2469SOL    HW2 8307   2.499   2.199   5.966
 2470SOL     OW 8308   5.324   2.665   1.076
 2470SOL    HW1 8309   5.362   2.721   1.150
 2470SOL    HW2 8310   5.393   2.651   1.006
 2471SOL     OW 8311   0.192   1.342   2.960
 2471SOL    HW1 8312   0.112   1.401   2.949
 2471SOL    HW2 8313   0.163   1.248   2.975
 2472SOL     OW 8314   6.484   0.663   3.986
 2472SOL    HW1 8315   6.487   0.632   4.081
 2472SOL    HW2 8316   6.530   0.752   3.978
 2473SOL     OW 8317   0.792   5.852   5.149
 2473SOL    HW1 8318   0.736   5.798   5.212
 2473SOL    HW2 8319   0.770   5.949   5.160
 2474SOL     OW 8320   5.685   6.680   4.566
 2474SOL    HW1 8321   5.722   6.590   4.591
 2474SOL    HW2 8322   5.758   6.737   4.528
 2475SOL     OW 8323   3.510   2.782   6.218
 2475SOL    HW1 8324   3.443   2.778   6.144
 2475SOL    HW2 8325   3.562   2.867   6.211
 2476SOL     OW 8326   0.795   1.314   3.258
 2476SOL    HW1 8327   0.713   1.370   3.249
 2476SOL    HW2 8328   0.770   1.222   3.288
 2477SOL     OW 8329   4.475   4.515   2.152
 2477SOL    HW1 8330   4.530   4.440   2.116
 2477SOL    HW2 8331   4.425   4.484   2.233
 2478SOL     OW 8332   6.722   0.481   2.722
 2478SOL    HW1 8333   6.785   0.481   2.800
 2478SOL    HW2 8334   6.701   0.575   2.697
 2479SOL     OW 8335   1.434   3.217   0.232
 2479SOL    HW1 8336   1.520   3.166   0.239
 2479SOL    HW2 8337   1.400   3.238   0.324
 2480SOL     OW 8338   6.523   4.923   1.243
 2480SOL    HW1 8339   6.614   4.899   1.276
 2480SOL    HW2 8340   6.482   4.990   1.304
 2481SOL     OW 8341   4.109   4.721   2.471
 2481SOL    HW1 8342   4.069   4.632   2.493
 2481SOL    HW2 8343   4.064   4.759   2.390
 2482SOL     OW 8344   4.284   2.325   4.535
 2482SOL    HW1 8345   4.320   2.374   4.614
 2482SOL    HW2 8346   4.234   2.244   4.565
 2483SOL     OW 8347   1.080   3.354   0.170
 2483SOL    HW1 8348   1.070   3.447   0.203
 2483SOL    HW2 8349   1.157   3.310   0.217
 2484SOL     OW 8350   3.467   4.345   5.662
 2484SOL    HW1 8351   3.464   4.349   5.563
 2484SOL    HW2 8352   3.493   4.435   5.699
 2485SOL     OW 8353   0.778   4.950   0.173
 2485SOL    HW1 8354   0.726   4.916   0.095
 2485SOL    HW2 8355   0.865   4.901   0.179
 2486SOL     OW 8356   0.815   4.960   3.997
 2486SOL    HW1 8357   0.886   5.030   3.992
 2486SOL    HW2 8358   0.825   4.908   4.082
 2487SOL     OW 8359   2.924   1.300   1.125
 2487SOL    HW1 8360   2.839   1.252   1.103
 2487SOL    HW2 8361   2.928   1.387   1.076
 2488SOL     OW 8362   2.705   5.518   6.801
 2488SOL    HW1 8363   2.676   5.594   6.744
 2488SOL    HW2 8364   2.662   5.525   6.891
 2489SOL     OW 8365   6.440   5.601   4.513
 2489SOL    HW1 8366   6.535   5.602   4.545
 2489SOL    HW2 8367   6.410   5.507   4.500
 2490SOL     OW 8368   5.743   2.699   0.973
 2490SOL    HW1 8369   5.734   2.791   1.012
 2490SOL    HW2 8370   5.657   2.673   0.928
 2491SOL     OW 8371   6.394   4.098   2.801
 2491SOL    HW1 8372   6.373   4.014   2.750
 2491SOL    HW2 8373   6.376   4.178   2.744
 2492SOL     OW 8374   3.626   1.961   6.815
 2492SOL    HW1 8375   3.705   1.990   6.869
 2492SOL    HW2 8376   3.633   1.863   6.795
 2493SOL     OW 8377   6.945   0.811   5.857
 2493SOL    HW1 8378   6.954   0.715   5.832
 2493SOL    HW2 8379   6.892   0.859   5.787
 2494SOL     OW 8380   5.413   5.153   0.528
 2494SOL    HW1 8381   5.486   5.134   0.463
 2494SOL    HW2 8382   5.327   5.165   0.479
 2495SOL     OW 8383   6.907   1.197   2.227
 2495SOL    HW1 8384   6.853   1.138   2.287
 2495SOL    HW2 8385   6.917   1.154   2.137
 2496SOL     OW 8386   1.856   4.594   0.560
 2496SOL    HW1 8387   1.820   4.581   0.652
 2496SOL    HW2 8388   1.940   4.649   0.564
 2497SOL     OW 8389   5.996   1.161   6.408
 2497SOL    HW1 8390   5.898   1.143   6.414
 2497SOL    HW2 8391   6.016   1.211   6.323
 2498SOL     OW 8392   0.928   3.151   4.511
 2498SOL    HW1 8393   0.964   3.201   4.590
 2498SOL    HW2 8394   0.868   3.211   4.458
 2499SOL     OW 8395   5.008   0.428   6.875
 2499SOL    HW1 8396   4.938   0.400   6.810
 2499SOL    HW2 8397   4.993   0.523   6.902
 2500SOL     OW 8398   5.236   2.881   5.733
 2500SOL    HW1 8399   5.227   2.967   5.683
 2500SOL    HW2 8400   5.331   2.851   5.732
 2501SOL     OW 8401   6.404   4.814   1.001
 2501SOL    HW1 8402   6.475   4.760   0.955
 2501SOL    HW2 8403   6.427   4.821   1.098
 2502SOL     OW 8404   1.258   6.746   3.098
 2502SOL    HW1 8405   1.199   6.704   3.167
 2502SOL    HW2 8406   1.296   6.832   3.133
 2503SOL     OW 8407   5.381   6.155   3.717
 2503SOL    HW1 8408   5.342   6.241   3.750
 2503SOL    HW2 8409   5.408   6.098   3.794
 2504SOL     OW 8410   2.695   4.900   3.287
 2504SOL    HW1 8411   2.678   4.845   3.206
 2504SOL    HW2 8412   2.610   4.910   3.339
 2505SOL     OW 8413   5.258   4.086   4.510
 2505SOL    HW1 8414   5.250   4.044   4.601
 2505SOL    HW2 8415   5.308   4.024   4.449
 2506SOL     OW 8416   1.247   1.622   0.336
 2506SOL    HW1 8417   1.264   1.705   0.388
 2506SOL    HW2 8418   1.218   1.645   0.243
 2507SOL     OW 8419   6.987   5.945   0.606
 2507SOL    HW1 8420   6.929   5.921   0.528
 2507SOL    HW2 8421   0.061   5.910   0.592
 2508SOL     OW 8422   1.538   1.640   1.459
 2508SOL    HW1 8423   1.452   1.599   1.489
 2508SOL    HW2 8424   1.601   1.643   1.537
 2509SOL     OW 8425   5.858   6.720   3.963
 2509SOL    HW1 8426   5.857   6.724   3.863
 2509SOL    HW2 8427   5.925   6.652   3.993
 2510SOL     OW 8428   3.660   5.984   2.792
 2510SOL    HW1 8429   3.565   5.985   2.823
 2510SOL    HW2 8430   3.665   6.025   2.701
 2511SOL     OW 8431   0.908   5.237   4.404
 2511SOL    HW1 8432   0.808   5.230   4.408
 2511SOL    HW2 8433   0.937   5.321   4.450
 2512SOL     OW 8434   6.174   2.839   4.518
 2512SOL    HW1 8435   6.225   2.797   4.442
 2512SOL    HW2 8436   6.192   2.937   4.518
 2513SOL     OW 8437   0.351   5.088   1.328
 2513SOL    HW1 8438   0.439   5.134   1.315
 2513SOL    HW2 8439   0.280   5.157   1.342
 2514SOL     OW 8440   6.930   2.109   4.515
 2514SOL    HW1 8441   6.943   2.128   4.418
 2514SOL    HW2 8442   6.987   2.032   4.543
 2515SOL     OW 8443   0.733   4.862   6.416
 2515SOL    HW1 8444   0.763   4.956   6.397
 2515SOL    HW2 8445   0.765   4.802   6.343
 2516SOL     OW 8446   4.202   6.804   4.673
 2516SOL    HW1 8447   4.191   6.902   4.691
 2516SOL    HW2 8448   4.137   6.777   4.602
 2517SOL     OW 8449   2.863   5.681   0.466
 2517SOL    HW1 8450   2.886   5.776   0.449
 2517SOL    HW2 8451   2.927   5.621   0.419
 2518SOL     OW 8452   1.913   1.854   0.061
 2518SOL    HW1 8453   1.861   1.855   6.994
 2518SOL    HW2 8454   1.983   1.925   0.059
 2519SOL     OW 8455   6.214   4.447   4.534
 2519SOL    HW1 8456   6.236   4.370   4.474
 2519SOL    HW2 8457   6.251   4.531   4.495
 2520SOL     OW 8458   4.081   5.854   1.049
 2520SOL    HW1 8459   4.024   5.914   0.992
 2520SOL    HW2 8460   4.139   5.910   1.108
 2521SOL     OW 8461   5.747   6.738   5.595
 2521SOL    HW1 8462   5.810   6.661   5.584
 2521SOL    HW2 8463   5.702   6.732   5.685
 2522SOL     OW 8464   2.846   5.106   5.136
 2522SOL    HW1 8465   2.818   5.045   5.062
 2522SOL    HW2 8466   2.942   5.091   5.158
 2523SOL     OW 8467   0.773   2.088   6.859
 2523SOL    HW1 8468   0.741   2.022   6.791
 2523SOL    HW2 8469   0.839   2.044   6.920
 2524SOL     OW 8470   1.678   0.155   4.267
 2524SOL    HW1 8471   1.714   0.139   4.359
 2524SOL    HW2 8472   1.698   0.249   4.239
 2525SOL     OW 8473   2.848   4.797   2.400
 2525SOL    HW1 8474   2.775   4.734   2.375
 2525SOL    HW2 8475   2.844   4.878   2.341
 2526SOL     OW 8476   1.548   3.022   4.650
 2526SOL    HW1 8477   1.592   2.938   4.684
 2526SOL    HW2 8478   1.449   3.006   4.641
 2527SOL     OW 8479   0.075   6.794   4.012
 2527SOL    HW1 8480   0.030   6.795   4.101
 2527SOL    HW2 8481   0.012   6.760   3.943
 2528SOL     OW 8482   5.326   5.120   1.622
 2528SOL    HW1 8483   5.401   5.061   1.594
 2528SOL    HW2 8484   5.318   5.196   1.559
 2529SOL     OW 8485   5.078   4.732   4.699
 2529SOL    HW1 8486   5.131   4.813   4.674
 2529SOL    HW2 8487   5.139   4.665   4.741
 2530SOL     OW 8488   1.084   6.637   3.285
 2530SOL    HW1 8489   1.040   6.548   3.286
 2530SOL    HW2 8490   1.083   6.676   3.377
 2531SOL     OW 8491   5.400   2.457   6.284
 2531SOL    HW1 8492   5.316   2.414   6.250
 2531SOL    HW2 8493   5.459   2.479   6.206
 2532SOL     OW 8494   0.472   5.469   6.590
 2532SOL    HW1 8495   0.566   5.433   6.587
 2532SOL    HW2 8496   0.464   5.535   6.664
 2533SOL     OW 8497   5.527   0.870   4.203
 2533SOL    HW1 8498   5.471   0.794   4.170
 2533SOL    HW2 8499   5.515   0.879   4.302
 2534SOL     OW 8500   6.534   1.516   2.773
 2534SOL    HW1 8501   6.494   1.607   2.759
 2534SOL    HW2 8502   6.578   1.485   2.688
 2535SOL     OW 8503   3.326   1.213   1.886
 2535SOL    HW1 8504   3.284   1.303   1.880
 2535SOL    HW2 8505   3.396   1.203   1.815
 2536SOL     OW 8506   0.872   0.380   3.262
 2536SOL    HW1 8507   0.954   0.324   3.276
 2536SOL    HW2 8508   0.826   0.394   3.350
 2537SOL     OW 8509   1.909   6.192   1.910
 2537SOL    HW1 8510   1.923   6.227   1.818
 2537SOL    HW2 8511   1.844   6.116   1.908
 2538SOL     OW 8512   6.589   5.491   5.260
 2538SOL    HW1 8513   6.651   5.556   5.217
 2538SOL    HW2 8514   6.499   5.497   5.216
 2539SOL     OW 8515   1.082   0.115   5.322
 2539SOL    HW1 8516   1.166   0.069   5.351
 2539SOL    HW2 8517   1.006   0.087   5.381
 2540SOL     OW 8518   5.222   2.601   1.724
 2540SOL    HW1 8519   5.229   2.612   1.824
 2540SOL    HW2 8520   5.292   2.536   1.693
 2541SOL     OW 8521   1.876   0.945   0.322
 2541SOL    HW1 8522   1.811   0.932   0.396
 2541SOL    HW2 8523   1.841   0.902   0.239
 2542SOL     OW 8524   4.069   1.847   2.672
 2542SOL    HW1 8525   4.073   1.750   2.645
 2542SOL    HW2 8526   4.007   1.857   2.750
 2543SOL     OW 8527   5.806   6.166   5.084
 2543SOL    HW1 8528   5.729   6.103   5.074
 2543SOL    HW2 8529   5.808   6.200   5.178
 2544SOL     OW 8530   0.215   0.418   0.135
 2544SOL    HW1 8531   0.220   0.318   0.138
 2544SOL    HW2 8532   0.246   0.456   0.222
 2545SOL     OW 8533   0.526   1.506   0.495
 2545SOL    HW1 8534   0.485   1.564   0.425
 2545SOL    HW2 8535   0.625   1.500   0.481
 2546SOL     OW 8536   6.071   3.374   3.045
 2546SOL    HW1 8537   6.145   3.389   2.980
 2546SOL    HW2 8538   6.048   3.276   3.047
 2547SOL     OW 8539   5.584   3.977   0.963
 2547SOL    HW1 8540   5.624   4.067   0.947
 2547SOL    HW2 8541   5.529   3.951   0.883
 2548SOL     OW 8542   6.190   0.346   5.324
 2548SOL    HW1 8543   6.224   0.293   5.402
 2548SOL    HW2 8544   6.108   0.396   5.352
 2549SOL     OW 8545   2.686   4.245   6.867
 2549SOL    HW1 8546   2.785   4.251   6.856
 2549SOL    HW2 8547   2.645   4.216   6.780
 2550SOL     OW 8548   4.107   0.827   0.884
 2550SOL    HW1 8549   4.191   0.840   0.936
 2550SOL    HW2 8550   4.052   0.755   0.926
 2551SOL     OW 8551   2.510   4.812   1.243
 2551SOL    HW1 8552   2.469   4.720   1.244
 2551SOL    HW2 8553   2.594   4.811   1.189
 2552SOL     OW 8554   3.010   5.911   1.059
 2552SOL    HW1 8555   2.948   5.859   1.118
 2552SOL    HW2 8556   3.014   5.868   0.969
 2553SOL     OW 8557   4.296   1.951   1.231
 2553SOL    HW1 8558   4.374   2.000   1.192
 2553SOL    HW2 8559   4.311   1.852   1.223
 2554SOL     OW 8560   1.206   6.376   1.080
 2554SOL    HW1 8561   1.241   6.428   1.157
 2554SOL    HW2 8562   1.238   6.281   1.085
 2555SOL     OW 8563   0.505   6.314   4.527
 2555SOL    HW1 8564   0.428   6.291   4.587
 2555SOL    HW2 8565   0.552   6.395   4.563
 2556SOL     OW 8566   5.729   0.607   0.877
 2556SOL    HW1 8567   5.733   0.707   0.874
 2556SOL    HW2 8568   5.638   0.576   0.850
 2557SOL     OW 8569   2.549   1.345   6.986
 2557SOL    HW1 8570   2.575   1.254   0.001
 2557SOL    HW2 8571   2.627   1.407   6.995
 2558SOL     OW 8572   5.876   2.769   1.474
 2558SOL    HW1 8573   5.812   2.701   1.441
 2558SOL    HW2 8574   5.829   2.834   1.533
 2559SOL     OW 8575   6.732   5.721   3.404
 2559SOL    HW1 8576   6.806   5.777   3.367
 2559SOL    HW2 8577   6.674   5.688   3.330
 2560SOL     OW 8578   4.297   2.603   1.569
 2560SOL    HW1 8579   4.291   2.702   1.580
 2560SOL    HW2 8580   4.216   2.571   1.520
 2561SOL     OW 8581   3.565   0.712   4.567
 2561SOL    HW1 8582   3.526   0.796   4.605
 2561SOL    HW2 8583   3.570   0.642   4.638
 2562SOL     OW 8584   1.944   6.698   5.047
 2562SOL    HW1 8585   1.883   6.656   4.979
 2562SOL    HW2 8586   1.971   6.628   5.114
 2563SOL     OW 8587   4.486   2.441   6.990
 2563SOL    HW1 8588   4.393   2.475   6.976
 2563SOL    HW2 8589   4.511   2.451   0.068
 2564SOL     OW 8590   1.541   1.103   1.629
 2564SOL    HW1 8591   1.566   1.199   1.610
 2564SOL    HW2 8592   1.600   1.068   1.701
 2565SOL     OW 8593   6.697   0.113   0.959
 2565SOL    HW1 8594   6.714   0.206   0.926
 2565SOL    HW2 8595   6.775   0.082   1.013
 2566SOL     OW 8596   2.764   1.136   0.601
 2566SOL    HW1 8597   2.674   1.098   0.580
 2566SOL    HW2 8598   2.828   1.062   0.619
 2567SOL     OW 8599   2.001   1.179   6.063
 2567SOL    HW1 8600   1.990   1.271   6.100
 2567SOL    HW2 8601   2.084   1.137   6.099
 2568SOL     OW 8602   3.235   6.471   0.112
 2568SOL    HW1 8603   3.182   6.387   0.098
 2568SOL    HW2 8604   3.175   6.550   0.101
 2569SOL     OW 8605   2.761   6.306   6.819
 2569SOL    HW1 8606   2.696   6.272   6.887
 2569SOL    HW2 8607   2.716   6.314   6.731
 2570SOL     OW 8608   6.752   0.116   3.303
 2570SOL    HW1 8609   6.782   0.196   3.354
 2570SOL    HW2 8610   6.719   0.046   3.367
 2571SOL     OW 8611   3.537   3.598   2.556
 2571SOL    HW1 8612   3.481   3.652   2.618
 2571SOL    HW2 8613   3.518   3.625   2.461
 2572SOL     OW 8614   3.191   6.382   2.353
 2572SOL    HW1 8615   3.092   6.394   2.353
 2572SOL    HW2 8616   3.230   6.426   2.272
 2573SOL     OW 8617   5.956   0.401   2.851
 2573SOL    HW1 8618   6.004   0.402   2.939
 2573SOL    HW2 8619   5.863   0.436   2.865
 2574SOL     OW 8620   0.454   4.397   1.895
 2574SOL    HW1 8621   0.519   4.330   1.860
 2574SOL    HW2 8622   0.456   4.480   1.839
 2575SOL     OW 8623   4.446   3.408   5.323
 2575SOL    HW1 8624   4.515   3.445   5.262
 2575SOL    HW2 8625   4.484   3.400   5.415
 2576SOL     OW 8626   0.144   0.580   3.063
 2576SOL    HW1 8627   0.067   0.531   3.022
 2576SOL    HW2 8628   0.131   0.587   3.162
 2577SOL     OW 8629   1.402   4.531   1.054
 2577SOL    HW1 8630   1.457   4.532   1.138
 2577SOL    HW2 8631   1.391   4.437   1.023
 2578SOL     OW 8632   4.624   1.778   4.782
 2578SOL    HW1 8633   4.525   1.781   4.768
 2578SOL    HW2 8634   4.665   1.714   4.716
 2579SOL     OW 8635   7.015   1.970   6.523
 2579SOL    HW1 8636   6.953   1.897   6.491
 2579SOL    HW2 8637   0.040   1.941   6.608
 2580SOL     OW 8638   1.506   2.189   5.394
 2580SOL    HW1 8639   1.406   2.191   5.396
 2580SOL    HW2 8640   1.542   2.234   5.475
 2581SOL     OW 8641   4.581   6.434   4.197
 2581SOL    HW1 8642   4.548   6.460   4.106
 2581SOL    HW2 8643   4.519   6.367   4.237
 2582SOL     OW 8644   6.613   4.295   2.972
 2582SOL    HW1 8645   6.541   4.277   3.038
 2582SOL    HW2 8646   6.580   4.360   2.904
 2583SOL     OW 8647   2.569   1.066   0.018
 2583SOL    HW1 8648   2.603   1.001   6.969
 2583SOL    HW2 8649   2.626   1.062   0.101
 2584SOL     OW 8650   3.488   0.152   3.355
 2584SOL    HW1 8651   3.462   0.056   3.370
 2584SOL    HW2 8652   3.506   0.166   3.258
 2585SOL     OW 8653   3.710   0.766   2.836
 2585SOL    HW1 8654   3.728   0.745   2.932
 2585SOL    HW2 8655   3.674   0.686   2.790
 2586SOL     OW 8656   0.710   2.077   4.254
 2586SOL    HW1 8657   0.790   2.066   4.196
 2586SOL    HW2 8658   0.733   2.052   4.348
 2587SOL     OW 8659   6.271   4.224   3.553
 2587SOL    HW1 8660   6.218   4.249   3.634
 2587SOL    HW2 8661   6.215   4.239   3.471
 2588SOL     OW 8662   3.279   0.155   2.611
 2588SOL    HW1 8663   3.215   0.159   2.688
 2588SOL    HW2 8664   3.270   0.067   2.565
 2589SOL     OW 8665   4.223   6.614   1.959
 2589SOL    HW1 8666   4.256   6.527   1.921
 2589SOL    HW2 8667   4.146   6.597   2.020
 2590SOL     OW 8668   4.603   6.087   3.950
 2590SOL    HW1 8669   4.676   6.140   3.905
 2590SOL    HW2 8670   4.626   6.076   4.047
 2591SOL     OW 8671   6.137   0.807   1.248
 2591SOL    HW1 8672   6.141   0.906   1.240
 2591SOL    HW2 8673   6.049   0.775   1.213
 2592SOL     OW 8674   2.960   4.915   1.747
 2592SOL    HW1 8675   3.059   4.914   1.730
 2592SOL    HW2 8676   2.914   4.857   1.681
 2593SOL     OW 8677   2.286   0.036   4.139
 2593SOL    HW1 8678   2.288   0.118   4.196
 2593SOL    HW2 8679   2.377   7.011   4.140
 2594SOL     OW 8680   2.265   5.749   6.091
 2594SOL    HW1 8681   2.341   5.709   6.040
 2594SOL    HW2 8682   2.194   5.779   6.027
 2595SOL     OW 8683   6.816   3.080   5.075
 2595SOL    HW1 8684   6.826   3.171   5.115
 2595SOL    HW2 8685   6.865   3.077   4.988
 2596SOL     OW 8686   4.619   1.460   0.572
 2596SOL    HW1 8687   4.689   1.531   0.559
 2596SOL    HW2 8688   4.586   1.463   0.667
 2597SOL     OW 8689   2.524   2.277   6.456
 2597SOL    HW1 8690   2.475   2.195   6.428
 2597SOL    HW2 8691   2.481   2.318   6.536
 2598SOL     OW 8692   6.264   1.038   2.926
 2598SOL    HW1 8693   6.318   1.122   2.922
 2598SOL    HW2 8694   6.173   1.058   2.961
 2599SOL     OW 8695   4.830   5.569   6.201
 2599SOL    HW1 8696   4.921   5.530   6.213
 2599SOL    HW2 8697   4.804   5.619   6.284
 2600SOL     OW 8698   0.334   2.782   4.502
 2600SOL    HW1 8699   0.368   2.860   4.450
 2600SOL    HW2 8700   0.387   2.701   4.479
 2601SOL     OW 8701   4.342   4.519   5.422
 2601SOL    HW1 8702   4.320   4.518   5.325
 2601SOL    HW2 8703   4.315   4.607   5.462
 2602SOL     OW 8704   6.218   6.621   0.136
 2602SOL    HW1 8705   6.184   6.529   0.113
 2602SOL    HW2 8706   6.218   6.678   0.054
 2603SOL     OW 8707   1.730   1.685   0.164
 2603SOL    HW1 8708   1.799   1.746   0.124
 2603SOL    HW2 8709   1.674   1.646   0.091
 2604SOL     OW 8710   5.760   1.578   0.664
 2604SOL    HW1 8711   5.786   1.674   0.672
 2604SOL    HW2 8712   5.800   1.526   0.739
 2605SOL     OW 8713   5.477   2.426   5.334
 2605SOL    HW1 8714   5.435   2.415   5.244
 2605SOL    HW2 8715   5.576   2.432   5.325
 2606SOL     OW 8716   6.532   4.349   1.463
 2606SOL    HW1 8717   6.533   4.448   1.469
 2606SOL    HW2 8718   6.511   4.310   1.553
 2607SOL     OW 8719   0.534   1.027   3.468
 2607SOL    HW1 8720   0.519   1.101   3.533
 2607SOL    HW2 8721   0.628   1.032   3.434
 2608SOL     OW 8722   4.424   0.581   6.995
 2608SOL    HW1 8723   4.374   0.649   0.031
 2608SOL    HW2 8724   4.440   0.499   0.033
 2609SOL     OW 8725   0.587   4.240   3.710
 2609SOL    HW1 8726   0.678   4.258   3.672
 2609SOL    HW2 8727   0.597   4.193   3.798
 2610SOL     OW 8728   5.454   5.505   4.603
 2610SOL    HW1 8729   5.443   5.420   4.552
 2610SOL    HW2 8730   5.449   5.486   4.701
 2611SOL     OW 8731   2.699   6.496   1.822
 2611SOL    HW1 8732   2.651   6.500   1.909
 2611SOL    HW2 8733   2.656   6.559   1.757
 2612SOL     OW 8734   1.015   6.720   4.488
 2612SOL    HW1 8735   1.101   6.710   4.439
 2612SOL    HW2 8736   1.024   6.795   4.555
 2613SOL     OW 8737   4.226   1.646   0.051
 2613SOL    HW1 8738   4.303   1.708   0.035
 2613SOL    HW2 8739   4.219   1.626   0.148
 2614SOL     OW 8740   6.421   6.382   6.344
 2614SOL    HW1 8741   6.449   6.452   6.409
 2614SOL    HW2 8742   6.343   6.416   6.290
 2615SOL     OW 8743   0.296   3.734   1.430
 2615SOL    HW1 8744   0.312   3.716   1.333
 2615SOL    HW2 8745   0.376   3.781   1.469
 2616SOL     OW 8746   3.493   4.158   1.799
 2616SOL    HW1 8747   3.396   4.137   1.788
 2616SOL    HW2 8748   3.518   4.153   1.896
 2617SOL     OW 8749   3.031   6.641   1.147
 2617SOL    HW1 8750   2.967   6.693   1.204
 2617SOL    HW2 8751   3.057   6.695   1.067
 2618SOL     OW 8752   1.263   6.080   0.309
 2618SOL    HW1 8753   1.173   6.122   0.294
 2618SOL    HW2 8754   1.335   6.145   0.288
 2619SOL     OW 8755   6.483   0.929   2.047
 2619SOL    HW1 8756   6.385   0.947   2.042
 2619SOL    HW2 8757   6.500   0.856   2.113
 2620SOL     OW 8758   1.897   5.388   4.051
 2620SOL    HW1 8759   1.866   5.363   4.142
 2620SOL    HW2 8760   1.880   5.313   3.987
 2621SOL     OW 8761   1.655   5.574   4.117
 2621SOL    HW1 8762   1.749   5.557   4.147
 2621SOL    HW2 8763   1.655   5.636   4.039
 2622SOL     OW 8764   2.413   2.380   4.288
 2622SOL    HW1 8765   2.509   2.396   4.312
 2622SOL    HW2 8766   2.401   2.395   4.190
 2623SOL     OW 8767   2.972   6.968   5.770
 2623SOL    HW1 8768   2.889   0.000   5.794
 2623SOL    HW2 8769   3.040   6.979   5.842
 2624SOL     OW 8770   4.916   1.966   4.952
 2624SOL    HW1 8771   4.986   2.013   4.897
 2624SOL    HW2 8772   4.936   1.868   4.955
 2625SOL     OW 8773   2.253   6.894   5.980
 2625SOL    HW1 8774   2.321   6.845   5.925
 2625SOL    HW2 8775   2.235   6.984   5.939
 2626SOL     OW 8776   2.564   6.565   3.256
 2626SOL    HW1 8777   2.603   6.651   3.222
 2626SOL    HW2 8778   2.476   6.584   3.300
 2627SOL     OW 8779   0.672   0.486   4.830
 2627SOL    HW1 8780   0.659   0.585   4.818
 2627SOL    HW2 8781   0.705   0.446   4.745
 2628SOL     OW 8782   4.855   5.151   0.154
 2628SOL    HW1 8783   4.791   5.075   0.159
 2628SOL    HW2 8784   4.853   5.192   0.063
 2629SOL     OW 8785   2.750   3.602   1.653
 2629SOL    HW1 8786   2.795   3.623   1.739
 2629SOL    HW2 8787   2.812   3.620   1.577
 2630SOL     OW 8788   3.611   1.779   2.188
 2630SOL    HW1 8789   3.704   1.817   2.184
 2630SOL    HW2 8790   3.613   1.687   2.227
 2631SOL     OW 8791   3.246   6.797   4.157
 2631SOL    HW1 8792   3.320   6.730   4.168
 2631SOL    HW2 8793   3.181   6.764   4.088
 2632SOL     OW 8794   4.860   1.567   1.019
 2632SOL    HW1 8795   4.944   1.575   1.072
 2632SOL    HW2 8796   4.783   1.553   1.081
 2633SOL     OW 8797   0.333   2.402   0.158
 2633SOL    HW1 8798   0.377   2.313   0.162
 2633SOL    HW2 8799   0.362   2.451   0.075
 2634SOL     OW 8800   2.270   4.892   0.171
 2634SOL    HW1 8801   2.341   4.959   0.149
 2634SOL    HW2 8802   2.249   4.838   0.090
 2635SOL     OW 8803   6.735   4.165   3.751
 2635SOL    HW1 8804   6.645   4.194   3.782
 2635SOL    HW2 8805   6.743   4.066   3.757
 2636SOL     OW 8806   5.545   4.908   5.404
 2636SOL    HW1 8807   5.584   4.866   5.486
 2636SOL    HW2 8808   5.531   5.006   5.420
 2637SOL     OW 8809   5.289   5.219   2.232
 2637SOL    HW1 8810   5.261   5.164   2.311
 2637SOL    HW2 8811   5.376   5.185   2.197
 2638SOL     OW 8812   4.877   5.703   0.743
 2638SOL    HW1 8813   4.939   5.648   0.686
 2638SOL    HW2 8814   4.930   5.748   0.815
 2639SOL     OW 8815   6.621   0.671   0.078
 2639SOL    HW1 8816   6.644   0.574   0.089
 2639SOL    HW2 8817   6.521   0.682   0.084
 2640SOL     OW 8818   6.486   6.037   0.345
 2640SOL    HW1 8819   6.527   6.096   0.415
 2640SOL    HW2 8820   6.552   6.021   0.272
 2641SOL     OW 8821   0.001   5.691   1.283
 2641SOL    HW1 8822   6.992   5.762   1.348
 2641SOL    HW2 8823   0.019   5.733   1.194
 2642SOL     OW 8824   6.544   0.145   4.380
 2642SOL    HW1 8825   6.483   0.201   4.437
 2642SOL    HW2 8826   6.491   0.071   4.338
 2643SOL     OW 8827   1.752   0.609   2.178
 2643SOL    HW1 8828   1.691   0.589   2.255
 2643SOL    HW2 8829   1.847   0.606   2.209
 2644SOL     OW 8830   5.789   6.227   4.726
 2644SOL    HW1 8831   5.835   6.187   4.646
 2644SOL    HW2 8832   5.750   6.155   4.782
 2645SOL     OW 8833   5.118   5.561   6.508
 2645SOL    HW1 8834   5.099   5.636   6.573
 2645SOL    HW2 8835   5.173   5.491   6.553
 2646SOL     OW 8836   5.547   5.687   5.474
 2646SOL    HW1 8837   5.592   5.651   5.392
 2646SOL    HW2 8838   5.592   5.771   5.503
 2647SOL     OW 8839   3.469   4.128   0.335
 2647SOL    HW1 8840   3.454   4.057   0.404
 2647SOL    HW2 8841   3.380   4.167   0.308
 2648SOL     OW 8842   4.153   1.448   3.537
 2648SOL    HW1 8843   4.203   1.531   3.513
 2648SOL    HW2 8844   4.191   1.409   3.620
 2649SOL     OW 8845   2.984   3.793   5.176
 2649SOL    HW1 8846   2.897   3.747   5.195
 2649SOL    HW2 8847   3.012   3.774   5.082
 2650SOL     OW 8848   0.338   6.734   2.504
 2650SOL    HW1 8849   0.344   6.727   2.404
 2650SOL    HW2 8850   0.416   6.687   2.546
 2651SOL     OW 8851   1.603   0.001   2.854
 2651SOL    HW1 8852   1.609   6.938   2.796
 2651SOL    HW2 8853   1.544   0.070   2.810
 2652SOL     OW 8854   3.158   2.977   2.203
 2652SOL    HW1 8855   3.130   2.894   2.251
 2652SOL    HW2 8856   3.143   2.965   2.105
 2653SOL     OW 8857   5.999   6.645   1.344
 2653SOL    HW1 8858   5.990   6.673   1.249
 2653SOL    HW2 8859   5.908   6.635   1.385
 2654SOL     OW 8860   6.757   3.166   6.160
 2654SOL    HW1 8861   6.855   3.160   6.141
 2654SOL    HW2 8862   6.728   3.261   6.155
 2655SOL     OW 8863   5.748   4.545   4.189
 2655SOL    HW1 8864   5.720   4.525   4.283
 2655SOL    HW2 8865   5.673   4.588   4.140
 2656SOL     OW 8866   6.021   3.380   5.218
 2656SOL    HW1 8867   6.051   3.409   5.309
 2656SOL    HW2 8868   5.977   3.456   5.171
 2657SOL     OW 8869   3.985   2.075   5.788
 2657SOL    HW1 8870   4.068   2.123   5.816
 2657SOL    HW2 8871   3.910   2.141   5.777
 2658SOL     OW 8872   6.896   4.122   5.205
 2658SOL    HW1 8873   6.883   4.024   5.195
 2658SOL    HW2 8874   6.942   4.142   5.291
 2659SOL     OW 8875   6.504   1.117   3.752
 2659SOL    HW1 8876   6.526   1.160   3.839
 2659SOL    HW2 8877   6.405   1.098   3.748
 2660SOL     OW 8878   1.263   2.076   3.733
 2660SOL    HW1 8879   1.237   2.021   3.812
 2660SOL    HW2 8880   1.343   2.034   3.689
 2661SOL     OW 8881   3.493   6.894   3.639
 2661SOL    HW1 8882   3.410   6.929   3.595
 2661SOL    HW2 8883   3.559   6.866   3.569
 2662SOL     OW 8884   3.665   1.097   4.040
 2662SOL    HW1 8885   3.691   1.159   3.966
 2662SOL    HW2 8886   3.739   1.030   4.054
 2663SOL     OW 8887   0.635   3.828   2.937
 2663SOL    HW1 8888   0.674   3.745   2.897
 2663SOL    HW2 8889   0.539   3.812   2.961
 2664SOL     OW 8890   4.792   4.322   1.857
 2664SOL    HW1 8891   4.719   4.306   1.922
 2664SOL    HW2 8892   4.878   4.288   1.894
 2665SOL     OW 8893   4.776   0.933   5.280
 2665SOL    HW1 8894   4.761   0.987   5.197
 2665SOL    HW2 8895   4.857   0.875   5.268
 2666SOL     OW 8896   5.226   5.930   1.974
 2666SOL    HW1 8897   5.317   5.952   2.008
 2666SOL    HW2 8898   5.225   5.835   1.943
 2667SOL     OW 8899   1.919   4.524   2.519
 2667SOL    HW1 8900   1.859   4.513   2.440
 2667SOL    HW2 8901   1.909   4.445   2.580
 2668SOL     OW 8902   6.744   2.724   5.366
 2668SOL    HW1 8903   6.792   2.640   5.392
 2668SOL    HW2 8904   6.800   2.775   5.301
 2669SOL     OW 8905   3.760   5.983   4.805
 2669SOL    HW1 8906   3.725   6.011   4.895
 2669SOL    HW2 8907   3.839   6.039   4.781
 2670SOL     OW 8908   2.114   6.475   4.483
 2670SOL    HW1 8909   2.188   6.453   4.546
 2670SOL    HW2 8910   2.151   6.486   4.390
 2671SOL     OW 8911   2.997   3.843   6.920
 2671SOL    HW1 8912   3.061   3.910   6.882
 2671SOL    HW2 8913   2.993   3.763   6.861
 2672SOL     OW 8914   0.722   4.620   0.771
 2672SOL    HW1 8915   0.629   4.587   0.786
 2672SOL    HW2 8916   0.736   4.706   0.821
 2673SOL     OW 8917   3.969   1.890   3.049
 2673SOL    HW1 8918   3.948   1.880   3.147
 2673SOL    HW2 8919   3.928   1.814   2.999
 2674SOL     OW 8920   4.931   6.067   4.798
 2674SOL    HW1 8921   5.004   6.071   4.731
 2674SOL    HW2 8922   4.842   6.070   4.752
 2675SOL     OW 8923   0.401   5.138   5.531
 2675SOL    HW1 8924   0.373   5.158   5.625
 2675SOL    HW2 8925   0.500   5.144   5.523
 2676SOL     OW 8926   4.532   0.286   1.513
 2676SOL    HW1 8927   4.529   0.220   1.438
 2676SOL    HW2 8928   4.562   0.240   1.597
 2677SOL     OW 8929   2.328   4.737   1.951
 2677SOL    HW1 8930   2.408   4.684   1.923
 2677SOL    HW2 8931   2.358   4.820   1.997
 2678SOL     OW 8932   0.856   6.514   6.949
 2678SOL    HW1 8933   0.845   6.598   6.896
 2678SOL    HW2 8934   0.767   6.472   6.963
 2679SOL     OW 8935   2.081   5.186   1.539
 2679SOL    HW1 8936   1.997   5.234   1.564
 2679SOL    HW2 8937   2.131   5.238   1.471
 2680SOL     OW 8938   6.619   2.166   0.991
 2680SOL    HW1 8939   6.590   2.215   0.909
 2680SOL    HW2 8940   6.672   2.086   0.964
 2681SOL     OW 8941   1.691   2.261   1.759
 2681SOL    HW1 8942   1.736   2.192   1.702
 2681SOL    HW2 8943   1.598   2.276   1.725
 2682SOL     OW 8944   0.383   2.696   3.954
 2682SOL    HW1 8945   0.415   2.634   3.883
 2682SOL    HW2 8946   0.293   2.733   3.928
 2683SOL     OW 8947   1.915   0.138   0.802
 2683SOL    HW1 8948   1.994   0.120   0.862
 2683SOL    HW2 8949   1.834   0.156   0.859
 2684SOL     OW 8950   2.634   4.836   3.009
 2684SOL    HW1 8951   2.612   4.932   3.025
 2684SOL    HW2 8952   2.557   4.792   2.962
 2685SOL     OW 8953   5.174   4.245   5.933
 2685SOL    HW1 8954   5.262   4.267   5.890
 2685SOL    HW2 8955   5.165   4.146   5.942
 2686SOL     OW 8956   1.491   3.477   4.552
 2686SOL    HW1 8957   1.518   3.563   4.596
 2686SOL    HW2 8958   1.420   3.433   4.606
 2687SOL     OW 8959   4.543   5.045   2.842
 2687SOL    HW1 8960   4.557   4.963   2.897
 2687SOL    HW2 8961   4.629   5.094   2.832
 2688SOL     OW 8962   3.335   4.094   5.362
 2688SOL    HW1 8963   3.424   4.080   5.407
 2688SOL    HW2 8964   3.289   4.173   5.404
 2689SOL     OW 8965   5.968   1.862   3.874
 2689SOL    HW1 8966   5.985   1.836   3.969
 2689SOL    HW2 8967   6.054   1.893   3.833
 2690SOL     OW 8968   3.524   4.126   3.270
 2690SOL    HW1 8969   3.622   4.119   3.289
 2690SOL    HW2 8970   3.477   4.164   3.349
 2691SOL     OW 8971   1.214   5.832   1.294
 2691SOL    HW1 8972   1.240   5.767   1.365
 2691SOL    HW2 8973   1.244   5.924   1.319
 2692SOL     OW 8974   6.856   4.135   3.996
 2692SOL    HW1 8975   6.952   4.111   3.983
 2692SOL    HW2 8976   6.820   4.176   3.912
 2693SOL     OW 8977   2.175   3.806   2.627
 2693SOL    HW1 8978   2.168   3.803   2.527
 2693SOL    HW2 8979   2.271   3.806   2.654
 2694SOL     OW 8980   1.882   1.667   2.603
 2694SOL    HW1 8981   1.831   1.679   2.517
 2694SOL    HW2 8982   1.977   1.644   2.582
 2695SOL     OW 8983   4.028   2.126   2.028
 2695SOL    HW1 8984   4.049   2.200   1.964
 2695SOL    HW2 8985   3.939   2.086   2.005
 2696SOL     OW 8986   3.188   3.496   6.270
 2696SOL    HW1 8987   3.257   3.558   6.234
 2696SOL    HW2 8988   3.112   3.489   6.205
 2697SOL     OW 8989   2.405   0.961   5.182
 2697SOL    HW1 8990   2.424   0.869   5.218
 2697SOL    HW2 8991   2.349   0.952   5.099
 2698SOL     OW 8992   1.589   1.603   6.973
 2698SOL    HW1 8993   1.659   1.626   6.905
 2698SOL    HW2 8994   1.544   1.518   6.946
 2699SOL     OW 8995   1.304   5.022   3.925
 2699SOL    HW1 8996   1.234   5.013   3.996
 2699SOL    HW2 8997   1.285   4.958   3.851
 2700SOL     OW 8998   2.192   4.422   2.774
 2700SOL    HW1 8999   2.124   4.439   2.846
 2700SOL    HW2 9000   2.266   4.367   2.811
 2701SOL     OW 9001   1.869   0.882   5.372
 2701SOL    HW1 9002   1.887   0.785   5.392
 2701SOL    HW2 9003   1.810   0.920   5.443
 2702SOL     OW 9004   5.913   6.153   2.574
 2702SOL    HW1 9005   5.973   6.084   2.534
 2702SOL    HW2 9006   5.845   6.181   2.506
 2703SOL     OW 9007   1.982   2.577   2.377
 2703SOL    HW1 9008   2.021   2.622   2.457
 2703SOL    HW2 9009   1.911   2.635   2.337
 2704SOL     OW 9010   0.657   6.426   0.251
 2704SOL    HW1 9011   0.640   6.447   0.155
 2704SOL    HW2 9012   0.620   6.499   0.309
 2705SOL     OW 9013   0.400   3.300   2.677
 2705SOL    HW1 9014   0.305   3.270   2.670
 2705SOL    HW2 9015   0.460   3.232   2.634
 2706SOL     OW 9016   6.729   2.479   3.663
 2706SOL    HW1 9017   6.637   2.511   3.640
 2706SOL    HW2 9018   6.731   2.450   3.759
 2707SOL     OW 9019   3.583   1.071   0.162
 2707SOL    HW1 9020   3.548   1.050   0.253
 2707SOL    HW2 9021   3.524   1.138   0.117
 2708SOL     OW 9022   1.576   4.686   6.454
 2708SOL    HW1 9023   1.614   4.773   6.424
 2708SOL    HW2 9024   1.480   4.698   6.478
 2709SOL     OW 9025   3.795   0.093   1.712
 2709SOL    HW1 9026   3.873   0.148   1.742
 2709SOL    HW2 9027   3.718   0.153   1.693
 2710SOL     OW 9028   5.631   3.984   3.268
 2710SOL    HW1 9029   5.580   4.069   3.254
 2710SOL    HW2 9030   5.580   3.908   3.228
 2711SOL     OW 9031   0.726   6.380   2.043
 2711SOL    HW1 9032   0.821   6.365   2.070
 2711SOL    HW2 9033   0.721   6.387   1.944
 2712SOL     OW 9034   2.962   5.438   2.813
 2712SOL    HW1 9035   2.947   5.417   2.909
 2712SOL    HW2 9036   2.934   5.533   2.795
 2713SOL     OW 9037   2.335   2.883   5.633
 2713SOL    HW1 9038   2.258   2.942   5.612
 2713SOL    HW2 9039   2.373   2.845   5.548
 2714SOL     OW 9040   5.610   0.679   0.097
 2714SOL    HW1 9041   5.530   0.695   0.039
 2714SOL    HW2 9042   5.593   0.602   0.158
 2715SOL     OW 9043   5.988   0.306   0.239
 2715SOL    HW1 9044   5.917   0.258   0.291
 2715SOL    HW2 9045   5.948   0.340   0.153
 2716SOL     OW 9046   6.045   6.413   2.154
 2716SOL    HW1 9047   5.964   6.413   2.212
 2716SOL    HW2 9048   6.044   6.332   2.095
 2717SOL     OW 9049   0.503   0.033   3.211
 2717SOL    HW1 9050   0.589   7.002   3.225
 2717SOL    HW2 9051   0.522   0.127   3.182
 2718SOL     OW 9052   6.691   3.755   3.058
 2718SOL    HW1 9053   6.767   3.776   3.119
 2718SOL    HW2 9054   6.656   3.839   3.017
 2719SOL     OW 9055   4.575   4.548   3.082
 2719SOL    HW1 9056   4.559   4.628   3.024
 2719SOL    HW2 9057   4.497   4.534   3.143
 2720SOL     OW 9058   0.552   6.699   4.218
 2720SOL    HW1 9059   0.462   6.694   4.176
 2720SOL    HW2 9060   0.563   6.625   4.284
 2721SOL     OW 9061   4.938   6.265   3.104
 2721SOL    HW1 9062   4.850   6.263   3.056
 2721SOL    HW2 9063   5.010   6.290   3.039
 2722SOL     OW 9064   0.863   5.989   2.498
 2722SOL    HW1 9065   0.788   5.947   2.549
 2722SOL    HW2 9066   0.826   6.032   2.416
 2723SOL     OW 9067   1.968   2.393   4.270
 2723SOL    HW1 9068   2.023   2.353   4.196
 2723SOL    HW2 9069   1.977   2.492   4.268
 2724SOL     OW 9070   4.683   5.778   5.850
 2724SOL    HW1 9071   4.689   5.833   5.767
 2724SOL    HW2 9072   4.705   5.834   5.929
 2725SOL     OW 9073   2.186   4.711   2.939
 2725SOL    HW1 9074   2.129   4.629   2.947
 2725SOL    HW2 9075   2.270   4.689   2.889
 2726SOL     OW 9076   3.901   6.224   2.854
 2726SOL    HW1 9077   3.855   6.211   2.766
 2726SOL    HW2 9078   3.981   6.284   2.841
 2727SOL     OW 9079   2.125   5.515   4.080
 2727SOL    HW1 9080   2.033   5.476   4.076
 2727SOL    HW2 9081   2.139   5.575   4.002
 2728SOL     OW 9082   2.348   6.892   5.678
 2728SOL    HW1 9083   2.281   6.820   5.661
 2728SOL    HW2 9084   2.439   6.860   5.648
 2729SOL     OW 9085   0.206   4.435   2.501
 2729SOL    HW1 9086   0.140   4.452   2.575
 2729SOL    HW2 9087   0.159   4.439   2.413
 2730SOL     OW 9088   1.368   3.625   1.529
 2730SOL    HW1 9089   1.406   3.717   1.529
 2730SOL    HW2 9090   1.436   3.561   1.492
 2731SOL     OW 9091   2.301   3.236   0.125
 2731SOL    HW1 9092   2.311   3.137   0.122
 2731SOL    HW2 9093   2.206   3.260   0.105
 2732SOL     OW 9094   5.981   3.078   4.705
 2732SOL    HW1 9095   6.025   3.065   4.616
 2732SOL    HW2 9096   6.049   3.109   4.771
 2733SOL     OW 9097   2.237   0.213   0.184
 2733SOL    HW1 9098   2.153   0.266   0.172
 2733SOL    HW2 9099   2.306   0.271   0.228
 2734SOL     OW 9100   1.844   6.843   4.014
 2734SOL    HW1 9101   1.795   6.782   3.952
 2734SOL    HW2 9102   1.845   6.936   3.976
 2735SOL     OW 9103   1.453   5.275   1.544
 2735SOL    HW1 9104   1.490   5.340   1.610
 2735SOL    HW2 9105   1.362   5.305   1.514
 2736SOL     OW 9106   4.400   0.316   6.713
 2736SOL    HW1 9107   4.407   0.229   6.665
 2736SOL    HW2 9108   4.416   0.391   6.649
 2737SOL     OW 9109   4.628   4.092   5.602
 2737SOL    HW1 9110   4.634   4.165   5.534
 2737SOL    HW2 9111   4.678   4.012   5.570
 2738SOL     OW 9112   0.019   4.014   4.753
 2738SOL    HW1 9113   6.957   4.016   4.813
 2738SOL    HW2 9114   0.099   3.985   4.805
 2739SOL     OW 9115   4.464   3.822   6.677
 2739SOL    HW1 9116   4.394   3.763   6.638
 2739SOL    HW2 9117   4.444   3.839   6.773
 2740SOL     OW 9118   5.967   2.384   4.559
 2740SOL    HW1 9119   6.053   2.345   4.594
 2740SOL    HW2 9120   5.968   2.383   4.459
 2741SOL     OW 9121   2.195   3.367   5.924
 2741SOL    HW1 9122   2.240   3.279   5.943
 2741SOL    HW2 9123   2.265   3.437   5.910
 2742SOL     OW 9124   2.381   6.122   5.391
 2742SOL    HW1 9125   2.318   6.199   5.402
 2742SOL    HW2 9126   2.345   6.059   5.322
 2743SOL     OW 9127   5.878   3.930   6.180
 2743SOL    HW1 9128   5.864   3.891   6.271
 2743SOL    HW2 9129   5.865   4.029   6.185
 2744SOL     OW 9130   5.200   6.783   0.957
 2744SOL    HW1 9131   5.224   6.819   1.047
 2744SOL    HW2 9132   5.275   6.728   0.922
 2745SOL     OW 9133   3.134   5.601   2.177
 2745SOL    HW1 9134   3.176   5.626   2.264
 2745SOL    HW2 9135   3.047   5.553   2.195
 2746SOL     OW 9136   1.304   2.433   6.864
 2746SOL    HW1 9137   1.269   2.515   6.910
 2746SOL    HW2 9138   1.373   2.460   6.797
 2747SOL     OW 9139   4.802   6.249   3.888
 2747SOL    HW1 9140   4.813   6.344   3.917
 2747SOL    HW2 9141   4.851   6.236   3.801
 2748SOL     OW 9142   5.488   1.305   4.433
 2748SOL    HW1 9143   5.552   1.262   4.369
 2748SOL    HW2 9144   5.495   1.260   4.522
 2749SOL     OW 9145   5.672   5.152   3.165
 2749SOL    HW1 9146   5.660   5.160   3.066
 2749SOL    HW2 9147   5.766   5.124   3.185
 2750SOL     OW 9148   0.907   6.937   0.452
 2750SOL    HW1 9149   0.912   6.839   0.433
 2750SOL    HW2 9150   0.910   6.987   0.366
 2751SOL     OW 9151   1.211   0.400   6.657
 2751SOL    HW1 9152   1.299   0.360   6.682
 2751SOL    HW2 9153   1.141   0.329   6.658
 2752SOL     OW 9154   0.285   6.365   6.259
 2752SOL    HW1 9155   0.355   6.298   6.282
 2752SOL    HW2 9156   0.325   6.456   6.256
 2753SOL     OW 9157   3.565   5.342   4.488
 2753SOL    HW1 9158   3.592   5.384   4.401
 2753SOL    HW2 9159   3.540   5.246   4.472
 2754SOL     OW 9160   1.021   5.279   4.165
 2754SOL    HW1 9161   1.114   5.310   4.184
 2754SOL    HW2 9162   0.976   5.257   4.252
 2755SOL     OW 9163   4.604   6.438   2.806
 2755SOL    HW1 9164   4.622   6.504   2.879
 2755SOL    HW2 9165   4.508   6.412   2.808
 2756SOL     OW 9166   0.132   3.112   5.042
 2756SOL    HW1 9167   0.136   3.093   5.141
 2756SOL    HW2 9168   0.133   3.026   4.992
 2757SOL     OW 9169   5.105   4.093   5.604
 2757SOL    HW1 9170   5.091   4.186   5.637
 2757SOL    HW2 9171   5.033   4.034   5.637
 2758SOL     OW 9172   0.473   6.614   1.780
 2758SOL    HW1 9173   0.547   6.594   1.716
 2758SOL    HW2 9174   0.408   6.539   1.781
 2759SOL     OW 9175   4.023   3.845   4.731
 2759SOL    HW1 9176   4.105   3.797   4.697
 2759SOL    HW2 9177   4.027   3.850   4.831
 2760SOL     OW 9178   4.984   5.117   2.537
 2760SOL    HW1 9179   4.999   5.168   2.622
 2760SOL    HW2 9180   4.906   5.055   2.550
 2761SOL     OW 9181   1.766   3.634   3.650
 2761SOL    HW1 9182   1.726   3.708   3.596
 2761SOL    HW2 9183   1.806   3.671   3.733
 2762SOL     OW 9184   4.315   1.336   2.015
 2762SOL    HW1 9185   4.274   1.394   2.085
 2762SOL    HW2 9186   4.398   1.294   2.051
 2763SOL     OW 9187   5.563   1.017   3.977
 2763SOL    HW1 9188   5.657   1.033   4.007
 2763SOL    HW2 9189   5.517   0.957   4.042
 2764SOL     OW 9190   0.043   1.997   2.702
 2764SOL    HW1 9191   0.013   2.028   2.612
 2764SOL    HW2 9192   6.985   2.003   2.767
 2765SOL     OW 9193   0.220   6.603   6.863
 2765SOL    HW1 9194   0.218   6.567   6.957
 2765SOL    HW2 9195   0.146   6.561   6.810
 2766SOL     OW 9196   5.138   0.131   6.828
 2766SOL    HW1 9197   5.104   0.204   6.769
 2766SOL    HW2 9198   5.238   0.127   6.821
 2767SOL     OW 9199   0.628   6.144   6.110
 2767SOL    HW1 9200   0.656   6.069   6.169
 2767SOL    HW2 9201   0.590   6.218   6.165
 2768SOL     OW 9202   3.998   0.228   1.240
 2768SOL    HW1 9203   4.067   0.186   1.300
 2768SOL    HW2 9204   3.917   0.250   1.294
 2769SOL     OW 9205   0.711   5.010   6.080
 2769SOL    HW1 9206   0.677   5.056   6.162
 2769SOL    HW2 9207   0.711   4.911   6.094
 2770SOL     OW 9208   2.301   6.597   0.597
 2770SOL    HW1 9209   2.364   6.520   0.585
 2770SOL    HW2 9210   2.320   6.642   0.685
 2771SOL     OW 9211   3.940   6.176   5.533
 2771SOL    HW1 9212   3.869   6.203   5.599
 2771SOL    HW2 9213   4.011   6.124   5.580
 2772SOL     OW 9214   6.199   1.746   2.813
 2772SOL    HW1 9215   6.207   1.668   2.750
 2772SOL    HW2 9216   6.118   1.799   2.788
 2773SOL     OW 9217   5.354   1.755   6.069
 2773SOL    HW1 9218   5.354   1.725   6.164
 2773SOL    HW2 9219   5.260   1.767   6.037
 2774SOL     OW 9220   6.307   6.934   3.921
 2774SOL    HW1 9221   6.280   6.896   4.009
 2774SOL    HW2 9222   6.235   6.915   3.853
 2775SOL     OW 9223   0.024   2.287   4.742
 2775SOL    HW1 9224   0.077   2.372   4.747
 2775SOL    HW2 9225   7.013   2.271   4.648
 2776SOL     OW 9226   4.917   3.804   5.999
 2776SOL    HW1 9227   4.901   3.810   6.098
 2776SOL    HW2 9228   4.901   3.710   5.969
 2777SOL     OW 9229   1.664   1.528   0.591
 2777SOL    HW1 9230   1.698   1.480   0.511
 2777SOL    HW2 9231   1.738   1.580   0.633
 2778SOL     OW 9232   2.637   6.208   5.950
 2778SOL    HW1 9233   2.695   6.167   6.020
 2778SOL    HW2 9234   2.652   6.162   5.862
 2779SOL     OW 9235   5.333   1.185   3.734
 2779SOL    HW1 9236   5.271   1.244   3.683
 2779SOL    HW2 9237   5.428   1.212   3.715
 2780SOL     OW 9238   0.809   0.413   5.335
 2780SOL    HW1 9239   0.767   0.474   5.267
 2780SOL    HW2 9240   0.742   0.392   5.406
 2781SOL     OW 9241   6.743   0.085   2.824
 2781SOL    HW1 9242   6.724   0.141   2.905
 2781SOL    HW2 9243   6.836   0.103   2.792
 2782SOL     OW 9244   5.448   6.537   5.073
 2782SOL    HW1 9245   5.547   6.523   5.069
 2782SOL    HW2 9246   5.419   6.588   4.992
 2783SOL     OW 9247   6.750   2.427   1.618
 2783SOL    HW1 9248   6.740   2.434   1.518
 2783SOL    HW2 9249   6.805   2.503   1.652
 2784SOL     OW 9250   1.139   2.133   2.047
 2784SOL    HW1 9251   1.196   2.123   2.129
 2784SOL    HW2 9252   1.050   2.090   2.063
 2785SOL     OW 9253   5.256   3.436   3.773
 2785SOL    HW1 9254   5.197   3.436   3.854
 2785SOL    HW2 9255   5.287   3.343   3.754
 2786SOL     OW 9256   0.427   5.800   0.811
 2786SOL    HW1 9257   0.349   5.835   0.863
 2786SOL    HW2 9258   0.433   5.701   0.823
 2787SOL     OW 9259   0.408   6.611   6.148
 2787SOL    HW1 9260   0.501   6.628   6.181
 2787SOL    HW2 9261   0.409   6.537   6.081
 2788SOL     OW 9262   3.067   6.675   0.026
 2788SOL    HW1 9263   3.009   6.636   6.973
 2788SOL    HW2 9264   3.015   6.687   0.110
 2789SOL     OW 9265   2.139   2.029   3.477
 2789SOL    HW1 9266   2.050   2.059   3.442
 2789SOL    HW2 9267   2.177   2.101   3.534
 2790SOL     OW 9268   0.883   4.777   1.416
 2790SOL    HW1 9269   0.971   4.770   1.370
 2790SOL    HW2 9270   0.814   4.729   1.361
 2791SOL     OW 9271   0.227   3.658   5.562
 2791SOL    HW1 9272   0.230   3.674   5.661
 2791SOL    HW2 9273   0.140   3.614   5.538
 2792SOL     OW 9274   2.897   2.470   0.220
 2792SOL    HW1 9275   2.973   2.504   0.165
 2792SOL    HW2 9276   2.848   2.547   0.261
 2793SOL     OW 9277   4.461   3.666   6.325
 2793SOL    HW1 9278   4.393   3.645   6.395
 2793SOL    HW2 9279   4.456   3.598   6.252
 2794SOL     OW 9280   1.325   2.081   6.605
 2794SOL    HW1 9281   1.292   2.153   6.666
 2794SOL    HW2 9282   1.374   2.012   6.658
 2795SOL     OW 9283   1.507   0.059   0.547
 2795SOL    HW1 9284   1.492   6.999   0.608
 2795SOL    HW2 9285   1.522   0.141   0.602
 2796SOL     OW 9286   3.159   5.790   0.099
 2796SOL    HW1 9287   3.073   5.830   0.068
 2796SOL    HW2 9288   3.236   5.841   0.061
 2797SOL     OW 9289   4.893   3.931   4.734
 2797SOL    HW1 9290   4.884   3.955   4.831
 2797SOL    HW2 9291   4.918   3.835   4.725
 2798SOL     OW 9292   5.458   2.809   1.578
 2798SOL    HW1 9293   5.473   2.833   1.674
 2798SOL    HW2 9294   5.457   2.709   1.568
 2799SOL     OW 9295   3.368   0.268   4.601
 2799SOL    HW1 9296   3.367   0.203   4.677
 2799SOL    HW2 9297   3.461   0.302   4.587
 2800SOL     OW 9298   4.657   1.050   0.236
 2800SOL    HW1 9299   4.612   0.984   0.296
 2800SOL    HW2 9300   4.706   1.118   0.292
 2801SOL     OW 9301   6.970   4.339   3.230
 2801SOL    HW1 9302   7.018   4.278   3.166
 2801SOL    HW2 9303   6.882   4.299   3.254
 2802SOL     OW 9304   1.933   4.617   4.095
 2802SOL    HW1 9305   1.872   4.542   4.120
 2802SOL    HW2 9306   2.008   4.623   4.162
 2803SOL     OW 9307   3.190   2.806   6.652
 2803SOL    HW1 9308   3.195   2.806   6.552
 2803SOL    HW2 9309   3.158   2.895   6.684
 2804SOL     OW 9310   5.574   2.311   3.651
 2804SOL    HW1 9311   5.484   2.275   3.627
 2804SOL    HW2 9312   5.564   2.382   3.721
 2805SOL     OW 9313   4.168   5.638   0.445
 2805SOL    HW1 9314   4.127   5.696   0.515
 2805SOL    HW2 9315   4.117   5.648   0.359
 2806SOL     OW 9316   0.579   2.814   5.085
 2806SOL    HW1 9317   0.491   2.791   5.043
 2806SOL    HW2 9318   0.651   2.760   5.041
 2807SOL     OW 9319   4.613   1.490   3.908
 2807SOL    HW1 9320   4.559   1.417   3.951
 2807SOL    HW2 9321   4.580   1.579   3.940
 2808SOL     OW 9322   1.084   5.976   6.705
 2808SOL    HW1 9323   1.000   5.957   6.756
 2808SOL    HW2 9324   1.163   5.957   6.763
 2809SOL     OW 9325   1.061   6.332   0.840
 2809SOL    HW1 9326   1.067   6.232   0.832
 2809SOL    HW2 9327   1.122   6.363   0.913
 2810SOL     OW 9328   6.912   6.446   2.083
 2810SOL    HW1 9329   7.005   6.416   2.058
 2810SOL    HW2 9330   6.854   6.443   2.002
 2811SOL     OW 9331   0.785   0.008   0.784
 2811SOL    HW1 9332   0.829   6.939   0.760
 2811SOL    HW2 9333   0.731   0.040   0.706
 2812SOL     OW 9334   1.738   0.755   1.368
 2812SOL    HW1 9335   1.810   0.689   1.390
 2812SOL    HW2 9336   1.649   0.716   1.391
 2813SOL     OW 9337   6.035   2.214   1.463
 2813SOL    HW1 9338   6.127   2.214   1.423
 2813SOL    HW2 9339   6.018   2.302   1.507
 2814SOL     OW 9340   2.210   4.175   6.659
 2814SOL    HW1 9341   2.203   4.263   6.706
 2814SOL    HW2 9342   2.254   4.108   6.719
 2815SOL     OW 9343   6.119   6.116   4.727
 2815SOL    HW1 9344   6.134   6.107   4.825
 2815SOL    HW2 9345   6.070   6.201   4.708
 2816SOL     OW 9346   0.864   5.118   5.147
 2816SOL    HW1 9347   0.962   5.136   5.158
 2816SOL    HW2 9348   0.846   5.021   5.163
 2817SOL     OW 9349   3.018   0.738   1.478
 2817SOL    HW1 9350   3.045   0.833   1.489
 2817SOL    HW2 9351   2.986   0.722   1.385
 2818SOL     OW 9352   2.099   0.845   0.487
 2818SOL    HW1 9353   2.016   0.831   0.434
 2818SOL    HW2 9354   2.169   0.779   0.458
 2819SOL     OW 9355   5.996   0.404   6.666
 2819SOL    HW1 9356   5.943   0.463   6.727
 2819SOL    HW2 9357   5.944   0.386   6.583
 2820SOL     OW 9358   1.706   1.458   0.341
 2820SOL    HW1 9359   1.778   1.390   0.328
 2820SOL    HW2 9360   1.721   1.535   0.280
 2821SOL     OW 9361   3.588   2.187   5.938
 2821SOL    HW1 9362   3.506   2.157   5.986
 2821SOL    HW2 9363   3.666   2.133   5.969
 2822SOL     OW 9364   4.298   3.027   1.448
 2822SOL    HW1 9365   4.384   3.033   1.498
 2822SOL    HW2 9366   4.222   3.051   1.508
 2823SOL     OW 9367   5.434   4.116   2.975
 2823SOL    HW1 9368   5.470   4.028   2.944
 2823SOL    HW2 9369   5.353   4.139   2.922
 2824SOL     OW 9370   0.472   4.238   5.372
 2824SOL    HW1 9371   0.434   4.331   5.363
 2824SOL    HW2 9372   0.571   4.241   5.360
 2825SOL     OW 9373   5.005   2.639   5.681
 2825SOL    HW1 9374   5.081   2.686   5.725
 2825SOL    HW2 9375   5.029   2.617   5.587
 2826SOL     OW 9376   3.173   3.150   6.625
 2826SOL    HW1 9377   3.157   3.186   6.533
 2826SOL    HW2 9378   3.265   3.111   6.630
 2827SOL     OW 9379   6.706   1.714   0.286
 2827SOL    HW1 9380   6.618   1.666   0.291
 2827SOL    HW2 9381   6.701   1.785   0.216
 2828SOL     OW 9382   1.894   4.150   0.023
 2828SOL    HW1 9383   1.801   4.132   0.053
 2828SOL    HW2 9384   1.893   4.218   6.968
 2829SOL     OW 9385   3.308   4.363   1.151
 2829SOL    HW1 9386   3.298   4.327   1.059
 2829SOL    HW2 9387   3.315   4.463   1.148
 2830SOL     OW 9388   2.832   5.655   4.655
 2830SOL    HW1 9389   2.891   5.614   4.725
 2830SOL    HW2 9390   2.873   5.642   4.565
 2831SOL     OW 9391   5.713   1.521   1.886
 2831SOL    HW1 9392   5.666   1.498   1.972
 2831SOL    HW2 9393   5.661   1.485   1.809
 2832SOL     OW 9394   1.537   3.856   1.545
 2832SOL    HW1 9395   1.587   3.928   1.592
 2832SOL    HW2 9396   1.508   3.888   1.454
 2833SOL     OW 9397   6.293   1.918   3.537
 2833SOL    HW1 9398   6.222   1.947   3.472
 2833SOL    HW2 9399   6.263   1.936   3.630
 2834SOL     OW 9400   2.932   0.321   4.232
 2834SOL    HW1 9401   2.941   0.399   4.294
 2834SOL    HW2 9402   2.923   0.237   4.284
 2835SOL     OW 9403   6.525   1.486   0.563
 2835SOL    HW1 9404   6.517   1.389   0.583
 2835SOL    HW2 9405   6.620   1.515   0.572
 2836SOL     OW 9406   2.977   6.413   2.113
 2836SOL    HW1 9407   2.968   6.455   2.023
 2836SOL    HW2 9408   3.059   6.354   2.115
 2837SOL     OW 9409   4.995   4.069   3.111
 2837SOL    HW1 9410   4.902   4.035   3.125
 2837SOL    HW2 9411   5.048   4.057   3.194
 2838SOL     OW 9412   6.745   4.416   6.072
 2838SOL    HW1 9413   6.833   4.461   6.085
 2838SOL    HW2 9414   6.691   4.468   6.006
 2839SOL     OW 9415   5.320   2.683   6.428
 2839SOL    HW1 9416   5.356   2.600   6.386
 2839SOL    HW2 9417   5.221   2.685   6.419
 2840SOL     OW 9418   6.387   5.682   5.185
 2840SOL    HW1 9419   6.332   5.640   5.257
 2840SOL    HW2 9420   6.337   5.759   5.145
 2841SOL     OW 9421   5.691   3.444   2.913
 2841SOL    HW1 9422   5.663   3.470   3.005
 2841SOL    HW2 9423   5.766   3.502   2.883
 2842SOL     OW 9424   0.708   6.139   3.547
 2842SOL    HW1 9425   0.766   6.184   3.479
 2842SOL    HW2 9426   0.644   6.205   3.585
 2843SOL     OW 9427   0.748   2.524   4.101
 2843SOL    HW1 9428   0.690   2.583   4.157
 2843SOL    HW2 9429   0.741   2.552   4.005
 2844SOL     OW 9430   5.787   4.210   0.192
 2844SOL    HW1 9431   5.733   4.217   0.276
 2844SOL    HW2 9432   5.751   4.136   0.136
 2845SOL     OW 9433   3.725   1.659   1.003
 2845SOL    HW1 9434   3.781   1.742   1.008
 2845SOL    HW2 9435   3.735   1.607   1.088
 2846SOL     OW 9436   5.148   0.513   6.159
 2846SOL    HW1 9437   5.101   0.438   6.113
 2846SOL    HW2 9438   5.208   0.477   6.230
 2847SOL     OW 9439   5.739   4.633   2.609
 2847SOL    HW1 9440   5.830   4.610   2.576
 2847SOL    HW2 9441   5.737   4.729   2.637
 2848SOL     OW 9442   0.307   3.207   0.352
 2848SOL    HW1 9443   0.369   3.212   0.273
 2848SOL    HW2 9444   0.332   3.279   0.417
 2849SOL     OW 9445   5.386   0.933   0.472
 2849SOL    HW1 9446   5.415   1.014   0.421
 2849SOL    HW2 9447   5.321   0.961   0.544
 2850SOL     OW 9448   6.811   1.609   0.654
 2850SOL    HW1 9449   6.814   1.705   0.628
 2850SOL    HW2 9450   6.901   1.579   0.686
 2851SOL     OW 9451   3.422   3.360   2.387
 2851SOL    HW1 9452   3.388   3.295   2.320
 2851SOL    HW2 9453   3.506   3.324   2.429
 2852SOL     OW 9454   0.829   4.885   5.326
 2852SOL    HW1 9455   0.825   4.808   5.262
 2852SOL    HW2 9456   0.764   4.870   5.400
 2853SOL     OW 9457   0.197   4.920   5.685
 2853SOL    HW1 9458   0.225   4.907   5.590
 2853SOL    HW2 9459   0.182   5.018   5.702
 2854SOL     OW 9460   2.984   0.492   6.416
 2854SOL    HW1 9461   2.958   0.574   6.365
 2854SOL    HW2 9462   3.007   0.419   6.353
 2855SOL     OW 9463   2.662   2.428   4.343
 2855SOL    HW1 9464   2.715   2.421   4.427
 2855SOL    HW2 9465   2.725   2.439   4.265
 2856SOL     OW 9466   1.461   5.440   5.046
 2856SOL    HW1 9467   1.529   5.390   4.992
 2856SOL    HW2 9468   1.459   5.404   5.139
 2857SOL     OW 9469   0.949   4.259   0.023
 2857SOL    HW1 9470   0.943   4.281   6.944
 2857SOL    HW2 9471   0.983   4.339   0.073
 2858SOL     OW 9472   5.508   4.591   4.069
 2858SOL    HW1 9473   5.439   4.630   4.130
 2858SOL    HW2 9474   5.486   4.495   4.050
 2859SOL     OW 9475   0.382   5.295   2.114
 2859SOL    HW1 9476   0.290   5.335   2.121
 2859SOL    HW2 9477   0.434   5.345   2.044
 2860SOL     OW 9478   1.277   6.382   2.783
 2860SOL    HW1 9479   1.232   6.469   2.764
 2860SOL    HW2 9480   1.271   6.362   2.881
 2861SOL     OW 9481   5.729   3.280   5.415
 2861SOL    HW1 9482   5.816   3.330   5.419
 2861SOL    HW2 9483   5.733   3.202   5.478
 2862SOL     OW 9484   4.610   1.036   0.673
 2862SOL    HW1 9485   4.705   1.066   0.683
 2862SOL    HW2 9486   4.578   1.058   0.581
 2863SOL     OW 9487   5.456   1.296   6.491
 2863SOL    HW1 9488   5.395   1.242   6.549
 2863SOL    HW2 9489   5.442   1.393   6.509
 2864SOL     OW 9490   4.113   4.625   1.067
 2864SOL    HW1 9491   4.015   4.629   1.046
 2864SOL    HW2 9492   4.147   4.533   1.048
 2865SOL     OW 9493   5.721   4.487   6.189
 2865SOL    HW1 9494   5.655   4.479   6.114
 2865SOL    HW2 9495   5.750   4.396   6.218
 2866SOL     OW 9496   4.548   5.770   1.453
 2866SOL    HW1 9497   4.500   5.684   1.439
 2866SOL    HW2 9498   4.595   5.796   1.369
 2867SOL     OW 9499   0.627   5.821   3.509
 2867SOL    HW1 9500   0.559   5.752   3.535
 2867SOL    HW2 9501   0.642   5.883   3.586
 2868SOL     OW 9502   6.647   0.242   5.430
 2868SOL    HW1 9503   6.628   0.319   5.370
 2868SOL    HW2 9504   6.745   0.220   5.426
 2869SOL     OW 9505   5.796   4.354   5.128
 2869SOL    HW1 9506   5.839   4.312   5.049
 2869SOL    HW2 9507   5.752   4.439   5.100
 2870SOL     OW 9508   0.554   1.093   1.180
 2870SOL    HW1 9509   0.641   1.142   1.177
 2870SOL    HW2 9510   0.479   1.158   1.174
 2871SOL     OW 9511   4.723   1.195   3.043
 2871SOL    HW1 9512   4.635   1.160   3.011
 2871SOL    HW2 9513   4.739   1.167   3.137
 2872SOL     OW 9514   3.518   1.252   2.357
 2872SOL    HW1 9515   3.432   1.252   2.408
 2872SOL    HW2 9516   3.567   1.166   2.373
 2873SOL     OW 9517   6.992   0.198   2.809
 2873SOL    HW1 9518   0.029   0.194   2.892
 2873SOL    HW2 9519   0.031   0.222   2.731
 2874SOL     OW 9520   1.372   0.983   1.910
 2874SOL    HW1 9521   1.466   1.003   1.883
 2874SOL    HW2 9522   1.356   1.016   2.003
 2875SOL     OW 9523   3.197   0.564   2.073
 2875SOL    HW1 9524   3.212   0.572   1.974
 2875SOL    HW2 9525   3.285   0.553   2.119
 2876SOL     OW 9526   1.343   0.056   1.251
 2876SOL    HW1 9527   1.302   0.115   1.182
 2876SOL    HW2 9528   1.332   0.098   1.341
 2877SOL     OW 9529   0.853   3.304   6.619
 2877SOL    HW1 9530   0.914   3.382   6.606
 2877SOL    HW2 9531   0.861   3.242   6.541
 2878SOL     OW 9532   3.842   3.528   4.709
 2878SOL    HW1 9533   3.785   3.607   4.689
 2878SOL    HW2 9534   3.931   3.558   4.742
 2879SOL     OW 9535   6.248   6.232   0.327
 2879SOL    HW1 9536   6.296   6.177   0.395
 2879SOL    HW2 9537   6.305   6.244   0.246
 2880SOL     OW 9538   1.478   1.698   2.842
 2880SOL    HW1 9539   1.398   1.660   2.887
 2880SOL    HW2 9540   1.450   1.743   2.757
 2881SOL     OW 9541   5.579   5.299   0.283
 2881SOL    HW1 9542   5.600   5.213   0.329
 2881SOL    HW2 9543   5.516   5.282   0.207
 2882SOL     OW 9544   4.736   6.457   0.188
 2882SOL    HW1 9545   4.757   6.548   0.153
 2882SOL    HW2 9546   4.771   6.388   0.124
 2883SOL     OW 9547   5.230   6.200   3.196
 2883SOL    HW1 9548   5.154   6.148   3.156
 2883SOL    HW2 9549   5.280   6.247   3.123
 2884SOL     OW 9550   6.392   5.776   3.355
 2884SOL    HW1 9551   6.352   5.809   3.440
 2884SOL    HW2 9552   6.319   5.752   3.290
 2885SOL     OW 9553   0.492   4.218   3.414
 2885SOL    HW1 9554   0.517   4.220   3.511
 2885SOL    HW2 9555   0.575   4.217   3.359
 2886SOL     OW 9556   1.800   4.400   5.263
 2886SOL    HW1 9557   1.757   4.388   5.353
 2886SOL    HW2 9558   1.853   4.319   5.240
 2887SOL     OW 9559   0.071   4.724   2.767
 2887SOL    HW1 9560   0.167   4.716   2.793
 2887SOL    HW2 9561   0.016   4.744   2.848
 2888SOL     OW 9562   4.439   5.936   6.778
 2888SOL    HW1 9563   4.442   6.013   6.714
 2888SOL    HW2 9564   4.476   5.966   6.866
 2889SOL     OW 9565   3.976   5.126   3.766
 2889SOL    HW1 9566   3.879   5.108   3.774
 2889SOL    HW2 9567   4.003   5.126   3.669
 2890SOL     OW 9568   1.325   1.705   1.082
 2890SOL    HW1 9569   1.340   1.717   1.180
 2890SOL    HW2 9570   1.316   1.608   1.062
 2891SOL     OW 9571   1.376   1.620   5.355
 2891SOL    HW1 9572   1.284   1.645   5.387
 2891SOL    HW2 9573   1.426   1.703   5.330
 2892SOL     OW 9574   5.740   3.658   2.347
 2892SOL    HW1 9575   5.730   3.559   2.350
 2892SOL    HW2 9576   5.657   3.701   2.383
 2893SOL     OW 9577   6.698   5.723   5.148
 2893SOL    HW1 9578   6.599   5.729   5.135
 2893SOL    HW2 9579   6.745   5.746   5.063
 2894SOL     OW 9580   1.693   5.529   1.435
 2894SOL    HW1 9581   1.733   5.509   1.346
 2894SOL    HW2 9582   1.606   5.578   1.422
 2895SOL     OW 9583   4.615   6.358   6.007
 2895SOL    HW1 9584   4.634   6.398   5.917
 2895SOL    HW2 9585   4.621   6.429   6.077
 2896SOL     OW 9586   6.909   0.021   6.213
 2896SOL    HW1 9587   6.865   6.981   6.281
 2896SOL    HW2 9588   6.896   6.999   6.122
 2897SOL     OW 9589   2.753   6.493   3.828
 2897SOL    HW1 9590   2.806   6.572   3.798
 2897SOL    HW2 9591   2.732   6.435   3.749
 2898SOL     OW 9592   5.474   2.544   2.450
 2898SOL    HW1 9593   5.427   2.457   2.467
 2898SOL    HW2 9594   5.447   2.580   2.361
 2899SOL     OW 9595   6.391   2.718   0.998
 2899SOL    HW1 9596   6.321   2.703   1.068
 2899SOL    HW2 9597   6.382   2.650   0.926
 2900SOL     OW 9598   3.211   3.110   4.985
 2900SOL    HW1 9599   3.216   3.042   4.911
 2900SOL    HW2 9600   3.298   3.159   4.991
 2901SOL     OW 9601   1.369   3.301   1.298
 2901SOL    HW1 9602   1.334   3.370   1.235
 2901SOL    HW2 9603   1.460   3.272   1.268
 2902SOL     OW 9604   4.930   6.086   3.719
 2902SOL    HW1 9605   4.874   6.007   3.693
 2902SOL    HW2 9606   5.016   6.054   3.759
 2903SOL     OW 9607   0.983   5.419   1.764
 2903SOL    HW1 9608   1.069   5.402   1.812
 2903SOL    HW2 9609   0.932   5.333   1.755
 2904SOL     OW 9610   2.853   5.106   4.069
 2904SOL    HW1 9611   2.810   5.097   4.158
 2904SOL    HW2 9612   2.855   5.017   4.024
 2905SOL     OW 9613   1.122   4.437   1.219
 2905SOL    HW1 9614   1.102   4.341   1.235
 2905SOL    HW2 9615   1.179   4.446   1.137
 2906SOL     OW 9616   6.350   6.152   6.218
 2906SOL    HW1 9617   6.376   6.161   6.122
 2906SOL    HW2 9618   6.393   6.224   6.272
 2907SOL     OW 9619   6.973   1.503   6.031
 2907SOL    HW1 9620   6.998   1.584   5.977
 2907SOL    HW2 9621   6.913   1.444   5.977
 2908SOL     OW 9622   3.523   5.860   3.717
 2908SOL    HW1 9623   3.609   5.867   3.666
 2908SOL    HW2 9624   3.519   5.772   3.764
 2909SOL     OW 9625   0.206   6.419   0.947
 2909SOL    HW1 9626   0.201   6.383   0.853
 2909SOL    HW2 9627   0.161   6.508   0.950
 2910SOL     OW 9628   0.985   0.184   4.410
 2910SOL    HW1 9629   0.917   0.137   4.354
 2910SOL    HW2 9630   1.059   0.120   4.433
 2911SOL     OW 9631   6.886   3.406   3.657
 2911SOL    HW1 9632   6.940   3.457   3.724
 2911SOL    HW2 9633   6.907   3.309   3.663
 2912SOL     OW 9634   0.021   1.610   3.186
 2912SOL    HW1 9635   6.976   1.602   3.263
 2912SOL    HW2 9636   6.994   1.579   3.102
 2913SOL     OW 9637   0.964   6.545   4.209
 2913SOL    HW1 9638   0.983   6.643   4.213
 2913SOL    HW2 9639   0.970   6.506   4.302
 2914SOL     OW 9640   3.591   4.503   0.928
 2914SOL    HW1 9641   3.569   4.430   0.863
 2914SOL    HW2 9642   3.586   4.467   1.021
 2915SOL     OW 9643   2.008   0.119   3.643
 2915SOL    HW1 9644   2.106   0.097   3.643
 2915SOL    HW2 9645   1.966   0.084   3.560
 2916SOL     OW 9646   0.679   5.956   6.292
 2916SOL    HW1 9647   0.743   5.887   6.327
 2916SOL    HW2 9648   0.665   6.026   6.361
 2917SOL     OW 9649   1.628   1.601   3.910
 2917SOL    HW1 9650   1.679   1.524   3.871
 2917SOL    HW2 9651   1.690   1.660   3.961
 2918SOL     OW 9652   4.800   1.303   0.941
 2918SOL    HW1 9653   4.865   1.306   1.017
 2918SOL    HW2 9654   4.793   1.393   0.899
 2919SOL     OW 9655   0.807   5.623   5.007
 2919SOL    HW1 9656   0.832   5.573   5.090
 2919SOL    HW2 9657   0.808   5.721   5.025
 2920SOL     OW 9658   2.812   2.266   1.704
 2920SOL    HW1 9659   2.863   2.181   1.694
 2920SOL    HW2 9660   2.863   2.330   1.762
 2921SOL     OW 9661   0.132   5.402   3.752
 2921SOL    HW1 9662   0.065   5.463   3.708
 2921SOL    HW2 9663   0.209   5.387   3.689
 2922SOL     OW 9664   3.959   4.813   3.661
 2922SOL    HW1 9665   3.890   4.860   3.606
 2922SOL    HW2 9666   4.023   4.766   3.600
 2923SOL     OW 9667   1.242   4.577   3.646
 2923SOL    HW1 9668   1.335   4.613   3.645
 2923SOL    HW2 9669   1.219   4.546   3.738
 2924SOL     OW 9670   4.785   1.500   0.083
 2924SOL    HW1 9671   4.784   1.483   7.003
 2924SOL    HW2 9672   4.722   1.575   0.105
 2925SOL     OW 9673   5.341   6.696   4.831
 2925SOL    HW1 9674   5.404   6.766   4.863
 2925SOL    HW2 9675   5.298   6.726   4.745
 2926SOL     OW 9676   0.164   2.493   5.066
 2926SOL    HW1 9677   0.130   2.479   4.974
 2926SOL    HW2 9678   0.232   2.566   5.066
 2927SOL     OW 9679   0.807   1.869   2.727
 2927SOL    HW1 9680   0.878   1.901   2.665
 2927SOL    HW2 9681   0.798   1.770   2.720
 2928SOL     OW 9682   4.835   4.817   0.359
 2928SOL    HW1 9683   4.930   4.848   0.359
 2928SOL    HW2 9684   4.789   4.847   0.276
 2929SOL     OW 9685   1.734   1.813   2.812
 2929SOL    HW1 9686   1.652   1.758   2.833
 2929SOL    HW2 9687   1.797   1.759   2.756
 2930SOL     OW 9688   0.694   3.017   4.220
 2930SOL    HW1 9689   0.607   2.968   4.214
 2930SOL    HW2 9690   0.721   3.024   4.316
 2931SOL     OW 9691   5.796   4.046   5.576
 2931SOL    HW1 9692   5.891   4.072   5.559
 2931SOL    HW2 9693   5.782   4.033   5.674
 2932SOL     OW 9694   0.092   6.849   0.565
 2932SOL    HW1 9695   0.071   6.845   0.467
 2932SOL    HW2 9696   0.012   6.884   0.614
 2933SOL     OW 9697   0.714   0.590   6.995
 2933SOL    HW1 9698   0.726   0.503   0.025
 2933SOL    HW2 9699   0.627   0.631   0.004
 2934SOL     OW 9700   5.830   5.174   2.681
 2934SOL    HW1 9701   5.859   5.079   2.672
 2934SOL    HW2 9702   5.752   5.179   2.744
 2935SOL     OW 9703   0.673   4.480   6.194
 2935SOL    HW1 9704   0.704   4.434   6.111
 2935SOL    HW2 9705   0.731   4.560   6.211
 2936SOL     OW 9706   4.440   6.408   2.546
 2936SOL    HW1 9707   4.506   6.363   2.605
 2936SOL    HW2 9708   4.415   6.347   2.471
 2937SOL     OW 9709   6.402   3.390   3.260
 2937SOL    HW1 9710   6.328   3.410   3.323
 2937SOL    HW2 9711   6.379   3.310   3.204
 2938SOL     OW 9712   0.435   5.444   1.611
 2938SOL    HW1 9713   0.481   5.526   1.647
 2938SOL    HW2 9714   0.500   5.389   1.560
 2939SOL     OW 9715   5.461   6.034   2.075
 2939SOL    HW1 9716   5.528   6.099   2.040
 2939SOL    HW2 9717   5.481   6.014   2.171
 2940SOL     OW 9718   4.703   5.360   3.325
 2940SOL    HW1 9719   4.644   5.434   3.293
 2940SOL    HW2 9720   4.684   5.342   3.422
 2941SOL     OW 9721   3.300   5.156   2.461
 2941SOL    HW1 9722   3.213   5.118   2.489
 2941SOL    HW2 9723   3.299   5.175   2.363
 2942SOL     OW 9724   2.800   1.847   0.737
 2942SOL    HW1 9725   2.751   1.931   0.760
 2942SOL    HW2 9726   2.735   1.771   0.729
 2943SOL     OW 9727   0.105   4.585   3.785
 2943SOL    HW1 9728   0.036   4.513   3.781
 2943SOL    HW2 9729   0.061   4.674   3.782
 2944SOL     OW 9730   0.748   5.306   3.486
 2944SOL    HW1 9731   0.717   5.374   3.419
 2944SOL    HW2 9732   0.674   5.243   3.507
 2945SOL     OW 9733   5.677   3.530   0.571
 2945SOL    HW1 9734   5.652   3.501   0.478
 2945SOL    HW2 9735   5.608   3.497   0.635
 2946SOL     OW 9736   3.179   4.086   4.410
 2946SOL    HW1 9737   3.155   4.182   4.423
 2946SOL    HW2 9738   3.114   4.028   4.461
 2947SOL     OW 9739   6.661   6.676   0.616
 2947SOL    HW1 9740   6.583   6.619   0.591
 2947SOL    HW2 9741   6.745   6.622   0.610
 2948SOL     OW 9742   6.095   4.524   0.866
 2948SOL    HW1 9743   6.141   4.484   0.944
 2948SOL    HW2 9744   6.163   4.554   0.798
 2949SOL     OW 9745   1.761   5.940   1.045
 2949SOL    HW1 9746   1.759   6.040   1.045
 2949SOL    HW2 9747   1.715   5.905   0.963
 2950SOL     OW 9748   5.714   4.753   1.966
 2950SOL    HW1 9749   5.736   4.718   1.875
 2950SOL    HW2 9750   5.671   4.680   2.020
 2951SOL     OW 9751   0.630   2.295   0.964
 2951SOL    HW1 9752   0.709   2.235   0.960
 2951SOL    HW2 9753   0.657   2.389   0.941
 2952SOL     OW 9754   0.921   1.434   4.595
 2952SOL    HW1 9755   0.894   1.488   4.675
 2952SOL    HW2 9756   0.852   1.364   4.578
 2953SOL     OW 9757   1.300   5.650   3.233
 2953SOL    HW1 9758   1.380   5.678   3.181
 2953SOL    HW2 9759   1.247   5.730   3.261
 2954SOL     OW 9760   0.492   4.642   6.055
 2954SOL    HW1 9761   0.541   4.600   6.131
 2954SOL    HW2 9762   0.417   4.582   6.026
 2955SOL     OW 9763   1.728   4.939   5.684
 2955SOL    HW1 9764   1.826   4.925   5.669
 2955SOL    HW2 9765   1.709   4.944   5.782
 2956SOL     OW 9766   6.464   3.556   4.886
 2956SOL    HW1 9767   6.377   3.541   4.933
 2956SOL    HW2 9768   6.468   3.496   4.806
 2957SOL     OW 9769   1.454   4.831   1.973
 2957SOL    HW1 9770   1.552   4.819   1.985
 2957SOL    HW2 9771   1.437   4.885   1.890
 2958SOL     OW 9772   2.073   3.772   0.961
 2958SOL    HW1 9773   1.997   3.710   0.942
 2958SOL    HW2 9774   2.078   3.789   1.060
 2959SOL     OW 9775   0.331   4.573   4.200
 2959SOL    HW1 9776   0.424   4.546   4.224
 2959SOL    HW2 9777   0.294   4.509   4.132
 2960SOL     OW 9778   4.908   6.379   0.769
 2960SOL    HW1 9779   4.924   6.476   0.786
 2960SOL    HW2 9780   4.832   6.368   0.705
 2961SOL     OW 9781   5.777   2.190   0.532
 2961SOL    HW1 9782   5.726   2.104   0.533
 2961SOL    HW2 9783   5.730   2.258   0.589
 2962SOL     OW 9784   6.561   0.491   3.748
 2962SOL    HW1 9785   6.531   0.556   3.817
 2962SOL    HW2 9786   6.482   0.450   3.704
 2963SOL     OW 9787   1.895   1.794   5.861
 2963SOL    HW1 9788   1.955   1.854   5.807
 2963SOL    HW2 9789   1.857   1.723   5.802
 2964SOL     OW 9790   0.989   1.043   5.866
 2964SOL    HW1 9791   0.911   1.090   5.825
 2964SOL    HW2 9792   0.984   0.945   5.847
 2965SOL     OW 9793   5.848   0.219   6.056
 2965SOL    HW1 9794   5.948   0.214   6.064
 2965SOL    HW2 9795   5.807   0.190   6.143
 2966SOL     OW 9796   3.343   6.860   3.228
 2966SOL    HW1 9797   3.379   6.768   3.240
 2966SOL    HW2 9798   3.303   6.892   3.314
 2967SOL     OW 9799   5.894   0.270   5.257
 2967SOL    HW1 9800   5.856   0.270   5.164
 2967SOL    HW2 9801   5.951   0.189   5.269
 2968SOL     OW 9802   1.658   4.123   1.859
 2968SOL    HW1 9803   1.569   4.122   1.904
 2968SOL    HW2 9804   1.717   4.052   1.898
 2969SOL     OW 9805   4.248   1.934   5.015
 2969SOL    HW1 9806   4.312   1.948   4.940
 2969SOL    HW2 9807   4.168   1.992   5.001
 2970SOL     OW 9808   3.282   2.380   5.988
 2970SOL    HW1 9809   3.291   2.380   5.888
 2970SOL    HW2 9810   3.352   2.439   6.027
 2971SOL     OW 9811   3.972   3.517   5.538
 2971SOL    HW1 9812   3.966   3.502   5.439
 2971SOL    HW2 9813   3.881   3.539   5.574
 2972SOL     OW 9814   0.846   5.776   6.398
 2972SOL    HW1 9815   0.893   5.693   6.370
 2972SOL    HW2 9816   0.910   5.854   6.393
 2973SOL     OW 9817   5.721   0.609   4.085
 2973SOL    HW1 9818   5.671   0.659   4.015
 2973SOL    HW2 9819   5.754   0.673   4.155
 2974SOL     OW 9820   5.098   5.456   2.269
 2974SOL    HW1 9821   5.011   5.423   2.307
 2974SOL    HW2 9822   5.165   5.382   2.273
 2975SOL     OW 9823   0.628   3.157   4.610
 2975SOL    HW1 9824   0.627   3.057   4.606
 2975SOL    HW2 9825   0.649   3.186   4.704
 2976SOL     OW 9826   4.120   0.437   1.122
 2976SOL    HW1 9827   4.159   0.411   1.034
 2976SOL    HW2 9828   4.080   0.356   1.165
 2977SOL     OW 9829   1.649   1.464   2.498
 2977SOL    HW1 9830   1.607   1.439   2.586
 2977SOL    HW2 9831   1.716   1.394   2.472
 2978SOL     OW 9832   3.287   6.016   0.295
 2978SOL    HW1 9833   3.274   5.929   0.342
 2978SOL    HW2 9834   3.315   6.086   0.361
 2979SOL     OW 9835   2.248   1.408   5.514
 2979SOL    HW1 9836   2.243   1.501   5.477
 2979SOL    HW2 9837   2.343   1.379   5.519
 2980SOL     OW 9838   2.962   3.257   3.315
 2980SOL    HW1 9839   2.906   3.296   3.242
 2980SOL    HW2 9840   3.032   3.198   3.275
 2981SOL     OW 9841   2.866   1.955   1.676
 2981SOL    HW1 9842   2.920   1.900   1.612
 2981SOL    HW2 9843   2.782   1.905   1.700
 2982SOL     OW 9844   0.758   0.124   2.655
 2982SOL    HW1 9845   0.811   0.193   2.605
 2982SOL    HW2 9846   0.746   0.154   2.750
 2983SOL     OW 9847   6.036   2.392   6.225
 2983SOL    HW1 9848   6.095   2.433   6.156
 2983SOL    HW2 9849   5.993   2.465   6.279
 2984SOL     OW 9850   0.832   6.137   1.173
 2984SOL    HW1 9851   0.899   6.188   1.227
 2984SOL    HW2 9852   0.850   6.039   1.182
 2985SOL     OW 9853   6.875   6.925   5.716
 2985SOL    HW1 9854   6.873   6.848   5.652
 2985SOL    HW2 9855   6.953   6.983   5.696
 2986SOL     OW 9856   4.033   3.773   2.753
 2986SOL    HW1 9857   4.028   3.728   2.842
 2986SOL    HW2 9858   4.064   3.708   2.684
 2987SOL     OW 9859   2.250   6.372   5.487
 2987SOL    HW1 9860   2.334   6.402   5.531
 2987SOL    HW2 9861   2.194   6.451   5.463
 2988SOL     OW 9862   0.686   1.944   6.651
 2988SOL    HW1 9863   0.614   1.894   6.603
 2988SOL    HW2 9864   0.751   1.982   6.585
 2989SOL     OW 9865   5.748   3.693   6.083
 2989SOL    HW1 9866   5.793   3.778   6.110
 2989SOL    HW2 9867   5.817   3.627   6.050
 2990SOL     OW 9868   4.927   1.650   4.952
 2990SOL    HW1 9869   4.906   1.651   4.855
 2990SOL    HW2 9870   5.024   1.670   4.966
 2991SOL     OW 9871   6.344   2.612   0.172
 2991SOL    HW1 9872   6.353   2.643   0.267
 2991SOL    HW2 9873   6.275   2.666   0.125
 2992SOL     OW 9874   2.134   4.005   4.667
 2992SOL    HW1 9875   2.035   4.014   4.650
 2992SOL    HW2 9876   2.150   3.930   4.731
 2993SOL     OW 9877   3.820   5.203   6.482
 2993SOL    HW1 9878   3.791   5.200   6.578
 2993SOL    HW2 9879   3.907   5.155   6.472
 2994SOL     OW 9880   2.704   5.018   4.556
 2994SOL    HW1 9881   2.741   4.939   4.605
 2994SOL    HW2 9882   2.609   5.033   4.582
 2995SOL     OW 9883   5.373   0.195   2.090
 2995SOL    HW1 9884   5.296   0.174   2.029
 2995SOL    HW2 9885   5.355   0.156   2.181
 2996SOL     OW 9886   0.103   0.601   3.791
 2996SOL    HW1 9887   0.049   0.548   3.726
 2996SOL    HW2 9888   0.051   0.614   3.875
 2997SOL     OW 9889   4.674   5.621   3.699
 2997SOL    HW1 9890   4.684   5.709   3.653
 2997SOL    HW2 9891   4.621   5.559   3.641
 2998SOL     OW 9892   3.016   0.185   2.006
 2998SOL    HW1 9893   3.009   0.194   1.907
 2998SOL    HW2 9894   2.932   0.143   2.041
 2999SOL     OW 9895   2.365   4.980   0.612
 2999SOL    HW1 9896   2.267   4.967   0.624
 2999SOL    HW2 9897   2.389   4.973   0.515
 3000SOL     OW 9898   1.826   4.296   6.386
 3000SOL    HW1 9899   1.921   4.271   6.405
 3000SOL    HW2 9900   1.818   4.334   6.294
 3001SOL     OW 9901   3.313   0.421   6.265
 3001SOL    HW1 9902   3.250   0.481   6.214
 3001SOL    HW2 9903   3.296   0.326   6.239
 3002SOL     OW 9904   1.348   1.923   1.583
 3002SOL    HW1 9905   1.323   1.955   1.675
 3002SOL    HW2 9906   1.269   1.934   1.522
 3003SOL     OW 9907   1.759   6.117   6.983
 3003SOL    HW1 9908   1.723   6.065   6.906
 3003SOL    HW2 9909   1.753   6.215   6.964
 3004SOL     OW 9910   3.046   0.601   4.924
 3004SOL    HW1 9911   3.046   0.600   4.824
 3004SOL    HW2 9912   2.997   0.682   4.956
 3005SOL     OW 9913   2.441   1.276   6.726
 3005SOL    HW1 9914   2.480   1.367   6.709
 3005SOL    HW2 9915   2.443   1.257   6.824
 3006SOL     OW 9916   5.999   0.901   5.846
 3006SOL    HW1 9917   6.097   0.913   5.859
 3006SOL    HW2 9918   5.953   0.989   5.859
 3007SOL     OW 9919   6.190   5.657   5.812
 3007SOL    HW1 9920   6.107   5.614   5.779
 3007SOL    HW2 9921   6.270   5.609   5.776
 3008SOL     OW 9922   5.503   3.757   5.285
 3008SOL    HW1 9923   5.567   3.750   5.208
 3008SOL    HW2 9924   5.526   3.838   5.339
 3009SOL     OW 9925   5.577   3.616   1.589
 3009SOL    HW1 9926   5.524   3.699   1.606
 3009SOL    HW2 9927   5.515   3.540   1.568
 3010SOL     OW 9928   4.456   4.438   1.494
 3010SOL    HW1 9929   4.520   4.449   1.570
 3010SOL    HW2 9930   4.362   4.441   1.529
 3011SOL     OW 9931   6.002   6.987   0.930
 3011SOL    HW1 9932   5.989   0.064   0.902
 3011SOL    HW2 9933   5.969   6.926   0.858
 3012SOL     OW 9934   1.928   1.929   4.656
 3012SOL    HW1 9935   1.844   1.933   4.602
 3012SOL    HW2 9936   1.990   2.002   4.626
 3013SOL     OW 9937   0.426   5.369   4.995
 3013SOL    HW1 9938   0.477   5.321   5.066
 3013SOL    HW2 9939   0.433   5.319   4.909
 3014SOL     OW 9940   3.822   0.244   0.535
 3014SOL    HW1 9941   3.773   0.254   0.622
 3014SOL    HW2 9942   3.771   0.290   0.463
 3015SOL     OW 9943   2.440   6.705   6.210
 3015SOL    HW1 9944   2.375   6.772   6.175
 3015SOL    HW2 9945   2.445   6.711   6.309
 3016SOL     OW 9946   3.008   0.804   4.645
 3016SOL    HW1 9947   2.988   0.894   4.607
 3016SOL    HW2 9948   2.925   0.766   4.685
 3017SOL     OW 9949   1.756   6.103   0.242
 3017SOL    HW1 9950   1.803   6.108   0.154
 3017SOL    HW2 9951   1.769   6.012   0.281
 3018SOL     OW 9952   2.217   2.851   1.926
 3018SOL    HW1 9953   2.197   2.856   2.024
 3018SOL    HW2 9954   2.249   2.759   1.903
 3019SOL     OW 9955   0.890   1.389   5.515
 3019SOL    HW1 9956   0.834   1.326   5.462
 3019SOL    HW2 9957   0.966   1.339   5.557
 3020SOL     OW 9958   5.751   4.194   6.247
 3020SOL    HW1 9959   5.828   4.185   6.311
 3020SOL    HW2 9960   5.673   4.142   6.281
 3021SOL     OW 9961   4.429   6.710   4.535
 3021SOL    HW1 9962   4.479   6.673   4.614
 3021SOL    HW2 9963   4.348   6.760   4.567
 3022SOL     OW 9964   3.796   6.660   2.351
 3022SOL    HW1 9965   3.862   6.712   2.406
 3022SOL    HW2 9966   3.705   6.669   2.391
 3023SOL     OW 9967   5.354   4.300   5.057
 3023SOL    HW1 9968   5.320   4.209   5.034
 3023SOL    HW2 9969   5.395   4.298   5.149
 3024SOL     OW 9970   5.917   1.345   6.771
 3024SOL    HW1 9971   5.829   1.356   6.725
 3024SOL    HW2 9972   5.922   1.407   6.850
 3025SOL     OW 9973   4.015   5.589   1.038
 3025SOL    HW1 9974   4.042   5.685   1.028
 3025SOL    HW2 9975   3.932   5.572   0.986
 3026SOL     OW 9976   6.881   6.603   2.310
 3026SOL    HW1 9977   6.908   6.545   2.233
 3026SOL    HW2 9978   6.818   6.674   2.279
 3027SOL     OW 9979   4.282   0.121   0.669
 3027SOL    HW1 9980   4.219   0.091   0.739
 3027SOL    HW2 9981   4.318   0.212   0.692
 3028SOL     OW 9982   3.949   3.116   3.855
 3028SOL    HW1 9983   4.025   3.181   3.862
 3028SOL    HW2 9984   3.947   3.059   3.937
 3029SOL     OW 9985   0.249   2.370   5.268
 3029SOL    HW1 9986   0.282   2.437   5.335
 3029SOL    HW2 9987   0.221   2.418   5.185
 3030SOL     OW 9988   0.191   3.753   6.132
 3030SOL    HW1 9989   0.159   3.686   6.199
 3030SOL    HW2 9990   0.276   3.795   6.164
 3031SOL     OW 9991   0.437   4.929   6.944
 3031SOL    HW1 9992   0.362   4.936   7.010
 3031SOL    HW2 9993   0.417   4.856   6.879
 3032SOL     OW 9994   3.916   0.009   3.714
 3032SOL    HW1 9995   3.848   7.007   3.784
 3032SOL    HW2 9996   4.006   0.021   3.757
 3033SOL     OW 9997   2.131   0.590   6.866
 3033SOL    HW1 9998   2.184   0.521   6.916
 3033SOL    HW2 9999   2.122   0.673   6.922
 3034SOL     OW10000   4.886   3.520   3.264
 3034SOL    HW110001   4.790   3.501   3.243
 3034SOL    HW210002   4.934   3.546   3.180
 3035SOL     OW10003   6.605   4.426   6.653
 3035SOL    HW110004   6.688   4.389   6.694
 3035SOL    HW210005   6.537   4.354   6.641
 3036SOL     OW10006   2.813   2.576   6.427
 3036SOL    HW110007   2.813   2.476   6.428
 3036SOL    HW210008   2.718   2.609   6.435
 3037SOL     OW10009   0.733   5.452   6.141
 3037SOL    HW110010   0.786   5.485   6.063
 3037SOL    HW210011   0.678   5.527   6.178
 3038SOL     OW10012   5.640   4.571   5.091
 3038SOL    HW110013   5.660   4.653   5.144
 3038SOL    HW210014   5.629   4.595   4.995
 3039SOL     OW10015   6.375   3.416   6.702
 3039SOL    HW110016   6.374   3.459   6.793
 3039SOL    HW210017   6.333   3.478   6.636
 3040SOL     OW10018   3.653   6.519   6.615
 3040SOL    HW110019   3.679   6.588   6.547
 3040SOL    HW210020   3.557   6.495   6.603
 3041SOL     OW10021   2.680   5.911   6.281
 3041SOL    HW110022   2.708   5.856   6.203
 3041SOL    HW210023   2.586   5.889   6.305
 3042SOL     OW10024   0.296   5.451   4.422
 3042SOL    HW110025   0.310   5.362   4.380
 3042SOL    HW210026   0.198   5.471   4.426
 3043SOL     OW10027   2.185   3.626   0.776
 3043SOL    HW110028   2.188   3.531   0.807
 3043SOL    HW210029   2.148   3.684   0.849
 3044SOL     OW10030   4.105   3.729   3.747
 3044SOL    HW110031   4.142   3.773   3.829
 3044SOL    HW210032   4.052   3.649   3.773
 3045SOL     OW10033   5.655   0.067   3.352
 3045SOL    HW110034   5.637   0.133   3.278
 3045SOL    HW210035   5.682   6.998   3.312
 3046SOL     OW10036   6.876   5.870   1.461
 3046SOL    HW110037   6.826   5.847   1.544
 3046SOL    HW210038   6.829   5.944   1.413
 3047SOL     OW10039   4.403   1.812   3.780
 3047SOL    HW110040   4.310   1.826   3.814
 3047SOL    HW210041   4.401   1.802   3.681
 3048SOL     OW10042   4.194   5.030   0.984
 3048SOL    HW110043   4.155   5.120   1.006
 3048SOL    HW210044   4.215   4.981   1.069
 3049SOL     OW10045   0.254   0.817   1.030
 3049SOL    HW110046   0.162   0.781   1.040
 3049SOL    HW210047   0.264   0.856   0.938
 3050SOL     OW10048   3.810   2.629   5.314
 3050SOL    HW110049   3.724   2.610   5.362
 3050SOL    HW210050   3.797   2.708   5.253
 3051SOL     OW10051   2.228   4.106   6.058
 3051SOL    HW110052   2.322   4.139   6.059
 3051SOL    HW210053   2.196   4.097   5.964
 3052SOL     OW10054   6.381   6.243   4.023
 3052SOL    HW110055   6.283   6.227   4.032
 3052SOL    HW210056   6.426   6.219   4.109
 3053SOL     OW10057   0.507   5.610   5.940
 3053SOL    HW110058   0.442   5.685   5.954
 3053SOL    HW210059   0.473   5.527   5.985
 3054SOL     OW10060   6.138   6.531   3.708
 3054SOL    HW110061   6.087   6.564   3.787
 3054SOL    HW210062   6.173   6.609   3.656
 3055SOL     OW10063   5.790   6.247   0.829
 3055SOL    HW110064   5.729   6.169   0.838
 3055SOL    HW210065   5.742   6.321   0.782
 3056SOL     OW10066   4.669   2.387   1.222
 3056SOL    HW110067   4.624   2.392   1.311
 3056SOL    HW210068   4.749   2.327   1.228
 3057SOL     OW10069   6.742   2.525   2.897
 3057SOL    HW110070   6.686   2.536   2.979
 3057SOL    HW210071   6.784   2.612   2.874
 3058SOL     OW10072   5.365   3.761   6.477
 3058SOL    HW110073   5.332   3.832   6.414
 3058SOL    HW210074   5.456   3.731   6.449
 3059SOL     OW10075   1.979   2.735   3.331
 3059SOL    HW110076   1.958   2.661   3.395
 3059SOL    HW210077   2.041   2.800   3.375
 3060SOL     OW10078   6.303   3.127   3.826
 3060SOL    HW110079   6.284   3.126   3.924
 3060SOL    HW210080   6.281   3.216   3.788
 3061SOL     OW10081   5.231   5.905   2.792
 3061SOL    HW110082   5.330   5.921   2.796
 3061SOL    HW210083   5.185   5.990   2.765
 3062SOL     OW10084   3.906   5.239   0.142
 3062SOL    HW110085   3.998   5.219   0.109
 3062SOL    HW210086   3.839   5.187   0.089
 3063SOL     OW10087   6.150   5.577   1.345
 3063SOL    HW110088   6.240   5.558   1.384
 3063SOL    HW210089   6.117   5.665   1.378
 3064SOL     OW10090   5.020   0.867   5.920
 3064SOL    HW110091   5.084   0.937   5.890
 3064SOL    HW210092   5.045   0.779   5.879
 3065SOL     OW10093   5.066   1.323   6.467
 3065SOL    HW110094   5.073   1.296   6.371
 3065SOL    HW210095   5.056   1.422   6.473
 3066SOL     OW10096   5.380   6.971   5.599
 3066SOL    HW110097   5.478   6.963   5.617
 3066SOL    HW210098   5.344   6.884   5.565
 3067SOL     OW10099   1.226   2.116   4.767
 3067SOL    HW110100   1.156   2.186   4.776
 3067SOL    HW210101   1.193   2.030   4.807
 3068SOL     OW10102   5.986   0.480   0.870
 3068SOL    HW110103   6.079   0.515   0.861
 3068SOL    HW210104   5.920   0.552   0.850
 3069SOL     OW10105   5.532   5.757   3.796
 3069SOL    HW110106   5.544   5.800   3.885
 3069SOL    HW210107   5.438   5.774   3.764
 3070SOL     OW10108   2.623   1.660   0.693
 3070SOL    HW110109   2.562   1.700   0.625
 3070SOL    HW210110   2.659   1.573   0.659
 3071SOL     OW10111   6.614   4.364   4.672
 3071SOL    HW110112   6.563   4.425   4.611
 3071SOL    HW210113   6.642   4.282   4.622
 3072SOL     OW10114   1.915   6.663   4.503
 3072SOL    HW110115   1.837   6.689   4.560
 3072SOL    HW210116   1.971   6.596   4.551
 3073SOL     OW10117   0.245   5.052   3.272
 3073SOL    HW110118   0.189   4.988   3.219
 3073SOL    HW210119   0.341   5.026   3.265
 3074SOL     OW10120   3.041   3.391   1.968
 3074SOL    HW110121   2.960   3.441   1.938
 3074SOL    HW210122   3.013   3.303   2.006
 3075SOL     OW10123   3.912   4.658   0.476
 3075SOL    HW110124   4.001   4.701   0.460
 3075SOL    HW210125   3.882   4.678   0.569
 3076SOL     OW10126   2.235   1.255   4.007
 3076SOL    HW110127   2.185   1.188   3.952
 3076SOL    HW210128   2.201   1.347   3.988
 3077SOL     OW10129   6.792   3.784   2.599
 3077SOL    HW110130   6.793   3.741   2.689
 3077SOL    HW210131   6.749   3.874   2.605
 3078SOL     OW10132   6.217   4.775   1.397
 3078SOL    HW110133   6.285   4.839   1.434
 3078SOL    HW210134   6.188   4.806   1.307
 3079SOL     OW10135   0.219   4.064   2.249
 3079SOL    HW110136   0.126   4.030   2.263
 3079SOL    HW210137   0.221   4.124   2.170
 3080SOL     OW10138   3.346   4.765   1.437
 3080SOL    HW110139   3.329   4.822   1.517
 3080SOL    HW210140   3.327   4.669   1.460
 3081SOL     OW10141   2.065   2.472   6.110
 3081SOL    HW110142   1.991   2.415   6.075
 3081SOL    HW210143   2.117   2.421   6.178
 3082SOL     OW10144   6.519   3.775   4.652
 3082SOL    HW110145   6.610   3.818   4.646
 3082SOL    HW210146   6.517   3.713   4.731
 3083SOL     OW10147   4.217   5.910   1.637
 3083SOL    HW110148   4.125   5.873   1.647
 3083SOL    HW210149   4.213   5.993   1.581
 3084SOL     OW10150   0.354   5.183   4.326
 3084SOL    HW110151   0.282   5.198   4.259
 3084SOL    HW210152   0.436   5.148   4.280
 3085SOL     OW10153   6.834   5.621   5.588
 3085SOL    HW110154   6.907   5.684   5.612
 3085SOL    HW210155   6.859   5.570   5.505
 3086SOL     OW10156   5.992   6.270   6.124
 3086SOL    HW110157   6.062   6.249   6.192
 3086SOL    HW210158   6.024   6.342   6.063
 3087SOL     OW10159   3.415   7.017   1.274
 3087SOL    HW110160   3.383   6.925   1.296
 3087SOL    HW210161   3.375   0.064   1.338
 3088SOL     OW10162   2.314   3.163   5.303
 3088SOL    HW110163   2.366   3.236   5.346
 3088SOL    HW210164   2.377   3.091   5.272
 3089SOL     OW10165   3.950   6.812   0.142
 3089SOL    HW110166   3.853   6.792   0.157
 3089SOL    HW210167   3.980   6.883   0.205
 3090SOL     OW10168   1.352   2.077   2.776
 3090SOL    HW110169   1.338   2.175   2.788
 3090SOL    HW210170   1.392   2.059   2.686
 3091SOL     OW10171   1.088   2.119   6.011
 3091SOL    HW110172   1.178   2.076   6.008
 3091SOL    HW210173   1.070   2.167   5.925
 3092SOL     OW10174   4.918   2.100   3.467
 3092SOL    HW110175   4.867   2.025   3.425
 3092SOL    HW210176   4.860   2.144   3.536
 3093SOL     OW10177   6.299   5.209   6.832
 3093SOL    HW110178   6.293   5.297   6.784
 3093SOL    HW210179   6.299   5.226   6.931
 3094SOL     OW10180   2.133   1.026   6.492
 3094SOL    HW110181   2.220   0.992   6.455
 3094SOL    HW210182   2.153   1.097   6.560
 3095SOL     OW10183   1.840   3.226   6.084
 3095SOL    HW110184   1.859   3.173   6.167
 3095SOL    HW210185   1.848   3.165   6.004
 3096SOL     OW10186   1.853   3.393   3.751
 3096SOL    HW110187   1.942   3.382   3.705
 3096SOL    HW210188   1.810   3.478   3.719
 3097SOL     OW10189   5.013   2.190   6.300
 3097SOL    HW110190   4.999   2.274   6.353
 3097SOL    HW210191   5.092   2.201   6.240
 3098SOL     OW10192   1.802   4.073   2.544
 3098SOL    HW110193   1.783   3.985   2.587
 3098SOL    HW210194   1.794   4.064   2.444
 3099SOL     OW10195   0.265   0.611   6.123
 3099SOL    HW110196   0.199   0.568   6.062
 3099SOL    HW210197   0.299   0.695   6.082
 3100SOL     OW10198   5.842   3.868   2.874
 3100SOL    HW110199   5.752   3.890   2.912
 3100SOL    HW210200   5.873   3.780   2.910
 3101SOL     OW10201   5.205   0.568   3.959
 3101SOL    HW110202   5.173   0.537   4.049
 3101SOL    HW210203   5.261   0.650   3.970
 3102SOL     OW10204   5.778   3.247   3.151
 3102SOL    HW110205   5.858   3.215   3.100
 3102SOL    HW210206   5.698   3.194   3.124
 3103SOL     OW10207   1.317   1.153   2.615
 3103SOL    HW110208   1.393   1.126   2.674
 3103SOL    HW210209   1.264   1.072   2.590
 3104SOL     OW10210   5.674   1.162   6.328
 3104SOL    HW110211   5.605   1.214   6.278
 3104SOL    HW210212   5.631   1.085   6.375
 3105SOL     OW10213   5.430   4.377   0.162
 3105SOL    HW110214   5.504   4.397   0.098
 3105SOL    HW210215   5.385   4.291   0.135
 3106SOL     OW10216   5.428   2.054   5.866
 3106SOL    HW110217   5.348   2.044   5.925
 3106SOL    HW210218   5.399   2.061   5.771
 3107SOL     OW10219   4.578   2.205   4.688
 3107SOL    HW110220   4.591   2.150   4.770
 3107SOL    HW210221   4.504   2.271   4.704
 3108SOL     OW10222   2.236   4.694   3.955
 3108SOL    HW110223   2.163   4.632   3.927
 3108SOL    HW210224   2.325   4.655   3.930
 3109SOL     OW10225   0.102   5.224   4.203
 3109SOL    HW110226   0.087   5.236   4.105
 3109SOL    HW210227   0.050   5.145   4.235
 3110SOL     OW10228   1.800   5.205   3.890
 3110SOL    HW110229   1.846   5.209   3.801
 3110SOL    HW210230   1.702   5.193   3.876
 3111SOL     OW10231   6.845   3.504   3.986
 3111SOL    HW110232   6.856   3.519   4.084
 3111SOL    HW210233   6.918   3.550   3.936
 3112SOL     OW10234   4.615   0.190   0.906
 3112SOL    HW110235   4.607   0.192   0.807
 3112SOL    HW210236   4.543   0.132   0.944
 3113SOL     OW10237   1.375   6.525   3.741
 3113SOL    HW110238   1.330   6.437   3.758
 3113SOL    HW210239   1.374   6.579   3.825
 3114SOL     OW10240   4.892   5.716   5.300
 3114SOL    HW110241   4.957   5.650   5.264
 3114SOL    HW210242   4.913   5.735   5.396
 3115SOL     OW10243   4.987   5.419   4.654
 3115SOL    HW110244   5.016   5.470   4.735
 3115SOL    HW210245   5.020   5.466   4.572
 3116SOL     OW10246   0.882   2.649   6.594
 3116SOL    HW110247   0.880   2.748   6.613
 3116SOL    HW210248   0.874   2.599   6.680
 3117SOL     OW10249   4.330   0.061   1.809
 3117SOL    HW110250   4.335   6.983   1.781
 3117SOL    HW210251   4.328   0.066   1.909
 3118SOL     OW10252   0.694   2.467   3.529
 3118SOL    HW110253   0.627   2.421   3.471
 3118SOL    HW210254   0.781   2.474   3.480
 3119SOL     OW10255   4.361   6.487   3.507
 3119SOL    HW110256   4.281   6.539   3.476
 3119SOL    HW210257   4.401   6.439   3.429
 3120SOL     OW10258   3.806   6.114   6.453
 3120SOL    HW110259   3.718   6.140   6.492
 3120SOL    HW210260   3.851   6.049   6.514
 3121SOL     OW10261   3.950   1.656   2.891
 3121SOL    HW110262   4.017   1.637   2.819
 3121SOL    HW210263   3.938   1.574   2.947
 3122SOL     OW10264   5.537   3.426   6.490
 3122SOL    HW110265   5.634   3.422   6.467
 3122SOL    HW210266   5.496   3.505   6.444
 3123SOL     OW10267   1.813   3.145   2.636
 3123SOL    HW110268   1.846   3.162   2.544
 3123SOL    HW210269   1.772   3.228   2.673
 3124SOL     OW10270   5.003   6.941   5.496
 3124SOL    HW110271   5.047   7.010   5.439
 3124SOL    HW210272   4.910   6.969   5.518
 3125SOL     OW10273   1.828   1.614   4.658
 3125SOL    HW110274   1.881   1.558   4.594
 3125SOL    HW210275   1.841   1.711   4.636
 3126SOL     OW10276   5.231   4.055   5.022
 3126SOL    HW110277   5.147   4.108   5.027
 3126SOL    HW210278   5.227   3.979   5.086
 3127SOL     OW10279   6.362   2.314   6.270
 3127SOL    HW110280   6.453   2.279   6.295
 3127SOL    HW210281   6.320   2.252   6.204
 3128SOL     OW10282   4.597   1.884   1.349
 3128SOL    HW110283   4.512   1.834   1.364
 3128SOL    HW210284   4.660   1.868   1.425
 3129SOL     OW10285   4.252   4.640   0.737
 3129SOL    HW110286   4.341   4.617   0.776
 3129SOL    HW210287   4.215   4.561   0.689
 3130SOL     OW10288   6.258   4.969   2.582
 3130SOL    HW110289   6.226   5.015   2.664
 3130SOL    HW210290   6.340   4.915   2.604
 3131SOL     OW10291   0.241   2.430   3.235
 3131SOL    HW110292   0.204   2.413   3.144
 3131SOL    HW210293   0.323   2.486   3.228
 3132SOL     OW10294   4.783   3.786   6.247
 3132SOL    HW110295   4.746   3.752   6.333
 3132SOL    HW210296   4.711   3.787   6.178
 3133SOL     OW10297   5.639   6.371   4.292
 3133SOL    HW110298   5.723   6.321   4.310
 3133SOL    HW210299   5.587   6.382   4.377
 3134SOL     OW10300   4.026   4.865   3.001
 3134SOL    HW110301   3.974   4.864   2.916
 3134SOL    HW210302   4.056   4.959   3.021
 3135SOL     OW10303   4.232   0.995   6.189
 3135SOL    HW110304   4.329   0.993   6.166
 3135SOL    HW210305   4.201   1.090   6.192
 3136SOL     OW10306   6.011   6.201   1.986
 3136SOL    HW110307   6.102   6.237   1.963
 3136SOL    HW210308   6.013   6.101   1.983
 3137SOL     OW10309   5.146   3.966   6.983
 3137SOL    HW110310   5.184   3.945   6.893
 3137SOL    HW210311   5.050   3.994   6.973
 3138SOL     OW10312   0.101   6.669   5.057
 3138SOL    HW110313   0.033   6.742   5.062
 3138SOL    HW210314   0.190   6.706   5.083
 3139SOL     OW10315   1.524   5.006   2.295
 3139SOL    HW110316   1.539   5.076   2.364
 3139SOL    HW210317   1.428   5.005   2.269
 3140SOL     OW10318   4.807   5.478   0.069
 3140SOL    HW110319   4.845   5.439   0.153
 3140SOL    HW210320   4.880   5.493   0.003
 3141SOL     OW10321   5.941   2.209   0.270
 3141SOL    HW110322   5.884   2.246   0.344
 3141SOL    HW210323   6.012   2.276   0.247
 3142SOL     OW10324   4.224   1.149   4.028
 3142SOL    HW110325   4.246   1.153   4.125
 3142SOL    HW210326   4.216   1.053   3.999
 3143SOL     OW10327   6.183   1.535   0.240
 3143SOL    HW110328   6.121   1.463   0.271
 3143SOL    HW210329   6.186   1.536   0.140
 3144SOL     OW10330   3.638   5.126   6.306
 3144SOL    HW110331   3.664   5.030   6.296
 3144SOL    HW210332   3.714   5.176   6.348
 3145SOL     OW10333   0.533   6.267   5.614
 3145SOL    HW110334   0.511   6.227   5.703
 3145SOL    HW210335   0.632   6.283   5.608
 3146SOL     OW10336   6.750   1.515   4.142
 3146SOL    HW110337   6.792   1.597   4.103
 3146SOL    HW210338   6.721   1.454   4.069
 3147SOL     OW10339   4.847   6.851   0.603
 3147SOL    HW110340   4.778   6.840   0.531
 3147SOL    HW210341   4.865   6.762   0.645
 3148SOL     OW10342   5.868   4.959   0.251
 3148SOL    HW110343   5.831   5.028   0.313
 3148SOL    HW210344   5.924   4.894   0.303
 3149SOL     OW10345   4.300   3.100   0.171
 3149SOL    HW110346   4.363   3.167   0.131
 3149SOL    HW210347   4.324   3.087   0.268
 3150SOL     OW10348   0.065   6.978   5.326
 3150SOL    HW110349   0.150   6.928   5.341
 3150SOL    HW210350   0.074   0.020   5.247
 3151SOL     OW10351   0.215   1.677   6.644
 3151SOL    HW110352   0.250   1.715   6.558
 3151SOL    HW210353   0.159   1.746   6.690
 3152SOL     OW10354   2.794   2.040   6.234
 3152SOL    HW110355   2.733   1.988   6.292
 3152SOL    HW210356   2.746   2.120   6.198
 3153SOL     OW10357   5.596   5.887   1.879
 3153SOL    HW110358   5.563   5.941   1.956
 3153SOL    HW210359   5.685   5.849   1.901
 3154SOL     OW10360   3.114   2.109   0.958
 3154SOL    HW110361   3.072   2.040   0.900
 3154SOL    HW210362   3.194   2.069   1.004
 3155SOL     OW10363   0.013   5.998   6.718
 3155SOL    HW110364   6.958   5.955   6.666
 3155SOL    HW210365   6.993   6.047   6.796
 3156SOL     OW10366   2.760   4.331   0.900
 3156SOL    HW110367   2.784   4.284   0.815
 3156SOL    HW210368   2.732   4.264   0.968
 3157SOL     OW10369   1.508   1.460   3.337
 3157SOL    HW110370   1.408   1.454   3.334
 3157SOL    HW210371   1.539   1.451   3.431
 3158SOL     OW10372   2.057   0.399   5.898
 3158SOL    HW110373   2.096   0.394   5.990
 3158SOL    HW210374   2.069   0.312   5.851
 3159SOL     OW10375   4.766   5.656   1.624
 3159SOL    HW110376   4.711   5.739   1.614
 3159SOL    HW210377   4.858   5.681   1.653
 3160SOL     OW10378   2.401   1.224   5.716
 3160SOL    HW110379   2.359   1.136   5.739
 3160SOL    HW210380   2.458   1.213   5.635
 3161SOL     OW10381   1.969   2.509   1.788
 3161SOL    HW110382   1.940   2.455   1.708
 3161SOL    HW210383   1.896   2.508   1.856
 3162SOL     OW10384   1.364   5.879   1.993
 3162SOL    HW110385   1.424   5.946   1.949
 3162SOL    HW210386   1.270   5.912   1.990
 3163SOL     OW10387   5.575   4.536   2.082
 3163SOL    HW110388   5.611   4.542   2.176
 3163SOL    HW210389   5.475   4.542   2.085
 3164SOL     OW10390   2.251   0.062   3.483
 3164SOL    HW110391   2.234   0.159   3.470
 3164SOL    HW210392   2.284   0.022   3.397
 3165SOL     OW10393   0.611   5.801   6.991
 3165SOL    HW110394   0.575   5.894   6.991
 3165SOL    HW210395   0.608   5.764   0.065
 3166SOL     OW10396   3.704   2.139   4.625
 3166SOL    HW110397   3.789   2.172   4.666
 3166SOL    HW210398   3.626   2.182   4.671
 3167SOL     OW10399   6.495   2.779   2.510
 3167SOL    HW110400   6.437   2.742   2.438
 3167SOL    HW210401   6.528   2.870   2.484
 3168SOL     OW10402   5.322   1.846   0.835
 3168SOL    HW110403   5.292   1.864   0.929
 3168SOL    HW210404   5.269   1.902   0.771
 3169SOL     OW10405   0.974   2.684   1.734
 3169SOL    HW110406   0.906   2.641   1.793
 3169SOL    HW210407   0.949   2.671   1.638
 3170SOL     OW10408   2.475   4.522   3.867
 3170SOL    HW110409   2.538   4.475   3.929
 3170SOL    HW210410   2.515   4.609   3.837
 3171SOL     OW10411   5.747   1.787   4.706
 3171SOL    HW110412   5.818   1.797   4.775
 3171SOL    HW210413   5.657   1.798   4.748
 3172SOL     OW10414   5.629   4.161   1.359
 3172SOL    HW110415   5.634   4.154   1.459
 3172SOL    HW210416   5.716   4.196   1.324
 3173SOL     OW10417   5.236   4.154   0.154
 3173SOL    HW110418   5.192   4.088   0.093
 3173SOL    HW210419   5.195   4.244   0.140
 3174SOL     OW10420   2.973   3.140   6.969
 3174SOL    HW110421   2.918   3.082   0.011
 3174SOL    HW210422   2.961   3.110   6.874
 3175SOL     OW10423   5.993   6.024   5.449
 3175SOL    HW110424   6.019   5.938   5.406
 3175SOL    HW210425   5.987   6.011   5.548
 3176SOL     OW10426   6.704   5.084   3.996
 3176SOL    HW110427   6.794   5.070   3.954
 3176SOL    HW210428   6.682   5.182   3.995
 3177SOL     OW10429   5.418   2.485   1.524
 3177SOL    HW110430   5.361   2.480   1.442
 3177SOL    HW210431   5.503   2.434   1.509
 3178SOL     OW10432   1.437   0.835   2.786
 3178SOL    HW110433   1.515   0.826   2.724
 3178SOL    HW210434   1.353   0.811   2.737
 3179SOL     OW10435   0.507   4.064   2.941
 3179SOL    HW110436   0.435   4.085   2.875
 3179SOL    HW210437   0.559   3.985   2.909
 3180SOL     OW10438   6.134   0.232   6.359
 3180SOL    HW110439   6.055   0.172   6.345
 3180SOL    HW210440   6.179   0.248   6.272
 3181SOL     OW10441   0.075   6.561   4.643
 3181SOL    HW110442   0.018   6.507   4.582
 3181SOL    HW210443   0.087   6.513   4.730
 3182SOL     OW10444   1.354   0.229   1.490
 3182SOL    HW110445   1.292   0.250   1.566
 3182SOL    HW210446   1.448   0.250   1.517
 3183SOL     OW10447   4.466   4.121   0.384
 3183SOL    HW110448   4.400   4.100   0.312
 3183SOL    HW210449   4.494   4.035   0.428
 3184SOL     OW10450   6.313   0.577   4.646
 3184SOL    HW110451   6.225   0.569   4.692
 3184SOL    HW210452   6.379   0.618   4.708
 3185SOL     OW10453   1.251   0.841   6.085
 3185SOL    HW110454   1.349   0.847   6.105
 3185SOL    HW210455   1.215   0.933   6.073
 3186SOL     OW10456   0.702   2.265   5.976
 3186SOL    HW110457   0.603   2.268   5.988
 3186SOL    HW210458   0.737   2.177   6.010
 3187SOL     OW10459   4.793   0.372   3.263
 3187SOL    HW110460   4.770   0.333   3.353
 3187SOL    HW210461   4.881   0.420   3.270
 3188SOL     OW10462   1.338   6.106   1.450
 3188SOL    HW110463   1.272   6.177   1.474
 3188SOL    HW210464   1.405   6.096   1.524
 3189SOL     OW10465   2.354   2.195   5.320
 3189SOL    HW110466   2.352   2.257   5.242
 3189SOL    HW210467   2.389   2.106   5.291
 3190SOL     OW10468   6.131   5.969   4.494
 3190SOL    HW110469   6.175   5.883   4.520
 3190SOL    HW210470   6.139   6.034   4.569
 3191SOL     OW10471   3.964   5.032   0.613
 3191SOL    HW110472   3.983   5.009   0.518
 3191SOL    HW210473   4.009   4.966   0.673
 3192SOL     OW10474   5.707   0.955   3.124
 3192SOL    HW110475   5.709   1.052   3.100
 3192SOL    HW210476   5.614   0.928   3.150
 3193SOL     OW10477   3.582   5.982   4.563
 3193SOL    HW110478   3.628   5.990   4.475
 3193SOL    HW210479   3.650   5.961   4.634
 3194SOL     OW10480   2.375   6.178   6.106
 3194SOL    HW110481   2.351   6.275   6.108
 3194SOL    HW210482   2.463   6.167   6.060
 3195SOL     OW10483   0.381   6.061   1.547
 3195SOL    HW110484   0.423   5.994   1.608
 3195SOL    HW210485   0.282   6.055   1.553
 3196SOL     OW10486   5.603   0.281   3.193
 3196SOL    HW110487   5.556   0.313   3.110
 3196SOL    HW210488   5.632   0.360   3.247
 3197SOL     OW10489   3.220   1.019   0.039
 3197SOL    HW110490   3.294   1.050   6.997
 3197SOL    HW210491   3.257   0.958   0.108
 3198SOL     OW10492   5.516   4.095   4.138
 3198SOL    HW110493   5.559   4.121   4.225
 3198SOL    HW210494   5.585   4.054   4.079
 3199SOL     OW10495   5.346   3.214   4.002
 3199SOL    HW110496   5.413   3.190   4.073
 3199SOL    HW210497   5.255   3.220   4.044
 3200SOL     OW10498   6.797   2.994   4.816
 3200SOL    HW110499   6.735   2.935   4.868
 3200SOL    HW210500   6.748   3.034   4.739
 3201SOL     OW10501   6.576   3.590   2.490
 3201SOL    HW110502   6.569   3.666   2.555
 3201SOL    HW210503   6.664   3.595   2.443
 3202SOL     OW10504   3.047   2.825   5.986
 3202SOL    HW110505   3.049   2.870   5.896
 3202SOL    HW210506   2.999   2.884   6.051
 3203SOL     OW10507   3.332   6.573   1.580
 3203SOL    HW110508   3.270   6.525   1.642
 3203SOL    HW210509   3.427   6.558   1.609
 3204SOL     OW10510   5.013   0.509   3.373
 3204SOL    HW110511   5.059   0.540   3.456
 3204SOL    HW210512   4.986   0.588   3.318
 3205SOL     OW10513   5.136   3.012   0.312
 3205SOL    HW110514   5.154   3.079   0.384
 3205SOL    HW210515   5.208   3.017   0.243
 3206SOL     OW10516   3.699   5.093   0.025
 3206SOL    HW110517   3.614   5.104   6.992
 3206SOL    HW210518   3.733   5.000   0.013
 3207SOL     OW10519   1.854   6.525   3.081
 3207SOL    HW110520   1.759   6.507   3.056
 3207SOL    HW210521   1.857   6.565   3.172
 3208SOL     OW10522   6.796   3.670   6.806
 3208SOL    HW110523   6.714   3.616   6.824
 3208SOL    HW210524   6.866   3.612   6.764
 3209SOL     OW10525   5.476   6.877   5.018
 3209SOL    HW110526   5.490   6.975   5.025
 3209SOL    HW210527   5.541   6.838   4.953
 3210SOL     OW10528   4.854   4.918   2.256
 3210SOL    HW110529   4.947   4.946   2.231
 3210SOL    HW210530   4.858   4.854   2.333
 3211SOL     OW10531   2.585   0.031   6.845
 3211SOL    HW110532   2.680   7.017   6.851
 3211SOL    HW210533   2.557   0.032   6.749
 3212SOL     OW10534   3.497   6.779   4.616
 3212SOL    HW110535   3.402   6.751   4.607
 3212SOL    HW210536   3.528   6.822   4.532
 3213SOL     OW10537   1.160   0.124   5.679
 3213SOL    HW110538   1.197   0.169   5.760
 3213SOL    HW210539   1.214   0.148   5.599
 3214SOL     OW10540   2.704   0.275   2.975
 3214SOL    HW110541   2.763   0.346   2.939
 3214SOL    HW210542   2.757   0.191   2.989
 3215SOL     OW10543   2.293   3.260   1.650
 3215SOL    HW110544   2.344   3.305   1.724
 3215SOL    HW210545   2.218   3.320   1.620
 3216SOL     OW10546   6.529   4.238   1.049
 3216SOL    HW110547   6.563   4.151   1.013
 3216SOL    HW210548   6.487   4.222   1.139
 3217SOL     OW10549   6.282   5.841   3.603
 3217SOL    HW110550   6.240   5.774   3.664
 3217SOL    HW210551   6.233   5.928   3.609
 3218SOL     OW10552   5.863   1.469   3.502
 3218SOL    HW110553   5.922   1.431   3.431
 3218SOL    HW210554   5.919   1.523   3.565
 3219SOL     OW10555   4.904   1.907   4.481
 3219SOL    HW110556   4.900   1.971   4.558
 3219SOL    HW210557   5.000   1.895   4.453
 3220SOL     OW10558   0.264   3.353   5.650
 3220SOL    HW110559   0.192   3.380   5.714
 3220SOL    HW210560   0.225   3.336   5.560
 3221SOL     OW10561   4.180   1.781   2.174
 3221SOL    HW110562   4.185   1.841   2.255
 3221SOL    HW210563   4.117   1.820   2.108
 3222SOL     OW10564   3.023   0.824   3.640
 3222SOL    HW110565   3.064   0.904   3.596
 3222SOL    HW210566   3.017   0.840   3.739
 3223SOL     OW10567   1.739   5.480   0.731
 3223SOL    HW110568   1.781   5.561   0.772
 3223SOL    HW210569   1.796   5.400   0.748
 3224SOL     OW10570   4.482   2.472   3.626
 3224SOL    HW110571   4.492   2.562   3.583
 3224SOL    HW210572   4.481   2.484   3.725
 3225SOL     OW10573   3.865   0.914   4.962
 3225SOL    HW110574   3.824   0.985   4.904
 3225SOL    HW210575   3.941   0.953   5.014
 3226SOL     OW10576   5.715   1.029   0.465
 3226SOL    HW110577   5.719   1.115   0.515
 3226SOL    HW210578   5.661   0.962   0.517
 3227SOL     OW10579   5.747   3.942   5.848
 3227SOL    HW110580   5.675   3.878   5.875
 3227SOL    HW210581   5.759   4.010   5.920
 3228SOL     OW10582   1.749   4.400   0.844
 3228SOL    HW110583   1.845   4.420   0.863
 3228SOL    HW210584   1.697   4.485   0.846
 3229SOL     OW10585   0.966   0.798   0.756
 3229SOL    HW110586   1.010   0.828   0.840
 3229SOL    HW210587   1.005   0.848   0.678
 3230SOL     OW10588   3.131   6.427   5.369
 3230SOL    HW110589   3.066   6.398   5.299
 3230SOL    HW210590   3.112   6.377   5.454
 3231SOL     OW10591   2.709   2.248   2.690
 3231SOL    HW110592   2.653   2.187   2.633
 3231SOL    HW210593   2.804   2.244   2.660
 3232SOL     OW10594   2.854   4.878   3.914
 3232SOL    HW110595   2.895   4.861   3.824
 3232SOL    HW210596   2.771   4.824   3.924
 3233SOL     OW10597   2.248   0.299   5.499
 3233SOL    HW110598   2.204   0.269   5.584
 3233SOL    HW210599   2.312   0.228   5.468
 3234SOL     OW10600   3.316   3.737   0.765
 3234SOL    HW110601   3.224   3.706   0.739
 3234SOL    HW210602   3.307   3.813   0.830
 3235SOL     OW10603   0.374   2.188   2.798
 3235SOL    HW110604   0.420   2.265   2.754
 3235SOL    HW210605   0.329   2.132   2.728
 3236SOL     OW10606   5.893   6.555   0.525
 3236SOL    HW110607   5.988   6.553   0.497
 3236SOL    HW210608   5.838   6.602   0.456
 3237SOL     OW10609   6.176   1.972   5.753
 3237SOL    HW110610   6.176   2.015   5.663
 3237SOL    HW210611   6.082   1.956   5.782
 3238SOL     OW10612   0.109   5.481   0.980
 3238SOL    HW110613   0.122   5.540   0.901
 3238SOL    HW210614   0.196   5.435   1.002
 3239SOL     OW10615   6.091   1.240   5.114
 3239SOL    HW110616   6.075   1.256   5.016
 3239SOL    HW210617   6.187   1.258   5.135
 3240SOL     OW10618   0.584   1.971   1.514
 3240SOL    HW110619   0.676   1.932   1.513
 3240SOL    HW210620   0.547   1.966   1.607
 3241SOL     OW10621   0.185   2.793   5.880
 3241SOL    HW110622   0.208   2.890   5.869
 3241SOL    HW210623   0.247   2.738   5.824
 3242SOL     OW10624   0.503   4.946   5.160
 3242SOL    HW110625   0.566   4.880   5.118
 3242SOL    HW210626   0.556   5.018   5.205
 3243SOL     OW10627   6.241   5.124   5.118
 3243SOL    HW110628   6.226   5.219   5.091
 3243SOL    HW210629   6.162   5.069   5.091
 3244SOL     OW10630   4.629   0.248   6.828
 3244SOL    HW110631   4.530   0.251   6.817
 3244SOL    HW210632   4.665   0.164   6.786
 3245SOL     OW10633   2.236   6.182   4.171
 3245SOL    HW110634   2.259   6.235   4.089
 3245SOL    HW210635   2.136   6.175   4.179
 3246SOL     OW10636   6.427   5.905   2.643
 3246SOL    HW110637   6.440   5.915   2.742
 3246SOL    HW210638   6.401   5.994   2.604
 3247SOL     OW10639   2.327   4.360   4.680
 3247SOL    HW110640   2.393   4.425   4.716
 3247SOL    HW210641   2.298   4.297   4.752
 3248SOL     OW10642   6.220   2.513   3.641
 3248SOL    HW110643   6.134   2.560   3.623
 3248SOL    HW210644   6.203   2.434   3.700
 3249SOL     OW10645   4.059   3.845   4.049
 3249SOL    HW110646   4.072   3.939   4.016
 3249SOL    HW210647   4.005   3.847   4.133
 3250SOL     OW10648   4.619   5.324   3.617
 3250SOL    HW110649   4.529   5.334   3.659
 3250SOL    HW210650   4.662   5.239   3.650
 3251SOL     OW10651   2.135   2.163   2.255
 3251SOL    HW110652   2.057   2.191   2.199
 3251SOL    HW210653   2.209   2.228   2.243
 3252SOL     OW10654   1.499   1.705   2.390
 3252SOL    HW110655   1.563   1.642   2.433
 3252SOL    HW210656   1.406   1.670   2.400
 3253SOL     OW10657   6.411   3.285   1.273
 3253SOL    HW110658   6.369   3.199   1.243
 3253SOL    HW210659   6.352   3.330   1.340
 3254SOL     OW10660   6.341   6.954   0.833
 3254SOL    HW110661   6.438   6.948   0.810
 3254SOL    HW210662   6.291   6.881   0.785
 3255SOL     OW10663   3.722   4.871   2.224
 3255SOL    HW110664   3.707   4.844   2.129
 3255SOL    HW210665   3.636   4.860   2.275
 3256SOL     OW10666   5.588   2.693   2.004
 3256SOL    HW110667   5.670   2.718   2.054
 3256SOL    HW210668   5.612   2.631   1.930
 3257SOL     OW10669   2.810   1.029   2.993
 3257SOL    HW110670   2.794   0.938   3.031
 3257SOL    HW210671   2.733   1.088   3.014
 3258SOL     OW10672   0.684   5.211   3.934
 3258SOL    HW110673   0.720   5.122   3.961
 3258SOL    HW210674   0.584   5.206   3.927
 3259SOL     OW10675   6.185   5.033   3.454
 3259SOL    HW110676   6.198   5.108   3.520
 3259SOL    HW210677   6.110   4.975   3.485
 3260SOL     OW10678   2.531   4.795   3.751
 3260SOL    HW110679   2.453   4.828   3.698
 3260SOL    HW210680   2.596   4.871   3.765
 3261SOL     OW10681   6.059   6.532   4.014
 3261SOL    HW110682   6.118   6.457   3.985
 3261SOL    HW210683   6.068   6.545   4.113
 3262SOL     OW10684   2.933   1.612   2.824
 3262SOL    HW110685   2.974   1.652   2.742
 3262SOL    HW210686   2.930   1.680   2.897
 3263SOL     OW10687   5.632   0.160   1.974
 3263SOL    HW110688   5.550   0.207   2.005
 3263SOL    HW210689   5.671   0.210   1.896
 3264SOL     OW10690   1.094   5.231   6.282
 3264SOL    HW110691   1.074   5.291   6.203
 3264SOL    HW210692   1.179   5.182   6.265
 3265SOL     OW10693   6.885   6.070   5.940
 3265SOL    HW110694   6.921   6.155   5.903
 3265SOL    HW210695   6.801   6.045   5.891
 3266SOL     OW10696   3.831   4.615   6.258
 3266SOL    HW110697   3.828   4.602   6.357
 3266SOL    HW210698   3.926   4.609   6.227
 3267SOL     OW10699   2.993   0.301   0.620
 3267SOL    HW110700   3.008   0.236   0.546
 3267SOL    HW210701   2.973   0.391   0.582
 3268SOL     OW10702   5.469   4.191   2.431
 3268SOL    HW110703   5.484   4.110   2.375
 3268SOL    HW210704   5.558   4.227   2.460
 3269SOL     OW10705   2.129   5.563   0.970
 3269SOL    HW110706   2.065   5.625   1.016
 3269SOL    HW210707   2.190   5.522   1.038
 3270SOL     OW10708   1.911   3.402   6.580
 3270SOL    HW110709   1.958   3.489   6.566
 3270SOL    HW210710   1.970   3.340   6.632
 3271SOL     OW10711   0.874   3.908   1.270
 3271SOL    HW110712   0.937   3.922   1.194
 3271SOL    HW210713   0.885   3.982   1.337
 3272SOL     OW10714   3.681   0.396   0.380
 3272SOL    HW110715   3.636   0.323   0.330
 3272SOL    HW210716   3.704   0.470   0.316
 3273SOL     OW10717   4.274   3.648   6.545
 3273SOL    HW110718   4.209   3.670   6.472
 3273SOL    HW210719   4.266   3.551   6.568
 3274SOL     OW10720   4.344   0.387   2.033
 3274SOL    HW110721   4.251   0.424   2.043
 3274SOL    HW210722   4.351   0.301   2.084
 3275SOL     OW10723   5.037   0.566   1.428
 3275SOL    HW110724   5.130   0.549   1.460
 3275SOL    HW210725   4.972   0.523   1.490
 3276SOL     OW10726   6.007   5.601   0.323
 3276SOL    HW110727   5.959   5.525   0.365
 3276SOL    HW210728   5.998   5.596   0.223
 3277SOL     OW10729   4.138   0.857   2.479
 3277SOL    HW110730   4.206   0.798   2.523
 3277SOL    HW210731   4.163   0.870   2.383
 3278SOL     OW10732   4.914   1.439   6.835
 3278SOL    HW110733   4.946   1.506   6.768
 3278SOL    HW210734   4.967   1.450   6.920
 3279SOL     OW10735   4.431   0.609   2.289
 3279SOL    HW110736   4.413   0.519   2.329
 3279SOL    HW210737   4.400   0.680   2.353
 3280SOL     OW10738   6.540   2.587   4.310
 3280SOL    HW110739   6.640   2.583   4.309
 3280SOL    HW210740   6.503   2.500   4.279
 3281SOL     OW10741   6.096   2.739   2.335
 3281SOL    HW110742   6.043   2.802   2.278
 3281SOL    HW210743   6.111   2.653   2.286
 3282SOL     OW10744   6.900   4.637   5.131
 3282SOL    HW110745   6.951   4.673   5.053
 3282SOL    HW210746   6.832   4.571   5.098
 3283SOL     OW10747   3.423   1.342   0.474
 3283SOL    HW110748   3.339   1.383   0.439
 3283SOL    HW210749   3.501   1.399   0.448
 3284SOL     OW10750   2.028   1.100   5.353
 3284SOL    HW110751   2.078   1.133   5.432
 3284SOL    HW210752   2.003   1.004   5.367
 3285SOL     OW10753   3.773   1.537   3.930
 3285SOL    HW110754   3.820   1.457   3.892
 3285SOL    HW210755   3.788   1.616   3.872
 3286SOL     OW10756   1.159   4.185   3.105
 3286SOL    HW110757   1.181   4.093   3.139
 3286SOL    HW210758   1.234   4.247   3.127
 3287SOL     OW10759   3.204   1.445   0.312
 3287SOL    HW110760   3.156   1.421   0.396
 3287SOL    HW210761   3.156   1.406   0.233
 3288SOL     OW10762   3.205   5.230   1.776
 3288SOL    HW110763   3.207   5.307   1.840
 3288SOL    HW210764   3.299   5.206   1.751
 3289SOL     OW10765   5.083   0.060   0.084
 3289SOL    HW110766   5.049   6.984   0.085
 3289SOL    HW210767   5.102   0.088   7.008
 3290SOL     OW10768   0.723   4.457   6.984
 3290SOL    HW110769   0.664   4.478   0.043
 3290SOL    HW210770   0.679   4.488   6.899
 3291SOL     OW10771   4.945   6.575   5.739
 3291SOL    HW110772   5.028   6.571   5.796
 3291SOL    HW210773   4.970   6.605   5.647
 3292SOL     OW10774   0.283   3.072   1.154
 3292SOL    HW110775   0.256   3.163   1.185
 3292SOL    HW210776   0.322   3.078   1.063
 3293SOL     OW10777   6.570   4.463   2.365
 3293SOL    HW110778   6.612   4.548   2.334
 3293SOL    HW210779   6.476   4.458   2.333
 3294SOL     OW10780   4.101   3.044   5.457
 3294SOL    HW110781   4.183   2.990   5.434
 3294SOL    HW210782   4.043   2.992   5.519
 3295SOL     OW10783   1.095   3.498   3.485
 3295SOL    HW110784   1.036   3.462   3.412
 3295SOL    HW210785   1.185   3.520   3.447
 3296SOL     OW10786   2.287   0.678   0.116
 3296SOL    HW110787   2.328   0.750   0.060
 3296SOL    HW210788   2.290   0.592   0.066
 3297SOL     OW10789   2.923   0.702   5.863
 3297SOL    HW110790   2.924   0.711   5.764
 3297SOL    HW210791   2.965   0.783   5.904
 3298SOL     OW10792   3.696   3.924   5.980
 3298SOL    HW110793   3.633   3.972   6.041
 3298SOL    HW210794   3.645   3.854   5.929
 3299SOL     OW10795   2.663   0.061   4.263
 3299SOL    HW110796   2.606   0.141   4.245
 3299SOL    HW210797   2.730   0.083   4.334
 3300SOL     OW10798   1.821   0.918   3.049
 3300SOL    HW110799   1.891   0.987   3.064
 3300SOL    HW210800   1.791   0.921   2.954
 3301SOL     OW10801   1.173   1.021   2.252
 3301SOL    HW110802   1.137   1.013   2.345
 3301SOL    HW210803   1.139   0.946   2.196
 3302SOL     OW10804   1.254   4.611   4.796
 3302SOL    HW110805   1.190   4.688   4.788
 3302SOL    HW210806   1.322   4.617   4.723
 3303SOL     OW10807   4.408   3.788   0.683
 3303SOL    HW110808   4.313   3.816   0.674
 3303SOL    HW210809   4.416   3.716   0.752
 3304SOL     OW10810   2.338   3.885   1.131
 3304SOL    HW110811   2.411   3.895   1.062
 3304SOL    HW210812   2.320   3.787   1.145
 3305SOL     OW10813   3.098   2.574   0.076
 3305SOL    HW110814   3.120   2.671   0.090
 3305SOL    HW210815   3.148   2.540   7.014
 3306SOL     OW10816   2.730   0.526   1.031
 3306SOL    HW110817   2.759   0.511   1.125
 3306SOL    HW210818   2.708   0.437   0.989
 3307SOL     OW10819   1.976   5.586   5.210
 3307SOL    HW110820   2.070   5.554   5.202
 3307SOL    HW210821   1.964   5.670   5.156
 3308SOL     OW10822   5.087   5.890   1.224
 3308SOL    HW110823   5.144   5.862   1.301
 3308SOL    HW210824   5.030   5.813   1.195
 3309SOL     OW10825   5.921   3.534   4.196
 3309SOL    HW110826   5.839   3.512   4.249
 3309SOL    HW210827   5.894   3.570   4.107
 3310SOL     OW10828   6.372   4.595   6.580
 3310SOL    HW110829   6.419   4.675   6.543
 3310SOL    HW210830   6.440   4.529   6.612
 3311SOL     OW10831   1.935   2.934   0.630
 3311SOL    HW110832   1.947   3.014   0.570
 3311SOL    HW210833   2.022   2.885   0.637
 3312SOL     OW10834   5.150   3.667   0.371
 3312SOL    HW110835   5.098   3.729   0.312
 3312SOL    HW210836   5.233   3.713   0.402
 3313SOL     OW10837   1.027   6.725   3.530
 3313SOL    HW110838   0.929   6.725   3.551
 3313SOL    HW210839   1.079   6.751   3.612
 3314SOL     OW10840   3.168   6.179   3.671
 3314SOL    HW110841   3.190   6.270   3.636
 3314SOL    HW210842   3.239   6.149   3.734
 3315SOL     OW10843   0.895   6.444   3.721
 3315SOL    HW110844   0.870   6.531   3.678
 3315SOL    HW210845   0.956   6.461   3.798
 3316SOL     OW10846   3.674   1.923   0.335
 3316SOL    HW110847   3.751   1.967   0.380
 3316SOL    HW210848   3.678   1.824   0.349
 3317SOL     OW10849   5.642   2.022   1.020
 3317SOL    HW110850   5.582   2.013   0.941
 3317SOL    HW210851   5.703   1.943   1.025
 3318SOL     OW10852   3.815   2.448   0.713
 3318SOL    HW110853   3.820   2.486   0.805
 3318SOL    HW210854   3.785   2.519   0.649
 3319SOL     OW10855   6.658   6.521   3.894
 3319SOL    HW110856   6.566   6.551   3.919
 3319SOL    HW210857   6.662   6.501   3.796
 3320SOL     OW10858   6.317   0.461   2.591
 3320SOL    HW110859   6.227   0.498   2.613
 3320SOL    HW210860   6.311   0.409   2.506
 3321SOL     OW10861   4.517   1.755   6.742
 3321SOL    HW110862   4.607   1.746   6.784
 3321SOL    HW210863   4.498   1.675   6.685
 3322SOL     OW10864   6.036   3.714   1.419
 3322SOL    HW110865   5.972   3.641   1.444
 3322SOL    HW210866   6.106   3.677   1.357
 3323SOL     OW10867   0.967   0.404   2.245
 3323SOL    HW110868   0.919   0.491   2.234
 3323SOL    HW210869   1.052   0.406   2.193
 3324SOL     OW10870   6.367   5.734   6.209
 3324SOL    HW110871   6.390   5.646   6.168
 3324SOL    HW210872   6.394   5.734   6.306
 3325SOL     OW10873   2.527   5.052   6.438
 3325SOL    HW110874   2.602   5.084   6.497
 3325SOL    HW210875   2.536   4.954   6.423
 3326SOL     OW10876   4.127   1.586   1.873
 3326SOL    HW110877   4.145   1.617   1.966
 3326SOL    HW210878   4.213   1.558   1.830
 3327SOL     OW10879   1.334   6.199   5.762
 3327SOL    HW110880   1.323   6.211   5.860
 3327SOL    HW210881   1.265   6.252   5.713
 3328SOL     OW10882   4.708   2.839   5.237
 3328SOL    HW110883   4.707   2.910   5.308
 3328SOL    HW210884   4.654   2.761   5.267
 3329SOL     OW10885   6.768   6.520   5.767
 3329SOL    HW110886   6.725   6.469   5.842
 3329SOL    HW210887   6.711   6.513   5.685
 3330SOL     OW10888   6.777   2.773   2.663
 3330SOL    HW110889   6.838   2.852   2.673
 3330SOL    HW210890   6.689   2.804   2.628
 3331SOL     OW10891   1.647   3.219   0.576
 3331SOL    HW110892   1.653   3.256   0.483
 3331SOL    HW210893   1.607   3.288   0.637
 3332SOL     OW10894   0.046   4.214   1.876
 3332SOL    HW110895   0.094   4.152   1.813
 3332SOL    HW210896   0.099   4.222   1.961
 3333SOL     OW10897   3.366   6.035   5.175
 3333SOL    HW110898   3.456   6.070   5.199
 3333SOL    HW210899   3.368   5.936   5.170
 3334SOL     OW10900   1.604   3.211   1.188
 3334SOL    HW110901   1.555   3.269   1.122
 3334SOL    HW210902   1.558   3.123   1.195
 3335SOL     OW10903   5.386   4.479   4.513
 3335SOL    HW110904   5.395   4.496   4.611
 3335SOL    HW210905   5.476   4.473   4.471
 3336SOL     OW10906   3.351   6.281   5.751
 3336SOL    HW110907   3.256   6.299   5.775
 3336SOL    HW210908   3.364   6.182   5.740
 3337SOL     OW10909   3.634   1.502   0.588
 3337SOL    HW110910   3.688   1.421   0.611
 3337SOL    HW210911   3.577   1.528   0.666
 3338SOL     OW10912   0.055   5.436   0.292
 3338SOL    HW110913   0.119   5.425   0.217
 3338SOL    HW210914   0.011   5.348   0.311
 3339SOL     OW10915   0.199   4.551   6.380
 3339SOL    HW110916   0.220   4.642   6.345
 3339SOL    HW210917   0.114   4.555   6.433
 3340SOL     OW10918   3.902   0.472   1.720
 3340SOL    HW110919   3.960   0.395   1.747
 3340SOL    HW210920   3.813   0.464   1.764
 3341SOL     OW10921   0.957   0.348   6.922
 3341SOL    HW110922   1.043   0.300   6.937
 3341SOL    HW210923   0.932   0.343   6.825
 3342SOL     OW10924   1.726   6.622   5.451
 3342SOL    HW110925   1.643   6.603   5.399
 3342SOL    HW210926   1.723   6.715   5.487
 3343SOL     OW10927   0.463   2.078   0.900
 3343SOL    HW110928   0.506   2.156   0.946
 3343SOL    HW210929   0.376   2.058   0.945
 3344SOL     OW10930   1.890   2.394   6.429
 3344SOL    HW110931   1.835   2.377   6.347
 3344SOL    HW210932   1.832   2.391   6.510
 3345SOL     OW10933   2.705   3.290   6.499
 3345SOL    HW110934   2.711   3.224   6.574
 3345SOL    HW210935   2.769   3.265   6.427
 3346SOL     OW10936   2.178   5.542   2.883
 3346SOL    HW110937   2.152   5.632   2.849
 3346SOL    HW210938   2.274   5.523   2.859
 3347SOL     OW10939   6.359   3.783   4.280
 3347SOL    HW110940   6.330   3.794   4.184
 3347SOL    HW210941   6.433   3.717   4.285
 3348SOL     OW10942   4.058   3.805   3.495
 3348SOL    HW110943   4.085   3.792   3.590
 3348SOL    HW210944   3.981   3.868   3.490
 3349SOL     OW10945   4.879   2.814   0.417
 3349SOL    HW110946   4.971   2.800   0.380
 3349SOL    HW210947   4.816   2.750   0.374
 3350SOL     OW10948   2.530   2.999   1.358
 3350SOL    HW110949   2.524   3.091   1.398
 3350SOL    HW210950   2.458   2.987   1.290
 3351SOL     OW10951   5.899   2.944   0.688
 3351SOL    HW110952   5.930   2.852   0.665
 3351SOL    HW210953   5.961   2.985   0.755
 3352SOL     OW10954   0.135   3.390   0.149
 3352SOL    HW110955   0.138   3.430   0.240
 3352SOL    HW210956   0.137   3.290   0.156
 3353SOL     OW10957   1.604   6.653   6.430
 3353SOL    HW110958   1.565   6.602   6.506
 3353SOL    HW210959   1.532   6.704   6.383
 3354SOL     OW10960   0.923   6.816   2.388
 3354SOL    HW110961   0.979   6.775   2.315
 3354SOL    HW210962   0.969   6.897   2.424
 3355SOL     OW10963   5.859   0.774   2.654
 3355SOL    HW110964   5.869   0.677   2.633
 3355SOL    HW210965   5.763   0.796   2.670
 3356SOL     OW10966   1.027   3.756   6.977
 3356SOL    HW110967   0.964   3.687   7.014
 3356SOL    HW210968   1.081   3.715   6.903
 3357SOL     OW10969   2.694   5.643   2.243
 3357SOL    HW110970   2.758   5.569   2.223
 3357SOL    HW210971   2.644   5.623   2.326
 3358SOL     OW10972   6.696   3.963   3.452
 3358SOL    HW110973   6.745   3.925   3.531
 3358SOL    HW210974   6.598   3.956   3.468
 3359SOL     OW10975   2.286   1.333   1.673
 3359SOL    HW110976   2.370   1.387   1.666
 3359SOL    HW210977   2.307   1.236   1.658
 3360SOL     OW10978   2.978   1.084   6.424
 3360SOL    HW110979   2.889   1.085   6.378
 3360SOL    HW210980   3.008   0.990   6.437
 3361SOL     OW10981   2.410   1.032   3.015
 3361SOL    HW110982   2.401   0.953   3.077
 3361SOL    HW210983   2.382   1.115   3.063
 3362SOL     OW10984   3.030   2.247   4.484
 3362SOL    HW110985   2.952   2.296   4.521
 3362SOL    HW210986   3.006   2.206   4.395
 3363SOL     OW10987   6.375   0.972   6.983
 3363SOL    HW110988   6.280   1.003   6.982
 3363SOL    HW210989   6.381   0.884   0.012
 3364SOL     OW10990   1.640   5.379   5.519
 3364SOL    HW110991   1.686   5.293   5.496
 3364SOL    HW210992   1.641   5.391   5.618
 3365SOL     OW10993   6.394   2.188   5.055
 3365SOL    HW110994   6.332   2.249   5.104
 3365SOL    HW210995   6.480   2.180   5.104
 3366SOL     OW10996   5.499   0.388   0.049
 3366SOL    HW110997   5.513   0.400   0.147
 3366SOL    HW210998   5.409   0.422   0.022
 3367SOL     OW10999   2.292   0.112   2.491
 3367SOL    HW111000   2.384   0.141   2.466
 3367SOL    HW211001   2.275   0.133   2.588
 3368SOL     OW11002   6.178   1.280   4.598
 3368SOL    HW111003   6.245   1.317   4.533
 3368SOL    HW211004   6.114   1.221   4.550
 3369SOL     OW11005   3.997   5.441   6.525
 3369SOL    HW111006   3.938   5.493   6.587
 3369SOL    HW211007   3.948   5.361   6.491
 3370SOL     OW11008   6.140   0.805   5.537
 3370SOL    HW111009   6.149   0.904   5.549
 3370SOL    HW211010   6.205   0.758   5.597
 3371SOL     OW11011   6.769   4.855   1.292
 3371SOL    HW111012   6.838   4.796   1.248
 3371SOL    HW211013   6.811   4.903   1.369
 3372SOL     OW11014   1.446   3.021   3.000
 3372SOL    HW111015   1.487   3.060   3.083
 3372SOL    HW211016   1.518   3.008   2.931
 3373SOL     OW11017   1.316   2.725   6.138
 3373SOL    HW111018   1.269   2.741   6.051
 3373SOL    HW211019   1.290   2.796   6.203
 3374SOL     OW11020   3.717   6.246   5.250
 3374SOL    HW111021   3.691   6.205   5.337
 3374SOL    HW211022   3.797   6.304   5.262
 3375SOL     OW11023   3.670   3.841   4.981
 3375SOL    HW111024   3.646   3.936   4.962
 3375SOL    HW211025   3.667   3.788   4.897
 3376SOL     OW11026   3.365   2.915   1.558
 3376SOL    HW111027   3.430   2.991   1.563
 3376SOL    HW211028   3.275   2.950   1.533
 3377SOL     OW11029   2.815   5.395   5.890
 3377SOL    HW111030   2.741   5.426   5.950
 3377SOL    HW211031   2.820   5.456   5.811
 3378SOL     OW11032   6.645   1.089   1.182
 3378SOL    HW111033   6.630   1.184   1.211
 3378SOL    HW211034   6.642   1.029   1.262
 3379SOL     OW11035   5.762   5.360   5.534
 3379SOL    HW111036   5.830   5.407   5.478
 3379SOL    HW211037   5.705   5.302   5.477
 3380SOL     OW11038   0.819   3.930   5.554
 3380SOL    HW111039   0.824   3.877   5.639
 3380SOL    HW211040   0.751   4.002   5.564
 3381SOL     OW11041   3.094   2.368   0.995
 3381SOL    HW111042   3.176   2.415   1.025
 3381SOL    HW211043   3.115   2.272   0.977
 3382SOL     OW11044   0.101   6.507   0.493
 3382SOL    HW111045   0.109   6.499   0.394
 3382SOL    HW211046   0.149   6.589   0.524
 3383SOL     OW11047   0.642   3.728   1.215
 3383SOL    HW111048   0.684   3.778   1.139
 3383SOL    HW211049   0.693   3.749   1.299
 3384SOL     OW11050   3.408   3.810   3.213
 3384SOL    HW111051   3.383   3.715   3.194
 3384SOL    HW211052   3.472   3.842   3.142
 3385SOL     OW11053   6.575   3.966   4.164
 3385SOL    HW111054   6.651   4.014   4.209
 3385SOL    HW211055   6.541   3.894   4.225
 3386SOL     OW11056   5.823   4.242   4.503
 3386SOL    HW111057   5.736   4.207   4.468
 3386SOL    HW211058   5.896   4.222   4.439
 3387SOL     OW11059   3.620   1.526   2.367
 3387SOL    HW111060   3.711   1.543   2.404
 3387SOL    HW211061   3.585   1.440   2.404
 3388SOL     OW11062   6.007   1.876   1.431
 3388SOL    HW111063   5.956   1.961   1.442
 3388SOL    HW211064   6.046   1.849   1.519
 3389SOL     OW11065   4.064   5.794   2.681
 3389SOL    HW111066   4.059   5.706   2.635
 3389SOL    HW211067   4.001   5.795   2.759
 3390SOL     OW11068   4.351   1.357   5.817
 3390SOL    HW111069   4.307   1.350   5.728
 3390SOL    HW211070   4.447   1.330   5.808
 3391SOL     OW11071   2.881   1.847   4.026
 3391SOL    HW111072   2.944   1.879   3.956
 3391SOL    HW211073   2.787   1.872   4.000
 3392SOL     OW11074   5.273   6.391   3.783
 3392SOL    HW111075   5.176   6.396   3.761
 3392SOL    HW211076   5.290   6.439   3.869
 3393SOL     OW11077   7.001   6.631   6.543
 3393SOL    HW111078   0.072   6.594   6.520
 3393SOL    HW211079   7.010   6.700   6.615
 3394SOL     OW11080   5.221   1.385   1.780
 3394SOL    HW111081   5.300   1.325   1.770
 3394SOL    HW211082   5.246   1.479   1.755
 3395SOL     OW11083   1.937   3.799   5.091
 3395SOL    HW111084   1.906   3.860   5.163
 3395SOL    HW211085   1.890   3.711   5.099
 3396SOL     OW11086   6.301   3.493   4.448
 3396SOL    HW111087   6.374   3.542   4.401
 3396SOL    HW211088   6.250   3.557   4.506
 3397SOL     OW11089   3.259   5.531   6.426
 3397SOL    HW111090   3.345   5.492   6.460
 3397SOL    HW211091   3.231   5.483   6.343
 3398SOL     OW11092   0.551   1.456   3.229
 3398SOL    HW111093   0.487   1.385   3.199
 3398SOL    HW211094   0.575   1.514   3.151
 3399SOL     OW11095   4.116   6.007   4.507
 3399SOL    HW111096   4.085   5.912   4.519
 3399SOL    HW211097   4.089   6.039   4.417
 3400SOL     OW11098   4.990   2.322   0.563
 3400SOL    HW111099   4.924   2.319   0.638
 3400SOL    HW211100   5.075   2.279   0.592
 3401SOL     OW11101   6.757   4.685   6.702
 3401SOL    HW111102   6.674   4.699   6.649
 3401SOL    HW211103   6.741   4.618   6.774
 3402SOL     OW11104   4.087   4.689   2.017
 3402SOL    HW111105   4.089   4.687   1.917
 3402SOL    HW211106   4.015   4.628   2.049
 3403SOL     OW11107   4.032   1.801   6.266
 3403SOL    HW111108   3.985   1.765   6.185
 3403SOL    HW211109   3.969   1.857   6.319
 3404SOL     OW11110   4.684   5.768   2.000
 3404SOL    HW111111   4.644   5.841   1.944
 3404SOL    HW211112   4.626   5.687   1.996
 3405SOL     OW11113   5.961   4.441   6.813
 3405SOL    HW111114   5.945   4.499   6.892
 3405SOL    HW211115   6.010   4.358   6.841
 3406SOL     OW11116   1.160   3.447   1.593
 3406SOL    HW111117   1.215   3.363   1.589
 3406SOL    HW211118   1.220   3.526   1.598
 3407SOL     OW11119   1.453   5.542   2.942
 3407SOL    HW111120   1.438   5.443   2.949
 3407SOL    HW211121   1.366   5.589   2.956
 3408SOL     OW11122   5.270   3.565   2.681
 3408SOL    HW111123   5.322   3.480   2.670
 3408SOL    HW211124   5.174   3.543   2.698
 3409SOL     OW11125   2.564   1.066   6.589
 3409SOL    HW111126   2.602   1.021   6.670
 3409SOL    HW211127   2.510   1.145   6.617
 3410SOL     OW11128   0.331   2.085   0.149
 3410SOL    HW111129   0.398   2.094   0.223
 3410SOL    HW211130   0.365   2.020   0.081
 3411SOL     OW11131   5.119   2.112   2.216
 3411SOL    HW111132   5.051   2.181   2.193
 3411SOL    HW211133   5.204   2.132   2.168
 3412SOL     OW11134   4.466   5.238   0.099
 3412SOL    HW111135   4.539   5.236   0.167
 3412SOL    HW211136   4.469   5.325   0.049
 3413SOL     OW11137   5.136   1.028   2.469
 3413SOL    HW111138   5.122   1.028   2.568
 3413SOL    HW211139   5.065   1.083   2.426
 3414SOL     OW11140   3.733   0.390   5.452
 3414SOL    HW111141   3.690   0.370   5.540
 3414SOL    HW211142   3.721   0.313   5.390
 3415SOL     OW11143   1.612   5.930   5.619
 3415SOL    HW111144   1.658   5.991   5.683
 3415SOL    HW211145   1.516   5.958   5.610
 3416SOL     OW11146   2.443   4.242   5.396
 3416SOL    HW111147   2.441   4.331   5.443
 3416SOL    HW211148   2.537   4.210   5.389
 3417SOL     OW11149   5.244   0.666   1.125
 3417SOL    HW111150   5.164   0.621   1.085
 3417SOL    HW211151   5.324   0.608   1.112
 3418SOL     OW11152   2.943   1.999   5.900
 3418SOL    HW111153   2.949   2.069   5.829
 3418SOL    HW211154   3.005   2.023   5.975
 3419SOL     OW11155   4.716   3.411   6.286
 3419SOL    HW111156   4.753   3.322   6.261
 3419SOL    HW211157   4.640   3.434   6.225
 3420SOL     OW11158   3.331   0.778   4.877
 3420SOL    HW111159   3.273   0.840   4.929
 3420SOL    HW211160   3.389   0.725   4.940
 3421SOL     OW11161   0.267   6.641   3.047
 3421SOL    HW111162   0.213   6.691   3.115
 3421SOL    HW211163   0.364   6.655   3.066
 3422SOL     OW11164   3.255   2.095   2.687
 3422SOL    HW111165   3.255   2.138   2.777
 3422SOL    HW211166   3.286   2.001   2.694
 3423SOL     OW11167   3.456   0.931   1.706
 3423SOL    HW111168   3.542   0.890   1.736
 3423SOL    HW211169   3.469   1.028   1.689
 3424SOL     OW11170   5.040   1.726   1.513
 3424SOL    HW111171   5.080   1.817   1.526
 3424SOL    HW211172   5.112   1.657   1.526
 3425SOL     OW11173   4.332   3.913   1.669
 3425SOL    HW111174   4.416   3.967   1.668
 3425SOL    HW211175   4.268   3.949   1.737
 3426SOL     OW11176   4.818   3.878   0.924
 3426SOL    HW111177   4.869   3.821   0.988
 3426SOL    HW211178   4.784   3.821   0.849
 3427SOL     OW11179   0.865   1.426   0.567
 3427SOL    HW111180   0.944   1.475   0.603
 3427SOL    HW211181   0.824   1.370   0.639
 3428SOL     OW11182   4.612   4.652   3.363
 3428SOL    HW111183   4.618   4.570   3.421
 3428SOL    HW211184   4.518   4.665   3.332
 3429SOL     OW11185   0.503   2.671   1.168
 3429SOL    HW111186   0.546   2.757   1.197
 3429SOL    HW211187   0.404   2.686   1.156
 3430SOL     OW11188   1.065   5.374   6.647
 3430SOL    HW111189   1.117   5.340   6.569
 3430SOL    HW211190   1.031   5.296   6.701
 3431SOL     OW11191   1.939   5.964   6.261
 3431SOL    HW111192   1.893   5.999   6.179
 3431SOL    HW211193   1.963   5.868   6.246
 3432SOL     OW11194   3.792   2.047   6.022
 3432SOL    HW111195   3.777   1.993   6.105
 3432SOL    HW211196   3.797   1.986   5.943
 3433SOL     OW11197   4.258   1.195   4.369
 3433SOL    HW111198   4.352   1.165   4.357
 3433SOL    HW211199   4.217   1.148   4.447
 3434SOL     OW11200   4.331   1.649   3.495
 3434SOL    HW111201   4.367   1.691   3.411
 3434SOL    HW211202   4.400   1.589   3.534
 3435SOL     OW11203   0.942   1.343   0.112
 3435SOL    HW111204   0.931   1.410   0.185
 3435SOL    HW211205   0.855   1.331   0.064
 3436SOL     OW11206   3.905   6.733   1.882
 3436SOL    HW111207   3.951   6.645   1.868
 3436SOL    HW211208   3.865   6.763   1.795
 3437SOL     OW11209   4.057   0.319   6.783
 3437SOL    HW111210   4.110   0.358   6.859
 3437SOL    HW211211   4.075   0.371   6.700
 3438SOL     OW11212   0.728   5.369   6.599
 3438SOL    HW111213   0.767   5.285   6.562
 3438SOL    HW211214   0.788   5.403   6.672
 3439SOL     OW11215   2.228   0.598   4.293
 3439SOL    HW111216   2.252   0.651   4.211
 3439SOL    HW211217   2.298   0.611   4.363
 3440SOL     OW11218   3.541   2.044   0.138
 3440SOL    HW111219   3.573   2.077   0.049
 3440SOL    HW211220   3.612   1.988   0.180
 3441SOL     OW11221   4.815   0.538   4.076
 3441SOL    HW111222   4.826   0.634   4.104
 3441SOL    HW211223   4.721   0.509   4.096
 3442SOL     OW11224   1.195   5.167   3.054
 3442SOL    HW111225   1.123   5.233   3.035
 3442SOL    HW211226   1.194   5.144   3.151
 3443SOL     OW11227   5.424   6.764   4.576
 3443SOL    HW111228   5.391   6.837   4.517
 3443SOL    HW211229   5.520   6.747   4.557
 3444SOL     OW11230   4.085   5.607   0.184
 3444SOL    HW111231   4.134   5.575   0.102
 3444SOL    HW211232   3.989   5.582   0.177
 3445SOL     OW11233   5.691   4.797   5.211
 3445SOL    HW111234   5.623   4.850   5.261
 3445SOL    HW211235   5.714   4.844   5.126
 3446SOL     OW11236   2.221   6.329   1.800
 3446SOL    HW111237   2.168   6.276   1.733
 3446SOL    HW211238   2.298   6.274   1.832
 3447SOL     OW11239   6.259   4.448   5.602
 3447SOL    HW111240   6.167   4.482   5.586
 3447SOL    HW211241   6.309   4.514   5.658
 3448SOL     OW11242   3.901   3.273   0.746
 3448SOL    HW111243   3.926   3.304   0.838
 3448SOL    HW211244   3.855   3.184   0.753
 3449SOL     OW11245   6.557   6.351   3.147
 3449SOL    HW111246   6.463   6.319   3.145
 3449SOL    HW211247   6.608   6.312   3.071
 3450SOL     OW11248   0.796   2.033   1.208
 3450SOL    HW111249   0.855   2.055   1.130
 3450SOL    HW211250   0.726   1.967   1.178
 3451SOL     OW11251   1.650   4.936   4.587
 3451SOL    HW111252   1.652   5.032   4.614
 3451SOL    HW211253   1.677   4.927   4.492
 3452SOL     OW11254   6.752   1.956   0.900
 3452SOL    HW111255   6.747   1.858   0.919
 3452SOL    HW211256   6.843   1.989   0.922
 3453SOL     OW11257   5.708   5.617   5.272
 3453SOL    HW111258   5.687   5.582   5.181
 3453SOL    HW211259   5.806   5.617   5.287
 3454SOL     OW11260   0.285   0.943   0.791
 3454SOL    HW111261   0.251   0.887   0.716
 3454SOL    HW211262   0.385   0.933   0.797
 3455SOL     OW11263   1.190   2.924   3.496
 3455SOL    HW111264   1.123   2.850   3.488
 3455SOL    HW211265   1.148   3.011   3.471
 3456SOL     OW11266   6.391   0.587   0.422
 3456SOL    HW111267   6.320   0.655   0.402
 3456SOL    HW211268   6.481   0.627   0.404
 3457SOL     OW11269   2.050   6.537   3.592
 3457SOL    HW111270   2.103   6.606   3.642
 3457SOL    HW211271   1.957   6.571   3.578
 3458SOL     OW11272   5.188   5.147   0.319
 3458SOL    HW111273   5.120   5.220   0.322
 3458SOL    HW211274   5.232   5.146   0.229
 3459SOL     OW11275   5.974   0.064   3.399
 3459SOL    HW111276   5.957   0.150   3.446
 3459SOL    HW211277   5.887   0.016   3.383
 3460SOL     OW11278   4.370   2.790   0.496
 3460SOL    HW111279   4.338   2.866   0.439
 3460SOL    HW211280   4.345   2.703   0.453
 3461SOL     OW11281   2.819   5.877   2.948
 3461SOL    HW111282   2.803   5.944   3.021
 3461SOL    HW211283   2.838   5.925   2.863
 3462SOL     OW11284   4.807   2.408   2.648
 3462SOL    HW111285   4.839   2.367   2.562
 3462SOL    HW211286   4.842   2.502   2.655
 3463SOL     OW11287   1.253   3.068   0.987
 3463SOL    HW111288   1.274   3.041   1.081
 3463SOL    HW211289   1.331   3.116   0.948
 3464SOL     OW11290   5.484   1.554   5.910
 3464SOL    HW111291   5.470   1.625   5.978
 3464SOL    HW211292   5.566   1.501   5.933
 3465SOL     OW11293   1.737   4.893   1.738
 3465SOL    HW111294   1.725   4.868   1.642
 3465SOL    HW211295   1.799   4.828   1.782
 3466SOL     OW11296   6.367   4.150   4.481
 3466SOL    HW111297   6.462   4.162   4.507
 3466SOL    HW211298   6.337   4.058   4.505
 3467SOL     OW11299   3.913   3.549   0.352
 3467SOL    HW111300   3.850   3.555   0.429
 3467SOL    HW211301   3.887   3.473   0.292
 3468SOL     OW11302   4.010   1.342   1.559
 3468SOL    HW111303   4.088   1.279   1.559
 3468SOL    HW211304   3.955   1.326   1.641
 3469SOL     OW11305   3.725   5.545   5.329
 3469SOL    HW111306   3.721   5.626   5.387
 3469SOL    HW211307   3.693   5.568   5.238
 3470SOL     OW11308   1.455   2.485   1.467
 3470SOL    HW111309   1.375   2.543   1.483
 3470SOL    HW211310   1.456   2.410   1.533
 3471SOL     OW11311   4.948   2.948   4.931
 3471SOL    HW111312   5.047   2.956   4.918
 3471SOL    HW211313   4.903   2.948   4.841
 3472SOL     OW11314   5.053   1.687   2.555
 3472SOL    HW111315   5.146   1.702   2.520
 3472SOL    HW211316   4.994   1.763   2.527
 3473SOL     OW11317   6.222   4.505   1.820
 3473SOL    HW111318   6.248   4.410   1.839
 3473SOL    HW211319   6.140   4.528   1.871
 3474SOL     OW11320   4.821   3.937   3.693
 3474SOL    HW111321   4.724   3.959   3.709
 3474SOL    HW211322   4.853   3.876   3.766
 3475SOL     OW11323   0.245   4.009   4.248
 3475SOL    HW111324   0.203   4.030   4.336
 3475SOL    HW211325   0.278   3.915   4.248
 3476SOL     OW11326   2.014   2.336   3.330
 3476SOL    HW111327   1.970   2.248   3.346
 3476SOL    HW211328   2.018   2.354   3.232
 3477SOL     OW11329   0.749   4.308   1.852
 3477SOL    HW111330   0.768   4.216   1.884
 3477SOL    HW211331   0.786   4.375   1.917
 3478SOL     OW11332   2.791   0.458   1.312
 3478SOL    HW111333   2.764   0.369   1.349
 3478SOL    HW211334   2.882   0.482   1.344
 3479SOL     OW11335   0.748   4.321   5.430
 3479SOL    HW111336   0.783   4.401   5.479
 3479SOL    HW211337   0.824   4.275   5.384
 3480SOL     OW11338   1.325   4.829   6.309
 3480SOL    HW111339   1.284   4.739   6.294
 3480SOL    HW211340   1.335   4.845   6.407
 3481SOL     OW11341   5.880   0.963   4.758
 3481SOL    HW111342   5.821   0.952   4.677
 3481SOL    HW211343   5.963   0.909   4.746
 3482SOL     OW11344   5.941   2.853   6.642
 3482SOL    HW111345   5.938   2.767   6.592
 3482SOL    HW211346   5.849   2.893   6.647
 3483SOL     OW11347   5.035   2.524   5.406
 3483SOL    HW111348   5.122   2.538   5.452
 3483SOL    HW211349   5.014   2.427   5.403
 3484SOL     OW11350   1.192   3.053   4.537
 3484SOL    HW111351   1.184   2.954   4.553
 3484SOL    HW211352   1.103   3.091   4.511
 3485SOL     OW11353   6.798   3.455   7.001
 3485SOL    HW111354   6.730   3.382   7.012
 3485SOL    HW211355   6.884   3.416   6.967
 3486SOL     OW11356   1.882   6.937   4.882
 3486SOL    HW111357   1.901   7.018   4.827
 3486SOL    HW211358   1.962   6.878   4.885
 3487SOL     OW11359   4.172   2.028   6.909
 3487SOL    HW111360   4.214   2.040   6.819
 3487SOL    HW211361   4.073   2.023   6.900
 3488SOL     OW11362   4.904   6.602   5.231
 3488SOL    HW111363   4.920   6.662   5.152
 3488SOL    HW211364   4.901   6.507   5.200
 3489SOL     OW11365   3.407   6.214   0.470
 3489SOL    HW111366   3.328   6.276   0.467
 3489SOL    HW211367   3.476   6.245   0.405
 3490SOL     OW11368   3.482   6.400   0.948
 3490SOL    HW111369   3.488   6.492   0.908
 3490SOL    HW211370   3.400   6.394   1.005
 3491SOL     OW11371   4.750   4.818   5.890
 3491SOL    HW111372   4.839   4.845   5.929
 3491SOL    HW211373   4.745   4.719   5.883
 3492SOL     OW11374   5.918   3.991   3.599
 3492SOL    HW111375   5.930   4.074   3.653
 3492SOL    HW211376   5.912   4.015   3.502
 3493SOL     OW11377   0.020   3.343   5.849
 3493SOL    HW111378   6.965   3.281   5.823
 3493SOL    HW211379   0.044   3.328   5.945
 3494SOL     OW11380   4.145   1.119   2.022
 3494SOL    HW111381   4.064   1.156   2.069
 3494SOL    HW211382   4.213   1.192   2.010
 3495SOL     OW11383   1.613   4.079   3.914
 3495SOL    HW111384   1.559   4.000   3.944
 3495SOL    HW211385   1.694   4.087   3.971
 3496SOL     OW11386   6.235   5.259   1.246
 3496SOL    HW111387   6.333   5.264   1.227
 3496SOL    HW211388   6.184   5.299   1.170
 3497SOL     OW11389   3.479   0.282   1.618
 3497SOL    HW111390   3.516   0.206   1.565
 3497SOL    HW211391   3.517   0.280   1.710
 3498SOL     OW11392   2.529   2.563   1.463
 3498SOL    HW111393   2.471   2.483   1.454
 3498SOL    HW211394   2.625   2.537   1.446
 3499SOL     OW11395   5.552   6.354   4.530
 3499SOL    HW111396   5.614   6.329   4.604
 3499SOL    HW211397   5.472   6.401   4.567
 3500SOL     OW11398   3.255   2.131   3.790
 3500SOL    HW111399   3.315   2.169   3.719
 3500SOL    HW211400   3.177   2.087   3.746
 3501SOL     OW11401   1.404   6.907   6.123
 3501SOL    HW111402   1.410   6.912   6.023
 3501SOL    HW211403   1.367   6.993   6.158
 3502SOL     OW11404   5.010   2.411   1.722
 3502SOL    HW111405   5.065   2.494   1.716
 3502SOL    HW211406   4.922   2.431   1.766
 3503SOL     OW11407   1.082   5.817   6.152
 3503SOL    HW111408   1.044   5.841   6.241
 3503SOL    HW211409   1.180   5.837   6.152
 3504SOL     OW11410   2.095   0.999   0.155
 3504SOL    HW111411   2.190   0.974   0.174
 3504SOL    HW211412   2.036   0.963   0.227
 3505SOL     OW11413   5.011   3.056   5.451
 3505SOL    HW111414   4.959   2.973   5.472
 3505SOL    HW211415   4.992   3.084   5.357
 3506SOL     OW11416   4.367   4.735   5.175
 3506SOL    HW111417   4.268   4.747   5.180
 3506SOL    HW211418   4.388   4.652   5.123
 3507SOL     OW11419   3.177   1.465   0.688
 3507SOL    HW111420   3.226   1.394   0.739
 3507SOL    HW211421   3.143   1.535   0.751
 3508SOL     OW11422   3.877   1.625   6.117
 3508SOL    HW111423   3.789   1.641   6.161
 3508SOL    HW211424   3.869   1.548   6.053
 3509SOL     OW11425   4.189   5.839   6.613
 3509SOL    HW111426   4.132   5.789   6.679
 3509SOL    HW211427   4.278   5.860   6.655
 3510SOL     OW11428   2.299   1.056   1.632
 3510SOL    HW111429   2.383   1.004   1.617
 3510SOL    HW211430   2.263   1.087   1.545
 3511SOL     OW11431   2.555   4.525   1.908
 3511SOL    HW111432   2.546   4.494   1.813
 3511SOL    HW211433   2.651   4.543   1.928
 3512SOL     OW11434   0.343   5.478   6.113
 3512SOL    HW111435   0.253   5.522   6.124
 3512SOL    HW211436   0.330   5.381   6.093
 3513SOL     OW11437   5.646   1.906   0.203
 3513SOL    HW111438   5.740   1.933   0.220
 3513SOL    HW211439   5.591   1.987   0.184
 3514SOL     OW11440   3.158   1.763   1.830
 3514SOL    HW111441   3.143   1.862   1.830
 3514SOL    HW211442   3.247   1.743   1.873
 3515SOL     OW11443   0.315   4.482   4.601
 3515SOL    HW111444   0.307   4.413   4.673
 3515SOL    HW211445   0.403   4.472   4.555
 3516SOL     OW11446   5.042   0.983   1.131
 3516SOL    HW111447   5.111   1.039   1.177
 3516SOL    HW211448   4.999   0.922   1.198
 3517SOL     OW11449   5.005   0.828   1.710
 3517SOL    HW111450   4.907   0.823   1.687
 3517SOL    HW211451   5.022   0.910   1.765
 3518SOL     OW11452   5.719   1.398   5.473
 3518SOL    HW111453   5.720   1.373   5.377
 3518SOL    HW211454   5.794   1.352   5.521
 3519SOL     OW11455   3.306   1.512   1.039
 3519SOL    HW111456   3.375   1.518   0.967
 3519SOL    HW211457   3.302   1.599   1.089
 3520SOL     OW11458   2.544   6.157   4.276
 3520SOL    HW111459   2.451   6.190   4.297
 3520SOL    HW211460   2.572   6.092   4.347
 3521SOL     OW11461   2.544   2.610   6.482
 3521SOL    HW111462   2.510   2.523   6.516
 3521SOL    HW211463   2.473   2.654   6.426
 3522SOL     OW11464   1.449   6.174   6.664
 3522SOL    HW111465   1.490   6.199   6.577
 3522SOL    HW211466   1.350   6.189   6.660
 3523SOL     OW11467   3.577   5.719   0.087
 3523SOL    HW111468   3.661   5.771   0.074
 3523SOL    HW211469   3.498   5.775   0.061
 3524SOL     OW11470   4.665   1.090   3.723
 3524SOL    HW111471   4.621   1.017   3.777
 3524SOL    HW211472   4.734   1.135   3.779
 3525SOL     OW11473   0.294   2.914   3.482
 3525SOL    HW111474   0.232   2.852   3.529
 3525SOL    HW211475   0.352   2.961   3.550
 3526SOL     OW11476   0.526   6.566   2.063
 3526SOL    HW111477   0.600   6.501   2.079
 3526SOL    HW211478   0.522   6.588   1.966
 3527SOL     OW11479   6.475   2.949   0.049
 3527SOL    HW111480   6.492   2.862   0.003
 3527SOL    HW211481   6.379   2.975   0.036
 3528SOL     OW11482   2.230   4.784   4.921
 3528SOL    HW111483   2.157   4.758   4.984
 3528SOL    HW211484   2.293   4.707   4.909
 3529SOL     OW11485   4.488   4.523   0.814
 3529SOL    HW111486   4.490   4.453   0.742
 3529SOL    HW211487   4.576   4.525   0.861
 3530SOL     OW11488   6.550   0.130   0.547
 3530SOL    HW111489   6.585   0.062   0.612
 3530SOL    HW211490   6.465   0.096   0.506
 3531SOL     OW11491   4.589   2.250   0.564
 3531SOL    HW111492   4.519   2.184   0.591
 3531SOL    HW211493   4.630   2.222   0.478
 3532SOL     OW11494   2.407   0.564   1.585
 3532SOL    HW111495   2.462   0.646   1.600
 3532SOL    HW211496   2.329   0.564   1.649
 3533SOL     OW11497   1.822   2.750   3.090
 3533SOL    HW111498   1.880   2.748   3.171
 3533SOL    HW211499   1.742   2.807   3.108
 3534SOL     OW11500   0.557   0.904   0.866
 3534SOL    HW111501   0.622   0.960   0.816
 3534SOL    HW211502   0.606   0.845   0.930
 3535SOL     OW11503   3.485   6.363   3.482
 3535SOL    HW111504   3.511   6.459   3.490
 3535SOL    HW211505   3.488   6.320   3.572
 3536SOL     OW11506   4.102   1.928   3.641
 3536SOL    HW111507   4.118   2.016   3.597
 3536SOL    HW211508   4.044   1.872   3.582
 3537SOL     OW11509   1.800   6.799   3.038
 3537SOL    HW111510   1.798   6.702   3.015
 3537SOL    HW211511   1.711   6.840   3.018
 3538SOL     OW11512   3.345   5.533   1.782
 3538SOL    HW111513   3.261   5.575   1.817
 3538SOL    HW211514   3.325   5.484   1.697
 3539SOL     OW11515   3.500   4.185   4.287
 3539SOL    HW111516   3.401   4.173   4.288
 3539SOL    HW211517   3.532   4.201   4.380
 3540SOL     OW11518   1.438   2.219   3.404
 3540SOL    HW111519   1.489   2.205   3.319
 3540SOL    HW211520   1.496   2.264   3.471
 3541SOL     OW11521   3.912   3.989   4.536
 3541SOL    HW111522   3.921   3.934   4.452
 3541SOL    HW211523   3.949   3.937   4.613
 3542SOL     OW11524   6.623   5.611   1.307
 3542SOL    HW111525   6.617   5.646   1.214
 3542SOL    HW211526   6.695   5.660   1.356
 3543SOL     OW11527   5.202   2.260   4.490
 3543SOL    HW111528   5.121   2.257   4.432
 3543SOL    HW211529   5.272   2.318   4.447
 3544SOL     OW11530   2.685   6.759   7.008
 3544SOL    HW111531   2.726   6.695   0.056
 3544SOL    HW211532   2.757   6.812   6.965
 3545SOL     OW11533   2.826   5.364   0.772
 3545SOL    HW111534   2.754   5.416   0.817
 3545SOL    HW211535   2.915   5.393   0.806
 3546SOL     OW11536   0.908   4.616   2.782
 3546SOL    HW111537   0.949   4.708   2.785
 3546SOL    HW211538   0.961   4.558   2.720
 3547SOL     OW11539   5.140   4.731   4.414
 3547SOL    HW111540   5.062   4.767   4.364
 3547SOL    HW211541   5.109   4.680   4.495
 3548SOL     OW11542   4.913   3.121   5.789
 3548SOL    HW111543   4.892   3.207   5.742
 3548SOL    HW211544   4.939   3.052   5.721
 3549SOL     OW11545   5.023   3.275   2.552
 3549SOL    HW111546   5.017   3.335   2.471
 3549SOL    HW211547   5.119   3.260   2.574
 3550SOL     OW11548   4.876   1.645   3.589
 3550SOL    HW111549   4.792   1.676   3.545
 3550SOL    HW211550   4.949   1.712   3.572
 3551SOL     OW11551   2.039   6.602   2.343
 3551SOL    HW111552   2.038   6.549   2.428
 3551SOL    HW211553   2.026   6.699   2.365
 3552SOL     OW11554   6.403   4.157   3.105
 3552SOL    HW111555   6.373   4.085   3.168
 3552SOL    HW211556   6.363   4.141   3.014
 3553SOL     OW11557   6.115   1.668   3.338
 3553SOL    HW111558   6.189   1.602   3.323
 3553SOL    HW211559   6.116   1.736   3.264
 3554SOL     OW11560   4.233   5.531   6.978
 3554SOL    HW111561   4.264   5.445   6.936
 3554SOL    HW211562   4.312   5.589   6.996
 3555SOL     OW11563   0.873   2.299   3.782
 3555SOL    HW111564   0.901   2.275   3.875
 3555SOL    HW211565   0.949   2.282   3.719
 3556SOL     OW11566   4.246   1.492   6.239
 3556SOL    HW111567   4.256   1.584   6.276
 3556SOL    HW211568   4.335   1.448   6.234
 3557SOL     OW11569   0.759   0.271   4.012
 3557SOL    HW111570   0.752   0.370   4.021
 3557SOL    HW211571   0.668   0.230   4.016
 3558SOL     OW11572   0.508   6.703   1.257
 3558SOL    HW111573   0.558   6.640   1.198
 3558SOL    HW211574   0.565   6.783   1.275
 3559SOL     OW11575   0.805   0.373   5.970
 3559SOL    HW111576   0.876   0.307   5.992
 3559SOL    HW211577   0.821   0.410   5.878
 3560SOL     OW11578   6.980   0.124   1.442
 3560SOL    HW111579   6.931   0.211   1.447
 3560SOL    HW211580   6.937   0.059   1.504
 3561SOL     OW11581   5.606   4.769   3.882
 3561SOL    HW111582   5.607   4.694   3.948
 3561SOL    HW211583   5.672   4.839   3.910
 3562SOL     OW11584   4.089   2.193   2.280
 3562SOL    HW111585   4.099   2.164   2.185
 3562SOL    HW211586   3.994   2.180   2.310
 3563SOL     OW11587   4.505   6.325   1.751
 3563SOL    HW111588   4.488   6.286   1.660
 3563SOL    HW211589   4.419   6.329   1.801
 3564SOL     OW11590   6.149   4.255   2.382
 3564SOL    HW111591   6.074   4.250   2.447
 3564SOL    HW211592   6.135   4.333   2.321
 3565SOL     OW11593   0.805   1.027   5.630
 3565SOL    HW111594   0.878   0.966   5.599
 3565SOL    HW211595   0.783   1.092   5.557
 3566SOL     OW11596   0.871   4.263   5.898
 3566SOL    HW111597   0.892   4.165   5.898
 3566SOL    HW211598   0.779   4.277   5.934
 3567SOL     OW11599   0.002   2.386   1.219
 3567SOL    HW111600   6.956   2.448   1.173
 3567SOL    HW211601   6.981   2.294   1.221
 3568SOL     OW11602   4.864   4.119   3.515
 3568SOL    HW111603   4.869   4.218   3.530
 3568SOL    HW211604   4.859   4.071   3.602
 3569SOL     OW11605   4.122   3.402   3.779
 3569SOL    HW111606   4.217   3.372   3.776
 3569SOL    HW211607   4.106   3.453   3.863
 3570SOL     OW11608   0.453   2.341   5.760
 3570SOL    HW111609   0.452   2.354   5.859
 3570SOL    HW211610   0.363   2.309   5.729
 3571SOL     OW11611   2.874   0.136   4.446
 3571SOL    HW111612   2.964   0.140   4.489
 3571SOL    HW211613   2.806   0.178   4.506
 3572SOL     OW11614   5.186   4.073   2.469
 3572SOL    HW111615   5.257   4.143   2.474
 3572SOL    HW211616   5.145   4.059   2.559
 3573SOL     OW11617   0.474   4.930   4.032
 3573SOL    HW111618   0.392   4.873   4.022
 3573SOL    HW211619   0.472   5.003   3.963
 3574SOL     OW11620   1.817   1.797   6.115
 3574SOL    HW111621   1.755   1.719   6.124
 3574SOL    HW211622   1.847   1.804   6.020
 3575SOL     OW11623   4.937   0.559   6.448
 3575SOL    HW111624   4.907   0.602   6.363
 3575SOL    HW211625   4.880   0.593   6.524
 3576SOL     OW11626   0.952   2.685   1.007
 3576SOL    HW111627   0.998   2.742   1.075
 3576SOL    HW211628   0.904   2.744   0.942
 3577SOL     OW11629   1.890   3.621   4.562
 3577SOL    HW111630   1.795   3.641   4.588
 3577SOL    HW211631   1.907   3.655   4.470
 3578SOL     OW11632   4.287   2.308   0.614
 3578SOL    HW111633   4.323   2.226   0.569
 3578SOL    HW211634   4.352   2.383   0.603
 3579SOL     OW11635   0.936   3.209   2.015
 3579SOL    HW111636   0.998   3.287   2.004
 3579SOL    HW211637   0.968   3.151   2.090
 3580SOL     OW11638   6.858   4.446   1.848
 3580SOL    HW111639   6.793   4.371   1.856
 3580SOL    HW211640   6.947   4.411   1.821
 3581SOL     OW11641   1.847   0.249   2.583
 3581SOL    HW111642   1.843   0.215   2.677
 3581SOL    HW211643   1.856   0.349   2.584
 3582SOL     OW11644   4.778   6.072   6.636
 3582SOL    HW111645   4.743   5.979   6.648
 3582SOL    HW211646   4.876   6.068   6.615
 3583SOL     OW11647   1.598   5.910   0.850
 3583SOL    HW111648   1.533   5.974   0.809
 3583SOL    HW211649   1.551   5.856   0.920
 3584SOL     OW11650   5.613   4.626   4.826
 3584SOL    HW111651   5.645   4.534   4.804
 3584SOL    HW211652   5.668   4.693   4.777
 3585SOL     OW11653   4.206   2.246   3.808
 3585SOL    HW111654   4.172   2.170   3.753
 3585SOL    HW211655   4.217   2.327   3.750
 3586SOL     OW11656   6.423   2.487   5.496
 3586SOL    HW111657   6.467   2.528   5.576
 3586SOL    HW211658   6.456   2.533   5.414
 3587SOL     OW11659   2.388   0.703   6.147
 3587SOL    HW111660   2.393   0.712   6.246
 3587SOL    HW211661   2.469   0.745   6.105
 3588SOL     OW11662   6.123   3.562   3.733
 3588SOL    HW111663   6.136   3.657   3.709
 3588SOL    HW211664   6.126   3.552   3.833
 3589SOL     OW11665   0.460   0.981   6.286
 3589SOL    HW111666   0.520   0.996   6.365
 3589SOL    HW211667   0.374   0.941   6.317
 3590SOL     OW11668   6.216   4.968   5.526
 3590SOL    HW111669   6.129   4.919   5.530
 3590SOL    HW211670   6.249   4.985   5.619
 3591SOL     OW11671   4.989   1.957   0.859
 3591SOL    HW111672   4.970   1.935   0.955
 3591SOL    HW211673   5.019   2.052   0.851
 3592SOL     OW11674   1.182   6.344   1.481
 3592SOL    HW111675   1.235   6.408   1.426
 3592SOL    HW211676   1.182   6.375   1.576
 3593SOL     OW11677   4.166   3.220   5.901
 3593SOL    HW111678   4.089   3.281   5.881
 3593SOL    HW211679   4.241   3.240   5.839
 3594SOL     OW11680   4.594   4.490   5.261
 3594SOL    HW111681   4.582   4.524   5.354
 3594SOL    HW211682   4.506   4.460   5.224
 3595SOL     OW11683   4.717   7.013   5.613
 3595SOL    HW111684   4.747   6.976   5.701
 3595SOL    HW211685   4.703   0.094   5.622
 3596SOL     OW11686   3.273   1.588   2.162
 3596SOL    HW111687   3.320   1.540   2.088
 3596SOL    HW211688   3.239   1.676   2.128
 3597SOL     OW11689   4.008   4.525   5.616
 3597SOL    HW111690   4.067   4.445   5.608
 3597SOL    HW211691   3.912   4.495   5.620
 3598SOL     OW11692   6.977   5.544   4.798
 3598SOL    HW111693   0.004   5.519   4.713
 3598SOL    HW211694   6.947   5.462   4.846
 3599SOL     OW11695   2.549   1.176   5.070
 3599SOL    HW111696   2.519   1.090   5.111
 3599SOL    HW211697   2.583   1.237   5.142
 3600SOL     OW11698   2.128   4.111   1.110
 3600SOL    HW111699   2.160   4.138   1.019
 3600SOL    HW211700   2.190   4.042   1.147
 3601SOL     OW11701   3.389   0.292   5.225
 3601SOL    HW111702   3.483   0.324   5.221
 3601SOL    HW211703   3.329   0.367   5.252
 3602SOL     OW11704   1.709   2.201   0.834
 3602SOL    HW111705   1.637   2.235   0.895
 3602SOL    HW211706   1.683   2.111   0.799
 3603SOL     OW11707   1.355   6.703   6.271
 3603SOL    HW111708   1.258   6.701   6.295
 3603SOL    HW211709   1.372   6.780   6.210
 3604SOL     OW11710   6.896   1.010   4.251
 3604SOL    HW111711   6.948   0.943   4.198
 3604SOL    HW211712   6.878   0.973   4.342
 3605SOL     OW11713   1.344   0.233   4.599
 3605SOL    HW111714   1.407   0.156   4.603
 3605SOL    HW211715   1.371   0.302   4.665
 3606SOL     OW11716   2.514   0.380   3.167
 3606SOL    HW111717   2.527   0.336   3.256
 3606SOL    HW211718   2.576   0.338   3.100
 3607SOL     OW11719   6.174   1.424   4.034
 3607SOL    HW111720   6.201   1.332   4.063
 3607SOL    HW211721   6.076   1.436   4.045
 3608SOL     OW11722   4.041   1.831   5.902
 3608SOL    HW111723   4.137   1.835   5.932
 3608SOL    HW211724   4.011   1.922   5.873
 3609SOL     OW11725   2.838   6.584   4.916
 3609SOL    HW111726   2.858   6.486   4.921
 3609SOL    HW211727   2.923   6.634   4.901
 3610SOL     OW11728   1.636   0.183   5.730
 3610SOL    HW111729   1.694   0.124   5.674
 3610SOL    HW211730   1.693   0.239   5.790
 3611SOL     OW11731   5.370   3.449   3.113
 3611SOL    HW111732   5.302   3.517   3.141
 3611SOL    HW211733   5.343   3.409   3.025
 3612SOL     OW11734   4.859   1.972   0.593
 3612SOL    HW111735   4.910   1.971   0.678
 3612SOL    HW211736   4.764   1.945   0.610
 3613SOL     OW11737   4.005   0.545   2.935
 3613SOL    HW111738   4.070   0.481   2.976
 3613SOL    HW211739   4.053   0.612   2.879
 3614SOL     OW11740   3.358   5.608   0.396
 3614SOL    HW111741   3.437   5.569   0.347
 3614SOL    HW211742   3.314   5.536   0.450
 3615SOL     OW11743   5.658   2.305   4.907
 3615SOL    HW111744   5.679   2.209   4.921
 3615SOL    HW211745   5.718   2.362   4.963
 3616SOL     OW11746   1.527   1.203   1.219
 3616SOL    HW111747   1.585   1.131   1.256
 3616SOL    HW211748   1.555   1.225   1.126
 3617SOL     OW11749   3.974   5.159   4.650
 3617SOL    HW111750   4.034   5.208   4.713
 3617SOL    HW211751   3.967   5.063   4.678
 3618SOL     OW11752   0.917   5.507   4.492
 3618SOL    HW111753   0.832   5.476   4.536
 3618SOL    HW211754   0.975   5.553   4.559
 3619SOL     OW11755   6.613   1.857   2.504
 3619SOL    HW111756   6.584   1.819   2.592
 3619SOL    HW211757   6.713   1.853   2.496
 3620SOL     OW11758   4.765   6.415   5.515
 3620SOL    HW111759   4.750   6.443   5.610
 3620SOL    HW211760   4.745   6.491   5.454
 3621SOL     OW11761   3.167   3.114   3.186
 3621SOL    HW111762   3.162   3.053   3.266
 3621SOL    HW211763   3.262   3.143   3.173
 3622SOL     OW11764   2.809   5.524   6.318
 3622SOL    HW111765   2.743   5.463   6.362
 3622SOL    HW211766   2.768   5.563   6.235
 3623SOL     OW11767   1.493   6.318   5.550
 3623SOL    HW111768   1.500   6.416   5.568
 3623SOL    HW211769   1.462   6.271   5.633
 3624SOL     OW11770   2.704   1.851   2.767
 3624SOL    HW111771   2.769   1.775   2.770
 3624SOL    HW211772   2.708   1.895   2.677
 3625SOL     OW11773   6.143   2.464   1.750
 3625SOL    HW111774   6.139   2.377   1.798
 3625SOL    HW211775   6.061   2.475   1.694
 3626SOL     OW11776   0.863   3.592   5.951
 3626SOL    HW111777   0.793   3.535   5.907
 3626SOL    HW211778   0.938   3.535   5.982
 3627SOL     OW11779   3.222   1.410   2.532
 3627SOL    HW111780   3.227   1.402   2.632
 3627SOL    HW211781   3.279   1.486   2.502
 3628SOL     OW11782   0.245   0.845   1.832
 3628SOL    HW111783   0.256   0.937   1.796
 3628SOL    HW211784   0.174   0.797   1.780
 3629SOL     OW11785   1.654   0.758   4.344
 3629SOL    HW111786   1.653   0.729   4.440
 3629SOL    HW211787   1.564   0.741   4.303
 3630SOL     OW11788   6.668   2.018   2.774
 3630SOL    HW111789   6.764   2.037   2.798
 3630SOL    HW211790   6.609   2.084   2.820
 3631SOL     OW11791   2.012   5.359   2.729
 3631SOL    HW111792   2.063   5.321   2.652
 3631SOL    HW211793   2.062   5.435   2.769
 3632SOL     OW11794   5.180   2.958   2.655
 3632SOL    HW111795   5.119   2.936   2.579
 3632SOL    HW211796   5.178   2.883   2.722
 3633SOL     OW11797   4.505   5.157   5.782
 3633SOL    HW111798   4.426   5.152   5.843
 3633SOL    HW211799   4.499   5.241   5.728
 3634SOL     OW11800   2.997   5.378   6.190
 3634SOL    HW111801   3.026   5.291   6.229
 3634SOL    HW211802   2.929   5.421   6.249
 3635SOL     OW11803   1.997   6.938   2.817
 3635SOL    HW111804   1.908   6.929   2.861
 3635SOL    HW211805   2.064   6.879   2.863
 3636SOL     OW11806   6.857   6.153   4.496
 3636SOL    HW111807   6.885   6.086   4.427
 3636SOL    HW211808   6.758   6.159   4.499
 3637SOL     OW11809   5.178   2.363   6.628
 3637SOL    HW111810   5.099   2.395   6.574
 3637SOL    HW211811   5.208   2.275   6.592
 3638SOL     OW11812   0.728   2.541   3.822
 3638SOL    HW111813   0.782   2.457   3.814
 3638SOL    HW211814   0.777   2.616   3.777
 3639SOL     OW11815   3.730   3.386   4.207
 3639SOL    HW111816   3.721   3.320   4.132
 3639SOL    HW211817   3.785   3.345   4.281
 3640SOL     OW11818   4.617   1.600   2.424
 3640SOL    HW111819   4.530   1.570   2.384
 3640SOL    HW211820   4.653   1.676   2.371
 3641SOL     OW11821   0.437   3.536   1.240
 3641SOL    HW111822   0.495   3.454   1.234
 3641SOL    HW211823   0.492   3.618   1.226
 3642SOL     OW11824   4.547   4.404   6.264
 3642SOL    HW111825   4.472   4.418   6.328
 3642SOL    HW211826   4.519   4.339   6.193
 3643SOL     OW11827   4.264   5.569   4.662
 3643SOL    HW111828   4.198   5.598   4.732
 3643SOL    HW211829   4.336   5.515   4.704
 3644SOL     OW11830   3.818   1.361   1.348
 3644SOL    HW111831   3.889   1.337   1.414
 3644SOL    HW211832   3.768   1.441   1.380
 3645SOL     OW11833   1.966   3.858   3.518
 3645SOL    HW111834   1.892   3.922   3.538
 3645SOL    HW211835   1.942   3.802   3.438
 3646SOL     OW11836   2.511   4.900   5.094
 3646SOL    HW111837   2.539   4.806   5.114
 3646SOL    HW211838   2.411   4.907   5.101
 3647SOL     OW11839   3.422   0.492   0.474
 3647SOL    HW111840   3.362   0.563   0.437
 3647SOL    HW211841   3.514   0.502   0.435
 3648SOL     OW11842   5.792   5.126   3.462
 3648SOL    HW111843   5.801   5.030   3.435
 3648SOL    HW211844   5.727   5.134   3.537
 3649SOL     OW11845   5.416   2.864   0.097
 3649SOL    HW111846   5.461   2.856   0.008
 3649SOL    HW211847   5.470   2.923   0.157
 3650SOL     OW11848   5.207   6.499   0.050
 3650SOL    HW111849   5.252   6.437   0.114
 3650SOL    HW211850   5.260   6.584   0.043
 3651SOL     OW11851   1.040   1.725   5.788
 3651SOL    HW111852   0.950   1.688   5.762
 3651SOL    HW211853   1.111   1.676   5.739
 3652SOL     OW11854   5.866   2.317   2.463
 3652SOL    HW111855   5.875   2.285   2.369
 3652SOL    HW211856   5.915   2.404   2.474
 3653SOL     OW11857   2.236   1.774   0.581
 3653SOL    HW111858   2.174   1.829   0.525
 3653SOL    HW211859   2.246   1.816   0.672
 3654SOL     OW11860   4.003   6.087   0.904
 3654SOL    HW111861   3.928   6.147   0.878
 3654SOL    HW211862   4.050   6.055   0.822
 3655SOL     OW11863   0.800   0.102   4.240
 3655SOL    HW111864   0.784   0.004   4.244
 3655SOL    HW211865   0.763   0.139   4.155
 3656SOL     OW11866   0.460   0.625   0.719
 3656SOL    HW111867   0.396   0.600   0.792
 3656SOL    HW211868   0.525   0.693   0.753
 3657SOL     OW11869   6.333   4.912   6.204
 3657SOL    HW111870   6.332   4.988   6.140
 3657SOL    HW211871   6.372   4.941   6.291
 3658SOL     OW11872   1.669   4.679   5.921
 3658SOL    HW111873   1.642   4.760   5.869
 3658SOL    HW211874   1.768   4.677   5.931
 3659SOL     OW11875   1.145   2.093   0.085
 3659SOL    HW111876   1.229   2.094   0.030
 3659SOL    HW211877   1.169   2.107   0.182
 3660SOL     OW11878   4.201   4.904   4.699
 3660SOL    HW111879   4.233   4.829   4.757
 3660SOL    HW211880   4.277   4.968   4.684
 3661SOL     OW11881   1.142   0.894   5.106
 3661SOL    HW111882   1.106   0.928   5.019
 3661SOL    HW211883   1.183   0.969   5.157
 3662SOL     OW11884   3.857   2.340   5.738
 3662SOL    HW111885   3.821   2.353   5.830
 3662SOL    HW211886   3.811   2.403   5.675
 3663SOL     OW11887   1.632   2.557   5.752
 3663SOL    HW111888   1.664   2.508   5.833
 3663SOL    HW211889   1.635   2.655   5.768
 3664SOL     OW11890   2.191   1.861   0.862
 3664SOL    HW111891   2.097   1.882   0.834
 3664SOL    HW211892   2.195   1.852   0.961
 3665SOL     OW11893   0.004   6.938   4.965
 3665SOL    HW111894   0.065   7.014   4.990
 3665SOL    HW211895   0.043   6.889   4.887
 3666SOL     OW11896   2.105   3.472   4.993
 3666SOL    HW111897   2.134   3.529   4.916
 3666SOL    HW211898   2.181   3.462   5.058
 3667SOL     OW11899   2.239   6.552   1.355
 3667SOL    HW111900   2.182   6.530   1.276
 3667SOL    HW211901   2.269   6.468   1.399
 3668SOL     OW11902   4.889   1.077   0.709
 3668SOL    HW111903   4.954   1.103   0.780
 3668SOL    HW211904   4.891   0.977   0.698
 3669SOL     OW11905   6.708   0.996   2.349
 3669SOL    HW111906   6.611   0.974   2.345
 3669SOL    HW211907   6.760   0.927   2.299
 3670SOL     OW11908   2.280   6.687   2.203
 3670SOL    HW111909   2.239   6.767   2.159
 3670SOL    HW211910   2.215   6.650   2.270
 3671SOL     OW11911   0.401   0.352   5.750
 3671SOL    HW111912   0.412   0.436   5.804
 3671SOL    HW211913   0.491   0.315   5.728
 3672SOL     OW11914   2.777   0.241   3.672
 3672SOL    HW111915   2.842   0.276   3.606
 3672SOL    HW211916   2.725   0.316   3.712
 3673SOL     OW11917   3.606   1.525   1.384
 3673SOL    HW111918   3.592   1.454   1.316
 3673SOL    HW211919   3.519   1.569   1.405
 3674SOL     OW11920   6.896   5.279   5.932
 3674SOL    HW111921   6.917   5.342   6.008
 3674SOL    HW211922   6.806   5.238   5.947
 3675SOL     OW11923   5.988   0.672   5.224
 3675SOL    HW111924   6.032   0.620   5.297
 3675SOL    HW211925   6.005   0.627   5.136
 3676SOL     OW11926   1.854   0.871   6.001
 3676SOL    HW111927   1.901   0.830   5.923
 3676SOL    HW211928   1.810   0.956   5.972
 3677SOL     OW11929   1.222   0.844   4.753
 3677SOL    HW111930   1.204   0.746   4.759
 3677SOL    HW211931   1.321   0.860   4.747
 3678SOL     OW11932   2.734   0.966   3.645
 3678SOL    HW111933   2.650   1.019   3.636
 3678SOL    HW211934   2.719   0.891   3.709
 3679SOL     OW11935   3.319   0.924   2.001
 3679SOL    HW111936   3.356   0.975   1.924
 3679SOL    HW211937   3.231   0.884   1.976
 3680SOL     OW11938   4.282   1.585   3.959
 3680SOL    HW111939   4.208   1.644   3.930
 3680SOL    HW211940   4.365   1.639   3.974
 3681SOL     OW11941   1.206   5.399   3.296
 3681SOL    HW111942   1.235   5.493   3.280
 3681SOL    HW211943   1.286   5.340   3.305
 3682SOL     OW11944   5.413   1.191   1.765
 3682SOL    HW111945   5.414   1.140   1.679
 3682SOL    HW211946   5.409   1.127   1.841
 3683SOL     OW11947   6.471   1.956   1.111
 3683SOL    HW111948   6.513   2.044   1.088
 3683SOL    HW211949   6.521   1.912   1.185
 3684SOL     OW11950   2.928   5.911   5.703
 3684SOL    HW111951   2.993   5.881   5.633
 3684SOL    HW211952   2.932   5.848   5.780
 3685SOL     OW11953   1.541   6.614   3.032
 3685SOL    HW111954   1.533   6.536   2.970
 3685SOL    HW211955   1.457   6.668   3.029
 3686SOL     OW11956   1.050   5.284   0.797
 3686SOL    HW111957   1.066   5.371   0.843
 3686SOL    HW211958   1.132   5.228   0.804
 3687SOL     OW11959   0.342   4.743   4.414
 3687SOL    HW111960   0.343   4.684   4.495
 3687SOL    HW211961   0.365   4.689   4.333
 3688SOL     OW11962   0.121   3.216   1.669
 3688SOL    HW111963   0.159   3.296   1.716
 3688SOL    HW211964   0.192   3.147   1.658
 3689SOL     OW11965   2.589   2.531   5.363
 3689SOL    HW111966   2.590   2.486   5.274
 3689SOL    HW211967   2.607   2.464   5.435
 3690SOL     OW11968   0.155   5.452   2.149
 3690SOL    HW111969   0.212   5.502   2.214
 3690SOL    HW211970   0.153   5.501   2.062
 3691SOL     OW11971   2.243   1.939   0.143
 3691SOL    HW111972   2.227   2.033   0.175
 3691SOL    HW211973   2.324   1.902   0.189
 3692SOL     OW11974   0.872   2.988   5.499
 3692SOL    HW111975   0.842   2.955   5.409
 3692SOL    HW211976   0.949   2.933   5.531
 3693SOL     OW11977   0.227   1.884   2.898
 3693SOL    HW111978   0.308   1.861   2.952
 3693SOL    HW211979   0.211   1.982   2.903
 3694SOL     OW11980   6.759   6.769   1.926
 3694SOL    HW111981   6.757   6.778   2.025
 3694SOL    HW211982   6.741   6.673   1.901
 3695SOL     OW11983   6.083   3.652   4.666
 3695SOL    HW111984   6.064   3.722   4.597
 3695SOL    HW211985   6.082   3.694   4.757
 3696SOL     OW11986   4.238   0.415   4.115
 3696SOL    HW111987   4.324   0.424   4.164
 3696SOL    HW211988   4.180   0.494   4.136
 3697SOL     OW11989   6.705   4.639   2.581
 3697SOL    HW111990   6.762   4.707   2.627
 3697SOL    HW211991   6.746   4.615   2.494
 3698SOL     OW11992   1.162   0.272   3.755
 3698SOL    HW111993   1.071   0.233   3.747
 3698SOL    HW211994   1.204   0.242   3.841
 3699SOL     OW11995   3.330   1.869   3.405
 3699SOL    HW111996   3.280   1.922   3.472
 3699SOL    HW211997   3.390   1.929   3.353
 3700SOL     OW11998   0.826   5.194   4.894
 3700SOL    HW111999   0.790   5.286   4.879
 3700SOL    HW212000   0.836   5.177   4.992
 3701SOL     OW12001   6.689   0.521   2.205
 3701SOL    HW112002   6.695   0.517   2.105
 3701SOL    HW212003   6.739   0.443   2.244
 3702SOL     OW12004   6.576   4.571   3.476
 3702SOL    HW112005   6.669   4.574   3.441
 3702SOL    HW212006   6.549   4.476   3.493
 3703SOL     OW12007   1.068   2.116   3.530
 3703SOL    HW112008   1.120   2.120   3.616
 3703SOL    HW212009   1.093   2.193   3.472
 3704SOL     OW12010   6.455   6.676   1.091
 3704SOL    HW112011   6.358   6.694   1.077
 3704SOL    HW212012   6.469   6.632   1.180
 3705SOL     OW12013   6.468   3.859   3.758
 3705SOL    HW112014   6.477   3.896   3.665
 3705SOL    HW212015   6.559   3.850   3.799
 3706SOL     OW12016   0.476   5.702   6.782
 3706SOL    HW112017   0.507   5.730   6.873
 3706SOL    HW212018   0.534   5.745   6.713
 3707SOL     OW12019   6.789   4.124   3.233
 3707SOL    HW112020   6.751   4.048   3.286
 3707SOL    HW212021   6.737   4.135   3.148
 3708SOL     OW12022   1.374   5.846   0.215
 3708SOL    HW112023   1.342   5.934   0.252
 3708SOL    HW212024   1.303   5.777   0.228
 3709SOL     OW12025   0.435   1.531   0.974
 3709SOL    HW112026   0.415   1.438   0.944
 3709SOL    HW212027   0.422   1.538   1.073
 3710SOL     OW12028   2.213   3.583   5.458
 3710SOL    HW112029   2.218   3.615   5.552
 3710SOL    HW212030   2.122   3.602   5.421
 3711SOL     OW12031   1.655   4.714   5.560
 3711SOL    HW112032   1.687   4.783   5.626
 3711SOL    HW212033   1.731   4.655   5.534
 3712SOL     OW12034   3.132   4.925   3.933
 3712SOL    HW112035   3.121   4.972   3.846
 3712SOL    HW212036   3.042   4.892   3.965
 3713SOL     OW12037   6.459   0.442   6.018
 3713SOL    HW112038   6.518   0.502   6.072
 3713SOL    HW212039   6.367   0.482   6.011
 3714SOL     OW12040   0.416   5.488   0.325
 3714SOL    HW112041   0.480   5.495   0.402
 3714SOL    HW212042   0.377   5.396   0.322
 3715SOL     OW12043   5.729   4.249   2.176
 3715SOL    HW112044   5.737   4.259   2.276
 3715SOL    HW212045   5.641   4.287   2.146
 3716SOL     OW12046   5.343   5.232   5.514
 3716SOL    HW112047   5.260   5.184   5.542
 3716SOL    HW212048   5.341   5.325   5.550
 3717SOL     OW12049   4.914   0.047   0.983
 3717SOL    HW112050   4.900   6.994   1.052
 3717SOL    HW212051   4.958   0.008   0.902
 3718SOL     OW12052   5.145   6.274   6.663
 3718SOL    HW112053   5.141   6.359   6.611
 3718SOL    HW212054   5.115   6.198   6.606
 3719SOL     OW12055   2.923   4.010   0.119
 3719SOL    HW112056   2.866   3.952   0.178
 3719SOL    HW212057   2.951   3.957   0.039
 3720SOL     OW12058   0.940   2.118   0.500
 3720SOL    HW112059   0.886   2.194   0.537
 3720SOL    HW212060   0.888   2.033   0.508
 3721SOL     OW12061   6.750   0.349   5.660
 3721SOL    HW112062   6.767   0.284   5.734
 3721SOL    HW212063   6.710   0.301   5.582
 3722SOL     OW12064   5.367   6.469   1.557
 3722SOL    HW112065   5.321   6.539   1.612
 3722SOL    HW212066   5.393   6.508   1.469
 3723SOL     OW12067   4.409   4.228   6.132
 3723SOL    HW112068   4.387   4.171   6.210
 3723SOL    HW212069   4.324   4.261   6.090
 3724SOL     OW12070   6.281   4.114   5.248
 3724SOL    HW112071   6.297   4.174   5.170
 3724SOL    HW212072   6.289   4.168   5.333
 3725SOL     OW12073   0.115   6.154   1.034
 3725SOL    HW112074   0.037   6.167   0.973
 3725SOL    HW212075   0.156   6.243   1.055
 3726SOL     OW12076   5.908   3.427   5.548
 3726SOL    HW112077   5.950   3.517   5.548
 3726SOL    HW212078   5.945   3.373   5.624
 3727SOL     OW12079   6.625   1.943   3.889
 3727SOL    HW112080   6.703   1.909   3.836
 3727SOL    HW212081   6.651   1.949   3.985
 3728SOL     OW12082   2.033   4.791   0.501
 3728SOL    HW112083   2.034   4.860   0.574
 3728SOL    HW212084   2.018   4.837   0.413
 3729SOL     OW12085   0.175   6.863   6.425
 3729SOL    HW112086   0.101   6.875   6.359
 3729SOL    HW212087   0.232   6.786   6.399
 3730SOL     OW12088   5.689   4.356   4.809
 3730SOL    HW112089   5.758   4.300   4.855
 3730SOL    HW212090   5.630   4.298   4.753
 3731SOL     OW12091   6.472   1.279   1.699
 3731SOL    HW112092   6.424   1.228   1.627
 3731SOL    HW212093   6.497   1.369   1.664
 3732SOL     OW12094   4.314   2.772   6.860
 3732SOL    HW112095   4.355   2.783   6.950
 3732SOL    HW212096   4.275   2.680   6.852
 3733SOL     OW12097   1.763   1.487   3.270
 3733SOL    HW112098   1.664   1.474   3.280
 3733SOL    HW212099   1.788   1.476   3.173
 3734SOL     OW12100   4.083   0.935   1.835
 3734SOL    HW112101   4.091   1.007   1.903
 3734SOL    HW212102   4.011   0.959   1.769
 3735SOL     OW12103   3.964   0.601   2.446
 3735SOL    HW112104   3.930   0.507   2.443
 3735SOL    HW212105   3.951   0.638   2.538
 3736SOL     OW12106   0.881   1.083   0.125
 3736SOL    HW112107   0.922   1.051   0.040
 3736SOL    HW212108   0.913   1.176   0.145
 3737SOL     OW12109   4.927   1.673   4.688
 3737SOL    HW112110   5.022   1.644   4.677
 3737SOL    HW212111   4.908   1.749   4.625
 3738SOL     OW12112   0.731   0.852   0.421
 3738SOL    HW112113   0.782   0.837   0.336
 3738SOL    HW212114   0.754   0.781   0.487
 3739SOL     OW12115   3.497   4.841   6.646
 3739SOL    HW112116   3.519   4.803   6.556
 3739SOL    HW212117   3.563   4.807   6.714
 3740SOL     OW12118   6.587   6.598   6.797
 3740SOL    HW112119   6.645   6.567   6.873
 3740SOL    HW212120   6.636   6.665   6.742
 3741SOL     OW12121   6.240   4.682   6.810
 3741SOL    HW112122   6.274   4.685   6.716
 3741SOL    HW212123   6.145   4.714   6.811
 3742SOL     OW12124   5.040   5.335   1.697
 3742SOL    HW112125   5.074   5.378   1.613
 3742SOL    HW212126   4.943   5.312   1.686
 3743SOL     OW12127   2.325   3.955   1.472
 3743SOL    HW112128   2.281   3.871   1.440
 3743SOL    HW212129   2.395   3.932   1.540
 3744SOL     OW12130   6.219   5.948   2.225
 3744SOL    HW112131   6.163   5.914   2.301
 3744SOL    HW212132   6.171   5.934   2.139
 3745SOL     OW12133   6.162   0.897   2.629
 3745SOL    HW112134   6.175   0.945   2.715
 3745SOL    HW212135   6.066   0.870   2.620
 3746SOL     OW12136   5.305   0.062   5.347
 3746SOL    HW112137   5.292   0.158   5.324
 3746SOL    HW212138   5.327   0.054   5.444
 3747SOL     OW12139   2.033   5.213   5.329
 3747SOL    HW112140   2.064   5.120   5.311
 3747SOL    HW212141   1.961   5.211   5.399
 3748SOL     OW12142   5.171   1.824   3.096
 3748SOL    HW112143   5.217   1.874   3.168
 3748SOL    HW212144   5.140   1.735   3.131
 3749SOL     OW12145   5.737   5.315   0.937
 3749SOL    HW112146   5.756   5.398   0.883
 3749SOL    HW212147   5.686   5.250   0.880
 3750SOL     OW12148   0.270   4.392   1.442
 3750SOL    HW112149   0.178   4.387   1.480
 3750SOL    HW212150   0.313   4.302   1.449
 3751SOL     OW12151   1.732   5.116   0.677
 3751SOL    HW112152   1.690   5.108   0.587
 3751SOL    HW212153   1.817   5.168   0.670
 3752SOL     OW12154   1.349   0.134   6.365
 3752SOL    HW112155   1.419   0.087   6.418
 3752SOL    HW212156   1.376   0.230   6.351
 3753SOL     OW12157   0.736   1.328   5.998
 3753SOL    HW112158   0.656   1.277   6.028
 3753SOL    HW212159   0.813   1.307   6.058
 3754SOL     OW12160   6.764   6.685   1.330
 3754SOL    HW112161   6.854   6.724   1.347
 3754SOL    HW212162   6.726   6.649   1.415
 3755SOL     OW12163   4.554   2.390   3.024
 3755SOL    HW112164   4.636   2.337   3.044
 3755SOL    HW212165   4.541   2.395   2.925
 3756SOL     OW12166   3.255   0.177   0.143
 3756SOL    HW112167   3.206   0.194   0.057
 3756SOL    HW212168   3.271   0.079   0.153
 3757SOL     OW12169   2.987   4.078   5.201
 3757SOL    HW112170   3.060   4.010   5.198
 3757SOL    HW212171   2.899   4.033   5.188
 3758SOL     OW12172   0.451   0.640   1.954
 3758SOL    HW112173   0.508   0.681   2.025
 3758SOL    HW212174   0.367   0.694   1.943
 3759SOL     OW12175   5.346   4.177   0.424
 3759SOL    HW112176   5.340   4.136   0.332
 3759SOL    HW212177   5.273   4.244   0.435
 3760SOL     OW12178   1.775   1.600   5.678
 3760SOL    HW112179   1.853   1.538   5.680
 3760SOL    HW212180   1.762   1.634   5.585
 3761SOL     OW12181   0.143   6.329   4.304
 3761SOL    HW112182   0.048   6.346   4.331
 3761SOL    HW212183   0.163   6.232   4.316
 3762SOL     OW12184   0.226   3.537   0.987
 3762SOL    HW112185   0.243   3.610   0.922
 3762SOL    HW212186   0.160   3.568   1.056
 3763SOL     OW12187   0.367   2.522   4.811
 3763SOL    HW112188   0.421   2.529   4.727
 3763SOL    HW212189   0.416   2.466   4.878
 3764SOL     OW12190   2.375   0.311   2.959
 3764SOL    HW112191   2.422   0.341   3.042
 3764SOL    HW212192   2.364   0.211   2.961
 3765SOL     OW12193   6.217   1.027   3.864
 3765SOL    HW112194   6.180   1.027   3.771
 3765SOL    HW212195   6.210   0.934   3.902
 3766SOL     OW12196   2.299   1.231   4.613
 3766SOL    HW112197   2.238   1.212   4.537
 3766SOL    HW212198   2.394   1.234   4.580
 3767SOL     OW12199   6.647   4.595   1.191
 3767SOL    HW112200   6.552   4.586   1.221
 3767SOL    HW212201   6.675   4.691   1.197
 3768SOL     OW12202   4.806   6.482   1.056
 3768SOL    HW112203   4.779   6.474   1.152
 3768SOL    HW212204   4.891   6.432   1.040
 3769SOL     OW12205   4.183   6.568   4.822
 3769SOL    HW112206   4.272   6.527   4.843
 3769SOL    HW212207   4.196   6.649   4.766
 3770SOL     OW12208   1.982   3.207   0.244
 3770SOL    HW112209   2.054   3.194   0.312
 3770SOL    HW212210   1.944   3.118   0.217
 3771SOL     OW12211   4.700   1.429   5.417
 3771SOL    HW112212   4.603   1.437   5.438
 3771SOL    HW212213   4.752   1.492   5.475
 3772SOL     OW12214   4.933   0.315   2.821
 3772SOL    HW112215   4.979   0.386   2.767
 3772SOL    HW212216   4.993   0.285   2.895
 3773SOL     OW12217   6.154   2.516   1.049
 3773SOL    HW112218   6.091   2.545   0.977
 3773SOL    HW212219   6.188   2.424   1.029
 3774SOL     OW12220   2.028   1.402   1.675
 3774SOL    HW112221   2.124   1.374   1.674
 3774SOL    HW212222   1.977   1.343   1.737
 3775SOL     OW12223   5.712   2.576   3.485
 3775SOL    HW112224   5.796   2.629   3.502
 3775SOL    HW212225   5.635   2.620   3.532
 3776SOL     OW12226   2.741   2.172   6.647
 3776SOL    HW112227   2.806   2.232   6.694
 3776SOL    HW212228   2.708   2.217   6.564
 3777SOL     OW12229   1.262   4.337   3.507
 3777SOL    HW112230   1.220   4.417   3.549
 3777SOL    HW212231   1.345   4.313   3.557
 3778SOL     OW12232   1.802   0.566   1.906
 3778SOL    HW112233   1.797   0.468   1.925
 3778SOL    HW212234   1.825   0.616   1.990
 3779SOL     OW12235   1.714   4.683   0.058
 3779SOL    HW112236   1.755   4.602   0.101
 3779SOL    HW212237   1.631   4.657   0.010
 3780SOL     OW12238   1.927   0.348   4.030
 3780SOL    HW112239   2.017   0.320   3.997
 3780SOL    HW212240   1.879   0.268   4.066
 3781SOL     OW12241   3.054   5.152   4.539
 3781SOL    HW112242   3.151   5.177   4.542
 3781SOL    HW212243   3.026   5.116   4.628
 3782SOL     OW12244   2.727   1.123   2.171
 3782SOL    HW112245   2.693   1.029   2.164
 3782SOL    HW212246   2.660   1.179   2.220
 3783SOL     OW12247   5.358   4.501   4.856
 3783SOL    HW112248   5.363   4.437   4.932
 3783SOL    HW212249   5.441   4.556   4.853
 3784SOL     OW12250   4.688   2.667   4.593
 3784SOL    HW112251   4.783   2.640   4.577
 3784SOL    HW212252   4.628   2.620   4.527
 3785SOL     OW12253   0.420   6.995   2.270
 3785SOL    HW112254   0.476   6.937   2.212
 3785SOL    HW212255   0.439   6.976   2.366
 3786SOL     OW12256   2.744   6.345   1.245
 3786SOL    HW112257   2.736   6.249   1.215
 3786SOL    HW212258   2.653   6.383   1.258
 3787SOL     OW12259   4.046   1.265   3.330
 3787SOL    HW112260   3.960   1.303   3.297
 3787SOL    HW212261   4.086   1.326   3.398
 3788SOL     OW12262   0.159   2.955   2.612
 3788SOL    HW112263   0.187   2.936   2.517
 3788SOL    HW212264   0.238   2.944   2.672
 3789SOL     OW12265   2.113   5.263   2.296
 3789SOL    HW112266   2.148   5.295   2.385
 3789SOL    HW212267   2.024   5.306   2.279
 3790SOL     OW12268   1.734   3.388   2.720
 3790SOL    HW112269   1.645   3.358   2.687
 3790SOL    HW212270   1.746   3.486   2.701
 3791SOL     OW12271   6.651   0.759   3.000
 3791SOL    HW112272   6.633   0.856   3.015
 3791SOL    HW212273   6.670   0.743   2.903
 3792SOL     OW12274   1.317   5.348   5.989
 3792SOL    HW112275   1.367   5.289   5.926
 3792SOL    HW212276   1.374   5.428   6.012
 3793SOL     OW12277   6.864   5.951   2.609
 3793SOL    HW112278   6.808   5.946   2.692
 3793SOL    HW212279   6.824   6.017   2.545
 3794SOL     OW12280   4.490   0.202   4.404
 3794SOL    HW112281   4.426   0.140   4.450
 3794SOL    HW212282   4.562   0.230   4.467
 3795SOL     OW12283   5.758   0.437   0.617
 3795SOL    HW112284   5.774   0.519   0.563
 3795SOL    HW212285   5.717   0.462   0.704
 3796SOL     OW12286   0.071   2.742   1.489
 3796SOL    HW112287   0.129   2.791   1.424
 3796SOL    HW212288   0.106   2.756   1.582
 3797SOL     OW12289   6.629   5.926   2.303
 3797SOL    HW112290   6.561   5.971   2.246
 3797SOL    HW212291   6.670   5.992   2.366
 3798SOL     OW12292   1.387   4.444   0.109
 3798SOL    HW112293   1.397   4.348   0.084
 3798SOL    HW212294   1.425   4.501   0.037
 3799SOL     OW12295   0.651   0.674   5.392
 3799SOL    HW112296   0.738   0.659   5.437
 3799SOL    HW212297   0.583   0.609   5.427
 3800SOL     OW12298   4.937   2.378   4.718
 3800SOL    HW112299   4.879   2.425   4.785
 3800SOL    HW212300   5.026   2.423   4.713
 3801SOL     OW12301   6.828   0.545   5.833
 3801SOL    HW112302   6.806   0.501   5.746
 3801SOL    HW212303   6.836   0.476   5.905
 3802SOL     OW12304   1.879   2.668   4.935
 3802SOL    HW112305   1.887   2.768   4.933
 3802SOL    HW212306   1.965   2.628   4.904
 3803SOL     OW12307   4.719   1.109   1.232
 3803SOL    HW112308   4.669   1.075   1.153
 3803SOL    HW212309   4.754   1.031   1.285
 3804SOL     OW12310   5.173   3.720   4.896
 3804SOL    HW112311   5.188   3.683   4.987
 3804SOL    HW212312   5.078   3.703   4.869
 3805SOL     OW12313   1.993   3.871   1.229
 3805SOL    HW112314   2.017   3.964   1.199
 3805SOL    HW212315   2.062   3.839   1.294
 3806SOL     OW12316   3.568   0.818   7.010
 3806SOL    HW112317   3.555   0.807   6.912
 3806SOL    HW212318   3.657   0.781   0.019
 3807SOL     OW12319   1.710   6.524   2.515
 3807SOL    HW112320   1.767   6.451   2.475
 3807SOL    HW212321   1.650   6.562   2.444
 3808SOL     OW12322   4.098   1.288   0.626
 3808SOL    HW112323   4.081   1.196   0.661
 3808SOL    HW212324   4.135   1.282   0.533
 3809SOL     OW12325   4.204   1.227   0.371
 3809SOL    HW112326   4.182   1.132   0.351
 3809SOL    HW212327   4.248   1.269   0.291
 3810SOL     OW12328   1.911   3.754   7.005
 3810SOL    HW112329   1.961   3.669   7.015
 3810SOL    HW212330   1.871   3.759   6.913
 3811SOL     OW12331   0.215   0.749   5.838
 3811SOL    HW112332   0.156   0.814   5.887
 3811SOL    HW212333   0.222   0.775   5.742
 3812SOL     OW12334   4.327   0.631   6.017
 3812SOL    HW112335   4.381   0.548   6.030
 3812SOL    HW212336   4.296   0.664   6.107
 3813SOL     OW12337   3.871   4.854   1.859
 3813SOL    HW112338   3.879   4.797   1.777
 3813SOL    HW212339   3.791   4.826   1.911
 3814SOL     OW12340   2.215   0.236   1.979
 3814SOL    HW112341   2.262   0.322   2.002
 3814SOL    HW212342   2.117   0.252   1.974
 3815SOL     OW12343   5.318   2.179   2.057
 3815SOL    HW112344   5.356   2.253   2.001
 3815SOL    HW212345   5.280   2.108   1.997
 3816SOL     OW12346   0.413   6.407   0.497
 3816SOL    HW112347   0.414   6.425   0.595
 3816SOL    HW212348   0.477   6.468   0.451
 3817SOL     OW12349   5.446   1.846   5.319
 3817SOL    HW112350   5.399   1.881   5.237
 3817SOL    HW212351   5.534   1.807   5.292
 3818SOL     OW12352   3.530   6.576   3.256
 3818SOL    HW112353   3.476   6.495   3.276
 3818SOL    HW212354   3.536   6.589   3.158
 3819SOL     OW12355   5.320   3.435   6.224
 3819SOL    HW112356   5.405   3.428   6.172
 3819SOL    HW212357   5.290   3.344   6.252
 3820SOL     OW12358   4.059   6.109   3.200
 3820SOL    HW112359   4.017   6.094   3.289
 3820SOL    HW212360   3.999   6.074   3.128
 3821SOL     OW12361   0.437   4.607   1.407
 3821SOL    HW112362   0.383   4.523   1.401
 3821SOL    HW212363   0.438   4.640   1.501
 3822SOL     OW12364   0.967   3.461   1.415
 3822SOL    HW112365   1.040   3.455   1.483
 3822SOL    HW212366   0.929   3.553   1.414
 3823SOL     OW12367   2.468   3.383   5.393
 3823SOL    HW112368   2.563   3.383   5.424
 3823SOL    HW212369   2.411   3.432   5.458
 3824SOL     OW12370   0.504   2.619   6.049
 3824SOL    HW112371   0.495   2.649   5.954
 3824SOL    HW212372   0.414   2.595   6.085
 3825SOL     OW12373   0.929   6.287   6.468
 3825SOL    HW112374   0.848   6.282   6.527
 3825SOL    HW212375   0.910   6.348   6.391
 3826SOL     OW12376   6.594   1.535   1.653
 3826SOL    HW112377   6.528   1.553   1.725
 3826SOL    HW212378   6.684   1.567   1.681
 3827SOL     OW12379   4.978   1.845   2.221
 3827SOL    HW112380   4.932   1.827   2.308
 3827SOL    HW212381   4.993   1.943   2.210
 3828SOL     OW12382   3.581   1.082   1.203
 3828SOL    HW112383   3.550   1.175   1.181
 3828SOL    HW212384   3.527   1.016   1.151
 3829SOL     OW12385   1.023   5.251   3.505
 3829SOL    HW112386   1.073   5.335   3.482
 3829SOL    HW212387   0.925   5.265   3.487
 3830SOL     OW12388   1.947   0.270   5.419
 3830SOL    HW112389   2.043   0.288   5.439
 3830SOL    HW212390   1.891   0.288   5.499
 3831SOL     OW12391   4.555   1.943   2.068
 3831SOL    HW112392   4.575   2.017   2.003
 3831SOL    HW212393   4.559   1.979   2.161
 3832SOL     OW12394   5.879   0.055   2.339
 3832SOL    HW112395   5.932   0.071   2.256
 3832SOL    HW212396   5.909   0.119   2.411
 3833SOL     OW12397   1.417   6.621   2.637
 3833SOL    HW112398   1.357   6.571   2.573
 3833SOL    HW212399   1.401   6.589   2.730
 3834SOL     OW12400   3.227   2.747   0.508
 3834SOL    HW112401   3.250   2.663   0.458
 3834SOL    HW212402   3.311   2.795   0.533
 3835SOL     OW12403   3.203   4.852   3.104
 3835SOL    HW112404   3.169   4.759   3.115
 3835SOL    HW212405   3.126   4.916   3.106
 3836SOL     OW12406   1.600   2.761   6.514
 3836SOL    HW112407   1.694   2.750   6.481
 3836SOL    HW212408   1.550   2.819   6.449
 3837SOL     OW12409   3.287   4.579   6.417
 3837SOL    HW112410   3.313   4.676   6.413
 3837SOL    HW212411   3.357   4.524   6.371
 3838SOL     OW12412   0.054   3.327   4.882
 3838SOL    HW112413   0.068   3.262   4.957
 3838SOL    HW212414   0.056   3.278   4.795
 3839SOL     OW12415   0.641   6.156   0.131
 3839SOL    HW112416   0.645   6.235   0.192
 3839SOL    HW212417   0.569   6.094   0.161
 3840SOL     OW12418   3.445   2.112   3.082
 3840SOL    HW112419   3.512   2.129   3.009
 3840SOL    HW212420   3.353   2.128   3.047
 3841SOL     OW12421   1.165   3.308   3.701
 3841SOL    HW112422   1.099   3.234   3.697
 3841SOL    HW212423   1.146   3.374   3.628
 3842SOL     OW12424   0.975   5.127   6.758
 3842SOL    HW112425   0.990   5.130   6.857
 3842SOL    HW212426   0.910   5.054   6.737
 3843SOL     OW12427   6.827   4.986   6.621
 3843SOL    HW112428   6.742   5.018   6.663
 3843SOL    HW212429   6.806   4.922   6.547
 3844SOL     OW12430   3.032   4.182   5.532
 3844SOL    HW112431   3.027   4.233   5.447
 3844SOL    HW212432   2.950   4.125   5.542
 3845SOL     OW12433   3.319   3.583   4.349
 3845SOL    HW112434   3.260   3.582   4.430
 3845SOL    HW212435   3.263   3.590   4.267
 3846SOL     OW12436   6.737   4.518   4.902
 3846SOL    HW112437   6.694   4.495   4.990
 3846SOL    HW212438   6.667   4.555   4.840
 3847SOL     OW12439   1.279   6.805   1.208
 3847SOL    HW112440   1.180   6.815   1.213
 3847SOL    HW212441   1.322   6.895   1.213
 3848SOL     OW12442   2.741   6.287   2.309
 3848SOL    HW112443   2.646   6.307   2.285
 3848SOL    HW212444   2.802   6.329   2.242
 3849SOL     OW12445   2.520   1.600   5.069
 3849SOL    HW112446   2.588   1.554   5.127
 3849SOL    HW212447   2.568   1.651   4.997
 3850SOL     OW12448   1.590   3.425   1.633
 3850SOL    HW112449   1.684   3.391   1.643
 3850SOL    HW212450   1.526   3.349   1.635
 3851SOL     OW12451   2.606   2.770   0.552
 3851SOL    HW112452   2.606   2.789   0.650
 3851SOL    HW212453   2.632   2.675   0.537
 3852SOL     OW12454   4.525   0.775   5.368
 3852SOL    HW112455   4.487   0.848   5.425
 3852SOL    HW212456   4.622   0.762   5.391
 3853SOL     OW12457   0.386   3.364   2.060
 3853SOL    HW112458   0.483   3.375   2.081
 3853SOL    HW212459   0.332   3.403   2.135
 3854SOL     OW12460   1.286   4.014   4.082
 3854SOL    HW112461   1.234   3.946   4.134
 3854SOL    HW212462   1.249   4.105   4.099
 3855SOL     OW12463   0.152   1.980   5.092
 3855SOL    HW112464   0.215   2.016   5.161
 3855SOL    HW212465   0.191   1.897   5.051
 3856SOL     OW12466   1.078   6.218   6.217
 3856SOL    HW112467   1.171   6.184   6.236
 3856SOL    HW212468   1.061   6.300   6.272
 3857SOL     OW12469   6.996   0.190   6.770
 3857SOL    HW112470   6.974   0.106   6.820
 3857SOL    HW212471   6.987   0.269   6.831
 3858SOL     OW12472   4.276   4.974   6.724
 3858SOL    HW112473   4.179   4.983   6.744
 3858SOL    HW212474   4.290   4.969   6.625
 3859SOL     OW12475   6.601   2.526   2.277
 3859SOL    HW112476   6.672   2.595   2.262
 3859SOL    HW212477   6.512   2.564   2.251
 3860SOL     OW12478   2.095   5.875   4.722
 3860SOL    HW112479   2.119   5.785   4.759
 3860SOL    HW212480   2.021   5.864   4.655
 3861SOL     OW12481   3.093   3.674   0.540
 3861SOL    HW112482   3.132   3.727   0.464
 3861SOL    HW212483   3.137   3.584   0.543
 3862SOL     OW12484   0.846   6.438   5.277
 3862SOL    HW112485   0.920   6.425   5.341
 3862SOL    HW212486   0.862   6.382   5.195
 3863SOL     OW12487   2.437   3.009   0.465
 3863SOL    HW112488   2.440   2.912   0.438
 3863SOL    HW212489   2.462   3.018   0.561
 3864SOL     OW12490   3.419   1.939   1.289
 3864SOL    HW112491   3.378   1.897   1.370
 3864SOL    HW212492   3.384   1.894   1.207
 3865SOL     OW12493   4.220   0.908   2.199
 3865SOL    HW112494   4.203   0.991   2.146
 3865SOL    HW212495   4.238   0.832   2.137
 3866SOL     OW12496   4.502   6.200   6.690
 3866SOL    HW112497   4.481   6.251   6.774
 3866SOL    HW212498   4.600   6.180   6.687
 3867SOL     OW12499   1.772   5.106   3.201
 3867SOL    HW112500   1.674   5.123   3.190
 3867SOL    HW212501   1.818   5.121   3.113
 3868SOL     OW12502   2.329   5.048   3.097
 3868SOL    HW112503   2.383   5.131   3.106
 3868SOL    HW212504   2.344   4.990   3.178
 3869SOL     OW12505   1.068   1.146   3.526
 3869SOL    HW112506   1.014   1.106   3.600
 3869SOL    HW212507   1.144   1.085   3.504
 3870SOL     OW12508   4.003   3.674   6.898
 3870SOL    HW112509   4.006   3.576   6.879
 3870SOL    HW212510   3.925   3.693   6.958
 3871SOL     OW12511   2.992   0.542   4.410
 3871SOL    HW112512   3.062   0.611   4.393
 3871SOL    HW212513   3.021   0.483   4.485
 3872SOL     OW12514   5.037   4.241   0.588
 3872SOL    HW112515   5.072   4.150   0.563
 3872SOL    HW212516   4.968   4.232   0.659
 3873SOL     OW12517   6.266   5.062   1.850
 3873SOL    HW112518   6.336   5.111   1.798
 3873SOL    HW212519   6.179   5.067   1.802
 3874SOL     OW12520   5.419   6.456   5.766
 3874SOL    HW112521   5.511   6.486   5.791
 3874SOL    HW212522   5.380   6.401   5.840
 3875SOL     OW12523   3.114   3.419   0.389
 3875SOL    HW112524   3.021   3.395   0.362
 3875SOL    HW212525   3.146   3.496   0.334
 3876SOL     OW12526   5.411   3.961   2.654
 3876SOL    HW112527   5.352   3.906   2.712
 3876SOL    HW212528   5.379   4.056   2.654
 3877SOL     OW12529   4.451   1.547   1.844
 3877SOL    HW112530   4.482   1.521   1.936
 3877SOL    HW212531   4.525   1.529   1.779
 3878SOL     OW12532   5.981   5.581   5.125
 3878SOL    HW112533   5.927   5.514   5.073
 3878SOL    HW212534   6.057   5.613   5.070
 3879SOL     OW12535   2.262   6.157   0.701
 3879SOL    HW112536   2.344   6.100   0.700
 3879SOL    HW212537   2.273   6.229   0.770
 3880SOL     OW12538   5.713   1.797   4.433
 3880SOL    HW112539   5.722   1.803   4.532
 3880SOL    HW212540   5.729   1.887   4.392
 3881SOL     OW12541   6.894   6.257   5.713
 3881SOL    HW112542   6.927   6.349   5.729
 3881SOL    HW212543   6.955   6.209   5.650
 3882SOL     OW12544   0.001   6.087   0.002
 3882SOL    HW112545   0.065   6.010   0.010
 3882SOL    HW212546   6.927   6.052   7.001
 3883SOL     OW12547   4.155   1.952   0.448
 3883SOL    HW112548   4.166   1.858   0.415
 3883SOL    HW212549   4.064   1.964   0.487
 3884SOL     OW12550   2.912   5.798   5.986
 3884SOL    HW112551   2.982   5.866   6.007
 3884SOL    HW212552   2.950   5.707   5.996
 3885SOL     OW12553   0.352   1.249   3.820
 3885SOL    HW112554   0.320   1.336   3.859
 3885SOL    HW212555   0.279   1.209   3.764
 3886SOL     OW12556   6.942   6.209   4.751
 3886SOL    HW112557   6.875   6.244   4.815
 3886SOL    HW212558   6.896   6.177   4.668
 3887SOL     OW12559   0.106   3.064   5.320
 3887SOL    HW112560   0.204   3.071   5.338
 3887SOL    HW212561   0.062   3.151   5.341
 3888SOL     OW12562   4.745   2.183   3.177
 3888SOL    HW112563   4.775   2.102   3.226
 3888SOL    HW212564   4.768   2.174   3.080
 3889SOL     OW12565   6.458   5.431   0.396
 3889SOL    HW112566   6.489   5.401   0.486
 3889SOL    HW212567   6.513   5.388   0.325
 3890SOL     OW12568   6.033   3.220   3.342
 3890SOL    HW112569   6.003   3.297   3.285
 3890SOL    HW212570   5.970   3.209   3.419
 3891SOL     OW12571   3.832   4.258   6.019
 3891SOL    HW112572   3.748   4.272   6.072
 3891SOL    HW212573   3.809   4.253   5.922
 3892SOL     OW12574   5.017   6.051   4.072
 3892SOL    HW112575   4.984   5.957   4.064
 3892SOL    HW212576   4.967   6.097   4.146
 3893SOL     OW12577   2.628   5.946   4.928
 3893SOL    HW112578   2.554   6.001   4.890
 3893SOL    HW212579   2.661   5.882   4.858
 3894SOL     OW12580   5.399   5.850   5.924
 3894SOL    HW112581   5.490   5.882   5.897
 3894SOL    HW212582   5.331   5.919   5.898
 3895SOL     OW12583   1.155   1.668   4.981
 3895SOL    HW112584   1.225   1.601   5.010
 3895SOL    HW212585   1.188   1.760   4.998
 3896SOL     OW12586   6.576   2.591   0.516
 3896SOL    HW112587   6.657   2.626   0.469
 3896SOL    HW212588   6.557   2.498   0.483
 3897SOL     OW12589   2.770   0.552   3.224
 3897SOL    HW112590   2.841   0.484   3.206
 3897SOL    HW212591   2.684   0.506   3.247
 3898SOL     OW12592   3.468   4.127   3.002
 3898SOL    HW112593   3.465   4.122   3.102
 3898SOL    HW212594   3.510   4.214   2.975
 3899SOL     OW12595   4.927   1.587   6.081
 3899SOL    HW112596   4.864   1.516   6.112
 3899SOL    HW212597   4.948   1.572   5.984
 3900SOL     OW12598   0.990   2.509   4.216
 3900SOL    HW112599   0.983   2.435   4.283
 3900SOL    HW212600   0.901   2.524   4.173
 3901SOL     OW12601   3.842   6.316   4.273
 3901SOL    HW112602   3.817   6.366   4.355
 3901SOL    HW212603   3.932   6.345   4.241
 3902SOL     OW12604   2.934   5.037   3.276
 3902SOL    HW112605   2.928   5.124   3.324
 3902SOL    HW212606   2.848   4.986   3.288
 3903SOL     OW12607   2.729   4.004   5.866
 3903SOL    HW112608   2.656   3.985   5.801
 3903SOL    HW212609   2.690   4.037   5.952
 3904SOL     OW12610   2.973   6.393   1.087
 3904SOL    HW112611   2.906   6.385   1.160
 3904SOL    HW212612   3.043   6.460   1.113
 3905SOL     OW12613   4.046   6.426   5.485
 3905SOL    HW112614   4.139   6.423   5.522
 3905SOL    HW212615   4.001   6.339   5.503
 3906SOL     OW12616   6.625   6.012   4.089
 3906SOL    HW112617   6.608   5.916   4.108
 3906SOL    HW212618   6.606   6.032   3.993
 3907SOL     OW12619   1.435   1.040   5.026
 3907SOL    HW112620   1.367   1.111   5.042
 3907SOL    HW212621   1.448   1.027   4.928
 3908SOL     OW12622   2.185   1.798   4.646
 3908SOL    HW112623   2.175   1.699   4.634
 3908SOL    HW212624   2.103   1.834   4.691
 3909SOL     OW12625   6.481   3.340   2.529
 3909SOL    HW112626   6.571   3.315   2.563
 3909SOL    HW212627   6.488   3.423   2.474
 3910SOL     OW12628   1.705   2.294   0.122
 3910SOL    HW112629   1.630   2.244   0.167
 3910SOL    HW212630   1.723   2.379   0.172
 3911SOL     OW12631   6.384   0.757   2.524
 3911SOL    HW112632   6.307   0.806   2.566
 3911SOL    HW212633   6.364   0.659   2.523
 3912SOL     OW12634   4.703   4.772   0.995
 3912SOL    HW112635   4.629   4.766   0.928
 3912SOL    HW212636   4.765   4.846   0.970
 3913SOL     OW12637   4.199   4.837   1.241
 3913SOL    HW112638   4.296   4.811   1.239
 3913SOL    HW212639   4.146   4.771   1.187
 3914SOL     OW12640   0.246   1.104   0.487
 3914SOL    HW112641   0.173   1.064   0.543
 3914SOL    HW212642   0.258   1.048   0.405
 3915SOL     OW12643   5.202   0.166   4.977
 3915SOL    HW112644   5.215   0.096   5.047
 3915SOL    HW212645   5.250   0.138   4.894
 3916SOL     OW12646   2.068   2.816   2.150
 3916SOL    HW112647   2.086   2.824   2.248
 3916SOL    HW212648   1.994   2.750   2.135
 3917SOL     OW12649   3.694   5.655   2.189
 3917SOL    HW112650   3.762   5.582   2.180
 3917SOL    HW212651   3.640   5.661   2.105
 3918SOL     OW12652   3.982   6.325   0.009
 3918SOL    HW112653   4.067   6.360   0.046
 3918SOL    HW212654   4.001   6.247   6.968
 3919SOL     OW12655   4.871   4.368   3.604
 3919SOL    HW112656   4.794   4.424   3.574
 3919SOL    HW212657   4.936   4.425   3.654
 3920SOL     OW12658   4.442   0.769   5.822
 3920SOL    HW112659   4.488   0.697   5.771
 3920SOL    HW212660   4.398   0.731   5.903
 3921SOL     OW12661   1.169   3.897   5.576
 3921SOL    HW112662   1.098   3.828   5.559
 3921SOL    HW212663   1.249   3.875   5.521
 3922SOL     OW12664   5.361   1.908   3.909
 3922SOL    HW112665   5.262   1.921   3.903
 3922SOL    HW212666   5.381   1.812   3.929
 3923SOL     OW12667   5.862   0.561   1.841
 3923SOL    HW112668   5.833   0.478   1.889
 3923SOL    HW212669   5.802   0.577   1.763
 3924SOL     OW12670   5.434   5.233   3.868
 3924SOL    HW112671   5.372   5.220   3.945
 3924SOL    HW212672   5.433   5.329   3.841
 3925SOL     OW12673   3.803   4.227   1.647
 3925SOL    HW112674   3.706   4.213   1.625
 3925SOL    HW212675   3.812   4.307   1.706
 3926SOL     OW12676   0.723   6.066   5.347
 3926SOL    HW112677   0.625   6.072   5.326
 3926SOL    HW212678   0.735   6.056   5.446
 3927SOL     OW12679   6.045   6.059   5.002
 3927SOL    HW112680   6.010   5.974   4.963
 3927SOL    HW212681   5.968   6.122   5.017
 3928SOL     OW12682   4.357   5.285   2.665
 3928SOL    HW112683   4.352   5.296   2.764
 3928SOL    HW212684   4.327   5.192   2.640
 3929SOL     OW12685   1.840   1.035   4.933
 3929SOL    HW112686   1.840   1.125   4.979
 3929SOL    HW212687   1.891   0.970   4.989
 3930SOL     OW12688   1.882   5.612   4.397
 3930SOL    HW112689   1.830   5.689   4.435
 3930SOL    HW212690   1.977   5.640   4.384
 3931SOL     OW12691   0.553   1.972   0.485
 3931SOL    HW112692   0.494   1.938   0.558
 3931SOL    HW212693   0.524   2.064   0.459
 3932SOL     OW12694   1.399   4.445   2.218
 3932SOL    HW112695   1.436   4.506   2.287
 3932SOL    HW212696   1.455   4.449   2.136
 3933SOL     OW12697   1.347   6.947   1.701
 3933SOL    HW112698   1.295   0.003   1.660
 3933SOL    HW212699   1.408   6.908   1.632
 3934SOL     OW12700   1.426   6.974   2.082
 3934SOL    HW112701   1.353   0.019   2.112
 3934SOL    HW212702   1.463   7.006   1.995
 3935SOL     OW12703   6.956   1.101   4.814
 3935SOL    HW112704   6.907   1.026   4.770
 3935SOL    HW212705   0.029   1.071   4.840
 3936SOL     OW12706   6.245   4.935   3.939
 3936SOL    HW112707   6.274   5.005   3.874
 3936SOL    HW212708   6.322   4.874   3.958
 3937SOL     OW12709   1.504   6.574   0.022
 3937SOL    HW112710   1.506   6.490   0.076
 3937SOL    HW212711   1.597   6.612   0.015
 3938SOL     OW12712   1.052   4.919   6.488
 3938SOL    HW112713   1.028   4.834   6.535
 3938SOL    HW212714   1.133   4.959   6.531
 3939SOL     OW12715   1.942   6.102   4.198
 3939SOL    HW112716   1.845   6.096   4.221
 3939SOL    HW212717   1.981   6.010   4.193
 3940SOL     OW12718   2.631   5.920   6.886
 3940SOL    HW112719   2.713   5.978   6.892
 3940SOL    HW212720   2.567   5.959   6.820
 3941SOL     OW12721   5.618   5.166   2.860
 3941SOL    HW112722   5.574   5.084   2.826
 3941SOL    HW212723   5.550   5.226   2.902
 3942SOL     OW12724   0.848   6.670   0.155
 3942SOL    HW112725   0.761   6.718   0.147
 3942SOL    HW212726   0.856   6.605   0.079
 3943SOL     OW12727   0.603   4.852   0.368
 3943SOL    HW112728   0.511   4.888   0.385
 3943SOL    HW212729   0.638   4.891   0.283
 3944SOL     OW12730   5.253   3.136   0.526
 3944SOL    HW112731   5.312   3.216   0.520
 3944SOL    HW212732   5.305   3.059   0.561
 3945SOL     OW12733   0.165   0.848   2.968
 3945SOL    HW112734   0.143   0.751   2.971
 3945SOL    HW212735   0.215   0.874   3.051
 3946SOL     OW12736   5.121   1.086   0.872
 3946SOL    HW112737   5.096   1.015   0.937
 3946SOL    HW212738   5.220   1.086   0.858
 3947SOL     OW12739   5.349   0.047   0.854
 3947SOL    HW112740   5.316   0.065   0.947
 3947SOL    HW212741   5.277   0.068   0.788
 3948SOL     OW12742   1.930   1.636   4.089
 3948SOL    HW112743   1.909   1.717   4.034
 3948SOL    HW212744   1.986   1.573   4.035
 3949SOL     OW12745   5.919   6.640   2.347
 3949SOL    HW112746   5.890   6.689   2.264
 3949SOL    HW212747   5.998   6.686   2.387
 3950SOL     OW12748   2.484   4.676   1.619
 3950SOL    HW112749   2.384   4.666   1.628
 3950SOL    HW212750   2.519   4.603   1.560
 3951SOL     OW12751   7.017   2.506   3.018
 3951SOL    HW112752   0.085   2.480   2.974
 3951SOL    HW212753   6.943   2.497   2.952
 3952SOL     OW12754   5.973   5.584   6.812
 3952SOL    HW112755   5.877   5.609   6.817
 3952SOL    HW212756   5.982   5.495   6.767
 3953SOL     OW12757   3.410   2.886   4.915
 3953SOL    HW112758   3.336   2.908   4.852
 3953SOL    HW212759   3.380   2.904   5.009
 3954SOL     OW12760   1.063   4.469   5.850
 3954SOL    HW112761   0.996   4.394   5.849
 3954SOL    HW212762   1.039   4.533   5.923
 3955SOL     OW12763   6.188   3.362   0.139
 3955SOL    HW112764   6.167   3.449   0.182
 3955SOL    HW212765   6.239   3.303   0.203
 3956SOL     OW12766   7.007   2.891   4.697
 3956SOL    HW112767   0.070   2.948   4.705
 3956SOL    HW212768   6.933   2.931   4.751
 3957SOL     OW12769   1.893   2.789   1.588
 3957SOL    HW112770   1.801   2.754   1.603
 3957SOL    HW212771   1.948   2.720   1.543
 3958SOL     OW12772   5.139   5.418   0.756
 3958SOL    HW112773   5.084   5.349   0.709
 3958SOL    HW212774   5.108   5.425   0.851
 3959SOL     OW12775   3.277   4.967   0.519
 3959SOL    HW112776   3.212   4.908   0.566
 3959SOL    HW212777   3.338   4.911   0.463
 3960SOL     OW12778   5.740   3.293   1.199
 3960SOL    HW112779   5.839   3.302   1.182
 3960SOL    HW212780   5.725   3.229   1.274
 3961SOL     OW12781   6.804   1.136   1.550
 3961SOL    HW112782   6.874   1.153   1.481
 3961SOL    HW212783   6.727   1.086   1.509
 3962SOL     OW12784   0.481   6.736   6.478
 3962SOL    HW112785   0.505   6.641   6.461
 3962SOL    HW212786   0.551   6.796   6.440
 3963SOL     OW12787   6.196   2.918   4.856
 3963SOL    HW112788   6.111   2.872   4.831
 3963SOL    HW212789   6.222   2.892   4.949
 3964SOL     OW12790   5.925   5.010   6.632
 3964SOL    HW112791   5.931   4.921   6.678
 3964SOL    HW212792   5.859   5.003   6.556
 3965SOL     OW12793   2.649   5.161   1.546
 3965SOL    HW112794   2.610   5.071   1.530
 3965SOL    HW212795   2.718   5.181   1.476
 3966SOL     OW12796   0.054   4.039   5.726
 3966SOL    HW112797   0.069   3.991   5.640
 3966SOL    HW212798   6.979   4.074   5.729
 3967SOL     OW12799   2.633   0.401   0.635
 3967SOL    HW112800   2.538   0.375   0.617
 3967SOL    HW212801   2.683   0.407   0.549
 3968SOL     OW12802   4.610   2.973   1.014
 3968SOL    HW112803   4.608   2.904   0.942
 3968SOL    HW212804   4.632   2.930   1.101
 3969SOL     OW12805   6.274   6.579   1.293
 3969SOL    HW112806   6.189   6.607   1.337
 3969SOL    HW212807   6.255   6.509   1.224
 3970SOL     OW12808   6.105   4.184   3.839
 3970SOL    HW112809   6.145   4.273   3.859
 3970SOL    HW212810   6.005   4.192   3.836
 3971SOL     OW12811   0.015   5.648   4.218
 3971SOL    HW112812   0.077   5.681   4.147
 3971SOL    HW212813   0.052   5.672   4.308
 3972SOL     OW12814   1.154   0.917   6.618
 3972SOL    HW112815   1.182   0.983   6.688
 3972SOL    HW212816   1.178   0.825   6.649
 3973SOL     OW12817   4.157   2.888   1.698
 3973SOL    HW112818   4.134   2.929   1.786
 3973SOL    HW212819   4.074   2.870   1.646
 3974SOL     OW12820   5.380   0.708   6.977
 3974SOL    HW112821   5.321   0.774   0.007
 3974SOL    HW212822   5.333   0.620   6.971
 3975SOL     OW12823   0.205   6.446   3.781
 3975SOL    HW112824   0.165   6.468   3.870
 3975SOL    HW212825   0.163   6.362   3.745
 3976SOL     OW12826   0.477   3.314   5.231
 3976SOL    HW112827   0.467   3.382   5.304
 3976SOL    HW212828   0.574   3.302   5.210
 3977SOL     OW12829   2.295   4.883   5.863
 3977SOL    HW112830   2.381   4.917   5.900
 3977SOL    HW212831   2.268   4.800   5.913
 3978SOL     OW12832   4.307   3.139   6.118
 3978SOL    HW112833   4.274   3.188   6.037
 3978SOL    HW212834   4.248   3.161   6.196
 3979SOL     OW12835   0.166   5.452   2.843
 3979SOL    HW112836   0.207   5.392   2.912
 3979SOL    HW212837   0.234   5.472   2.773
 3980SOL     OW12838   5.428   4.236   3.778
 3980SOL    HW112839   5.410   4.262   3.873
 3980SOL    HW212840   5.514   4.277   3.749
 3981SOL     OW12841   6.842   0.964   6.634
 3981SOL    HW112842   6.850   1.054   6.590
 3981SOL    HW212843   6.800   0.975   6.724
 3982SOL     OW12844   2.124   3.078   3.901
 3982SOL    HW112845   2.122   3.026   3.815
 3982SOL    HW212846   2.083   3.024   3.974
 3983SOL     OW12847   2.647   1.229   3.108
 3983SOL    HW112848   2.550   1.254   3.112
 3983SOL    HW212849   2.701   1.307   3.076
 3984SOL     OW12850   1.601   6.135   2.559
 3984SOL    HW112851   1.627   6.204   2.625
 3984SOL    HW212852   1.606   6.044   2.601
 3985SOL     OW12853   1.588   2.358   1.125
 3985SOL    HW112854   1.537   2.315   1.199
 3985SOL    HW212855   1.683   2.373   1.154
 3986SOL     OW12856   0.648   1.475   2.970
 3986SOL    HW112857   0.724   1.529   2.934
 3986SOL    HW212858   0.674   1.378   2.973
 3987SOL     OW12859   1.630   4.024   5.724
 3987SOL    HW112860   1.584   3.943   5.687
 3987SOL    HW212861   1.573   4.065   5.796
 3988SOL     OW12862   4.949   5.689   2.269
 3988SOL    HW112863   5.008   5.608   2.266
 3988SOL    HW212864   4.910   5.698   2.360
 3989SOL     OW12865   4.403   0.707   6.383
 3989SOL    HW112866   4.311   0.737   6.359
 3989SOL    HW212867   4.468   0.746   6.318
 3990SOL     OW12868   6.401   6.577   3.968
 3990SOL    HW112869   6.323   6.615   4.018
 3990SOL    HW212870   6.368   6.512   3.900
 3991SOL     OW12871   6.913   2.312   4.210
 3991SOL    HW112872   6.927   2.341   4.115
 3991SOL    HW212873   6.997   2.270   4.244
 3992SOL     OW12874   5.938   3.746   5.722
 3992SOL    HW112875   5.867   3.810   5.750
 3992SOL    HW212876   6.026   3.774   5.760
 3993SOL     OW12877   1.918   0.829   4.308
 3993SOL    HW112878   1.939   0.780   4.223
 3993SOL    HW212879   1.819   0.836   4.319
 3994SOL     OW12880   3.495   2.178   3.591
 3994SOL    HW112881   3.510   2.151   3.495
 3994SOL    HW212882   3.484   2.277   3.596
 3995SOL     OW12883   1.788   3.898   1.910
 3995SOL    HW112884   1.785   3.818   1.970
 3995SOL    HW212885   1.880   3.907   1.871
 3996SOL     OW12886   0.378   5.817   5.202
 3996SOL    HW112887   0.408   5.892   5.142
 3996SOL    HW212888   0.313   5.759   5.152
 3997SOL     OW12889   6.310   3.150   4.739
 3997SOL    HW112890   6.267   3.190   4.820
 3997SOL    HW212891   6.302   3.050   4.742
 3998SOL     OW12892   4.277   2.329   2.745
 3998SOL    HW112893   4.367   2.372   2.751
 3998SOL    HW212894   4.242   2.339   2.652
 3999SOL     OW12895   4.698   3.630   1.125
 3999SOL    HW112896   4.645   3.706   1.162
 3999SOL    HW212897   4.639   3.549   1.116
 4000SOL     OW12898   2.277   4.706   2.315
 4000SOL    HW112899   2.180   4.694   2.295
 4000SOL    HW212900   2.301   4.803   2.306
 4001SOL     OW12901   0.805   5.715   3.811
 4001SOL    HW112902   0.750   5.789   3.773
 4001SOL    HW212903   0.798   5.635   3.752
 4002SOL     OW12904   3.897   4.093   4.991
 4002SOL    HW112905   3.972   4.156   5.006
 4002SOL    HW212906   3.852   4.073   5.078
 4003SOL     OW12907   2.839   1.653   4.335
 4003SOL    HW112908   2.901   1.577   4.355
 4003SOL    HW212909   2.881   1.712   4.266
 4004SOL     OW12910   1.839   3.505   5.057
 4004SOL    HW112911   1.932   3.487   5.028
 4004SOL    HW212912   1.775   3.461   4.995
 4005SOL     OW12913   5.572   2.075   1.337
 4005SOL    HW112914   5.512   2.127   1.276
 4005SOL    HW212915   5.603   1.993   1.290
 4006SOL     OW12916   0.300   5.838   2.268
 4006SOL    HW112917   0.340   5.925   2.240
 4006SOL    HW212918   0.340   5.809   2.355
 4007SOL     OW12919   0.460   1.334   1.281
 4007SOL    HW112920   0.408   1.416   1.306
 4007SOL    HW212921   0.543   1.330   1.337
 4008SOL     OW12922   4.202   0.578   1.360
 4008SOL    HW112923   4.161   0.544   1.275
 4008SOL    HW212924   4.131   0.619   1.417
 4009SOL     OW12925   3.808   2.741   1.192
 4009SOL    HW112926   3.737   2.753   1.262
 4009SOL    HW212927   3.892   2.786   1.222
 4010SOL     OW12928   1.410   5.249   1.055
 4010SOL    HW112929   1.397   5.247   1.154
 4010SOL    HW212930   1.466   5.327   1.029
 4011SOL     OW12931   5.860   6.358   6.805
 4011SOL    HW112932   5.942   6.361   6.863
 4011SOL    HW212933   5.881   6.311   6.720
 4012SOL     OW12934   5.742   4.337   1.681
 4012SOL    HW112935   5.698   4.248   1.669
 4012SOL    HW212936   5.821   4.344   1.620
 4013SOL     OW12937   0.071   1.861   6.773
 4013SOL    HW112938   6.998   1.821   6.781
 4013SOL    HW212939   0.115   1.864   6.863
 4014SOL     OW12940   3.752   6.352   3.070
 4014SOL    HW112941   3.818   6.313   3.006
 4014SOL    HW212942   3.700   6.424   3.025
 4015SOL     OW12943   3.602   6.512   4.643
 4015SOL    HW112944   3.600   6.452   4.723
 4015SOL    HW212945   3.590   6.607   4.673
 4016SOL     OW12946   4.545   5.240   4.012
 4016SOL    HW112947   4.535   5.340   4.010
 4016SOL    HW212948   4.456   5.198   3.996
 4017SOL     OW12949   1.686   6.132   5.805
 4017SOL    HW112950   1.671   6.143   5.903
 4017SOL    HW212951   1.778   6.165   5.782
 4018SOL     OW12952   5.077   5.616   0.591
 4018SOL    HW112953   5.110   5.552   0.660
 4018SOL    HW212954   5.148   5.683   0.571
 4019SOL     OW12955   0.656   2.390   2.902
 4019SOL    HW112956   0.598   2.385   2.821
 4019SOL    HW212957   0.697   2.300   2.919
 4020SOL     OW12958   6.901   5.782   4.551
 4020SOL    HW112959   6.830   5.838   4.508
 4020SOL    HW212960   6.896   5.794   4.650
 4021SOL     OW12961   4.557   5.541   5.849
 4021SOL    HW112962   4.508   5.539   5.936
 4021SOL    HW212963   4.621   5.617   5.848
 4022SOL     OW12964   3.774   0.277   1.348
 4022SOL    HW112965   3.736   0.368   1.333
 4022SOL    HW212966   3.740   0.214   1.278
 4023SOL     OW12967   0.583   1.981   4.002
 4023SOL    HW112968   0.574   2.029   4.089
 4023SOL    HW212969   0.612   1.887   4.019
 4024SOL     OW12970   0.833   6.473   6.292
 4024SOL    HW112971   0.928   6.502   6.275
 4024SOL    HW212972   0.771   6.541   6.254
 4025SOL     OW12973   1.038   4.313   4.674
 4025SOL    HW112974   1.014   4.216   4.678
 4025SOL    HW212975   1.089   4.337   4.757
 4026SOL     OW12976   0.729   6.705   4.492
 4026SOL    HW112977   0.823   6.729   4.465
 4026SOL    HW212978   0.676   6.789   4.504
 4027SOL     OW12979   3.327   5.763   5.131
 4027SOL    HW112980   3.324   5.755   5.031
 4027SOL    HW212981   3.367   5.680   5.170
 4028SOL     OW12982   4.383   1.294   4.626
 4028SOL    HW112983   4.391   1.311   4.528
 4028SOL    HW212984   4.367   1.380   4.674
 4029SOL     OW12985   2.065   6.826   0.950
 4029SOL    HW112986   2.045   6.924   0.947
 4029SOL    HW212987   2.059   6.794   1.045
 4030SOL     OW12988   0.848   1.252   2.063
 4030SOL    HW112989   0.909   1.316   2.017
 4030SOL    HW212990   0.807   1.296   2.143
 4031SOL     OW12991   6.198   5.683   0.703
 4031SOL    HW112992   6.231   5.724   0.788
 4031SOL    HW212993   6.195   5.754   0.632
 4032SOL     OW12994   5.226   2.017   1.856
 4032SOL    HW112995   5.235   1.917   1.853
 4032SOL    HW212996   5.159   2.046   1.787
 4033SOL     OW12997   1.299   3.648   3.182
 4033SOL    HW112998   1.354   3.594   3.247
 4033SOL    HW212999   1.224   3.691   3.231
 4034SOL     OW13000   2.425   2.151   4.552
 4034SOL    HW113001   2.474   2.202   4.481
 4034SOL    HW213002   2.400   2.061   4.516
 4035SOL     OW13003   3.497   2.424   1.676
 4035SOL    HW113004   3.536   2.384   1.758
 4035SOL    HW213005   3.404   2.388   1.662
 4036SOL     OW13006   4.320   6.913   3.689
 4036SOL    HW113007   4.363   6.998   3.659
 4036SOL    HW213008   4.311   6.851   3.611
 4037SOL     OW13009   1.604   1.310   5.520
 4037SOL    HW113010   1.548   1.306   5.438
 4037SOL    HW213011   1.699   1.328   5.496
 4038SOL     OW13012   4.104   4.802   5.644
 4038SOL    HW113013   4.145   4.787   5.554
 4038SOL    HW213014   4.151   4.878   5.689
 4039SOL     OW13015   5.803   4.612   1.713
 4039SOL    HW113016   5.897   4.618   1.678
 4039SOL    HW213017   5.771   4.517   1.706
 4040SOL     OW13018   2.292   6.585   5.197
 4040SOL    HW113019   2.287   6.623   5.105
 4040SOL    HW213020   2.210   6.532   5.216
 4041SOL     OW13021   1.574   6.072   1.603
 4041SOL    HW113022   1.606   6.002   1.538
 4041SOL    HW213023   1.637   6.149   1.603
 4042SOL     OW13024   1.167   1.584   4.004
 4042SOL    HW113025   1.084   1.541   4.042
 4042SOL    HW213026   1.194   1.660   4.062
 4043SOL     OW13027   3.547   2.687   5.837
 4043SOL    HW113028   3.556   2.765   5.775
 4043SOL    HW213029   3.608   2.700   5.916
 4044SOL     OW13030   4.668   4.272   3.022
 4044SOL    HW113031   4.630   4.364   3.017
 4044SOL    HW213032   4.685   4.248   3.118
 4045SOL     OW13033   4.341   1.265   5.053
 4045SOL    HW113034   4.245   1.254   5.030
 4045SOL    HW213035   4.350   1.283   5.152
 4046SOL     OW13036   5.249   1.082   3.974
 4046SOL    HW113037   5.318   1.132   4.025
 4046SOL    HW213038   5.268   1.089   3.876
 4047SOL     OW13039   2.942   2.331   6.170
 4047SOL    HW113040   2.843   2.319   6.171
 4047SOL    HW213041   2.964   2.426   6.191
 4048SOL     OW13042   4.729   2.385   3.351
 4048SOL    HW113043   4.745   2.321   3.276
 4048SOL    HW213044   4.707   2.333   3.434
 4049SOL     OW13045   3.797   3.951   2.423
 4049SOL    HW113046   3.805   3.852   2.413
 4049SOL    HW213047   3.813   3.976   2.519
 4050SOL     OW13048   6.931   4.801   2.958
 4050SOL    HW113049   6.898   4.859   2.883
 4050SOL    HW213050   6.856   4.783   3.022
 4051SOL     OW13051   6.017   0.644   3.917
 4051SOL    HW113052   5.982   0.551   3.924
 4051SOL    HW213053   5.981   0.686   3.833
 4052SOL     OW13054   4.728   1.286   4.367
 4052SOL    HW113055   4.737   1.364   4.428
 4052SOL    HW213056   4.644   1.236   4.389
 4053SOL     OW13057   0.786   4.269   3.304
 4053SOL    HW113058   0.782   4.312   3.214
 4053SOL    HW213059   0.838   4.183   3.297
 4054SOL     OW13060   5.343   3.824   1.787
 4054SOL    HW113061   5.386   3.794   1.872
 4054SOL    HW213062   5.262   3.768   1.769
 4055SOL     OW13063   0.349   4.455   6.872
 4055SOL    HW113064   0.369   4.400   6.953
 4055SOL    HW213065   0.376   4.404   6.790
 4056SOL     OW13066   4.601   4.078   6.951
 4056SOL    HW113067   4.581   4.108   0.026
 4056SOL    HW213068   4.605   4.158   6.890
 4057SOL     OW13069   6.901   4.782   5.879
 4057SOL    HW113070   6.997   4.777   5.906
 4057SOL    HW213071   6.895   4.796   5.780
 4058SOL     OW13072   3.375   0.564   4.379
 4058SOL    HW113073   3.282   0.600   4.377
 4058SOL    HW213074   3.428   0.614   4.447
 4059SOL     OW13075   1.161   1.397   3.700
 4059SOL    HW113076   1.104   1.350   3.632
 4059SOL    HW213077   1.107   1.415   3.782
 4060SOL     OW13078   0.291   6.678   4.176
 4060SOL    HW113079   0.277   6.580   4.160
 4060SOL    HW213080   0.225   6.731   4.122
 4061SOL     OW13081   1.555   4.064   2.225
 4061SOL    HW113082   1.475   4.108   2.266
 4061SOL    HW213083   1.557   3.968   2.253
 4062SOL     OW13084   2.812   4.354   0.233
 4062SOL    HW113085   2.731   4.374   0.179
 4062SOL    HW213086   2.851   4.267   0.204
 4063SOL     OW13087   3.856   0.899   1.010
 4063SOL    HW113088   3.878   0.950   1.094
 4063SOL    HW213089   3.935   0.844   0.983
 4064SOL     OW13090   2.436   0.086   4.602
 4064SOL    HW113091   2.388   7.017   4.596
 4064SOL    HW213092   2.393   0.144   4.671
 4065SOL     OW13093   2.145   1.424   1.261
 4065SOL    HW113094   2.161   1.469   1.349
 4065SOL    HW213095   2.176   1.482   1.186
 4066SOL     OW13096   0.729   3.735   4.873
 4066SOL    HW113097   0.781   3.785   4.943
 4066SOL    HW213098   0.793   3.688   4.811
 4067SOL     OW13099   6.051   4.623   1.578
 4067SOL    HW113100   6.109   4.576   1.645
 4067SOL    HW213101   6.108   4.681   1.520
 4068SOL     OW13102   2.123   2.894   6.081
 4068SOL    HW113103   2.164   2.826   6.020
 4068SOL    HW213104   2.081   2.967   6.026
 4069SOL     OW13105   3.876   6.941   5.902
 4069SOL    HW113106   3.974   6.923   5.894
 4069SOL    HW213107   3.857   6.983   5.991
 4070SOL     OW13108   1.842   4.100   4.042
 4070SOL    HW113109   1.930   4.051   4.042
 4070SOL    HW213110   1.857   4.194   4.071
 4071SOL     OW13111   1.179   0.507   5.472
 4071SOL    HW113112   1.277   0.495   5.457
 4071SOL    HW213113   1.129   0.443   5.414
 4072SOL     OW13114   2.981   6.585   2.688
 4072SOL    HW113115   2.904   6.565   2.628
 4072SOL    HW213116   2.999   6.684   2.687
 4073SOL     OW13117   4.735   5.206   6.832
 4073SOL    HW113118   4.677   5.244   6.760
 4073SOL    HW213119   4.707   5.112   6.851
 4074SOL     OW13120   1.675   5.602   2.282
 4074SOL    HW113121   1.607   5.537   2.316
 4074SOL    HW213122   1.644   5.695   2.302
 4075SOL     OW13123   5.804   0.639   6.778
 4075SOL    HW113124   5.804   0.662   6.875
 4075SOL    HW213125   5.732   0.692   6.732
 4076SOL     OW13126   2.180   5.974   3.510
 4076SOL    HW113127   2.190   5.875   3.513
 4076SOL    HW213128   2.208   6.013   3.597
 4077SOL     OW13129   2.326   1.995   1.533
 4077SOL    HW113130   2.278   2.030   1.453
 4077SOL    HW213131   2.409   2.049   1.548
 4078SOL     OW13132   4.435   5.019   1.925
 4078SOL    HW113133   4.473   5.001   1.835
 4078SOL    HW213134   4.421   5.118   1.937
 4079SOL     OW13135   0.593   2.316   4.184
 4079SOL    HW113136   0.662   2.381   4.151
 4079SOL    HW213137   0.637   2.228   4.204
 4080SOL     OW13138   5.799   2.057   4.340
 4080SOL    HW113139   5.859   2.107   4.277
 4080SOL    HW213140   5.704   2.086   4.326
 4081SOL     OW13141   6.756   3.376   2.374
 4081SOL    HW113142   6.824   3.449   2.379
 4081SOL    HW213143   6.756   3.324   2.459
 4082SOL     OW13144   0.165   3.516   0.379
 4082SOL    HW113145   0.124   3.458   0.450
 4082SOL    HW213146   0.237   3.573   0.420
 4083SOL     OW13147   6.838   3.222   5.467
 4083SOL    HW113148   6.894   3.169   5.530
 4083SOL    HW213149   6.759   3.259   5.516
 4084SOL     OW13150   4.813   0.809   4.160
 4084SOL    HW113151   4.872   0.887   4.138
 4084SOL    HW213152   4.756   0.833   4.239
 4085SOL     OW13153   3.003   5.034   6.800
 4085SOL    HW113154   3.025   5.081   6.715
 4085SOL    HW213155   2.971   5.100   6.868
 4086SOL     OW13156   0.264   2.245   1.379
 4086SOL    HW113157   0.225   2.333   1.403
 4086SOL    HW213158   0.347   2.259   1.325
 4087SOL     OW13159   2.137   1.343   2.994
 4087SOL    HW113160   2.106   1.378   3.083
 4087SOL    HW213161   2.123   1.413   2.924
 4088SOL     OW13162   0.104   2.453   6.397
 4088SOL    HW113163   0.043   2.515   6.446
 4088SOL    HW213164   0.064   2.361   6.396
 4089SOL     OW13165   0.492   1.598   5.616
 4089SOL    HW113166   0.501   1.550   5.703
 4089SOL    HW213167   0.419   1.555   5.562
 4090SOL     OW13168   3.029   5.185   6.560
 4090SOL    HW113169   2.957   5.253   6.557
 4090SOL    HW213170   3.107   5.221   6.613
 4091SOL     OW13171   4.499   6.572   1.403
 4091SOL    HW113172   4.486   6.635   1.326
 4091SOL    HW213173   4.584   6.521   1.391
 4092SOL     OW13174   0.807   1.107   3.955
 4092SOL    HW113175   0.779   1.043   4.027
 4092SOL    HW213176   0.808   1.060   3.867
 4093SOL     OW13177   4.908   6.668   4.067
 4093SOL    HW113178   4.898   6.617   3.982
 4093SOL    HW213179   4.994   6.720   4.066
 4094SOL     OW13180   3.164   3.230   6.365
 4094SOL    HW113181   3.180   3.323   6.333
 4094SOL    HW213182   3.224   3.167   6.315
 4095SOL     OW13183   1.644   3.598   5.886
 4095SOL    HW113184   1.557   3.607   5.838
 4095SOL    HW213185   1.677   3.689   5.910
 4096SOL     OW13186   4.705   4.689   1.770
 4096SOL    HW113187   4.689   4.726   1.862
 4096SOL    HW213188   4.642   4.614   1.753
 4097SOL     OW13189   3.789   4.072   3.239
 4097SOL    HW113190   3.834   4.017   3.168
 4097SOL    HW213191   3.794   4.024   3.326
 4098SOL     OW13192   1.332   3.181   2.469
 4098SOL    HW113193   1.333   3.156   2.566
 4098SOL    HW213194   1.350   3.100   2.414
 4099SOL     OW13195   2.495   6.166   1.583
 4099SOL    HW113196   2.414   6.118   1.547
 4099SOL    HW213197   2.554   6.100   1.630
 4100SOL     OW13198   3.543   6.892   2.756
 4100SOL    HW113199   3.549   6.990   2.737
 4100SOL    HW213200   3.626   6.862   2.804
 4101SOL     OW13201   4.387   1.850   6.962
 4101SOL    HW113202   4.299   1.893   6.941
 4101SOL    HW213203   4.426   1.813   6.877
 4102SOL     OW13204   4.494   1.332   6.103
 4102SOL    HW113205   4.519   1.316   6.008
 4102SOL    HW213206   4.547   1.410   6.138
 4103SOL     OW13207   0.215   0.243   1.623
 4103SOL    HW113208   0.200   0.258   1.721
 4103SOL    HW213209   0.133   0.205   1.582
 4104SOL     OW13210   2.078   3.999   2.147
 4104SOL    HW113211   1.984   4.029   2.160
 4104SOL    HW213212   2.137   4.080   2.135
 4105SOL     OW13213   6.216   5.320   0.448
 4105SOL    HW113214   6.179   5.252   0.384
 4105SOL    HW213215   6.299   5.360   0.409
 4106SOL     OW13216   0.314   3.757   4.373
 4106SOL    HW113217   0.353   3.717   4.456
 4106SOL    HW213218   0.375   3.738   4.296
 4107SOL     OW13219   0.004   0.736   0.965
 4107SOL    HW113220   0.022   0.737   0.866
 4107SOL    HW213221   6.962   0.813   0.988
 4108SOL     OW13222   6.273   2.537   4.833
 4108SOL    HW113223   6.338   2.570   4.901
 4108SOL    HW213224   6.300   2.445   4.803
 4109SOL     OW13225   2.084   6.400   3.875
 4109SOL    HW113226   2.092   6.448   3.788
 4109SOL    HW213227   2.170   6.408   3.926
 4110SOL     OW13228   4.757   3.314   5.270
 4110SOL    HW113229   4.836   3.257   5.248
 4110SOL    HW213230   4.750   3.389   5.204
 4111SOL     OW13231   3.722   3.431   6.337
 4111SOL    HW113232   3.698   3.340   6.371
 4111SOL    HW213233   3.639   3.483   6.319
 4112SOL     OW13234   4.014   0.454   5.620
 4112SOL    HW113235   4.057   0.537   5.585
 4112SOL    HW213236   3.962   0.410   5.547
 4113SOL     OW13237   3.624   5.507   4.269
 4113SOL    HW113238   3.655   5.591   4.313
 4113SOL    HW213239   3.697   5.469   4.213
 4114SOL     OW13240   3.586   1.834   3.582
 4114SOL    HW113241   3.506   1.829   3.523
 4114SOL    HW213242   3.599   1.929   3.613
 4115SOL     OW13243   4.950   3.905   3.369
 4115SOL    HW113244   4.918   3.989   3.412
 4115SOL    HW213245   4.975   3.839   3.440
 4116SOL     OW13246   2.921   1.351   1.906
 4116SOL    HW113247   2.942   1.275   1.968
 4116SOL    HW213248   2.825   1.376   1.917
 4117SOL     OW13249   1.270   6.288   2.106
 4117SOL    HW113250   1.330   6.258   2.180
 4117SOL    HW213251   1.210   6.212   2.080
 4118SOL     OW13252   1.666   0.651   6.394
 4118SOL    HW113253   1.576   0.685   6.422
 4118SOL    HW213254   1.716   0.725   6.348
 4119SOL     OW13255   5.157   1.591   3.251
 4119SOL    HW113256   5.143   1.496   3.220
 4119SOL    HW213257   5.253   1.605   3.274
 4120SOL     OW13258   5.595   1.147   2.237
 4120SOL    HW113259   5.694   1.141   2.229
 4120SOL    HW213260   5.553   1.117   2.152
 4121SOL     OW13261   5.944   2.204   3.930
 4121SOL    HW113262   5.896   2.255   4.001
 4121SOL    HW213263   5.886   2.129   3.898
 4122SOL     OW13264   2.512   5.163   0.085
 4122SOL    HW113265   2.423   5.206   0.075
 4122SOL    HW213266   2.549   5.141   7.012
 4123SOL     OW13267   4.009   4.075   5.443
 4123SOL    HW113268   4.099   4.051   5.406
 4123SOL    HW213269   3.964   3.993   5.477
 4124SOL     OW13270   4.644   6.154   3.063
 4124SOL    HW113271   4.590   6.112   3.136
 4124SOL    HW213272   4.584   6.188   2.992
 4125SOL     OW13273   4.801   1.499   1.600
 4125SOL    HW113274   4.706   1.509   1.570
 4125SOL    HW213275   4.803   1.471   1.696
 4126SOL     OW13276   2.114   3.817   4.906
 4126SOL    HW113277   2.181   3.882   4.943
 4126SOL    HW213278   2.045   3.797   4.975
 4127SOL     OW13279   5.272   4.634   4.192
 4127SOL    HW113280   5.258   4.658   4.289
 4127SOL    HW213281   5.214   4.557   4.168
 4128SOL     OW13282   0.096   1.838   1.846
 4128SOL    HW113283   0.147   1.806   1.926
 4128SOL    HW213284   0.145   1.812   1.763
 4129SOL     OW13285   7.012   2.636   0.042
 4129SOL    HW113286   0.081   2.603   0.004
 4129SOL    HW213287   6.941   2.633   6.990
 4130SOL     OW13288   6.250   2.066   1.152
 4130SOL    HW113289   6.247   2.106   1.243
 4130SOL    HW213290   6.335   2.014   1.141
 4131SOL     OW13291   0.206   3.469   3.049
 4131SOL    HW113292   0.176   3.452   3.143
 4131SOL    HW213293   0.259   3.391   3.017
 4132SOL     OW13294   4.549   1.640   4.374
 4132SOL    HW113295   4.535   1.563   4.312
 4132SOL    HW213296   4.515   1.723   4.332
 4133SOL     OW13297   2.327   2.408   0.974
 4133SOL    HW113298   2.270   2.326   0.971
 4133SOL    HW213299   2.321   2.449   1.065
 4134SOL     OW13300   2.371   0.968   0.196
 4134SOL    HW113301   2.414   1.023   0.268
 4134SOL    HW213302   2.425   0.977   0.112
 4135SOL     OW13303   2.061   0.395   0.806
 4135SOL    HW113304   2.001   0.317   0.786
 4135SOL    HW213305   2.033   0.437   0.892
 4136SOL     OW13306   1.044   1.854   3.550
 4136SOL    HW113307   1.072   1.805   3.467
 4136SOL    HW213308   1.064   1.951   3.538
 4137SOL     OW13309   3.959   3.066   5.205
 4137SOL    HW113310   3.966   3.079   5.304
 4137SOL    HW213311   4.026   3.124   5.158
 4138SOL     OW13312   4.832   5.475   1.387
 4138SOL    HW113313   4.812   5.569   1.415
 4138SOL    HW213314   4.931   5.465   1.376
 4139SOL     OW13315   2.780   1.521   7.008
 4139SOL    HW113316   2.821   1.523   0.081
 4139SOL    HW213317   2.751   1.613   6.982
 4140SOL     OW13318   5.029   2.242   5.130
 4140SOL    HW113319   4.930   2.250   5.137
 4140SOL    HW213320   5.070   2.250   5.220
 4141SOL     OW13321   5.086   6.315   1.227
 4141SOL    HW113322   5.029   6.234   1.240
 4141SOL    HW213323   5.163   6.293   1.168
 4142SOL     OW13324   6.080   3.130   1.633
 4142SOL    HW113325   6.159   3.084   1.593
 4142SOL    HW213326   6.111   3.192   1.705
 4143SOL     OW13327   1.689   2.599   1.616
 4143SOL    HW113328   1.608   2.560   1.572
 4143SOL    HW213329   1.768   2.539   1.601
 4144SOL     OW13330   3.933   0.785   2.252
 4144SOL    HW113331   4.020   0.804   2.207
 4144SOL    HW213332   3.943   0.704   2.310
 4145SOL     OW13333   2.677   7.006   3.681
 4145SOL    HW113334   2.675   6.973   3.587
 4145SOL    HW213335   2.721   0.078   3.684
 4146SOL     OW13336   5.280   4.702   0.491
 4146SOL    HW113337   5.269   4.709   0.591
 4146SOL    HW213338   5.372   4.672   0.470
 4147SOL     OW13339   2.632   2.121   5.700
 4147SOL    HW113340   2.536   2.150   5.698
 4147SOL    HW213341   2.683   2.170   5.629
 4148SOL     OW13342   6.721   6.794   2.220
 4148SOL    HW113343   6.739   6.888   2.248
 4148SOL    HW213344   6.624   6.773   2.233
 4149SOL     OW13345   4.758   4.180   2.124
 4149SOL    HW113346   4.669   4.189   2.080
 4149SOL    HW213347   4.753   4.215   2.218
 4150SOL     OW13348   3.685   0.615   4.799
 4150SOL    HW113349   3.688   0.700   4.852
 4150SOL    HW213350   3.755   0.552   4.834
 4151SOL     OW13351   0.878   5.568   0.241
 4151SOL    HW113352   0.961   5.612   0.206
 4151SOL    HW213353   0.895   5.537   0.335
 4152SOL     OW13354   3.288   3.947   0.931
 4152SOL    HW113355   3.235   3.933   1.015
 4152SOL    HW213356   3.361   4.013   0.947
 4153SOL     OW13357   6.162   5.925   5.901
 4153SOL    HW113358   6.194   5.837   5.866
 4153SOL    HW213359   6.181   5.932   5.998
 4154SOL     OW13360   4.740   2.531   4.848
 4154SOL    HW113361   4.755   2.600   4.919
 4154SOL    HW213362   4.720   2.577   4.761
 4155SOL     OW13363   1.753   2.868   0.446
 4155SOL    HW113364   1.769   2.818   0.361
 4155SOL    HW213365   1.840   2.876   0.496
 4156SOL     OW13366   6.110   0.951   5.291
 4156SOL    HW113367   6.130   0.869   5.344
 4156SOL    HW213368   6.061   0.926   5.207
 4157SOL     OW13369   3.536   0.787   3.741
 4157SOL    HW113370   3.577   0.750   3.824
 4157SOL    HW213371   3.442   0.815   3.760
 4158SOL     OW13372   0.682   0.716   3.457
 4158SOL    HW113373   0.591   0.675   3.458
 4158SOL    HW213374   0.682   0.799   3.513
 4159SOL     OW13375   0.357   4.725   5.531
 4159SOL    HW113376   0.365   4.742   5.629
 4159SOL    HW213377   0.320   4.633   5.516
 4160SOL     OW13378   6.771   0.563   1.123
 4160SOL    HW113379   6.827   0.574   1.205
 4160SOL    HW213380   6.719   0.647   1.108
 4161SOL     OW13381   6.220   1.309   1.357
 4161SOL    HW113382   6.287   1.361   1.304
 4161SOL    HW213383   6.163   1.372   1.409
 4162SOL     OW13384   1.074   6.988   5.050
 4162SOL    HW113385   1.161   6.939   5.047
 4162SOL    HW213386   1.082   0.049   5.110
 4163SOL     OW13387   7.013   1.843   5.540
 4163SOL    HW113388   6.932   1.858   5.598
 4163SOL    HW213389   6.984   1.835   5.445
 4164SOL     OW13390   2.694   6.440   5.838
 4164SOL    HW113391   2.662   6.533   5.855
 4164SOL    HW213392   2.648   6.377   5.900
 4165SOL     OW13393   1.771   6.260   1.506
 4165SOL    HW113394   1.816   6.292   1.590
 4165SOL    HW213395   1.695   6.321   1.485
 4166SOL     OW13396   6.159   1.977   2.420
 4166SOL    HW113397   6.218   1.989   2.500
 4166SOL    HW213398   6.145   2.066   2.376
 4167SOL     OW13399   1.777   2.668   1.234
 4167SOL    HW113400   1.814   2.577   1.254
 4167SOL    HW213401   1.697   2.659   1.175
 4168SOL     OW13402   2.406   6.159   1.100
 4168SOL    HW113403   2.476   6.089   1.106
 4168SOL    HW213404   2.442   6.246   1.134
 4169SOL     OW13405   6.408   3.643   6.534
 4169SOL    HW113406   6.507   3.653   6.545
 4169SOL    HW213407   6.370   3.728   6.496
 4170SOL     OW13408   3.003   0.982   5.716
 4170SOL    HW113409   3.090   1.024   5.687
 4170SOL    HW213410   2.989   0.898   5.663
 4171SOL     OW13411   6.290   2.983   1.578
 4171SOL    HW113412   6.335   2.941   1.656
 4171SOL    HW213413   6.356   3.041   1.529
 4172SOL     OW13414   3.032   0.706   1.204
 4172SOL    HW113415   3.040   0.624   1.147
 4172SOL    HW213416   3.120   0.754   1.207
 4173SOL     OW13417   4.396   3.995   5.768
 4173SOL    HW113418   4.478   4.007   5.712
 4173SOL    HW213419   4.367   4.084   5.805
 4174SOL     OW13420   4.997   0.799   3.478
 4174SOL    HW113421   5.015   0.813   3.575
 4174SOL    HW213422   4.968   0.885   3.436
 4175SOL     OW13423   2.635   1.364   2.463
 4175SOL    HW113424   2.719   1.324   2.499
 4175SOL    HW213425   2.618   1.452   2.510
 4176SOL     OW13426   6.030   4.602   3.007
 4176SOL    HW113427   5.998   4.517   2.964
 4176SOL    HW213428   5.953   4.648   3.050
 4177SOL     OW13429   0.077   5.697   2.931
 4177SOL    HW113430   0.123   5.610   2.916
 4177SOL    HW213431   0.046   5.735   2.844
 4178SOL     OW13432   4.440   2.654   5.331
 4178SOL    HW113433   4.371   2.625   5.265
 4178SOL    HW213434   4.440   2.592   5.409
 4179SOL     OW13435   6.970   1.680   0.182
 4179SOL    HW113436   6.887   1.701   0.233
 4179SOL    HW213437   6.962   1.589   0.141
 4180SOL     OW13438   5.682   4.066   1.612
 4180SOL    HW113439   5.773   4.037   1.584
 4180SOL    HW213440   5.683   4.090   1.709
 4181SOL     OW13441   6.019   1.270   0.553
 4181SOL    HW113442   5.920   1.270   0.541
 4181SOL    HW213443   6.046   1.346   0.612
 4182SOL     OW13444   5.852   0.805   3.693
 4182SOL    HW113445   5.871   0.901   3.671
 4182SOL    HW213446   5.777   0.799   3.758
 4183SOL     OW13447   1.167   0.540   1.786
 4183SOL    HW113448   1.187   0.614   1.850
 4183SOL    HW213449   1.170   0.453   1.834
 4184SOL     OW13450   4.416   4.780   6.290
 4184SOL    HW113451   4.411   4.731   6.377
 4184SOL    HW213452   4.466   4.726   6.223
 4185SOL     OW13453   7.004   0.460   4.312
 4185SOL    HW113454   6.933   0.511   4.360
 4185SOL    HW213455   0.065   0.450   4.371
 4186SOL     OW13456   3.363   4.067   1.517
 4186SOL    HW113457   3.315   4.087   1.432
 4186SOL    HW213458   3.426   4.142   1.539
 4187SOL     OW13459   4.294   5.055   5.510
 4187SOL    HW113460   4.354   5.123   5.467
 4187SOL    HW213461   4.335   5.022   5.594
 4188SOL     OW13462   5.381   5.599   2.984
 4188SOL    HW113463   5.329   5.582   2.901
 4188SOL    HW213464   5.474   5.628   2.960
 4189SOL     OW13465   1.229   3.250   3.224
 4189SOL    HW113466   1.287   3.171   3.204
 4189SOL    HW213467   1.175   3.232   3.306
 4190SOL     OW13468   2.583   6.601   1.613
 4190SOL    HW113469   2.579   6.687   1.562
 4190SOL    HW213470   2.493   6.556   1.610
 4191SOL     OW13471   0.351   2.116   3.820
 4191SOL    HW113472   0.255   2.139   3.837
 4191SOL    HW213473   0.381   2.158   3.734
 4192SOL     OW13474   6.133   6.281   3.915
 4192SOL    HW113475   6.136   6.187   3.949
 4192SOL    HW213476   6.042   6.301   3.879
 4193SOL     OW13477   1.245   6.891   4.008
 4193SOL    HW113478   1.307   6.814   4.013
 4193SOL    HW213479   1.272   6.960   4.075
 4194SOL     OW13480   5.154   0.198   3.014
 4194SOL    HW113481   5.234   0.166   2.963
 4194SOL    HW213482   5.175   0.287   3.055
 4195SOL     OW13483   4.570   0.319   3.490
 4195SOL    HW113484   4.563   0.419   3.500
 4195SOL    HW213485   4.653   0.287   3.535
 4196SOL     OW13486   4.901   2.504   3.082
 4196SOL    HW113487   4.845   2.471   3.006
 4196SOL    HW213488   4.948   2.588   3.055
 4197SOL     OW13489   5.199   4.322   4.399
 4197SOL    HW113490   5.278   4.383   4.407
 4197SOL    HW213491   5.217   4.239   4.453
 4198SOL     OW13492   6.163   3.470   5.963
 4198SOL    HW113493   6.074   3.424   5.964
 4198SOL    HW213494   6.232   3.409   5.922
 4199SOL     OW13495   3.261   4.132   5.687
 4199SOL    HW113496   3.175   4.161   5.645
 4199SOL    HW213497   3.322   4.211   5.694
 4200SOL     OW13498   3.141   0.520   6.058
 4200SOL    HW113499   3.217   0.467   6.021
 4200SOL    HW213500   3.055   0.485   6.021
 4201SOL     OW13501   6.429   0.127   4.919
 4201SOL    HW113502   6.476   0.113   5.006
 4201SOL    HW213503   6.471   0.203   4.870
 4202SOL     OW13504   6.041   3.115   5.155
 4202SOL    HW113505   6.125   3.069   5.184
 4202SOL    HW213506   6.041   3.210   5.188
 4203SOL     OW13507   3.638   5.604   4.646
 4203SOL    HW113508   3.611   5.628   4.553
 4203SOL    HW213509   3.702   5.527   4.644
 4204SOL     OW13510   1.585   4.302   0.273
 4204SOL    HW113511   1.675   4.329   0.308
 4204SOL    HW213512   1.527   4.384   0.263
 4205SOL     OW13513   2.390   6.611   3.497
 4205SOL    HW113514   2.472   6.658   3.530
 4205SOL    HW213515   2.318   6.678   3.480
 4206SOL     OW13516   4.865   6.548   3.814
 4206SOL    HW113517   4.913   6.631   3.784
 4206SOL    HW213518   4.899   6.470   3.762
 4207SOL     OW13519   1.471   6.226   0.174
 4207SOL    HW113520   1.426   6.250   0.088
 4207SOL    HW213521   1.553   6.172   0.155
 4208SOL     OW13522   0.694   2.258   1.369
 4208SOL    HW113523   0.746   2.191   1.315
 4208SOL    HW213524   0.684   2.225   1.463
 4209SOL     OW13525   2.579   0.144   5.662
 4209SOL    HW113526   2.525   0.137   5.578
 4209SOL    HW213527   2.527   0.195   5.730
 4210SOL     OW13528   3.456   3.445   0.367
 4210SOL    HW113529   3.419   3.482   0.453
 4210SOL    HW213530   3.408   3.361   0.344
 4211SOL     OW13531   6.113   3.500   3.987
 4211SOL    HW113532   6.041   3.440   3.953
 4211SOL    HW213533   6.080   3.550   4.067
 4212SOL     OW13534   5.908   0.076   2.004
 4212SOL    HW113535   5.924   6.998   1.984
 4212SOL    HW213536   5.844   0.114   1.936
 4213SOL     OW13537   0.708   6.844   0.999
 4213SOL    HW113538   0.732   6.750   0.975
 4213SOL    HW213539   0.782   6.905   0.972
 4214SOL     OW13540   2.756   5.580   3.480
 4214SOL    HW113541   2.724   5.486   3.488
 4214SOL    HW213542   2.751   5.625   3.570
 4215SOL     OW13543   1.724   5.901   6.536
 4215SOL    HW113544   1.652   5.837   6.560
 4215SOL    HW213545   1.812   5.868   6.572
 4216SOL     OW13546   2.462   2.770   5.382
 4216SOL    HW113547   2.459   2.822   5.297
 4216SOL    HW213548   2.490   2.676   5.363
 4217SOL     OW13549   6.445   0.781   4.783
 4217SOL    HW113550   6.417   0.790   4.879
 4217SOL    HW213551   6.465   0.872   4.746
 4218SOL     OW13552   3.133   5.300   3.018
 4218SOL    HW113553   3.036   5.319   3.033
 4218SOL    HW213554   3.182   5.306   3.105
 4219SOL     OW13555   4.921   0.096   2.661
 4219SOL    HW113556   4.932   0.128   2.567
 4219SOL    HW213557   4.919   0.174   2.723
 4220SOL     OW13558   0.464   4.399   3.044
 4220SOL    HW113559   0.436   4.354   2.960
 4220SOL    HW213560   0.417   4.357   3.122
 4221SOL     OW13561   5.118   6.332   5.980
 4221SOL    HW113562   5.105   6.428   5.957
 4221SOL    HW213563   5.215   6.309   5.971
 4222SOL     OW13564   2.395   2.755   0.286
 4222SOL    HW113565   2.433   2.717   0.370
 4222SOL    HW213566   2.304   2.716   0.269
 4223SOL     OW13567   3.919   4.005   2.683
 4223SOL    HW113568   3.970   3.920   2.692
 4223SOL    HW213569   3.975   4.072   2.634
 4224SOL     OW13570   3.671   2.217   5.386
 4224SOL    HW113571   3.620   2.170   5.459
 4224SOL    HW213572   3.769   2.202   5.400
 4225SOL     OW13573   5.038   0.005   4.743
 4225SOL    HW113574   5.119   0.063   4.748
 4225SOL    HW213575   5.065   6.932   4.712
 4226SOL     OW13576   2.597   1.956   2.070
 4226SOL    HW113577   2.678   2.007   2.042
 4226SOL    HW213578   2.621   1.860   2.083
 4227SOL     OW13579   5.464   4.026   0.624
 4227SOL    HW113580   5.432   4.096   0.560
 4227SOL    HW213581   5.555   4.050   0.657
 4228SOL     OW13582   4.394   5.133   3.190
 4228SOL    HW113583   4.364   5.215   3.239
 4228SOL    HW213584   4.494   5.125   3.195
 4229SOL     OW13585   3.909   4.910   4.737
 4229SOL    HW113586   3.892   4.893   4.834
 4229SOL    HW213587   3.988   4.856   4.707
 4230SOL     OW13588   2.022   1.421   5.919
 4230SOL    HW113589   2.121   1.431   5.930
 4230SOL    HW213590   2.000   1.413   5.822
 4231SOL     OW13591   3.819   6.685   6.433
 4231SOL    HW113592   3.835   6.717   6.339
 4231SOL    HW213593   3.904   6.645   6.468
 4232SOL     OW13594   1.231   4.298   1.719
 4232SOL    HW113595   1.194   4.207   1.738
 4232SOL    HW213596   1.324   4.290   1.685
 4233SOL     OW13597   5.267   5.396   1.143
 4233SOL    HW113598   5.362   5.400   1.112
 4233SOL    HW213599   5.264   5.419   1.240
 4234SOL     OW13600   3.831   3.590   5.933
 4234SOL    HW113601   3.817   3.491   5.944
 4234SOL    HW213602   3.917   3.617   5.976
 4235SOL     OW13603   0.651   4.071   4.744
 4235SOL    HW113604   0.680   4.160   4.778
 4235SOL    HW213605   0.731   4.010   4.738
 4236SOL     OW13606   1.132   3.509   4.447
 4236SOL    HW113607   1.163   3.496   4.353
 4236SOL    HW213608   1.034   3.525   4.449
 4237SOL     OW13609   5.186   3.620   5.497
 4237SOL    HW113610   5.103   3.621   5.443
 4237SOL    HW213611   5.248   3.550   5.463
 4238SOL     OW13612   4.843   4.691   5.143
 4238SOL    HW113613   4.920   4.745   5.107
 4238SOL    HW213614   4.813   4.730   5.230
 4239SOL     OW13615   5.193   5.116   5.250
 4239SOL    HW113616   5.173   5.043   5.314
 4239SOL    HW213617   5.174   5.204   5.292
 4240SOL     OW13618   2.553   4.228   6.032
 4240SOL    HW113619   2.524   4.302   5.971
 4240SOL    HW213620   2.642   4.252   6.073
 4241SOL     OW13621   2.926   2.216   0.684
 4241SOL    HW113622   2.925   2.140   0.619
 4241SOL    HW213623   2.980   2.191   0.765
 4242SOL     OW13624   2.894   0.770   1.747
 4242SOL    HW113625   2.955   0.767   1.668
 4242SOL    HW213626   2.935   0.825   1.819
 4243SOL     OW13627   1.750   2.009   2.189
 4243SOL    HW113628   1.807   2.007   2.107
 4243SOL    HW213629   1.660   1.970   2.169
 4244SOL     OW13630   2.941   6.975   1.083
 4244SOL    HW113631   2.842   6.966   1.088
 4244SOL    HW213632   2.969   6.985   0.988
 4245SOL     OW13633   0.334   1.590   1.249
 4245SOL    HW113634   0.360   1.668   1.306
 4245SOL    HW213635   0.235   1.586   1.241
 4246SOL     OW13636   3.841   2.053   3.524
 4246SOL    HW113637   3.850   2.149   3.499
 4246SOL    HW213638   3.817   2.045   3.621
 4247SOL     OW13639   2.386   5.509   6.882
 4247SOL    HW113640   2.305   5.497   6.940
 4247SOL    HW213641   2.465   5.533   6.938
 4248SOL     OW13642   2.719   6.887   2.297
 4248SOL    HW113643   2.777   6.805   2.289
 4248SOL    HW213644   2.767   6.956   2.351
 4249SOL     OW13645   6.323   1.132   5.317
 4249SOL    HW113646   6.390   1.100   5.250
 4249SOL    HW213647   6.241   1.075   5.311
 4250SOL     OW13648   0.689   5.540   4.635
 4250SOL    HW113649   0.666   5.570   4.728
 4250SOL    HW213650   0.624   5.579   4.570
 4251SOL     OW13651   4.525   1.992   5.327
 4251SOL    HW113652   4.560   1.942   5.405
 4251SOL    HW213653   4.514   1.930   5.249
 4252SOL     OW13654   0.691   6.904   6.364
 4252SOL    HW113655   0.716   6.994   6.328
 4252SOL    HW213656   0.749   6.883   6.443
 4253SOL     OW13657   3.928   7.006   2.709
 4253SOL    HW113658   3.952   6.923   2.658
 4253SOL    HW213659   3.986   0.063   2.681
 4254SOL     OW13660   0.847   0.829   5.084
 4254SOL    HW113661   0.843   0.730   5.100
 4254SOL    HW213662   0.941   0.857   5.069
 4255SOL     OW13663   1.359   3.066   4.244
 4255SOL    HW113664   1.379   3.074   4.342
 4255SOL    HW213665   1.325   2.974   4.224
 4256SOL     OW13666   6.091   6.101   1.063
 4256SOL    HW113667   6.057   6.090   0.969
 4256SOL    HW213668   6.136   6.016   1.091
 4257SOL     OW13669   0.426   1.520   2.398
 4257SOL    HW113670   0.419   1.598   2.337
 4257SOL    HW213671   0.370   1.536   2.480
 4258SOL     OW13672   2.521   6.463   0.905
 4258SOL    HW113673   2.565   6.421   0.826
 4258SOL    HW213674   2.424   6.439   0.906
 4259SOL     OW13675   1.120   6.954   0.164
 4259SOL    HW113676   1.060   7.013   0.218
 4259SOL    HW213677   1.211   6.951   0.207
 4260SOL     OW13678   0.147   0.453   5.070
 4260SOL    HW113679   0.227   0.513   5.063
 4260SOL    HW213680   0.168   0.377   5.131
 4261SOL     OW13681   2.181   6.796   3.436
 4261SOL    HW113682   2.109   6.763   3.375
 4261SOL    HW213683   2.160   6.889   3.466
 4262SOL     OW13684   1.432   3.842   4.895
 4262SOL    HW113685   1.390   3.860   4.806
 4262SOL    HW213686   1.496   3.916   4.917
 4263SOL     OW13687   3.283   0.738   2.361
 4263SOL    HW113688   3.191   0.776   2.352
 4263SOL    HW213689   3.284   0.644   2.330
 4264SOL     OW13690   4.113   2.279   6.729
 4264SOL    HW113691   4.144   2.219   6.655
 4264SOL    HW213692   4.192   2.322   6.772
 4265SOL     OW13693   3.167   6.483   6.644
 4265SOL    HW113694   3.157   6.390   6.681
 4265SOL    HW213695   3.171   6.548   6.720
 4266SOL     OW13696   1.276   3.976   2.885
 4266SOL    HW113697   1.245   4.047   2.821
 4266SOL    HW213698   1.365   4.003   2.924
 4267SOL     OW13699   1.671   3.848   3.480
 4267SOL    HW113700   1.681   3.788   3.401
 4267SOL    HW213701   1.596   3.912   3.464
 4268SOL     OW13702   1.193   4.138   5.771
 4268SOL    HW113703   1.240   4.168   5.688
 4268SOL    HW213704   1.134   4.059   5.750
 4269SOL     OW13705   1.986   1.812   4.339
 4269SOL    HW113706   1.966   1.764   4.254
 4269SOL    HW213707   2.076   1.855   4.332
 4270SOL     OW13708   4.064   4.195   1.195
 4270SOL    HW113709   4.132   4.150   1.253
 4270SOL    HW213710   3.977   4.148   1.203
 4271SOL     OW13711   6.228   0.294   0.076
 4271SOL    HW113712   6.189   0.271   7.005
 4271SOL    HW213713   6.157   0.286   0.146
 4272SOL     OW13714   6.442   1.854   5.714
 4272SOL    HW113715   6.504   1.930   5.697
 4272SOL    HW213716   6.348   1.889   5.722
 4273SOL     OW13717   3.370   6.045   3.817
 4273SOL    HW113718   3.419   5.964   3.786
 4273SOL    HW213719   3.376   6.052   3.917
 4274SOL     OW13720   6.695   0.396   1.908
 4274SOL    HW113721   6.785   0.436   1.928
 4274SOL    HW213722   6.630   0.469   1.888
 4275SOL     OW13723   5.739   1.443   4.614
 4275SOL    HW113724   5.718   1.437   4.711
 4275SOL    HW213725   5.682   1.514   4.572
 4276SOL     OW13726   1.968   0.759   2.627
 4276SOL    HW113727   1.987   0.851   2.591
 4276SOL    HW213728   2.000   0.752   2.721
 4277SOL     OW13729   6.509   4.643   3.056
 4277SOL    HW113730   6.446   4.587   3.110
 4277SOL    HW213731   6.514   4.607   2.963
 4278SOL     OW13732   0.538   6.901   1.930
 4278SOL    HW113733   0.482   6.980   1.905
 4278SOL    HW213734   0.483   6.818   1.921
 4279SOL     OW13735   1.212   3.938   3.184
 4279SOL    HW113736   1.242   3.888   3.103
 4279SOL    HW213737   1.152   3.880   3.239
 4280SOL     OW13738   2.669   6.623   6.412
 4280SOL    HW113739   2.670   6.531   6.374
 4280SOL    HW213740   2.582   6.638   6.459
 4281SOL     OW13741   6.761   6.487   2.757
 4281SOL    HW113742   6.799   6.545   2.829
 4281SOL    HW213743   6.662   6.493   2.758
 4282SOL     OW13744   5.105   4.734   2.201
 4282SOL    HW113745   5.190   4.682   2.210
 4282SOL    HW213746   5.063   4.714   2.113
 4283SOL     OW13747   6.599   1.752   5.088
 4283SOL    HW113748   6.571   1.832   5.142
 4283SOL    HW213749   6.683   1.774   5.037
 4284SOL     OW13750   4.837   6.255   0.036
 4284SOL    HW113751   4.890   6.294   6.979
 4284SOL    HW213752   4.851   6.156   0.039
 4285SOL     OW13753   3.012   1.579   6.293
 4285SOL    HW113754   2.980   1.486   6.277
 4285SOL    HW213755   3.084   1.602   6.226
 4286SOL     OW13756   5.412   6.164   6.687
 4286SOL    HW113757   5.320   6.183   6.721
 4286SOL    HW213758   5.473   6.239   6.712
 4287SOL     OW13759   4.601   0.291   0.648
 4287SOL    HW113760   4.518   0.347   0.654
 4287SOL    HW213761   4.595   0.233   0.567
 4288SOL     OW13762   6.463   6.710   2.265
 4288SOL    HW113763   6.408   6.627   2.273
 4288SOL    HW213764   6.465   6.758   2.353
 4289SOL     OW13765   0.196   4.231   6.074
 4289SOL    HW113766   0.257   4.229   6.153
 4289SOL    HW213767   0.161   4.139   6.055
 4290SOL     OW13768   0.098   1.108   3.058
 4290SOL    HW113769   0.092   1.027   3.000
 4290SOL    HW213770   0.032   1.099   3.133
 4291SOL     OW13771   4.612   4.963   5.568
 4291SOL    HW113772   4.577   4.914   5.488
 4291SOL    HW213773   4.712   4.963   5.567
 4292SOL     OW13774   6.321   7.015   0.456
 4292SOL    HW113775   6.304   6.939   0.520
 4292SOL    HW213776   6.243   0.059   0.457
 4293SOL     OW13777   4.226   2.207   5.871
 4293SOL    HW113778   4.263   2.257   5.949
 4293SOL    HW213779   4.299   2.157   5.825
 4294SOL     OW13780   3.309   1.950   0.045
 4294SOL    HW113781   3.282   1.982   0.136
 4294SOL    HW213782   3.408   1.938   0.042
 4295SOL     OW13783   4.295   6.605   2.636
 4295SOL    HW113784   4.320   6.676   2.570
 4295SOL    HW213785   4.355   6.526   2.624
 4296SOL     OW13786   2.247   5.518   1.907
 4296SOL    HW113787   2.335   5.542   1.865
 4296SOL    HW213788   2.260   5.503   2.005
 4297SOL     OW13789   5.055   4.362   7.016
 4297SOL    HW113790   4.998   4.340   0.077
 4297SOL    HW213791   5.067   4.461   7.010
 4298SOL     OW13792   2.032   6.475   0.600
 4298SOL    HW113793   2.118   6.524   0.612
 4298SOL    HW213794   1.990   6.458   0.690
 4299SOL     OW13795   7.010   3.303   6.884
 4299SOL    HW113796   0.063   3.275   6.948
 4299SOL    HW213797   6.981   3.225   6.829
 4300SOL     OW13798   3.752   0.534   1.947
 4300SOL    HW113799   3.804   0.619   1.962
 4300SOL    HW213800   3.804   0.457   1.982
 4301SOL     OW13801   1.704   6.089   4.729
 4301SOL    HW113802   1.675   5.995   4.749
 4301SOL    HW213803   1.698   6.144   4.812
 4302SOL     OW13804   4.061   5.038   0.320
 4302SOL    HW113805   4.089   5.030   0.225
 4302SOL    HW213806   4.096   5.123   0.358
 4303SOL     OW13807   4.797   4.837   3.313
 4303SOL    HW113808   4.733   4.761   3.314
 4303SOL    HW213809   4.890   4.802   3.323
 4304SOL     OW13810   2.953   4.409   1.501
 4304SOL    HW113811   2.993   4.356   1.426
 4304SOL    HW213812   2.888   4.475   1.465
 4305SOL     OW13813   1.161   6.824   5.708
 4305SOL    HW113814   1.075   6.849   5.752
 4305SOL    HW213815   1.157   6.728   5.679
 4306SOL     OW13816   6.555   4.017   5.199
 4306SOL    HW113817   6.558   4.043   5.102
 4306SOL    HW213818   6.469   4.047   5.239
 4307SOL     OW13819   6.690   1.920   4.162
 4307SOL    HW113820   6.615   1.892   4.222
 4307SOL    HW213821   6.770   1.861   4.178
 4308SOL     OW13822   4.500   5.460   5.590
 4308SOL    HW113823   4.445   5.534   5.550
 4308SOL    HW213824   4.541   5.490   5.676
 4309SOL     OW13825   2.603   2.057   0.814
 4309SOL    HW113826   2.611   2.157   0.815
 4309SOL    HW213827   2.539   2.028   0.885
 4310SOL     OW13828   6.413   1.070   4.695
 4310SOL    HW113829   6.463   1.049   4.611
 4310SOL    HW213830   6.324   1.109   4.672
 4311SOL     OW13831   0.909   6.801   1.498
 4311SOL    HW113832   0.887   6.704   1.499
 4311SOL    HW213833   0.846   6.850   1.558
 4312SOL     OW13834   0.682   3.111   2.341
 4312SOL    HW113835   0.769   3.141   2.381
 4312SOL    HW213836   0.614   3.103   2.413
 4313SOL     OW13837   0.587   3.399   0.420
 4313SOL    HW113838   0.666   3.348   0.453
 4313SOL    HW213839   0.556   3.360   0.333
 4314SOL     OW13840   2.367   2.178   5.684
 4314SOL    HW113841   2.293   2.169   5.617
 4314SOL    HW213842   2.341   2.246   5.753
 4315SOL     OW13843   2.842   2.651   5.322
 4315SOL    HW113844   2.753   2.636   5.364
 4315SOL    HW213845   2.903   2.576   5.346
 4316SOL     OW13846   4.460   4.231   1.306
 4316SOL    HW113847   4.464   4.311   1.366
 4316SOL    HW213848   4.518   4.248   1.226
 4317SOL     OW13849   4.936   0.481   3.852
 4317SOL    HW113850   4.908   0.499   3.946
 4317SOL    HW213851   4.960   0.567   3.807
 4318SOL     OW13852   2.156   5.627   4.344
 4318SOL    HW113853   2.134   5.587   4.256
 4318SOL    HW213854   2.156   5.727   4.337
 4319SOL     OW13855   2.177   4.933   1.486
 4319SOL    HW113856   2.273   4.956   1.504
 4319SOL    HW213857   2.119   5.009   1.513
 4320SOL     OW13858   4.359   1.201   1.763
 4320SOL    HW113859   4.339   1.278   1.824
 4320SOL    HW213860   4.309   1.212   1.677
 4321SOL     OW13861   6.867   5.964   3.306
 4321SOL    HW113862   6.780   6.011   3.289
 4321SOL    HW213863   6.887   5.968   3.404
 4322SOL     OW13864   2.754   2.090   4.258
 4322SOL    HW113865   2.743   2.040   4.344
 4322SOL    HW213866   2.851   2.107   4.242
 4323SOL     OW13867   5.807   3.884   2.070
 4323SOL    HW113868   5.809   3.811   2.138
 4323SOL    HW213869   5.880   3.950   2.089
 4324SOL     OW13870   6.660   4.095   5.458
 4324SOL    HW113871   6.581   4.146   5.494
 4324SOL    HW213872   6.634   4.050   5.373
 4325SOL     OW13873   1.533   0.892   1.086
 4325SOL    HW113874   1.495   0.896   1.178
 4325SOL    HW213875   1.538   0.797   1.056
 4326SOL     OW13876   5.217   2.804   2.207
 4326SOL    HW113877   5.200   2.764   2.297
 4326SOL    HW213878   5.268   2.889   2.217
 4327SOL     OW13879   3.084   6.757   3.956
 4327SOL    HW113880   3.009   6.784   4.016
 4327SOL    HW213881   3.049   6.746   3.862
 4328SOL     OW13882   5.670   0.192   2.263
 4328SOL    HW113883   5.635   0.162   2.174
 4328SOL    HW213884   5.741   0.129   2.294
 4329SOL     OW13885   6.113   3.993   0.313
 4329SOL    HW113886   6.024   4.012   0.355
 4329SOL    HW213887   6.167   3.936   0.375
 4330SOL     OW13888   2.808   5.956   5.360
 4330SOL    HW113889   2.900   5.993   5.345
 4330SOL    HW213890   2.742   6.031   5.355
 4331SOL     OW13891   6.019   1.422   2.760
 4331SOL    HW113892   6.110   1.420   2.718
 4331SOL    HW213893   5.963   1.492   2.716
 4332SOL     OW13894   6.699   5.995   1.309
 4332SOL    HW113895   6.704   5.955   1.218
 4332SOL    HW213896   6.606   6.025   1.328
 4333SOL     OW13897   3.963   3.225   5.674
 4333SOL    HW113898   3.937   3.309   5.626
 4333SOL    HW213899   4.060   3.207   5.657
 4334SOL     OW13900   0.805   1.817   3.684
 4334SOL    HW113901   0.783   1.913   3.699
 4334SOL    HW213902   0.896   1.809   3.645
 4335SOL     OW13903   2.136   2.618   1.487
 4335SOL    HW113904   2.166   2.538   1.538
 4335SOL    HW213905   2.188   2.698   1.516
 4336SOL     OW13906   2.409   5.700   5.020
 4336SOL    HW113907   2.412   5.790   5.065
 4336SOL    HW213908   2.477   5.698   4.947
 4337SOL     OW13909   0.549   4.953   4.281
 4337SOL    HW113910   0.508   4.872   4.323
 4337SOL    HW213911   0.536   4.950   4.182
 4338SOL     OW13912   3.595   3.217   5.471
 4338SOL    HW113913   3.500   3.212   5.502
 4338SOL    HW213914   3.623   3.128   5.435
 4339SOL     OW13915   3.647   3.752   5.278
 4339SOL    HW113916   3.714   3.819   5.244
 4339SOL    HW213917   3.667   3.662   5.239
 4340SOL     OW13918   0.129   4.590   0.105
 4340SOL    HW113919   0.059   4.627   0.044
 4340SOL    HW213920   0.101   4.607   0.200
 4341SOL     OW13921   6.124   6.262   1.353
 4341SOL    HW113922   6.080   6.345   1.318
 4341SOL    HW213923   6.161   6.209   1.277
 4342SOL     OW13924   4.971   3.424   2.298
 4342SOL    HW113925   5.012   3.477   2.224
 4342SOL    HW213926   4.883   3.387   2.268
 4343SOL     OW13927   4.800   6.789   6.208
 4343SOL    HW113928   4.705   6.819   6.213
 4343SOL    HW213929   4.803   6.689   6.197
 4344SOL     OW13930   1.404   4.198   1.959
 4344SOL    HW113931   1.380   4.281   1.909
 4344SOL    HW213932   1.377   4.207   2.054
 4345SOL     OW13933   4.141   3.470   2.349
 4345SOL    HW113934   4.059   3.413   2.357
 4345SOL    HW213935   4.187   3.453   2.262
 4346SOL     OW13936   1.195   3.252   2.181
 4346SOL    HW113937   1.271   3.274   2.121
 4346SOL    HW213938   1.177   3.329   2.242
 4347SOL     OW13939   5.924   6.323   1.155
 4347SOL    HW113940   5.965   6.233   1.143
 4347SOL    HW213941   5.946   6.382   1.077
 4348SOL     OW13942   6.213   4.121   6.242
 4348SOL    HW113943   6.312   4.102   6.241
 4348SOL    HW213944   6.198   4.219   6.230
 4349SOL     OW13945   0.654   3.818   3.794
 4349SOL    HW113946   0.651   3.790   3.698
 4349SOL    HW213947   0.692   3.744   3.849
 4350SOL     OW13948   5.064   0.106   4.452
 4350SOL    HW113949   5.017   0.193   4.435
 4350SOL    HW213950   5.002   0.042   4.497
 4351SOL     OW13951   0.419   6.426   1.134
 4351SOL    HW113952   0.498   6.438   1.074
 4351SOL    HW213953   0.344   6.385   1.083
 4352SOL     OW13954   3.784   4.468   1.413
 4352SOL    HW113955   3.866   4.441   1.362
 4352SOL    HW213956   3.804   4.468   1.511
 4353SOL     OW13957   2.088   4.082   0.275
 4353SOL    HW113958   2.132   4.169   0.254
 4353SOL    HW213959   2.014   4.097   0.341
 4354SOL     OW13960   6.005   4.808   2.613
 4354SOL    HW113961   5.932   4.843   2.671
 4354SOL    HW213962   6.018   4.869   2.535
 4355SOL     OW13963   1.913   4.895   4.095
 4355SOL    HW113964   1.900   4.797   4.107
 4355SOL    HW213965   2.009   4.918   4.114
 4356SOL     OW13966   5.991   1.763   6.086
 4356SOL    HW113967   6.062   1.713   6.037
 4356SOL    HW213968   5.928   1.698   6.129
 4357SOL     OW13969   4.960   5.634   2.772
 4357SOL    HW113970   4.928   5.717   2.724
 4357SOL    HW213971   4.999   5.660   2.860
 4358SOL     OW13972   3.282   0.524   1.117
 4358SOL    HW113973   3.193   0.493   1.084
 4358SOL    HW213974   3.319   0.458   1.182
 4359SOL     OW13975   3.143   3.354   1.733
 4359SOL    HW113976   3.123   3.388   1.825
 4359SOL    HW213977   3.149   3.255   1.734
 4360SOL     OW13978   2.502   6.342   3.893
 4360SOL    HW113979   2.590   6.390   3.891
 4360SOL    HW213980   2.472   6.324   3.799
 4361SOL     OW13981   1.941   0.908   6.705
 4361SOL    HW113982   1.876   0.970   6.749
 4361SOL    HW213983   1.951   0.934   6.608
 4362SOL     OW13984   6.223   5.585   2.184
 4362SOL    HW113985   6.317   5.556   2.169
 4362SOL    HW213986   6.168   5.568   2.102
 4363SOL     OW13987   4.115   0.184   2.717
 4363SOL    HW113988   4.215   0.180   2.719
 4363SOL    HW213989   4.086   0.279   2.702
 4364SOL     OW13990   3.161   3.841   2.790
 4364SOL    HW113991   3.100   3.839   2.869
 4364SOL    HW213992   3.217   3.923   2.793
 4365SOL     OW13993   2.269   1.470   0.661
 4365SOL    HW113994   2.248   1.565   0.642
 4365SOL    HW213995   2.290   1.459   0.759
 4366SOL     OW13996   4.985   5.465   4.961
 4366SOL    HW113997   4.974   5.558   4.926
 4366SOL    HW213998   4.896   5.423   4.974
 4367SOL     OW13999   1.781   0.027   1.898
 4367SOL    HW114000   1.693   0.061   1.865
 4367SOL    HW214001   1.768   6.954   1.939
 4368SOL     OW14002   5.137   5.452   4.404
 4368SOL    HW114003   5.187   5.537   4.391
 4368SOL    HW214004   5.048   5.458   4.359
 4369SOL     OW14005   0.110   4.111   4.501
 4369SOL    HW114006   0.210   4.121   4.501
 4369SOL    HW214007   0.077   4.100   4.594
 4370SOL     OW14008   5.353   4.174   1.146
 4370SOL    HW114009   5.440   4.141   1.182
 4370SOL    HW214010   5.317   4.246   1.205
 4371SOL     OW14011   3.246   0.502   3.713
 4371SOL    HW114012   3.282   0.414   3.684
 4371SOL    HW214013   3.301   0.537   3.789
 4372SOL     OW14014   1.901   4.214   5.511
 4372SOL    HW114015   1.912   4.118   5.485
 4372SOL    HW214016   1.987   4.263   5.498
 4373SOL     OW14017   4.666   0.487   0.231
 4373SOL    HW114018   4.710   0.443   0.153
 4373SOL    HW214019   4.569   0.462   0.234
 4374SOL     OW14020   2.011   6.452   0.329
 4374SOL    HW114021   1.997   6.458   0.428
 4374SOL    HW214022   2.098   6.408   0.310
 4375SOL     OW14023   4.570   0.594   5.688
 4375SOL    HW114024   4.612   0.514   5.732
 4375SOL    HW214025   4.536   0.569   5.597
 4376SOL     OW14026   3.149   5.004   0.114
 4376SOL    HW114027   3.192   5.040   0.197
 4376SOL    HW214028   3.194   4.919   0.086
 4377SOL     OW14029   5.508   6.321   0.545
 4377SOL    HW114030   5.434   6.254   0.548
 4377SOL    HW214031   5.580   6.289   0.483
 4378SOL     OW14032   3.250   4.920   1.647
 4378SOL    HW114033   3.295   4.877   1.725
 4378SOL    HW214034   3.230   5.016   1.670
 4379SOL     OW14035   6.394   6.317   0.755
 4379SOL    HW114036   6.399   6.217   0.758
 4379SOL    HW214037   6.450   6.355   0.828
 4380SOL     OW14038   1.657   6.209   4.951
 4380SOL    HW114039   1.673   6.121   4.996
 4380SOL    HW214040   1.630   6.277   5.019
 4381SOL     OW14041   3.336   6.083   4.334
 4381SOL    HW114042   3.257   6.072   4.394
 4381SOL    HW214043   3.420   6.074   4.388
 4382SOL     OW14044   5.838   3.632   3.687
 4382SOL    HW114045   5.833   3.729   3.663
 4382SOL    HW214046   5.934   3.605   3.697
 4383SOL     OW14047   1.475   0.369   6.708
 4383SOL    HW114048   1.473   0.435   6.633
 4383SOL    HW214049   1.561   0.379   6.758
 4384SOL     OW14050   3.584   6.509   1.656
 4384SOL    HW114051   3.615   6.470   1.743
 4384SOL    HW214052   3.650   6.577   1.624
 4385SOL     OW14053   6.091   2.041   4.119
 4385SOL    HW114054   6.075   2.052   4.021
 4385SOL    HW214055   6.054   1.953   4.149
 4386SOL     OW14056   1.891   5.510   7.000
 4386SOL    HW114057   1.884   5.577   6.926
 4386SOL    HW214058   1.855   5.422   6.968
 4387SOL     OW14059   6.168   2.209   0.917
 4387SOL    HW114060   6.222   2.186   0.997
 4387SOL    HW214061   6.074   2.177   0.929
 4388SOL     OW14062   4.512   1.052   5.803
 4388SOL    HW114063   4.488   0.958   5.829
 4388SOL    HW214064   4.612   1.061   5.799
 4389SOL     OW14065   1.070   2.892   2.743
 4389SOL    HW114066   1.110   2.835   2.671
 4389SOL    HW214067   0.975   2.863   2.760
 4390SOL     OW14068   4.939   4.114   1.086
 4390SOL    HW114069   5.019   4.084   1.034
 4390SOL    HW214070   4.860   4.058   1.060
 4391SOL     OW14071   0.694   5.561   1.193
 4391SOL    HW114072   0.666   5.508   1.113
 4391SOL    HW214073   0.623   5.628   1.216
 4392SOL     OW14074   5.012   5.142   4.793
 4392SOL    HW114075   5.000   5.240   4.781
 4392SOL    HW214076   5.093   5.111   4.743
 4393SOL     OW14077   4.665   7.008   2.443
 4393SOL    HW114078   4.690   6.912   2.455
 4393SOL    HW214079   4.748   0.046   2.439
 4394SOL     OW14080   4.623   1.132   2.456
 4394SOL    HW114081   4.585   1.175   2.374
 4394SOL    HW214082   4.677   1.052   2.430
 4395SOL     OW14083   4.742   2.886   0.654
 4395SOL    HW114084   4.701   2.813   0.708
 4395SOL    HW214085   4.786   2.847   0.573
 4396SOL     OW14086   1.520   0.986   2.353
 4396SOL    HW114087   1.436   1.036   2.334
 4396SOL    HW214088   1.594   1.050   2.375
 4397SOL     OW14089   3.934   1.898   6.842
 4397SOL    HW114090   3.980   1.814   6.870
 4397SOL    HW214091   3.905   1.890   6.747
 4398SOL     OW14092   0.894   4.616   4.952
 4398SOL    HW114093   0.965   4.612   5.022
 4398SOL    HW214094   0.933   4.653   4.867
 4399SOL     OW14095   3.204   0.403   1.681
 4399SOL    HW114096   3.298   0.373   1.698
 4399SOL    HW214097   3.193   0.497   1.713
 4400SOL     OW14098   3.447   4.981   3.119
 4400SOL    HW114099   3.367   4.920   3.115
 4400SOL    HW214100   3.427   5.064   3.068
 4401SOL     OW14101   4.767   6.549   4.546
 4401SOL    HW114102   4.856   6.507   4.563
 4401SOL    HW214103   4.755   6.563   4.448
 4402SOL     OW14104   6.974   6.522   1.722
 4402SOL    HW114105   7.012   6.513   1.630
 4402SOL    HW214106   0.024   6.561   1.783
 4403SOL     OW14107   6.466   1.632   3.665
 4403SOL    HW114108   6.426   1.590   3.583
 4403SOL    HW214109   6.498   1.724   3.643
 4404SOL     OW14110   1.428   3.782   2.759
 4404SOL    HW114111   1.395   3.693   2.790
 4404SOL    HW214112   1.377   3.854   2.805
 4405SOL     OW14113   2.892   4.208   6.379
 4405SOL    HW114114   2.946   4.124   6.382
 4405SOL    HW214115   2.893   4.245   6.286
 4406SOL     OW14116   5.946   2.556   2.604
 4406SOL    HW114117   5.921   2.601   2.690
 4406SOL    HW214118   5.955   2.625   2.532
 4407SOL     OW14119   0.823   0.400   0.346
 4407SOL    HW114120   0.820   0.350   0.433
 4407SOL    HW214121   0.904   0.459   0.344
 4408SOL     OW14122   4.621   6.008   1.545
 4408SOL    HW114123   4.568   6.089   1.521
 4408SOL    HW214124   4.586   5.929   1.494
 4409SOL     OW14125   3.624   1.807   3.162
 4409SOL    HW114126   3.705   1.848   3.204
 4409SOL    HW214127   3.581   1.873   3.101
 4410SOL     OW14128   2.035   5.922   0.743
 4410SOL    HW114129   2.102   5.983   0.701
 4410SOL    HW214130   1.950   5.971   0.758
 4411SOL     OW14131   3.696   3.185   2.528
 4411SOL    HW114132   3.620   3.136   2.571
 4411SOL    HW214133   3.755   3.120   2.481
 4412SOL     OW14134   3.970   1.244   6.313
 4412SOL    HW114135   4.027   1.245   6.232
 4412SOL    HW214136   3.961   1.337   6.349
 4413SOL     OW14137   3.540   5.613   3.850
 4413SOL    HW114138   3.469   5.543   3.840
 4413SOL    HW214139   3.630   5.571   3.837
 4414SOL     OW14140   3.312   4.819   1.918
 4414SOL    HW114141   3.406   4.787   1.907
 4414SOL    HW214142   3.249   4.749   1.885
 4415SOL     OW14143   4.735   1.150   1.546
 4415SOL    HW114144   4.792   1.151   1.628
 4415SOL    HW214145   4.782   1.198   1.472
 4416SOL     OW14146   2.773   2.299   4.585
 4416SOL    HW114147   2.816   2.288   4.675
 4416SOL    HW214148   2.705   2.228   4.571
 4417SOL     OW14149   5.542   0.066   1.540
 4417SOL    HW114150   5.619   0.110   1.493
 4417SOL    HW214151   5.457   0.110   1.512
 4418SOL     OW14152   4.484   0.074   3.256
 4418SOL    HW114153   4.559   0.134   3.228
 4418SOL    HW214154   4.399   0.107   3.214
 4419SOL     OW14155   6.610   5.750   6.411
 4419SOL    HW114156   6.698   5.780   6.448
 4419SOL    HW214157   6.609   5.651   6.401
 4420SOL     OW14158   5.408   1.059   0.783
 4420SOL    HW114159   5.384   1.128   0.714
 4420SOL    HW214160   5.473   1.098   0.848
 4421SOL     OW14161   0.626   2.102   3.165
 4421SOL    HW114162   0.668   2.066   3.248
 4421SOL    HW214163   0.695   2.113   3.094
 4422SOL     OW14164   1.559   3.766   5.605
 4422SOL    HW114165   1.505   3.701   5.658
 4422SOL    HW214166   1.506   3.797   5.526
 4423SOL     OW14167   6.771   1.848   5.692
 4423SOL    HW114168   6.736   1.823   5.602
 4423SOL    HW214169   6.749   1.776   5.757
 4424SOL     OW14170   1.870   5.303   3.632
 4424SOL    HW114171   1.889   5.317   3.535
 4424SOL    HW214172   1.885   5.388   3.681
 4425SOL     OW14173   5.149   3.953   2.177
 4425SOL    HW114174   5.167   4.026   2.242
 4425SOL    HW214175   5.051   3.933   2.175
 4426SOL     OW14176   0.624   6.462   6.483
 4426SOL    HW114177   0.701   6.484   6.423
 4426SOL    HW214178   0.656   6.455   6.577
 4427SOL     OW14179   0.416   5.204   3.935
 4427SOL    HW114180   0.331   5.159   3.906
 4427SOL    HW214181   0.395   5.294   3.971
 4428SOL     OW14182   1.563   0.306   2.508
 4428SOL    HW114183   1.578   0.318   2.606
 4428SOL    HW214184   1.634   0.247   2.470
 4429SOL     OW14185   2.891   0.238   1.750
 4429SOL    HW114186   2.876   0.334   1.726
 4429SOL    HW214187   2.813   0.204   1.803
 4430SOL     OW14188   1.900   0.202   2.333
 4430SOL    HW114189   1.897   0.102   2.324
 4430SOL    HW214190   1.857   0.229   2.419
 4431SOL     OW14191   1.899   2.075   2.412
 4431SOL    HW114192   1.992   2.104   2.391
 4431SOL    HW214193   1.841   2.092   2.332
 4432SOL     OW14194   3.581   4.100   4.554
 4432SOL    HW114195   3.639   4.089   4.635
 4432SOL    HW214196   3.602   4.028   4.488
 4433SOL     OW14197   6.417   0.092   1.687
 4433SOL    HW114198   6.442   0.013   1.744
 4433SOL    HW214199   6.499   0.144   1.665
 4434SOL     OW14200   5.701   2.090   5.824
 4434SOL    HW114201   5.607   2.070   5.849
 4434SOL    HW214202   5.757   2.007   5.833
 4435SOL     OW14203   3.667   3.016   1.931
 4435SOL    HW114204   3.674   3.110   1.963
 4435SOL    HW214205   3.571   2.990   1.924
 4436SOL     OW14206   5.740   6.718   0.334
 4436SOL    HW114207   5.647   6.700   0.366
 4436SOL    HW214208   5.773   6.803   0.375
 4437SOL     OW14209   2.935   6.662   5.434
 4437SOL    HW114210   3.029   6.659   5.468
 4437SOL    HW214211   2.928   6.728   5.359
 4438SOL     OW14212   3.563   2.610   6.861
 4438SOL    HW114213   3.501   2.597   6.783
 4438SOL    HW214214   3.657   2.619   6.828
 4439SOL     OW14215   1.430   4.843   3.388
 4439SOL    HW114216   1.498   4.916   3.390
 4439SOL    HW214217   1.443   4.783   3.467
 4440SOL     OW14218   6.234   1.229   0.112
 4440SOL    HW114219   6.297   1.180   0.172
 4440SOL    HW214220   6.171   1.283   0.168
 4441SOL     OW14221   6.591   0.910   4.058
 4441SOL    HW114222   6.659   0.979   4.034
 4441SOL    HW214223   6.507   0.955   4.088
 4442SOL     OW14224   2.150   5.850   2.393
 4442SOL    HW114225   2.158   5.779   2.323
 4442SOL    HW214226   2.058   5.888   2.391
 4443SOL     OW14227   1.707   1.013   1.354
 4443SOL    HW114228   1.711   0.915   1.371
 4443SOL    HW214229   1.712   1.062   1.441
 4444SOL     OW14230   4.913   1.908   2.799
 4444SOL    HW114231   4.884   1.814   2.782
 4444SOL    HW214232   4.967   1.913   2.883
 4445SOL     OW14233   1.100   2.435   6.218
 4445SOL    HW114234   1.051   2.498   6.278
 4445SOL    HW214235   1.105   2.474   6.126
 4446SOL     OW14236   6.893   4.954   4.460
 4446SOL    HW114237   6.879   4.987   4.366
 4446SOL    HW214238   6.937   4.864   4.458
 4447SOL     OW14239   4.907   3.649   4.829
 4447SOL    HW114240   4.840   3.647   4.903
 4447SOL    HW214241   4.942   3.557   4.813
 4448SOL     OW14242   2.714   3.523   6.665
 4448SOL    HW114243   2.685   3.457   6.596
 4448SOL    HW214244   2.676   3.613   6.643
 4449SOL     OW14245   6.864   1.584   5.495
 4449SOL    HW114246   6.858   1.561   5.592
 4449SOL    HW214247   6.878   1.501   5.441
 4450SOL     OW14248   3.746   3.166   3.103
 4450SOL    HW114249   3.698   3.214   3.030
 4450SOL    HW214250   3.842   3.152   3.077
 4451SOL     OW14251   0.673   5.089   1.309
 4451SOL    HW114252   0.732   5.114   1.232
 4451SOL    HW214253   0.672   4.990   1.320
 4452SOL     OW14254   0.716   3.708   6.815
 4452SOL    HW114255   0.785   3.660   6.868
 4452SOL    HW214256   0.754   3.793   6.779
 4453SOL     OW14257   5.773   0.559   1.148
 4453SOL    HW114258   5.739   0.553   1.054
 4453SOL    HW214259   5.830   0.480   1.169
 4454SOL     OW14260   6.077   3.392   1.791
 4454SOL    HW114261   6.023   3.384   1.875
 4454SOL    HW214262   6.065   3.484   1.753
 4455SOL     OW14263   4.728   2.739   2.346
 4455SOL    HW114264   4.678   2.676   2.286
 4455SOL    HW214265   4.665   2.775   2.416
 4456SOL     OW14266   0.067   5.829   2.688
 4456SOL    HW114267   7.013   5.897   2.678
 4456SOL    HW214268   0.153   5.866   2.651
 4457SOL     OW14269   4.804   2.573   6.164
 4457SOL    HW114270   4.896   2.535   6.150
 4457SOL    HW214271   4.806   2.640   6.237
 4458SOL     OW14272   4.664   1.846   1.088
 4458SOL    HW114273   4.613   1.908   1.028
 4458SOL    HW214274   4.628   1.852   1.181
 4459SOL     OW14275   6.179   5.470   6.079
 4459SOL    HW114276   6.272   5.505   6.090
 4459SOL    HW214277   6.166   5.440   5.985
 4460SOL     OW14278   1.876   0.678   0.531
 4460SOL    HW114279   1.933   0.649   0.608
 4460SOL    HW214280   1.812   0.748   0.562
 4461SOL     OW14281   1.881   0.543   3.029
 4461SOL    HW114282   1.813   0.525   3.101
 4461SOL    HW214283   1.924   0.457   3.002
 4462SOL     OW14284   0.025   3.297   0.996
 4462SOL    HW114285   0.049   3.375   0.938
 4462SOL    HW214286   0.006   3.329   1.089
 4463SOL     OW14287   0.836   3.950   6.723
 4463SOL    HW114288   0.840   4.047   6.746
 4463SOL    HW214289   0.802   3.940   6.629
 4464SOL     OW14290   6.803   2.598   0.186
 4464SOL    HW114291   6.739   2.609   0.110
 4464SOL    HW214292   6.894   2.580   0.149
 4465SOL     OW14293   5.773   5.098   1.084
 4465SOL    HW114294   5.852   5.083   1.142
 4465SOL    HW214295   5.769   5.194   1.057
 4466SOL     OW14296   6.518   3.247   4.056
 4466SOL    HW114297   6.548   3.160   4.017
 4466SOL    HW214298   6.483   3.232   4.149
 4467SOL     OW14299   1.180   0.516   4.311
 4467SOL    HW114300   1.108   0.570   4.268
 4467SOL    HW214301   1.151   0.489   4.403
 4468SOL     OW14302   1.100   0.921   0.557
 4468SOL    HW114303   1.046   0.910   0.473
 4468SOL    HW214304   1.184   0.868   0.550
 4469SOL     OW14305   4.572   6.841   0.273
 4469SOL    HW114306   4.657   6.893   0.266
 4469SOL    HW214307   4.560   6.786   0.190
 4470SOL     OW14308   4.981   4.540   1.307
 4470SOL    HW114309   5.037   4.586   1.375
 4470SOL    HW214310   4.884   4.551   1.330
 4471SOL     OW14311   5.793   2.655   1.763
 4471SOL    HW114312   5.883   2.677   1.801
 4471SOL    HW214313   5.756   2.736   1.717
 4472SOL     OW14314   2.304   5.498   1.561
 4472SOL    HW114315   2.230   5.490   1.495
 4472SOL    HW214316   2.348   5.409   1.573
 4473SOL     OW14317   5.737   0.639   0.433
 4473SOL    HW114318   5.667   0.599   0.373
 4473SOL    HW214319   5.696   0.712   0.488
 4474SOL     OW14320   6.317   1.275   5.535
 4474SOL    HW114321   6.393   1.340   5.529
 4474SOL    HW214322   6.317   1.215   5.455
 4475SOL     OW14323   1.723   3.295   0.330
 4475SOL    HW114324   1.783   3.240   0.272
 4475SOL    HW214325   1.648   3.332   0.275
 4476SOL     OW14326   4.066   6.767   2.670
 4476SOL    HW114327   4.156   6.729   2.648
 4476SOL    HW214328   4.030   6.724   2.752
 4477SOL     OW14329   1.902   1.953   0.844
 4477SOL    HW114330   1.819   1.919   0.800
 4477SOL    HW214331   1.878   1.997   0.930
 4478SOL     OW14332   0.931   4.698   1.079
 4478SOL    HW114333   0.879   4.668   1.160
 4478SOL    HW214334   0.934   4.624   1.012
 4479SOL     OW14335   1.390   5.634   5.939
 4479SOL    HW114336   1.405   5.632   5.840
 4479SOL    HW214337   1.383   5.728   5.971
 4480SOL     OW14338   6.832   3.608   2.828
 4480SOL    HW114339   6.871   3.521   2.859
 4480SOL    HW214340   6.786   3.652   2.905
 4481SOL     OW14341   0.972   0.672   4.208
 4481SOL    HW114342   0.892   0.625   4.248
 4481SOL    HW214343   0.954   0.690   4.111
 4482SOL     OW14344   0.253   4.363   3.339
 4482SOL    HW114345   0.178   4.297   3.349
 4482SOL    HW214346   0.337   4.324   3.377
 4483SOL     OW14347   5.953   4.038   1.252
 4483SOL    HW114348   5.883   4.057   1.182
 4483SOL    HW214349   6.044   4.048   1.212
 4484SOL     OW14350   3.069   3.965   6.395
 4484SOL    HW114351   3.070   4.020   6.479
 4484SOL    HW214352   2.994   3.899   6.399
 4485SOL     OW14353   4.495   0.226   5.842
 4485SOL    HW114354   4.568   0.276   5.796
 4485SOL    HW214355   4.407   0.268   5.821
 4486SOL     OW14356   6.102   3.292   4.313
 4486SOL    HW114357   6.043   3.336   4.245
 4486SOL    HW214358   6.166   3.359   4.350
 4487SOL     OW14359   3.342   2.777   6.006
 4487SOL    HW114360   3.379   2.729   5.927
 4487SOL    HW214361   3.249   2.807   5.987
 4488SOL     OW14362   7.006   2.227   6.474
 4488SOL    HW114363   7.001   2.267   6.566
 4488SOL    HW214364   7.013   2.128   6.481
 4489SOL     OW14365   0.198   1.424   3.327
 4489SOL    HW114366   0.284   1.411   3.277
 4489SOL    HW214367   0.149   1.503   3.289
 4490SOL     OW14368   6.974   2.429   3.981
 4490SOL    HW114369   0.056   2.437   3.979
 4490SOL    HW214370   6.934   2.520   3.984
 4491SOL     OW14371   1.984   4.740   2.245
 4491SOL    HW114372   2.018   4.670   2.182
 4491SOL    HW214373   1.887   4.724   2.264
 4492SOL     OW14374   5.425   3.732   5.676
 4492SOL    HW114375   5.366   3.702   5.601
 4492SOL    HW214376   5.506   3.672   5.680
 4493SOL     OW14377   5.897   4.878   3.445
 4493SOL    HW114378   5.869   4.855   3.538
 4493SOL    HW214379   5.970   4.816   3.416
 4494SOL     OW14380   5.092   2.854   1.676
 4494SOL    HW114381   5.041   2.867   1.761
 4494SOL    HW214382   5.140   2.767   1.678
 4495SOL     OW14383   5.665   4.995   2.489
 4495SOL    HW114384   5.699   4.930   2.421
 4495SOL    HW214385   5.683   5.088   2.457
 4496SOL     OW14386   5.825   3.416   6.255
 4496SOL    HW114387   5.910   3.467   6.266
 4496SOL    HW214388   5.798   3.377   6.344
 4497SOL     OW14389   6.723   6.771   0.951
 4497SOL    HW114390   6.759   6.681   0.927
 4497SOL    HW214391   6.639   6.760   1.005
 4498SOL     OW14392   1.238   4.344   6.009
 4498SOL    HW114393   1.201   4.340   5.916
 4498SOL    HW214394   1.334   4.371   6.005
 4499SOL     OW14395   5.888   3.998   0.451
 4499SOL    HW114396   5.811   4.058   0.429
 4499SOL    HW214397   5.868   3.906   0.419
 4500SOL     OW14398   3.356   3.925   1.918
 4500SOL    HW114399   3.293   3.952   1.992
 4500SOL    HW214400   3.315   3.851   1.865
 4501SOL     OW14401   1.717   5.536   4.986
 4501SOL    HW114402   1.646   5.597   5.023
 4501SOL    HW214403   1.746   5.473   5.057
 4502SOL     OW14404   5.694   2.599   0.363
 4502SOL    HW114405   5.613   2.555   0.403
 4502SOL    HW214406   5.677   2.617   0.266
 4503SOL     OW14407   1.052   3.729   2.990
 4503SOL    HW114408   1.072   3.635   3.020
 4503SOL    HW214409   1.002   3.726   2.904
 4504SOL     OW14410   4.131   1.881   4.116
 4504SOL    HW114411   4.120   1.832   4.030
 4504SOL    HW214412   4.059   1.949   4.126
 4505SOL     OW14413   2.209   5.695   0.249
 4505SOL    HW114414   2.133   5.665   0.307
 4505SOL    HW214415   2.289   5.715   0.306
 4506SOL     OW14416   3.458   6.456   5.937
 4506SOL    HW114417   3.495   6.416   6.021
 4506SOL    HW214418   3.450   6.386   5.867
 4507SOL     OW14419   6.196   3.917   2.579
 4507SOL    HW114420   6.191   3.995   2.517
 4507SOL    HW214421   6.151   3.838   2.538
 4508SOL     OW14422   1.956   4.216   1.270
 4508SOL    HW114423   2.028   4.189   1.206
 4508SOL    HW214424   1.942   4.143   1.337
 4509SOL     OW14425   0.855   2.859   3.772
 4509SOL    HW114426   0.861   2.908   3.859
 4509SOL    HW214427   0.877   2.922   3.697
 4510SOL     OW14428   2.591   0.013   6.379
 4510SOL    HW114429   2.541   6.999   6.299
 4510SOL    HW214430   2.666   0.072   6.350
 4511SOL     OW14431   0.596   2.681   0.056
 4511SOL    HW114432   0.562   2.735   0.133
 4511SOL    HW214433   0.687   2.646   0.078
 4512SOL     OW14434   2.402   3.983   0.400
 4512SOL    HW114435   2.462   4.056   0.366
 4512SOL    HW214436   2.429   3.896   0.359
 4513SOL     OW14437   6.262   1.533   2.622
 4513SOL    HW114438   6.360   1.519   2.606
 4513SOL    HW214439   6.210   1.492   2.547
 4514SOL     OW14440   1.955   0.639   4.525
 4514SOL    HW114441   1.998   0.549   4.516
 4514SOL    HW214442   1.958   0.686   4.437
 4515SOL     OW14443   0.107   4.825   0.519
 4515SOL    HW114444   0.043   4.875   0.577
 4515SOL    HW214445   0.185   4.884   0.496
 4516SOL     OW14446   0.491   6.988   3.866
 4516SOL    HW114447   0.540   7.017   3.784
 4516SOL    HW214448   0.452   6.897   3.852
 4517SOL     OW14449   2.749   0.682   0.360
 4517SOL    HW114450   2.708   0.666   0.270
 4517SOL    HW214451   2.825   0.746   0.351
 4518SOL     OW14452   1.425   0.887   3.490
 4518SOL    HW114453   1.486   0.964   3.469
 4518SOL    HW214454   1.459   0.838   3.570
 4519SOL     OW14455   6.691   2.219   4.297
 4519SOL    HW114456   6.694   2.119   4.297
 4519SOL    HW214457   6.775   2.255   4.257
 4520SOL     OW14458   0.076   3.708   2.770
 4520SOL    HW114459   0.079   3.714   2.869
 4520SOL    HW214460   7.005   3.673   2.741
 4521SOL     OW14461   5.363   1.692   6.340
 4521SOL    HW114462   5.341   1.786   6.365
 4521SOL    HW214463   5.389   1.641   6.421
 4522SOL     OW14464   5.494   6.752   3.335
 4522SOL    HW114465   5.517   6.800   3.419
 4522SOL    HW214466   5.405   6.784   3.302
 4523SOL     OW14467   4.682   2.051   5.662
 4523SOL    HW114468   4.613   2.102   5.713
 4523SOL    HW214469   4.770   2.058   5.710
 4524SOL     OW14470   5.728   1.689   5.581
 4524SOL    HW114471   5.712   1.724   5.488
 4524SOL    HW214472   5.748   1.592   5.576
 4525SOL     OW14473   7.007   1.146   3.892
 4525SOL    HW114474   0.013   1.129   3.796
 4525SOL    HW214475   6.998   1.059   3.941
 4526SOL     OW14476   2.593   1.553   1.241
 4526SOL    HW114477   2.599   1.457   1.269
 4526SOL    HW214478   2.606   1.560   1.142
 4527SOL     OW14479   4.561   6.651   3.332
 4527SOL    HW114480   4.534   6.558   3.307
 4527SOL    HW214481   4.630   6.648   3.404
 4528SOL     OW14482   4.626   0.346   6.446
 4528SOL    HW114483   4.721   0.372   6.463
 4528SOL    HW214484   4.565   0.410   6.491
 4529SOL     OW14485   3.328   0.209   4.326
 4529SOL    HW114486   3.239   0.164   4.316
 4529SOL    HW214487   3.350   0.216   4.424
 4530SOL     OW14488   6.380   2.482   3.915
 4530SOL    HW114489   6.401   2.468   4.012
 4530SOL    HW214490   6.427   2.413   3.860
 4531SOL     OW14491   0.093   4.005   3.961
 4531SOL    HW114492   0.088   3.972   3.867
 4531SOL    HW214493   0.162   4.077   3.968
 4532SOL     OW14494   0.550   2.436   0.614
 4532SOL    HW114495   0.502   2.359   0.656
 4532SOL    HW214496   0.534   2.518   0.668
 4533SOL     OW14497   3.642   6.377   2.152
 4533SOL    HW114498   3.712   6.437   2.113
 4533SOL    HW214499   3.587   6.428   2.218
 4534SOL     OW14500   6.739   4.165   6.180
 4534SOL    HW114501   6.715   4.143   6.275
 4534SOL    HW214502   6.724   4.262   6.164
 4535SOL     OW14503   4.867   1.856   2.465
 4535SOL    HW114504   4.795   1.835   2.532
 4535SOL    HW214505   4.854   1.949   2.431
 4536SOL     OW14506   6.955   0.119   3.748
 4536SOL    HW114507   6.956   0.020   3.734
 4536SOL    HW214508   0.005   0.144   3.816
 4537SOL     OW14509   5.217   3.139   5.606
 4537SOL    HW114510   5.138   3.121   5.548
 4537SOL    HW214511   5.196   3.214   5.669
 4538SOL     OW14512   3.608   2.090   1.643
 4538SOL    HW114513   3.576   2.163   1.704
 4538SOL    HW214514   3.623   2.128   1.551
 4539SOL     OW14515   2.592   3.619   1.225
 4539SOL    HW114516   2.648   3.698   1.251
 4539SOL    HW214517   2.535   3.643   1.147
 4540SOL     OW14518   3.445   2.912   4.589
 4540SOL    HW114519   3.535   2.951   4.605
 4540SOL    HW214520   3.382   2.943   4.661
 4541SOL     OW14521   6.279   0.874   1.723
 4541SOL    HW114522   6.367   0.876   1.771
 4541SOL    HW214523   6.238   0.784   1.733
 4542SOL     OW14524   5.391   6.475   3.360
 4542SOL    HW114525   5.419   6.562   3.401
 4542SOL    HW214526   5.465   6.441   3.302
 4543SOL     OW14527   5.244   2.376   2.563
 4543SOL    HW114528   5.288   2.383   2.652
 4543SOL    HW214529   5.168   2.311   2.568
 4544SOL     OW14530   5.652   4.808   6.780
 4544SOL    HW114531   5.713   4.731   6.766
 4544SOL    HW214532   5.603   4.797   6.867
 4545SOL     OW14533   4.547   3.281   0.397
 4545SOL    HW114534   4.479   3.241   0.459
 4545SOL    HW214535   4.565   3.376   0.423
 4546SOL     OW14536   0.684   5.831   0.543
 4546SOL    HW114537   0.656   5.857   0.635
 4546SOL    HW214538   0.704   5.914   0.490
 4547SOL     OW14539   4.386   1.475   2.367
 4547SOL    HW114540   4.348   1.395   2.413
 4547SOL    HW214541   4.325   1.504   2.294
 4548SOL     OW14542   0.711   3.334   4.406
 4548SOL    HW114543   0.651   3.349   4.327
 4548SOL    HW214544   0.666   3.271   4.469
 4549SOL     OW14545   6.007   1.103   2.359
 4549SOL    HW114546   5.937   1.139   2.420
 4549SOL    HW214547   5.969   1.089   2.268
 4550SOL     OW14548   2.172   5.346   5.117
 4550SOL    HW114549   2.266   5.316   5.102
 4550SOL    HW214550   2.153   5.349   5.215
 4551SOL     OW14551   6.409   3.661   0.619
 4551SOL    HW114552   6.438   3.593   0.686
 4551SOL    HW214553   6.488   3.692   0.566
 4552SOL     OW14554   0.087   3.464   5.166
 4552SOL    HW114555   0.092   3.564   5.156
 4552SOL    HW214556   0.118   3.421   5.081
 4553SOL     OW14557   5.275   5.066   6.881
 4553SOL    HW114558   5.355   5.123   6.863
 4553SOL    HW214559   5.225   5.050   6.796
 4554SOL     OW14560   6.645   6.418   4.373
 4554SOL    HW114561   6.591   6.343   4.333
 4554SOL    HW214562   6.664   6.486   4.303
 4555SOL     OW14563   3.810   2.890   0.201
 4555SOL    HW114564   3.821   2.924   0.294
 4555SOL    HW214565   3.894   2.845   0.171
 4556SOL     OW14566   4.265   0.325   5.128
 4556SOL    HW114567   4.222   0.408   5.164
 4556SOL    HW214568   4.298   0.342   5.035
 4557SOL     OW14569   5.349   0.797   3.961
 4557SOL    HW114570   5.295   0.868   4.006
 4557SOL    HW214571   5.401   0.836   3.885
 4558SOL     OW14572   0.418   3.313   6.737
 4558SOL    HW114573   0.342   3.248   6.739
 4558SOL    HW214574   0.423   3.360   6.825
 4559SOL     OW14575   1.686   6.741   1.616
 4559SOL    HW114576   1.628   6.811   1.574
 4559SOL    HW214577   1.628   6.673   1.660
 4560SOL     OW14578   6.072   2.579   3.376
 4560SOL    HW114579   6.061   2.482   3.397
 4560SOL    HW214580   6.053   2.633   3.458
 4561SOL     OW14581   2.900   5.956   6.440
 4561SOL    HW114582   2.881   6.048   6.473
 4561SOL    HW214583   2.815   5.913   6.410
 4562SOL     OW14584   3.216   3.874   5.605
 4562SOL    HW114585   3.137   3.872   5.544
 4562SOL    HW214586   3.237   3.968   5.629
 4563SOL     OW14587   5.696   3.083   6.642
 4563SOL    HW114588   5.601   3.055   6.651
 4563SOL    HW214589   5.734   3.101   6.734
 4564SOL     OW14590   6.930   4.983   0.031
 4564SOL    HW114591   6.917   4.928   0.113
 4564SOL    HW214592   0.007   4.975   7.018
 4565SOL     OW14593   3.516   0.888   4.366
 4565SOL    HW114594   3.427   0.910   4.407
 4565SOL    HW214595   3.553   0.805   4.410
 4566SOL     OW14596   2.029   0.314   1.097
 4566SOL    HW114597   1.937   0.299   1.133
 4566SOL    HW214598   2.079   0.377   1.157
 4567SOL     OW14599   5.626   2.393   0.654
 4567SOL    HW114600   5.584   2.431   0.572
 4567SOL    HW214601   5.554   2.364   0.718
 4568SOL     OW14602   4.549   4.372   3.954
 4568SOL    HW114603   4.586   4.343   4.042
 4568SOL    HW214604   4.462   4.419   3.969
 4569SOL     OW14605   1.853   1.862   3.954
 4569SOL    HW114606   1.904   1.917   3.888
 4569SOL    HW214607   1.770   1.912   3.982
 4570SOL     OW14608   5.436   5.660   4.906
 4570SOL    HW114609   5.401   5.685   4.997
 4570SOL    HW214610   5.359   5.649   4.843
 4571SOL     OW14611   3.643   2.908   3.859
 4571SOL    HW114612   3.627   2.973   3.785
 4571SOL    HW214613   3.606   2.819   3.834
 4572SOL     OW14614   2.685   5.612   1.241
 4572SOL    HW114615   2.654   5.526   1.201
 4572SOL    HW214616   2.614   5.682   1.230
 4573SOL     OW14617   4.970   0.120   1.369
 4573SOL    HW114618   4.888   0.145   1.318
 4573SOL    HW214619   5.046   0.180   1.342
 4574SOL     OW14620   6.999   4.826   2.016
 4574SOL    HW114621   0.033   4.873   1.945
 4574SOL    HW214622   7.013   4.873   2.103
 4575SOL     OW14623   6.735   5.801   1.681
 4575SOL    HW114624   6.638   5.786   1.663
 4575SOL    HW214625   6.761   5.752   1.764
 4576SOL     OW14626   3.328   6.578   4.385
 4576SOL    HW114627   3.365   6.575   4.292
 4576SOL    HW214628   3.404   6.575   4.451
 4577SOL     OW14629   2.351   4.279   3.773
 4577SOL    HW114630   2.378   4.372   3.800
 4577SOL    HW214631   2.251   4.274   3.767
 4578SOL     OW14632   5.978   6.029   3.406
 4578SOL    HW114633   5.879   6.040   3.416
 4578SOL    HW214634   5.997   5.952   3.345
 4579SOL     OW14635   4.473   1.836   3.278
 4579SOL    HW114636   4.468   1.915   3.339
 4579SOL    HW214637   4.406   1.846   3.205
 4580SOL     OW14638   0.555   5.156   0.097
 4580SOL    HW114639   0.627   5.212   0.057
 4580SOL    HW214640   0.545   5.071   0.046
 4581SOL     OW14641   3.474   5.767   4.885
 4581SOL    HW114642   3.475   5.864   4.861
 4581SOL    HW214643   3.506   5.713   4.807
 4582SOL     OW14644   4.839   6.616   3.166
 4582SOL    HW114645   4.768   6.624   3.096
 4582SOL    HW214646   4.803   6.566   3.244
 4583SOL     OW14647   3.479   6.685   5.391
 4583SOL    HW114648   3.448   6.748   5.320
 4583SOL    HW214649   3.406   6.671   5.458
 4584SOL     OW14650   6.835   5.094   5.695
 4584SOL    HW114651   6.862   5.160   5.765
 4584SOL    HW214652   6.797   5.012   5.739
 4585SOL     OW14653   2.845   6.671   2.219
 4585SOL    HW114654   2.878   6.578   2.207
 4585SOL    HW214655   2.809   6.705   2.132
 4586SOL     OW14656   2.281   6.070   1.436
 4586SOL    HW114657   2.305   5.977   1.410
 4586SOL    HW214658   2.221   6.110   1.366
 4587SOL     OW14659   2.970   4.914   0.974
 4587SOL    HW114660   3.062   4.879   0.961
 4587SOL    HW214661   2.962   4.955   1.065
 4588SOL     OW14662   3.506   4.144   4.873
 4588SOL    HW114663   3.439   4.163   4.801
 4588SOL    HW214664   3.598   4.159   4.837
 4589SOL     OW14665   2.317   2.049   3.234
 4589SOL    HW114666   2.230   2.077   3.275
 4589SOL    HW214667   2.388   2.044   3.304
 4590SOL     OW14668   4.337   6.332   2.870
 4590SOL    HW114669   4.361   6.236   2.860
 4590SOL    HW214670   4.292   6.347   2.958
 4591SOL     OW14671   4.596   6.234   4.810
 4591SOL    HW114672   4.604   6.166   4.883
 4591SOL    HW214673   4.651   6.206   4.732
 4592SOL     OW14674   3.307   1.997   5.642
 4592SOL    HW114675   3.375   2.052   5.691
 4592SOL    HW214676   3.252   2.056   5.585
 4593SOL     OW14677   4.280   5.694   1.792
 4593SOL    HW114678   4.281   5.784   1.750
 4593SOL    HW214679   4.186   5.660   1.795
 4594SOL     OW14680   3.776   2.095   2.270
 4594SOL    HW114681   3.701   2.111   2.334
 4594SOL    HW214682   3.753   2.133   2.181
 4595SOL     OW14683   4.381   3.291   5.735
 4595SOL    HW114684   4.396   3.374   5.682
 4595SOL    HW214685   4.446   3.220   5.706
 4596SOL     OW14686   4.894   0.810   2.646
 4596SOL    HW114687   4.931   0.892   2.688
 4596SOL    HW214688   4.948   0.787   2.565
 4597SOL     OW14689   6.656   3.693   6.568
 4597SOL    HW114690   6.708   3.714   6.486
 4597SOL    HW214691   6.704   3.622   6.621
 4598SOL     OW14692   2.770   4.024   6.572
 4598SOL    HW114693   2.786   3.940   6.520
 4598SOL    HW214694   2.753   4.099   6.508
 4599SOL     OW14695   3.430   4.812   0.363
 4599SOL    HW114696   3.384   4.811   0.274
 4599SOL    HW214697   3.529   4.825   0.350
 4600SOL     OW14698   2.395   3.719   0.592
 4600SOL    HW114699   2.304   3.703   0.630
 4600SOL    HW214700   2.392   3.798   0.530
 4601SOL     OW14701   2.080   5.263   3.277
 4601SOL    HW114702   2.070   5.181   3.222
 4601SOL    HW214703   1.990   5.299   3.301
 4602SOL     OW14704   1.526   0.094   1.840
 4602SOL    HW114705   1.489   0.046   1.760
 4602SOL    HW214706   1.483   0.184   1.847
 4603SOL     OW14707   3.043   1.759   1.589
 4603SOL    HW114708   3.039   1.663   1.562
 4603SOL    HW214709   3.080   1.766   1.682
 4604SOL     OW14710   1.340   6.985   3.225
 4604SOL    HW114711   1.302   6.974   3.317
 4604SOL    HW214712   1.293   0.043   3.179
 4605SOL     OW14713   5.264   6.748   5.468
 4605SOL    HW114714   5.167   6.770   5.457
 4605SOL    HW214715   5.274   6.657   5.509
 4606SOL     OW14716   5.887   6.246   4.451
 4606SOL    HW114717   5.968   6.282   4.404
 4606SOL    HW214718   5.885   6.147   4.444
 4607SOL     OW14719   3.092   3.085   0.750
 4607SOL    HW114720   3.020   3.092   0.820
 4607SOL    HW214721   3.131   2.993   0.752
 4608SOL     OW14722   1.582   2.974   6.063
 4608SOL    HW114723   1.582   2.981   6.163
 4608SOL    HW214724   1.618   2.885   6.035
 4609SOL     OW14725   3.229   0.247   0.442
 4609SOL    HW114726   3.261   0.230   0.349
 4609SOL    HW214727   3.271   0.331   0.476
 4610SOL     OW14728   6.644   3.738   0.489
 4610SOL    HW114729   6.718   3.791   0.448
 4610SOL    HW214730   6.611   3.671   0.423
 4611SOL     OW14731   1.530   5.136   6.478
 4611SOL    HW114732   1.574   5.083   6.406
 4611SOL    HW214733   1.560   5.103   6.567
 4612SOL     OW14734   1.587   0.853   6.679
 4612SOL    HW114735   1.574   0.949   6.653
 4612SOL    HW214736   1.543   0.794   6.611
 4613SOL     OW14737   3.901   4.974   1.609
 4613SOL    HW114738   3.835   4.928   1.549
 4613SOL    HW214739   3.858   4.993   1.697
 4614SOL     OW14740   1.830   4.352   0.388
 4614SOL    HW114741   1.835   4.412   0.468
 4614SOL    HW214742   1.891   4.274   0.401
 4615SOL     OW14743   5.813   3.267   6.496
 4615SOL    HW114744   5.884   3.315   6.548
 4615SOL    HW214745   5.762   3.208   6.559
 4616SOL     OW14746   5.393   0.584   6.521
 4616SOL    HW114747   5.338   0.525   6.580
 4616SOL    HW214748   5.335   0.656   6.484
 4617SOL     OW14749   0.488   4.198   1.466
 4617SOL    HW114750   0.489   4.297   1.479
 4617SOL    HW214751   0.552   4.155   1.529
 4618SOL     OW14752   1.342   3.136   6.272
 4618SOL    HW114753   1.380   3.045   6.290
 4618SOL    HW214754   1.356   3.159   6.176
 4619SOL     OW14755   3.980   1.274   3.980
 4619SOL    HW114756   4.048   1.201   3.977
 4619SOL    HW214757   3.898   1.246   3.930
 4620SOL     OW14758   1.791   5.814   0.329
 4620SOL    HW114759   1.887   5.788   0.319
 4620SOL    HW214760   1.771   5.832   0.426
 4621SOL     OW14761   6.723   0.750   6.857
 4621SOL    HW114762   6.674   0.714   6.937
 4621SOL    HW214763   6.662   0.810   6.805
 4622SOL     OW14764   1.618   4.591   0.394
 4622SOL    HW114765   1.655   4.587   0.302
 4622SOL    HW214766   1.693   4.599   0.460
 4623SOL     OW14767   5.793   3.163   3.659
 4623SOL    HW114768   5.749   3.231   3.717
 4623SOL    HW214769   5.790   3.193   3.564
 4624SOL     OW14770   4.295   6.345   5.644
 4624SOL    HW114771   4.310   6.444   5.648
 4624SOL    HW214772   4.281   6.310   5.736
 4625SOL     OW14773   1.248   4.255   6.297
 4625SOL    HW114774   1.248   4.273   6.198
 4625SOL    HW214775   1.234   4.158   6.314
 4626SOL     OW14776   6.512   4.390   2.046
 4626SOL    HW114777   6.455   4.319   2.088
 4626SOL    HW214778   6.472   4.480   2.065
 4627SOL     OW14779   1.955   0.146   4.486
 4627SOL    HW114780   1.966   0.048   4.469
 4627SOL    HW214781   1.964   0.164   4.583
 4628SOL     OW14782   6.434   2.571   1.933
 4628SOL    HW114783   6.419   2.480   1.896
 4628SOL    HW214784   6.532   2.586   1.948
 4629SOL     OW14785   4.509   4.881   3.869
 4629SOL    HW114786   4.453   4.955   3.905
 4629SOL    HW214787   4.451   4.817   3.818
 4630SOL     OW14788   2.799   6.209   2.618
 4630SOL    HW114789   2.710   6.163   2.627
 4630SOL    HW214790   2.811   6.239   2.523
 4631SOL     OW14791   1.675   0.826   2.633
 4631SOL    HW114792   1.769   0.796   2.649
 4631SOL    HW214793   1.674   0.898   2.564
 4632SOL     OW14794   5.872   6.228   4.117
 4632SOL    HW114795   5.926   6.280   4.184
 4632SOL    HW214796   5.804   6.288   4.075
 4633SOL     OW14797   4.854   2.921   6.582
 4633SOL    HW114798   4.803   2.942   6.666
 4633SOL    HW214799   4.904   3.003   6.553
 4634SOL     OW14800   2.662   3.684   0.652
 4634SOL    HW114801   2.663   3.614   0.582
 4634SOL    HW214802   2.567   3.710   0.671
 4635SOL     OW14803   4.806   3.363   1.670
 4635SOL    HW114804   4.737   3.306   1.625
 4635SOL    HW214805   4.892   3.357   1.619
 4636SOL     OW14806   1.246   5.049   2.296
 4636SOL    HW114807   1.214   5.064   2.202
 4636SOL    HW214808   1.168   5.048   2.358
 4637SOL     OW14809   0.599   0.874   5.752
 4637SOL    HW114810   0.675   0.923   5.710
 4637SOL    HW214811   0.535   0.845   5.681
 4638SOL     OW14812   4.464   4.755   5.703
 4638SOL    HW114813   4.516   4.695   5.642
 4638SOL    HW214814   4.389   4.704   5.745
 4639SOL     OW14815   6.508   2.246   5.398
 4639SOL    HW114816   6.608   2.244   5.407
 4639SOL    HW214817   6.474   2.334   5.432
 4640SOL     OW14818   6.852   5.095   3.024
 4640SOL    HW114819   6.849   5.191   3.053
 4640SOL    HW214820   6.861   5.037   3.105
 4641SOL     OW14821   2.472   3.801   5.460
 4641SOL    HW114822   2.378   3.771   5.442
 4641SOL    HW214823   2.508   3.847   5.378
 4642SOL     OW14824   5.705   5.601   4.700
 4642SOL    HW114825   5.716   5.694   4.736
 4642SOL    HW214826   5.617   5.593   4.655
 4643SOL     OW14827   4.650   3.885   1.289
 4643SOL    HW114828   4.726   3.904   1.351
 4643SOL    HW214829   4.566   3.870   1.341
 4644SOL     OW14830   3.419   4.735   5.554
 4644SOL    HW114831   3.410   4.805   5.624
 4644SOL    HW214832   3.373   4.764   5.471
 4645SOL     OW14833   1.703   6.345   4.602
 4645SOL    HW114834   1.686   6.271   4.667
 4645SOL    HW214835   1.786   6.325   4.550
 4646SOL     OW14836   3.508   1.352   1.168
 4646SOL    HW114837   3.588   1.352   1.109
 4646SOL    HW214838   3.428   1.383   1.116
 4647SOL     OW14839   6.388   0.574   5.288
 4647SOL    HW114840   6.317   0.524   5.339
 4647SOL    HW214841   6.457   0.509   5.257
 4648SOL     OW14842   2.339   6.345   3.497
 4648SOL    HW114843   2.248   6.344   3.455
 4648SOL    HW214844   2.378   6.437   3.491
 4649SOL     OW14845   6.018   5.469   5.650
 4649SOL    HW114846   5.921   5.477   5.673
 4649SOL    HW214847   6.029   5.468   5.551
 4650SOL     OW14848   6.442   4.911   1.528
 4650SOL    HW114849   6.514   4.889   1.594
 4650SOL    HW214850   6.425   5.010   1.530
 4651SOL     OW14851   5.964   1.928   1.876
 4651SOL    HW114852   5.867   1.900   1.877
 4651SOL    HW214853   6.021   1.849   1.898
 4652SOL     OW14854   0.054   6.172   5.528
 4652SOL    HW114855   7.015   6.203   5.452
 4652SOL    HW214856   0.144   6.144   5.493
 4653SOL     OW14857   1.807   4.914   0.227
 4653SOL    HW114858   1.815   4.837   0.163
 4653SOL    HW214859   1.876   4.983   0.205
 4654SOL     OW14860   1.468   1.681   0.701
 4654SOL    HW114861   1.394   1.672   0.634
 4654SOL    HW214862   1.538   1.612   0.683
 4655SOL     OW14863   0.613   5.261   4.397
 4655SOL    HW114864   0.518   5.231   4.394
 4655SOL    HW214865   0.618   5.359   4.379
 4656SOL     OW14866   2.841   0.703   2.844
 4656SOL    HW114867   2.753   0.736   2.812
 4656SOL    HW214868   2.853   0.729   2.940
 4657SOL     OW14869   6.576   0.705   5.851
 4657SOL    HW114870   6.575   0.681   5.948
 4657SOL    HW214871   6.669   0.695   5.816
 4658SOL     OW14872   5.471   0.140   3.869
 4658SOL    HW114873   5.538   0.129   3.942
 4658SOL    HW214874   5.428   0.230   3.876
 4659SOL     OW14875   2.074   3.298   4.041
 4659SOL    HW114876   1.992   3.338   4.001
 4659SOL    HW214877   2.105   3.221   3.986
 4660SOL     OW14878   6.373   1.332   5.056
 4660SOL    HW114879   6.456   1.382   5.078
 4660SOL    HW214880   6.392   1.267   4.982
 4661SOL     OW14881   3.368   3.120   3.800
 4661SOL    HW114882   3.403   3.171   3.879
 4661SOL    HW214883   3.440   3.110   3.732
 4662SOL     OW14884   6.089   6.492   4.825
 4662SOL    HW114885   6.174   6.528   4.786
 4662SOL    HW214886   6.110   6.439   4.907
 4663SOL     OW14887   0.537   2.110   2.444
 4663SOL    HW114888   0.532   2.062   2.531
 4663SOL    HW214889   0.633   2.126   2.421
 4664SOL     OW14890   3.642   4.672   0.124
 4664SOL    HW114891   3.642   4.729   0.206
 4664SOL    HW214892   3.688   4.585   0.144
 4665SOL     OW14893   5.996   0.715   6.056
 4665SOL    HW114894   5.972   0.781   5.984
 4665SOL    HW214895   5.985   0.757   6.145
 4666SOL     OW14896   1.876   1.164   0.559
 4666SOL    HW114897   1.855   1.193   0.466
 4666SOL    HW214898   1.945   1.091   0.557
 4667SOL     OW14899   0.427   6.391   4.270
 4667SOL    HW114900   0.487   6.383   4.349
 4667SOL    HW214901   0.334   6.361   4.294
 4668SOL     OW14902   5.865   1.083   5.083
 4668SOL    HW114903   5.825   1.066   4.992
 4668SOL    HW214904   5.957   1.121   5.072
 4669SOL     OW14905   2.390   1.992   2.426
 4669SOL    HW114906   2.323   2.063   2.449
 4669SOL    HW214907   2.479   2.035   2.410
 4670SOL     OW14908   2.739   1.977   4.498
 4670SOL    HW114909   2.774   1.948   4.587
 4670SOL    HW214910   2.678   1.906   4.462
 4671SOL     OW14911   5.964   1.891   2.710
 4671SOL    HW114912   5.921   1.944   2.636
 4671SOL    HW214913   5.906   1.894   2.791
 4672SOL     OW14914   2.921   2.238   5.191
 4672SOL    HW114915   2.901   2.297   5.270
 4672SOL    HW214916   3.014   2.256   5.159
 4673SOL     OW14917   5.243   0.476   2.035
 4673SOL    HW114918   5.160   0.451   2.085
 4673SOL    HW214919   5.314   0.408   2.055
 4674SOL     OW14920   4.306   6.633   5.581
 4674SOL    HW114921   4.343   6.606   5.493
 4674SOL    HW214922   4.215   6.673   5.569
 4675SOL     OW14923   0.914   4.243   6.256
 4675SOL    HW114924   0.868   4.156   6.240
 4675SOL    HW214925   1.006   4.227   6.291
 4676SOL     OW14926   1.153   4.826   3.699
 4676SOL    HW114927   1.204   4.753   3.654
 4676SOL    HW214928   1.098   4.789   3.773
 4677SOL     OW14929   0.912   3.498   0.625
 4677SOL    HW114930   0.940   3.409   0.590
 4677SOL    HW214931   0.902   3.562   0.548
 4678SOL     OW14932   1.401   2.265   1.321
 4678SOL    HW114933   1.320   2.226   1.366
 4678SOL    HW214934   1.414   2.359   1.353
 4679SOL     OW14935   4.885   0.403   2.236
 4679SOL    HW114936   4.786   0.415   2.228
 4679SOL    HW214937   4.919   0.350   2.159
 4680SOL     OW14938   2.718   0.963   6.823
 4680SOL    HW114939   2.684   0.869   6.831
 4680SOL    HW214940   2.808   0.970   6.866
 4681SOL     OW14941   4.787   5.476   2.174
 4681SOL    HW114942   4.782   5.424   2.260
 4681SOL    HW214943   4.762   5.571   2.191
 4682SOL     OW14944   3.672   3.004   6.181
 4682SOL    HW114945   3.741   3.061   6.137
 4682SOL    HW214946   3.646   3.043   6.269
 4683SOL     OW14947   6.819   4.114   4.300
 4683SOL    HW114948   6.862   4.024   4.299
 4683SOL    HW214949   6.821   4.153   4.207
 4684SOL     OW14950   5.338   0.342   5.656
 4684SOL    HW114951   5.376   0.253   5.633
 4684SOL    HW214952   5.405   0.413   5.635
 4685SOL     OW14953   3.276   4.074   3.959
 4685SOL    HW114954   3.183   4.106   3.936
 4685SOL    HW214955   3.271   4.007   4.033
 4686SOL     OW14956   1.351   0.066   6.758
 4686SOL    HW114957   1.330   7.007   6.699
 4686SOL    HW214958   1.411   0.129   6.710
 4687SOL     OW14959   1.127   0.490   2.518
 4687SOL    HW114960   1.143   0.413   2.456
 4687SOL    HW214961   1.081   0.457   2.601
 4688SOL     OW14962   5.236   2.645   4.840
 4688SOL    HW114963   5.178   2.584   4.894
 4688SOL    HW214964   5.328   2.609   4.836
 4689SOL     OW14965   6.881   0.924   1.280
 4689SOL    HW114966   6.954   0.941   1.347
 4689SOL    HW214967   6.887   0.992   1.207
 4690SOL     OW14968   3.668   2.333   1.399
 4690SOL    HW114969   3.651   2.418   1.450
 4690SOL    HW214970   3.743   2.283   1.443
 4691SOL     OW14971   6.486   3.436   1.940
 4691SOL    HW114972   6.429   3.361   1.974
 4691SOL    HW214973   6.562   3.451   2.003
 4692SOL     OW14974   5.683   2.904   3.259
 4692SOL    HW114975   5.668   2.806   3.244
 4692SOL    HW214976   5.636   2.932   3.343
 4693SOL     OW14977   6.714   0.276   4.205
 4693SOL    HW114978   6.783   0.204   4.195
 4693SOL    HW214979   6.642   0.245   4.267
 4694SOL     OW14980   2.097   6.735   5.762
 4694SOL    HW114981   2.099   6.672   5.685
 4694SOL    HW214982   2.111   6.685   5.847
 4695SOL     OW14983   2.057   4.819   1.922
 4695SOL    HW114984   2.152   4.791   1.935
 4695SOL    HW214985   2.049   4.918   1.937
 4696SOL     OW14986   2.174   6.458   6.182
 4696SOL    HW114987   2.117   6.536   6.158
 4696SOL    HW214988   2.271   6.482   6.171
 4697SOL     OW14989   4.320   5.877   1.206
 4697SOL    HW114990   4.312   5.825   1.291
 4697SOL    HW214991   4.324   5.814   1.128
 4698SOL     OW14992   5.317   1.514   4.822
 4698SOL    HW114993   5.242   1.453   4.847
 4698SOL    HW214994   5.293   1.564   4.739
 4699SOL     OW14995   0.783   1.593   2.646
 4699SOL    HW114996   0.871   1.553   2.673
 4699SOL    HW214997   0.751   1.549   2.562
 4700SOL     OW14998   6.823   2.056   3.602
 4700SOL    HW114999   6.748   2.075   3.538
 4700SOL    HW215000   6.872   2.141   3.621
 4701SOL     OW15001   2.999   2.736   1.767
 4701SOL    HW115002   3.000   2.651   1.820
 4701SOL    HW215003   2.905   2.756   1.738
 4702SOL     OW15004   5.995   5.056   1.233
 4702SOL    HW115005   6.050   5.122   1.284
 4702SOL    HW215006   6.056   4.996   1.181
 4703SOL     OW15007   0.056   4.880   4.080
 4703SOL    HW115008   0.140   4.858   4.030
 4703SOL    HW215009   7.002   4.816   4.055
 4704SOL     OW15010   1.365   4.926   4.704
 4704SOL    HW115011   1.461   4.914   4.678
 4704SOL    HW215012   1.359   4.941   4.803
 4705SOL     OW15013   2.970   2.159   1.359
 4705SOL    HW115014   2.940   2.220   1.286
 4705SOL    HW215015   2.928   2.069   1.347
 4706SOL     OW15016   1.921   1.675   0.982
 4706SOL    HW115017   1.900   1.748   1.046
 4706SOL    HW215018   1.871   1.592   1.008
 4707SOL     OW15019   1.950   5.509   2.369
 4707SOL    HW115020   1.958   5.575   2.294
 4707SOL    HW215021   1.856   5.508   2.403
 4708SOL     OW15022   2.004   2.866   6.686
 4708SOL    HW115023   1.957   2.910   6.763
 4708SOL    HW215024   1.940   2.806   6.639
 4709SOL     OW15025   5.929   3.495   4.967
 4709SOL    HW115026   5.864   3.419   4.961
 4709SOL    HW215027   5.892   3.575   4.919
 4710SOL     OW15028   5.831   5.102   5.346
 4710SOL    HW115029   5.738   5.121   5.378
 4710SOL    HW215030   5.857   5.009   5.370
 4711SOL     OW15031   4.644   4.333   2.711
 4711SOL    HW115032   4.693   4.281   2.642
 4711SOL    HW215033   4.634   4.278   2.794
 4712SOL     OW15034   4.226   4.872   6.121
 4712SOL    HW115035   4.152   4.926   6.161
 4712SOL    HW215036   4.302   4.866   6.186
 4713SOL     OW15037   5.331   4.939   1.185
 4713SOL    HW115038   5.334   4.845   1.150
 4713SOL    HW215039   5.253   4.949   1.248
 4714SOL     OW15040   4.576   1.999   5.975
 4714SOL    HW115041   4.634   1.919   5.963
 4714SOL    HW215042   4.619   2.063   6.038
 4715SOL     OW15043   0.080   1.474   1.783
 4715SOL    HW115044   7.006   1.512   1.791
 4715SOL    HW215045   0.095   1.408   1.856
 4716SOL     OW15046   3.767   4.393   5.525
 4716SOL    HW115047   3.710   4.323   5.568
 4716SOL    HW215048   3.757   4.387   5.426
 4717SOL     OW15049   1.838   4.924   6.155
 4717SOL    HW115050   1.868   4.860   6.084
 4717SOL    HW215051   1.918   4.961   6.203
 4718SOL     OW15052   4.998   3.491   2.735
 4718SOL    HW115053   4.939   3.565   2.704
 4718SOL    HW215054   4.977   3.407   2.685
 4719SOL     OW15055   5.930   3.924   4.197
 4719SOL    HW115056   5.849   3.894   4.146
 4719SOL    HW215057   6.009   3.923   4.136
 4720SOL     OW15058   0.820   2.021   6.063
 4720SOL    HW115059   0.911   2.011   6.022
 4720SOL    HW215060   0.830   2.052   6.157
 4721SOL     OW15061   0.575   3.059   2.586
 4721SOL    HW115062   0.514   2.991   2.627
 4721SOL    HW215063   0.655   3.071   2.645
 4722SOL     OW15064   1.769   5.348   5.766
 4722SOL    HW115065   1.791   5.445   5.776
 4722SOL    HW215066   1.777   5.303   5.854
 4723SOL     OW15067   3.214   4.320   5.939
 4723SOL    HW115068   3.206   4.398   6.000
 4723SOL    HW215069   3.309   4.290   5.935
 4724SOL     OW15070   0.129   0.642   4.202
 4724SOL    HW115071   0.181   0.683   4.276
 4724SOL    HW215072   0.075   0.565   4.236
 4725SOL     OW15073   5.945   5.502   1.511
 4725SOL    HW115074   6.014   5.501   1.439
 4725SOL    HW215075   5.857   5.473   1.474
 4726SOL     OW15076   1.999   2.712   6.204
 4726SOL    HW115077   2.031   2.629   6.159
 4726SOL    HW215078   2.052   2.790   6.170
 4727SOL     OW15079   5.931   5.706   1.696
 4727SOL    HW115080   5.914   5.634   1.629
 4727SOL    HW215081   6.025   5.698   1.731
 4728SOL     OW15082   4.118   1.011   3.430
 4728SOL    HW115083   4.077   1.101   3.418
 4728SOL    HW215084   4.177   1.011   3.511
 4729SOL     OW15085   0.421   1.419   2.826
 4729SOL    HW115086   0.498   1.445   2.884
 4729SOL    HW215087   0.351   1.375   2.881
 4730SOL     OW15088   2.866   0.627   3.578
 4730SOL    HW115089   2.916   0.712   3.594
 4730SOL    HW215090   2.777   0.649   3.538
 4731SOL     OW15091   3.405   6.735   2.321
 4731SOL    HW115092   3.312   6.720   2.354
 4731SOL    HW215093   3.402   6.748   2.222
 4732SOL     OW15094   0.278   4.664   4.810
 4732SOL    HW115095   0.278   4.610   4.725
 4732SOL    HW215096   0.187   4.660   4.852
 4733SOL     OW15097   2.115   3.961   3.291
 4733SOL    HW115098   2.124   3.919   3.381
 4733SOL    HW215099   2.068   3.898   3.229
 4734SOL     OW15100   4.734   4.442   6.481
 4734SOL    HW115101   4.685   4.423   6.396
 4734SOL    HW215102   4.703   4.530   6.518
 4735SOL     OW15103   0.147   1.072   5.561
 4735SOL    HW115104   0.226   1.093   5.618
 4735SOL    HW215105   0.174   1.006   5.491
 4736SOL     OW15106   6.220   0.389   5.053
 4736SOL    HW115107   6.219   0.364   5.149
 4736SOL    HW215108   6.314   0.399   5.022
 4737SOL     OW15109   2.258   5.267   0.079
 4737SOL    HW115110   2.205   5.351   0.063
 4737SOL    HW215111   2.248   5.240   0.175
 4738SOL     OW15112   0.133   5.664   3.483
 4738SOL    HW115113   0.223   5.702   3.464
 4738SOL    HW215114   0.105   5.604   3.409
 4739SOL     OW15115   5.951   3.599   2.950
 4739SOL    HW115116   6.021   3.648   2.899
 4739SOL    HW215117   5.983   3.507   2.973
 4740SOL     OW15118   1.892   6.528   0.870
 4740SOL    HW115119   1.795   6.507   0.883
 4740SOL    HW215120   1.901   6.620   0.832
 4741SOL     OW15121   5.988   4.537   1.968
 4741SOL    HW115122   5.924   4.463   1.949
 4741SOL    HW215123   5.995   4.549   2.067
 4742SOL     OW15124   2.213   5.680   2.172
 4742SOL    HW115125   2.116   5.673   2.146
 4742SOL    HW215126   2.252   5.589   2.182
 4743SOL     OW15127   2.773   3.535   0.376
 4743SOL    HW115128   2.798   3.490   0.290
 4743SOL    HW215129   2.804   3.481   0.453
 4744SOL     OW15130   2.968   1.453   5.920
 4744SOL    HW115131   3.017   1.512   5.983
 4744SOL    HW215132   2.869   1.470   5.927
 4745SOL     OW15133   4.322   5.982   4.240
 4745SOL    HW115134   4.373   5.919   4.299
 4745SOL    HW215135   4.225   5.957   4.241
 4746SOL     OW15136   5.755   1.524   0.963
 4746SOL    HW115137   5.756   1.618   0.997
 4746SOL    HW215138   5.668   1.481   0.987
 4747SOL     OW15139   0.990   2.593   2.388
 4747SOL    HW115140   1.061   2.551   2.445
 4747SOL    HW215141   1.032   2.662   2.329
 4748SOL     OW15142   2.308   6.337   0.282
 4748SOL    HW115143   2.293   6.399   0.206
 4748SOL    HW215144   2.288   6.243   0.254
 4749SOL     OW15145   3.778   1.329   7.010
 4749SOL    HW115146   3.679   1.345   7.001
 4749SOL    HW215147   3.793   1.234   0.020
 4750SOL     OW15148   0.712   1.813   5.067
 4750SOL    HW115149   0.654   1.770   5.137
 4750SOL    HW215150   0.800   1.838   5.108
 4751SOL     OW15151   1.142   4.023   6.698
 4751SOL    HW115152   1.138   4.123   6.694
 4751SOL    HW215153   1.061   3.989   6.746
 4752SOL     OW15154   1.763   6.209   1.129
 4752SOL    HW115155   1.818   6.274   1.182
 4752SOL    HW215156   1.706   6.155   1.191
 4753SOL     OW15157   0.232   0.809   6.345
 4753SOL    HW115158   0.275   0.741   6.285
 4753SOL    HW215159   0.228   0.774   6.438
 4754SOL     OW15160   1.487   1.242   6.462
 4754SOL    HW115161   1.405   1.219   6.409
 4754SOL    HW215162   1.461   1.299   6.540
 4755SOL     OW15163   2.896   0.062   3.032
 4755SOL    HW115164   2.851   0.074   3.120
 4755SOL    HW215165   2.971   7.015   3.041
 4756SOL     OW15166   5.709   2.286   1.086
 4756SOL    HW115167   5.696   2.191   1.059
 4756SOL    HW215168   5.749   2.337   1.011
 4757SOL     OW15169   2.370   3.030   0.768
 4757SOL    HW115170   2.394   2.976   0.848
 4757SOL    HW215171   2.397   3.125   0.783
 4758SOL     OW15172   6.247   3.901   6.478
 4758SOL    HW115173   6.268   3.970   6.548
 4758SOL    HW215174   6.294   3.924   6.393
 4759SOL     OW15175   6.986   4.072   6.732
 4759SOL    HW115176   7.010   3.983   6.770
 4759SOL    HW215177   0.034   4.141   6.763
 4760SOL     OW15178   0.879   2.800   0.202
 4760SOL    HW115179   0.831   2.754   0.276
 4760SOL    HW215180   0.973   2.820   0.230
 4761SOL     OW15181   3.001   6.206   6.733
 4761SOL    HW115182   2.979   6.220   6.636
 4761SOL    HW215183   2.925   6.238   6.789
 4762SOL     OW15184   3.614   0.130   2.771
 4762SOL    HW115185   3.547   0.181   2.824
 4762SOL    HW215186   3.702   0.130   2.818
 4763SOL     OW15187   4.883   4.864   4.839
 4763SOL    HW115188   4.941   4.806   4.782
 4763SOL    HW215189   4.940   4.929   4.889
 4764SOL     OW15190   3.342   3.452   3.887
 4764SOL    HW115191   3.401   3.531   3.905
 4764SOL    HW215192   3.386   3.370   3.924
 4765SOL     OW15193   5.905   5.838   6.182
 4765SOL    HW115194   5.918   5.760   6.244
 4765SOL    HW215195   5.993   5.882   6.166
 4766SOL     OW15196   2.870   1.688   3.634
 4766SOL    HW115197   2.932   1.610   3.649
 4766SOL    HW215198   2.823   1.677   3.547
 4767SOL     OW15199   4.549   0.712   6.799
 4767SOL    HW115200   4.490   0.680   6.873
 4767SOL    HW215201   4.536   0.810   6.785
 4768SOL     OW15202   1.643   0.587   5.594
 4768SOL    HW115203   1.688   0.562   5.679
 4768SOL    HW215204   1.711   0.598   5.522
 4769SOL     OW15205   4.729   0.532   1.764
 4769SOL    HW115206   4.633   0.507   1.770
 4769SOL    HW215207   4.749   0.604   1.831
 4770SOL     OW15208   2.581   1.238   3.926
 4770SOL    HW115209   2.596   1.200   4.017
 4770SOL    HW215210   2.507   1.306   3.931
 4771SOL     OW15211   4.088   4.609   6.171
 4771SOL    HW115212   4.071   4.555   6.089
 4771SOL    HW215213   4.138   4.692   6.147
 4772SOL     OW15214   3.530   2.875   7.009
 4772SOL    HW115215   3.550   2.810   6.936
 4772SOL    HW215216   3.614   2.923   0.017
 4773SOL     OW15217   6.825   4.887   4.856
 4773SOL    HW115218   6.890   4.947   4.811
 4773SOL    HW215219   6.794   4.929   4.941
 4774SOL     OW15220   2.063   4.381   0.050
 4774SOL    HW115221   2.025   4.291   0.069
 4774SOL    HW215222   2.137   4.401   0.114
 4775SOL     OW15223   1.823   2.833   2.378
 4775SOL    HW115224   1.765   2.832   2.460
 4775SOL    HW215225   1.890   2.906   2.386
 4776SOL     OW15226   4.300   5.291   1.616
 4776SOL    HW115227   4.356   5.215   1.584
 4776SOL    HW215228   4.344   5.335   1.695
 4777SOL     OW15229   1.605   4.422   1.302
 4777SOL    HW115230   1.657   4.370   1.234
 4777SOL    HW215231   1.659   4.432   1.385
 4778SOL     OW15232   5.394   3.092   2.853
 4778SOL    HW115233   5.418   3.004   2.894
 4778SOL    HW215234   5.477   3.136   2.819
 4779SOL     OW15235   5.543   1.412   2.731
 4779SOL    HW115236   5.613   1.444   2.796
 4779SOL    HW215237   5.510   1.490   2.678
 4780SOL     OW15238   1.797   1.705   5.399
 4780SOL    HW115239   1.795   1.677   5.303
 4780SOL    HW215240   1.722   1.768   5.417
 4781SOL     OW15241   2.699   5.257   2.805
 4781SOL    HW115242   2.610   5.263   2.851
 4781SOL    HW215243   2.771   5.253   2.874
 4782SOL     OW15244   6.081   6.373   0.100
 4782SOL    HW115245   6.085   6.300   0.168
 4782SOL    HW215246   6.143   6.351   0.024
 4783SOL     OW15247   5.756   4.321   3.259
 4783SOL    HW115248   5.672   4.269   3.247
 4783SOL    HW215249   5.736   4.405   3.310
 4784SOL     OW15250   5.024   4.444   4.564
 4784SOL    HW115251   5.101   4.415   4.507
 4784SOL    HW215252   4.947   4.468   4.504
 4785SOL     OW15253   5.672   6.002   0.769
 4785SOL    HW115254   5.723   5.996   0.683
 4785SOL    HW215255   5.580   5.966   0.757
 4786SOL     OW15256   1.630   4.173   2.807
 4786SOL    HW115257   1.602   4.133   2.720
 4786SOL    HW215258   1.645   4.271   2.796
 4787SOL     OW15259   3.961   2.183   2.585
 4787SOL    HW115260   4.000   2.162   2.675
 4787SOL    HW215261   4.024   2.244   2.536
 4788SOL     OW15262   2.548   0.443   4.726
 4788SOL    HW115263   2.453   0.456   4.699
 4788SOL    HW215264   2.551   0.406   4.819
 4789SOL     OW15265   5.166   5.712   6.933
 4789SOL    HW115266   5.148   5.770   7.012
 4789SOL    HW215267   5.094   5.644   6.924
 4790SOL     OW15268   5.440   6.857   6.659
 4790SOL    HW115269   5.510   6.873   6.728
 4790SOL    HW215270   5.479   6.807   6.582
 4791SOL     OW15271   4.358   2.424   3.232
 4791SOL    HW115272   4.273   2.453   3.190
 4791SOL    HW215273   4.428   2.411   3.162
 4792SOL     OW15274   3.396   3.041   0.739
 4792SOL    HW115275   3.346   2.973   0.793
 4792SOL    HW215276   3.395   3.013   0.642
 4793SOL     OW15277   0.490   0.766   0.342
 4793SOL    HW115278   0.467   0.844   0.284
 4793SOL    HW215279   0.576   0.783   0.390
 4794SOL     OW15280   5.724   0.872   1.902
 4794SOL    HW115281   5.742   0.797   1.965
 4794SOL    HW215282   5.803   0.933   1.898
 4795SOL     OW15283   5.862   2.337   4.199
 4795SOL    HW115284   5.931   2.404   4.173
 4795SOL    HW215285   5.790   2.382   4.251
 4796SOL     OW15286   4.941   3.744   0.171
 4796SOL    HW115287   4.936   3.807   0.094
 4796SOL    HW215288   4.859   3.753   0.228
 4797SOL     OW15289   1.348   5.834   4.810
 4797SOL    HW115290   1.447   5.829   4.794
 4797SOL    HW215291   1.319   5.752   4.859
 4798SOL     OW15292   0.094   5.570   6.053
 4798SOL    HW115293   0.023   5.597   5.988
 4798SOL    HW215294   0.105   5.641   6.122
 4799SOL     OW15295   5.112   1.848   3.815
 4799SOL    HW115296   5.079   1.850   3.721
 4799SOL    HW215297   5.081   1.764   3.860
 4800SOL     OW15298   1.368   3.135   3.889
 4800SOL    HW115299   1.463   3.127   3.918
 4800SOL    HW215300   1.312   3.165   3.967
 4801SOL     OW15301   0.066   1.692   0.702
 4801SOL    HW115302   0.106   1.660   0.616
 4801SOL    HW215303   0.085   1.790   0.712
 4802SOL     OW15304   1.928   0.233   2.015
 4802SOL    HW115305   1.894   0.147   1.978
 4802SOL    HW215306   1.912   0.235   2.114
 4803SOL     OW15307   1.021   6.798   1.236
 4803SOL    HW115308   0.968   6.879   1.209
 4803SOL    HW215309   1.012   6.784   1.335
 4804SOL     OW15310   4.311   5.229   0.497
 4804SOL    HW115311   4.398   5.221   0.449
 4804SOL    HW215312   4.242   5.267   0.436
 4805SOL     OW15313   0.298   6.679   2.217
 4805SOL    HW115314   0.228   6.705   2.151
 4805SOL    HW215315   0.357   6.610   2.177
 4806SOL     OW15316   6.998   2.277   3.691
 4806SOL    HW115317   6.992   2.333   3.774
 4806SOL    HW215318   0.026   2.329   3.619
 4807SOL     OW15319   0.875   0.444   2.991
 4807SOL    HW115320   0.804   0.504   2.955
 4807SOL    HW215321   0.854   0.422   3.086
 4808SOL     OW15322   0.037   1.941   0.461
 4808SOL    HW115323   6.957   1.923   0.457
 4808SOL    HW215324   0.060   1.983   0.549
 4809SOL     OW15325   4.808   6.963   0.288
 4809SOL    HW115326   4.815   0.044   0.294
 4809SOL    HW215327   4.884   6.927   0.233
 4810SOL     OW15328   2.200   6.518   6.654
 4810SOL    HW115329   2.175   6.421   6.649
 4810SOL    HW215330   2.146   6.563   6.724
 4811SOL     OW15331   5.260   3.986   4.080
 4811SOL    HW115332   5.263   3.962   3.983
 4811SOL    HW215333   5.341   4.038   4.104
 4812SOL     OW15334   6.595   5.263   3.761
 4812SOL    HW115335   6.637   5.261   3.671
 4812SOL    HW215336   6.504   5.222   3.756
 4813SOL     OW15337   5.534   3.654   2.745
 4813SOL    HW115338   5.540   3.595   2.826
 4813SOL    HW215339   5.443   3.649   2.706
 4814SOL     OW15340   0.335   3.048   1.673
 4814SOL    HW115341   0.430   3.073   1.652
 4814SOL    HW215342   0.312   2.964   1.624
 4815SOL     OW15343   4.735   0.731   3.733
 4815SOL    HW115344   4.781   0.728   3.822
 4815SOL    HW215345   4.726   0.826   3.703
 4816SOL     OW15346   5.935   4.439   4.636
 4816SOL    HW115347   6.026   4.456   4.599
 4816SOL    HW215348   5.897   4.357   4.594
 4817SOL     OW15349   6.236   1.693   6.727
 4817SOL    HW115350   6.191   1.721   6.642
 4817SOL    HW215351   6.261   1.774   6.779
 4818SOL     OW15352   0.074   6.246   3.659
 4818SOL    HW115353   0.032   6.170   3.709
 4818SOL    HW215354   0.128   6.210   3.583
 4819SOL     OW15355   1.427   3.193   0.846
 4819SOL    HW115356   1.465   3.110   0.806
 4819SOL    HW215357   1.496   3.265   0.846
 4820SOL     OW15358   6.702   3.501   2.082
 4820SOL    HW115359   6.726   3.472   2.175
 4820SOL    HW215360   6.710   3.600   2.074
 4821SOL     OW15361   0.520   5.684   3.865
 4821SOL    HW115362   0.483   5.770   3.899
 4821SOL    HW215363   0.613   5.671   3.900
 4822SOL     OW15364   2.785   4.974   4.300
 4822SOL    HW115365   2.744   5.006   4.385
 4822SOL    HW215366   2.804   4.876   4.307
 4823SOL     OW15367   1.476   2.198   0.570
 4823SOL    HW115368   1.472   2.292   0.604
 4823SOL    HW215369   1.391   2.150   0.593
 4824SOL     OW15370   6.734   2.176   6.834
 4824SOL    HW115371   6.682   2.200   6.916
 4824SOL    HW215372   6.821   2.134   6.860
 4825SOL     OW15373   1.329   5.946   3.618
 4825SOL    HW115374   1.354   5.868   3.677
 4825SOL    HW215375   1.259   5.917   3.553
 4826SOL     OW15376   4.314   6.947   0.280
 4826SOL    HW115377   4.409   6.914   0.275
 4826SOL    HW215378   4.314   0.029   0.286
 4827SOL     OW15379   5.930   1.052   1.868
 4827SOL    HW115380   5.889   1.128   1.818
 4827SOL    HW215381   6.024   1.075   1.894
 4828SOL     OW15382   5.273   1.008   6.237
 4828SOL    HW115383   5.279   0.920   6.190
 4828SOL    HW215384   5.223   0.996   6.323
 4829SOL     OW15385   4.596   5.583   4.999
 4829SOL    HW115386   4.593   5.682   4.987
 4829SOL    HW215387   4.659   5.560   5.072
 4830SOL     OW15388   1.753   6.569   3.556
 4830SOL    HW115389   1.719   6.481   3.588
 4830SOL    HW215390   1.741   6.575   3.457
 4831SOL     OW15391   3.220   4.512   5.427
 4831SOL    HW115392   3.140   4.462   5.393
 4831SOL    HW215393   3.193   4.605   5.451
 4832SOL     OW15394   3.721   3.196   4.029
 4832SOL    HW115395   3.740   3.191   3.931
 4832SOL    HW215396   3.751   3.111   4.073
 4833SOL     OW15397   6.105   2.199   5.166
 4833SOL    HW115398   6.095   2.214   5.068
 4833SOL    HW215399   6.024   2.153   5.202
 4834SOL     OW15400   0.869   5.190   1.116
 4834SOL    HW115401   0.933   5.113   1.113
 4834SOL    HW215402   0.837   5.210   1.023
 4835SOL     OW15403   0.076   3.351   6.383
 4835SOL    HW115404   0.130   3.429   6.414
 4835SOL    HW215405   6.998   3.365   6.408
 4836SOL     OW15406   4.211   1.077   5.766
 4836SOL    HW115407   4.164   0.989   5.755
 4836SOL    HW215408   4.304   1.061   5.798
 4837SOL     OW15409   1.680   3.667   4.741
 4837SOL    HW115410   1.616   3.732   4.781
 4837SOL    HW215411   1.673   3.579   4.787
 4838SOL     OW15412   2.222   4.090   5.764
 4838SOL    HW115413   2.255   4.059   5.675
 4838SOL    HW215414   2.256   4.183   5.781
 4839SOL     OW15415   2.610   0.724   1.747
 4839SOL    HW115416   2.585   0.695   1.840
 4839SOL    HW215417   2.709   0.739   1.743
 4840SOL     OW15418   4.978   2.562   3.363
 4840SOL    HW115419   4.923   2.646   3.367
 4840SOL    HW215420   4.921   2.487   3.329
 4841SOL     OW15421   2.638   5.093   3.033
 4841SOL    HW115422   2.568   5.161   3.008
 4841SOL    HW215423   2.687   5.125   3.113
 4842SOL     OW15424   4.514   4.918   3.398
 4842SOL    HW115425   4.569   4.994   3.364
 4842SOL    HW215426   4.569   4.834   3.395
 4843SOL     OW15427   5.722   2.682   0.095
 4843SOL    HW115428   5.788   2.626   0.045
 4843SOL    HW215429   5.696   2.761   0.040
 4844SOL     OW15430   0.819   4.880   6.693
 4844SOL    HW115431   0.736   4.893   6.638
 4844SOL    HW215432   0.859   4.791   6.673
 4845SOL     OW15433   5.460   4.231   4.651
 4845SOL    HW115434   5.428   4.144   4.614
 4845SOL    HW215435   5.381   4.285   4.682
 4846SOL     OW15436   6.664   4.155   4.501
 4846SOL    HW115437   6.718   4.136   4.582
 4846SOL    HW215438   6.724   4.155   4.420
 4847SOL     OW15439   2.858   6.949   6.843
 4847SOL    HW115440   2.841   6.962   6.746
 4847SOL    HW215441   2.955   6.965   6.863
 4848SOL     OW15442   4.512   1.508   3.641
 4848SOL    HW115443   4.517   1.518   3.740
 4848SOL    HW215444   4.500   1.411   3.617
 4849SOL     OW15445   1.448   5.609   1.896
 4849SOL    HW115446   1.386   5.608   1.817
 4849SOL    HW215447   1.448   5.700   1.937
 4850SOL     OW15448   3.504   0.325   2.203
 4850SOL    HW115449   3.494   0.424   2.189
 4850SOL    HW215450   3.460   0.299   2.289
 4851SOL     OW15451   4.538   4.618   6.738
 4851SOL    HW115452   4.605   4.655   6.675
 4851SOL    HW215453   4.564   4.525   6.764
 4852SOL     OW15454   4.787   3.886   5.514
 4852SOL    HW115455   4.826   3.896   5.606
 4852SOL    HW215456   4.763   3.790   5.499
 4853SOL     OW15457   4.219   0.778   2.976
 4853SOL    HW115458   4.205   0.761   3.074
 4853SOL    HW215459   4.201   0.874   2.956
 4854SOL     OW15460   4.015   6.802   2.116
 4854SOL    HW115461   3.972   6.808   2.026
 4854SOL    HW215462   3.962   6.854   2.183
 4855SOL     OW15463   4.307   4.809   5.426
 4855SOL    HW115464   4.308   4.909   5.434
 4855SOL    HW215465   4.318   4.783   5.330
 4856SOL     OW15466   0.945   2.406   1.867
 4856SOL    HW115467   1.010   2.465   1.914
 4856SOL    HW215468   0.853   2.443   1.877
 4857SOL     OW15469   2.706   1.877   5.821
 4857SOL    HW115470   2.672   1.953   5.766
 4857SOL    HW215471   2.785   1.907   5.874
 4858SOL     OW15472   2.467   5.288   5.092
 4858SOL    HW115473   2.498   5.205   5.138
 4858SOL    HW215474   2.517   5.300   5.006
 4859SOL     OW15475   6.770   5.388   3.214
 4859SOL    HW115476   6.713   5.364   3.135
 4859SOL    HW215477   6.718   5.446   3.277
 4860SOL     OW15478   3.858   5.190   1.297
 4860SOL    HW115479   3.925   5.188   1.372
 4860SOL    HW215480   3.906   5.204   1.210
 4861SOL     OW15481   5.715   4.783   4.632
 4861SOL    HW115482   5.675   4.873   4.612
 4861SOL    HW215483   5.814   4.786   4.619
 4862SOL     OW15484   1.579   5.261   4.405
 4862SOL    HW115485   1.562   5.272   4.308
 4862SOL    HW215486   1.505   5.304   4.457
 4863SOL     OW15487   5.841   1.546   1.437
 4863SOL    HW115488   5.919   1.534   1.499
 4863SOL    HW215489   5.869   1.525   1.343
 4864SOL     OW15490   2.657   2.944   1.705
 4864SOL    HW115491   2.559   2.960   1.695
 4864SOL    HW215492   2.674   2.845   1.706
 4865SOL     OW15493   4.073   0.192   5.005
 4865SOL    HW115494   4.118   0.259   5.064
 4865SOL    HW215495   4.029   0.122   5.061
 4866SOL     OW15496   0.704   5.096   1.891
 4866SOL    HW115497   0.620   5.100   1.837
 4866SOL    HW215498   0.783   5.096   1.829
 4867SOL     OW15499   5.732   4.630   5.792
 4867SOL    HW115500   5.792   4.630   5.872
 4867SOL    HW215501   5.775   4.577   5.719
 4868SOL     OW15502   2.209   5.770   1.693
 4868SOL    HW115503   2.192   5.672   1.704
 4868SOL    HW215504   2.252   5.806   1.776
 4869SOL     OW15505   0.330   2.159   1.652
 4869SOL    HW115506   0.260   2.139   1.720
 4869SOL    HW215507   0.288   2.202   1.572
 4870SOL     OW15508   5.859   1.181   1.150
 4870SOL    HW115509   5.862   1.164   1.052
 4870SOL    HW215510   5.886   1.276   1.169
 4871SOL     OW15511   1.656   2.629   5.077
 4871SOL    HW115512   1.719   2.642   5.000
 4871SOL    HW215513   1.709   2.625   5.162
 4872SOL     OW15514   2.272   2.797   2.396
 4872SOL    HW115515   2.308   2.831   2.309
 4872SOL    HW215516   2.290   2.699   2.403
 4873SOL     OW15517   1.138   6.547   5.687
 4873SOL    HW115518   1.060   6.514   5.740
 4873SOL    HW215519   1.130   6.515   5.593
 4874SOL     OW15520   5.808   1.491   4.063
 4874SOL    HW115521   5.819   1.535   3.974
 4874SOL    HW215522   5.752   1.550   4.122
 4875SOL     OW15523   6.826   2.990   0.726
 4875SOL    HW115524   6.840   3.023   0.633
 4875SOL    HW215525   6.750   2.926   0.728
 4876SOL     OW15526   6.686   1.210   6.723
 4876SOL    HW115527   6.663   1.229   6.628
 4876SOL    HW215528   6.753   1.277   6.755
 4877SOL     OW15529   4.291   1.805   1.850
 4877SOL    HW115530   4.206   1.767   1.812
 4877SOL    HW215531   4.360   1.733   1.855
 4878SOL     OW15532   1.245   2.786   2.444
 4878SOL    HW115533   1.145   2.786   2.432
 4878SOL    HW215534   1.287   2.836   2.369
 4879SOL     OW15535   3.737   6.382   3.393
 4879SOL    HW115536   3.751   6.425   3.304
 4879SOL    HW215537   3.641   6.386   3.419
 4880SOL     OW15538   6.653   2.157   6.041
 4880SOL    HW115539   6.740   2.145   6.088
 4880SOL    HW215540   6.585   2.094   6.080
 4881SOL     OW15541   2.954   6.468   5.921
 4881SOL    HW115542   2.985   6.562   5.904
 4881SOL    HW215543   2.861   6.457   5.886
 4882SOL     OW15544   5.416   5.888   6.645
 4882SOL    HW115545   5.477   5.843   6.579
 4882SOL    HW215546   5.436   5.986   6.648
 4883SOL     OW15547   6.001   5.865   0.357
 4883SOL    HW115548   5.961   5.894   0.270
 4883SOL    HW215549   5.993   5.765   0.366
 4884SOL     OW15550   4.563   5.944   1.821
 4884SOL    HW115551   4.595   6.027   1.868
 4884SOL    HW215552   4.580   5.954   1.723
 4885SOL     OW15553   1.423   0.728   2.377
 4885SOL    HW115554   1.346   0.744   2.439
 4885SOL    HW215555   1.480   0.811   2.372
 4886SOL     OW15556   6.378   1.380   6.087
 4886SOL    HW115557   6.368   1.373   5.988
 4886SOL    HW215558   6.296   1.423   6.126
 4887SOL     OW15559   0.051   2.301   5.478
 4887SOL    HW115560   0.092   2.273   5.564
 4887SOL    HW215561   0.123   2.319   5.411
 4888SOL     OW15562   4.499   6.101   1.264
 4888SOL    HW115563   4.574   6.109   1.198
 4888SOL    HW215564   4.434   6.033   1.233
 4889SOL     OW15565   1.519   3.284   6.429
 4889SOL    HW115566   1.430   3.266   6.386
 4889SOL    HW215567   1.591   3.243   6.373
 4890SOL     OW15568   6.764   0.535   4.435
 4890SOL    HW115569   6.739   0.607   4.498
 4890SOL    HW215570   6.747   0.565   4.341
 4891SOL     OW15571   1.300   4.885   0.714
 4891SOL    HW115572   1.244   4.901   0.632
 4891SOL    HW215573   1.296   4.788   0.739
 4892SOL     OW15574   1.926   5.712   2.170
 4892SOL    HW115575   1.915   5.810   2.153
 4892SOL    HW215576   1.838   5.667   2.162
 4893SOL     OW15577   6.905   4.588   6.284
 4893SOL    HW115578   6.930   4.597   6.381
 4893SOL    HW215579   6.867   4.675   6.251
 4894SOL     OW15580   0.248   6.881   3.630
 4894SOL    HW115581   0.283   6.788   3.615
 4894SOL    HW215582   0.289   6.944   3.564
 4895SOL     OW15583   6.568   4.142   6.422
 4895SOL    HW115584   6.571   4.108   6.516
 4895SOL    HW215585   6.526   4.232   6.421
 4896SOL     OW15586   4.576   0.761   4.841
 4896SOL    HW115587   4.611   0.845   4.800
 4896SOL    HW215588   4.501   0.783   4.904
 4897SOL     OW15589   2.592   5.549   0.029
 4897SOL    HW115590   2.651   5.609   0.084
 4897SOL    HW215591   2.592   5.457   0.069
 4898SOL     OW15592   4.979   2.656   4.560
 4898SOL    HW115593   5.034   2.683   4.639
 4898SOL    HW215594   5.039   2.625   4.486
 4899SOL     OW15595   0.137   3.203   4.396
 4899SOL    HW115596   0.193   3.286   4.404
 4899SOL    HW215597   0.066   3.204   4.466
 4900SOL     OW15598   0.560   6.795   5.946
 4900SOL    HW115599   0.546   6.888   5.914
 4900SOL    HW215600   0.478   6.764   5.995
 4901SOL     OW15601   6.063   6.307   3.069
 4901SOL    HW115602   5.964   6.321   3.062
 4901SOL    HW215603   6.086   6.214   3.041
 4902SOL     OW15604   3.232   5.432   0.546
 4902SOL    HW115605   3.164   5.359   0.547
 4902SOL    HW215606   3.320   5.397   0.577
 4903SOL     OW15607   5.792   4.603   6.592
 4903SOL    HW115608   5.870   4.550   6.560
 4903SOL    HW215609   5.769   4.673   6.524
 4904SOL     OW15610   2.948   0.863   3.953
 4904SOL    HW115611   2.941   0.800   4.031
 4904SOL    HW215612   2.942   0.957   3.985
 4905SOL     OW15613   5.983   3.829   3.207
 4905SOL    HW115614   6.055   3.859   3.145
 4905SOL    HW215615   5.940   3.909   3.250
 4906SOL     OW15616   4.576   0.133   1.741
 4906SOL    HW115617   4.619   0.179   1.819
 4906SOL    HW215618   4.477   0.130   1.755
 4907SOL     OW15619   2.789   2.645   1.181
 4907SOL    HW115620   2.762   2.710   1.252
 4907SOL    HW215621   2.889   2.637   1.181
 4908SOL     OW15622   5.413   4.588   6.161
 4908SOL    HW115623   5.394   4.490   6.155
 4908SOL    HW215624   5.424   4.626   6.069
 4909SOL     OW15625   6.260   6.888   5.570
 4909SOL    HW115626   6.272   6.832   5.488
 4909SOL    HW215627   6.322   6.967   5.566
 4910SOL     OW15628   5.677   6.996   5.536
 4910SOL    HW115629   5.686   6.896   5.539
 4910SOL    HW215630   5.672   0.007   5.440
 4911SOL     OW15631   0.466   4.288   6.670
 4911SOL    HW115632   0.376   4.288   6.627
 4911SOL    HW215633   0.534   4.254   6.605
 4912SOL     OW15634   1.905   3.023   2.090
 4912SOL    HW115635   1.964   3.096   2.054
 4912SOL    HW215636   1.959   2.940   2.104
 4913SOL     OW15637   2.828   3.101   1.849
 4913SOL    HW115638   2.784   3.042   1.781
 4913SOL    HW215639   2.780   3.189   1.852
 4914SOL     OW15640   1.160   0.086   2.768
 4914SOL    HW115641   1.239   0.025   2.771
 4914SOL    HW215642   1.084   0.045   2.818
 4915SOL     OW15643   3.890   6.490   4.054
 4915SOL    HW115644   3.796   6.456   4.064
 4915SOL    HW215645   3.917   6.487   3.958
 4916SOL     OW15646   1.338   1.617   1.995
 4916SOL    HW115647   1.261   1.585   2.051
 4916SOL    HW215648   1.421   1.567   2.021
 4917SOL     OW15649   0.993   5.563   6.294
 4917SOL    HW115650   0.968   5.486   6.235
 4917SOL    HW215651   1.049   5.628   6.242
 4918SOL     OW15652   2.269   6.545   4.261
 4918SOL    HW115653   2.366   6.561   4.276
 4918SOL    HW215654   2.222   6.632   4.246
 4919SOL     OW15655   2.324   3.017   1.133
 4919SOL    HW115656   2.316   3.084   1.059
 4919SOL    HW215657   2.261   3.041   1.207
 4920SOL     OW15658   3.143   1.819   6.584
 4920SOL    HW115659   3.171   1.836   6.490
 4920SOL    HW215660   3.090   1.897   6.618
 4921SOL     OW15661   6.486   4.683   2.091
 4921SOL    HW115662   6.578   4.666   2.058
 4921SOL    HW215663   6.440   4.748   2.030
 4922SOL     OW15664   1.071   3.395   6.037
 4922SOL    HW115665   1.120   3.475   6.072
 4922SOL    HW215666   1.115   3.364   5.953
 4923SOL     OW15667   3.348   2.380   6.984
 4923SOL    HW115668   3.350   2.468   6.938
 4923SOL    HW215669   3.433   2.331   6.967
 4924SOL     OW15670   0.252   2.988   4.258
 4924SOL    HW115671   0.217   3.004   4.166
 4924SOL    HW215672   0.191   3.032   4.325
 4925SOL     OW15673   4.720   5.258   5.027
 4925SOL    HW115674   4.719   5.316   5.109
 4925SOL    HW215675   4.779   5.179   5.045
 4926SOL     OW15676   4.265   3.399   0.583
 4926SOL    HW115677   4.203   3.476   0.567
 4926SOL    HW215678   4.246   3.327   0.517
 4927SOL     OW15679   2.823   3.625   1.901
 4927SOL    HW115680   2.906   3.675   1.922
 4927SOL    HW215681   2.770   3.611   1.985
 4928SOL     OW15682   0.133   1.486   6.290
 4928SOL    HW115683   0.080   1.490   6.206
 4928SOL    HW215684   0.072   1.488   6.369
 4929SOL     OW15685   1.240   4.422   4.497
 4929SOL    HW115686   1.298   4.493   4.538
 4929SOL    HW215687   1.180   4.384   4.568
 4930SOL     OW15688   0.110   3.637   7.011
 4930SOL    HW115689   0.127   3.633   6.913
 4930SOL    HW215690   0.129   3.547   0.034
 4931SOL     OW15691   5.308   6.490   0.922
 4931SOL    HW115692   5.282   6.421   0.989
 4931SOL    HW215693   5.375   6.553   0.963
 4932SOL     OW15694   3.527   1.631   0.798
 4932SOL    HW115695   3.471   1.712   0.776
 4932SOL    HW215696   3.593   1.655   0.869
 4933SOL     OW15697   2.319   6.945   4.995
 4933SOL    HW115698   2.373   0.006   5.021
 4933SOL    HW215699   2.279   6.903   5.076
 4934SOL     OW15700   2.019   6.196   5.492
 4934SOL    HW115701   2.053   6.108   5.525
 4934SOL    HW215702   2.095   6.260   5.486
 4935SOL     OW15703   1.664   2.500   0.522
 4935SOL    HW115704   1.706   2.561   0.589
 4935SOL    HW215705   1.571   2.476   0.552
 4936SOL     OW15706   6.883   4.422   1.143
 4936SOL    HW115707   6.866   4.343   1.202
 4936SOL    HW215708   6.800   4.478   1.137
 4937SOL     OW15709   0.521   3.979   5.453
 4937SOL    HW115710   0.486   3.964   5.545
 4937SOL    HW215711   0.505   4.074   5.426
 4938SOL     OW15712   3.305   4.351   0.857
 4938SOL    HW115713   3.352   4.271   0.820
 4938SOL    HW215714   3.210   4.327   0.878
 4939SOL     OW15715   0.639   1.639   1.373
 4939SOL    HW115716   0.721   1.617   1.321
 4939SOL    HW215717   0.613   1.734   1.356
 4940SOL     OW15718   1.964   1.345   4.884
 4940SOL    HW115719   1.944   1.276   4.814
 4940SOL    HW215720   2.012   1.302   4.960
 4941SOL     OW15721   3.391   2.090   6.133
 4941SOL    HW115722   3.418   2.177   6.173
 4941SOL    HW215723   3.293   2.092   6.112
 4942SOL     OW15724   0.179   1.272   2.498
 4942SOL    HW115725   0.231   1.187   2.489
 4942SOL    HW215726   0.235   1.340   2.546
 4943SOL     OW15727   4.721   2.567   6.864
 4943SOL    HW115728   4.645   2.541   6.924
 4943SOL    HW215729   4.783   2.627   6.914
 4944SOL     OW15730   0.677   5.008   0.710
 4944SOL    HW115731   0.695   4.963   0.797
 4944SOL    HW215732   0.585   4.984   0.679
 4945SOL     OW15733   2.372   0.626   6.462
 4945SOL    HW115734   2.280   0.650   6.491
 4945SOL    HW215735   2.413   0.565   6.530
 4946SOL     OW15736   2.584   5.924   0.151
 4946SOL    HW115737   2.510   5.986   0.176
 4946SOL    HW215738   2.562   5.879   0.065
 4947SOL     OW15739   1.075   0.268   1.354
 4947SOL    HW115740   1.159   0.261   1.408
 4947SOL    HW215741   1.075   0.355   1.304
 4948SOL     OW15742   1.576   3.373   2.178
 4948SOL    HW115743   1.507   3.349   2.110
 4948SOL    HW215744   1.647   3.303   2.180
 4949SOL     OW15745   6.596   5.078   6.759
 4949SOL    HW115746   6.590   5.000   6.821
 4949SOL    HW215747   6.504   5.114   6.743
 4950SOL     OW15748   4.058   3.966   5.789
 4950SOL    HW115749   4.084   3.877   5.825
 4950SOL    HW215750   4.137   4.027   5.790
 4951SOL     OW15751   4.704   5.054   3.686
 4951SOL    HW115752   4.652   4.977   3.724
 4951SOL    HW215753   4.730   5.033   3.592
 4952SOL     OW15754   0.997   0.929   6.964
 4952SOL    HW115755   1.090   0.896   6.982
 4952SOL    HW215756   0.947   0.861   6.911
 4953SOL     OW15757   1.159   1.099   6.057
 4953SOL    HW115758   1.082   1.085   5.994
 4953SOL    HW215759   1.206   1.184   6.035
 4954SOL     OW15760   3.471   3.904   5.749
 4954SOL    HW115761   3.384   3.897   5.701
 4954SOL    HW215762   3.527   3.823   5.731
 4955SOL     OW15763   3.620   6.013   0.231
 4955SOL    HW115764   3.631   5.921   0.269
 4955SOL    HW215765   3.607   6.006   0.132
 4956SOL     OW15766   2.126   0.194   3.921
 4956SOL    HW115767   2.087   0.189   3.829
 4956SOL    HW215768   2.136   0.101   3.958
 4957SOL     OW15769   5.904   5.596   0.065
 4957SOL    HW115770   5.806   5.579   0.074
 4957SOL    HW215771   5.933   5.581   6.989
 4958SOL     OW15772   3.188   5.160   0.339
 4958SOL    HW115773   3.221   5.128   0.427
 4958SOL    HW215774   3.119   5.231   0.353
 4959SOL     OW15775   1.884   1.502   3.019
 4959SOL    HW115776   1.832   1.480   2.936
 4959SOL    HW215777   1.882   1.601   3.033
 4960SOL     OW15778   5.248   3.603   4.550
 4960SOL    HW115779   5.327   3.658   4.578
 4960SOL    HW215780   5.195   3.578   4.630
 4961SOL     OW15781   3.832   2.922   2.142
 4961SOL    HW115782   3.831   2.828   2.176
 4961SOL    HW215783   3.760   2.933   2.074
 4962SOL     OW15784   1.833   2.248   0.471
 4962SOL    HW115785   1.779   2.325   0.504
 4962SOL    HW215786   1.778   2.164   0.476
 4963SOL     OW15787   0.446   3.740   6.711
 4963SOL    HW115788   0.508   3.696   6.647
 4963SOL    HW215789   0.496   3.768   6.793
 4964SOL     OW15790   1.136   5.394   3.777
 4964SOL    HW115791   1.096   5.343   3.701
 4964SOL    HW215792   1.097   5.362   3.863
 4965SOL     OW15793   2.558   0.730   2.754
 4965SOL    HW115794   2.489   0.727   2.682
 4965SOL    HW215795   2.525   0.678   2.833
 4966SOL     OW15796   4.206   0.103   5.634
 4966SOL    HW115797   4.196   0.200   5.659
 4966SOL    HW215798   4.248   0.097   5.543
 4967SOL     OW15799   4.836   4.458   3.192
 4967SOL    HW115800   4.770   4.528   3.165
 4967SOL    HW215801   4.788   4.375   3.219
 4968SOL     OW15802   6.315   2.875   3.383
 4968SOL    HW115803   6.314   2.944   3.310
 4968SOL    HW215804   6.362   2.793   3.350
 4969SOL     OW15805   1.139   5.820   4.382
 4969SOL    HW115806   1.088   5.902   4.406
 4969SOL    HW215807   1.075   5.750   4.349
 4970SOL     OW15808   2.222   1.149   1.375
 4970SOL    HW115809   2.288   1.099   1.318
 4970SOL    HW215810   2.216   1.244   1.343
 4971SOL     OW15811   0.083   6.212   1.958
 4971SOL    HW115812   0.047   6.120   1.975
 4971SOL    HW215813   0.136   6.243   2.037
 4972SOL     OW15814   0.388   3.552   0.559
 4972SOL    HW115815   0.360   3.532   0.653
 4972SOL    HW215816   0.464   3.491   0.533
 4973SOL     OW15817   5.349   2.427   0.193
 4973SOL    HW115818   5.257   2.427   0.232
 4973SOL    HW215819   5.364   2.512   0.143
 4974SOL     OW15820   3.118   0.436   5.340
 4974SOL    HW115821   3.039   0.478   5.386
 4974SOL    HW215822   3.126   0.472   5.248
 4975SOL     OW15823   5.772   4.272   1.044
 4975SOL    HW115824   5.798   4.292   0.950
 4975SOL    HW215825   5.719   4.348   1.081
 4976SOL     OW15826   0.897   0.222   3.739
 4976SOL    HW115827   0.843   0.256   3.663
 4976SOL    HW215828   0.841   0.221   3.822
 4977SOL     OW15829   1.066   3.263   4.767
 4977SOL    HW115830   1.033   3.356   4.783
 4977SOL    HW215831   1.161   3.266   4.738
 4978SOL     OW15832   6.171   5.422   4.553
 4978SOL    HW115833   6.075   5.437   4.530
 4978SOL    HW215834   6.218   5.381   4.474
 4979SOL     OW15835   3.754   6.389   6.332
 4979SOL    HW115836   3.765   6.346   6.422
 4979SOL    HW215837   3.740   6.488   6.344
 4980SOL     OW15838   5.589   2.997   3.846
 4980SOL    HW115839   5.668   3.049   3.812
 4980SOL    HW215840   5.620   2.933   3.917
 4981SOL     OW15841   3.180   6.518   2.970
 4981SOL    HW115842   3.094   6.566   2.991
 4981SOL    HW215843   3.194   6.515   2.871
 4982SOL     OW15844   3.733   1.694   4.756
 4982SOL    HW115845   3.714   1.782   4.801
 4982SOL    HW215846   3.740   1.708   4.657
 4983SOL     OW15847   5.189   3.720   3.055
 4983SOL    HW115848   5.176   3.781   2.976
 4983SOL    HW215849   5.200   3.775   3.138
 4984SOL     OW15850   4.964   3.579   5.262
 4984SOL    HW115851   5.005   3.549   5.175
 4984SOL    HW215852   4.868   3.550   5.265
 4985SOL     OW15853   4.877   0.184   2.395
 4985SOL    HW115854   4.937   0.122   2.345
 4985SOL    HW215855   4.870   0.271   2.347
 4986SOL     OW15856   1.565   5.668   1.087
 4986SOL    HW115857   1.586   5.577   1.125
 4986SOL    HW215858   1.543   5.731   1.161
 4987SOL     OW15859   2.270   3.948   1.835
 4987SOL    HW115860   2.210   3.882   1.881
 4987SOL    HW215861   2.216   4.024   1.800
 4988SOL     OW15862   6.290   5.221   4.036
 4988SOL    HW115863   6.315   5.205   3.940
 4988SOL    HW215864   6.373   5.230   4.091
 4989SOL     OW15865   6.832   0.003   4.212
 4989SOL    HW115866   6.870   6.931   4.236
 4989SOL    HW215867   6.906   0.069   4.202
 4990SOL     OW15868   5.063   1.931   5.757
 4990SOL    HW115869   5.046   1.887   5.668
 4990SOL    HW215870   4.978   1.969   5.792
 4991SOL     OW15871   2.410   5.522   5.232
 4991SOL    HW115872   2.406   5.560   5.139
 4991SOL    HW215873   2.451   5.432   5.229
 4992SOL     OW15874   2.677   2.818   5.590
 4992SOL    HW115875   2.761   2.763   5.581
 4992SOL    HW215876   2.602   2.772   5.544
 4993SOL     OW15877   2.240   5.273   3.515
 4993SOL    HW115878   2.171   5.250   3.446
 4993SOL    HW215879   2.221   5.223   3.599
 4994SOL     OW15880   2.682   4.866   5.452
 4994SOL    HW115881   2.589   4.899   5.438
 4994SOL    HW215882   2.742   4.942   5.478
 4995SOL     OW15883   0.432   1.975   5.893
 4995SOL    HW115884   0.357   1.917   5.924
 4995SOL    HW215885   0.396   2.064   5.864
 4996SOL     OW15886   0.078   0.773   4.798
 4996SOL    HW115887   0.071   0.827   4.714
 4996SOL    HW215888   0.139   0.820   4.862
 4997SOL     OW15889   4.045   1.552   0.579
 4997SOL    HW115890   4.057   1.455   0.599
 4997SOL    HW215891   3.959   1.583   0.619
 4998SOL     OW15892   0.983   4.108   3.623
 4998SOL    HW115893   0.923   4.188   3.617
 4998SOL    HW215894   0.995   4.069   3.532
 4999SOL     OW15895   6.745   2.750   3.237
 4999SOL    HW115896   6.841   2.752   3.261
 4999SOL    HW215897   6.715   2.655   3.227
 5000SOL     OW15898   2.910   6.637   3.080
 5000SOL    HW115899   2.913   6.544   3.118
 5000SOL    HW215900   2.978   6.694   3.125
 5001SOL     OW15901   0.106   6.130   3.289
 5001SOL    HW115902   0.077   6.224   3.271
 5001SOL    HW215903   0.035   6.067   3.257
 5002SOL     OW15904   0.878   5.407   3.961
 5002SOL    HW115905   0.932   5.373   4.038
 5002SOL    HW215906   0.784   5.373   3.968
 5003SOL     OW15907   3.895   1.511   0.829
 5003SOL    HW115908   3.848   1.436   0.782
 5003SOL    HW215909   3.827   1.569   0.876
 5004SOL     OW15910   4.259   6.515   0.348
 5004SOL    HW115911   4.228   6.481   0.436
 5004SOL    HW215912   4.358   6.531   0.351
 5005SOL     OW15913   4.342   3.048   1.084
 5005SOL    HW115914   4.309   2.964   1.126
 5005SOL    HW215915   4.440   3.040   1.067
 5006SOL     OW15916   4.624   0.858   2.728
 5006SOL    HW115917   4.710   0.807   2.721
 5006SOL    HW215918   4.589   0.850   2.821
 5007SOL     OW15919   6.514   4.998   2.727
 5007SOL    HW115920   6.553   4.973   2.638
 5007SOL    HW215921   6.490   5.096   2.726
 5008SOL     OW15922   4.672   6.995   3.718
 5008SOL    HW115923   4.625   0.003   3.802
 5008SOL    HW215924   4.604   6.976   3.647
 5009SOL     OW15925   0.758   1.529   6.506
 5009SOL    HW115926   0.820   1.579   6.445
 5009SOL    HW215927   0.684   1.488   6.452
 5010SOL     OW15928   4.958   4.393   1.084
 5010SOL    HW115929   4.967   4.432   1.175
 5010SOL    HW215930   4.957   4.293   1.091
 5011SOL     OW15931   1.652   2.056   5.813
 5011SOL    HW115932   1.605   1.986   5.759
 5011SOL    HW215933   1.671   2.021   5.904
 5012SOL     OW15934   6.078   2.905   5.494
 5012SOL    HW115935   6.139   2.976   5.529
 5012SOL    HW215936   6.129   2.845   5.433
 5013SOL     OW15937   5.556   6.016   5.139
 5013SOL    HW115938   5.488   6.082   5.105
 5013SOL    HW215939   5.547   6.006   5.238
 5014SOL     OW15940   6.394   3.528   0.906
 5014SOL    HW115941   6.483   3.520   0.861
 5014SOL    HW215942   6.357   3.437   0.924
 5015SOL     OW15943   6.116   4.927   4.196
 5015SOL    HW115944   6.081   5.015   4.163
 5015SOL    HW215945   6.156   4.877   4.119
 5016SOL     OW15946   1.004   1.733   6.305
 5016SOL    HW115947   1.036   1.778   6.221
 5016SOL    HW215948   1.077   1.734   6.373
 5017SOL     OW15949   1.196   3.012   1.975
 5017SOL    HW115950   1.202   2.912   1.979
 5017SOL    HW215951   1.121   3.039   1.915
 5018SOL     OW15952   0.569   0.501   0.261
 5018SOL    HW115953   0.544   0.582   0.314
 5018SOL    HW215954   0.637   0.448   0.313
 5019SOL     OW15955   2.094   4.301   3.959
 5019SOL    HW115956   2.016   4.311   4.022
 5019SOL    HW215957   2.064   4.253   3.877
 5020SOL     OW15958   1.877   6.984   3.482
 5020SOL    HW115959   1.904   6.910   3.543
 5020SOL    HW215960   1.782   7.010   3.501
 5021SOL     OW15961   2.824   0.507   1.702
 5021SOL    HW115962   2.852   0.591   1.749
 5021SOL    HW215963   2.874   0.498   1.617
 5022SOL     OW15964   0.015   3.412   1.492
 5022SOL    HW115965   0.033   3.349   1.568
 5022SOL    HW215966   0.083   3.399   1.421
 5023SOL     OW15967   0.856   2.484   2.759
 5023SOL    HW115968   0.939   2.451   2.804
 5023SOL    HW215969   0.776   2.457   2.812
 5024SOL     OW15970   4.295   4.191   6.734
 5024SOL    HW115971   4.250   4.198   6.823
 5024SOL    HW215972   4.389   4.223   6.742
 5025SOL     OW15973   5.241   2.117   4.983
 5025SOL    HW115974   5.246   2.183   4.908
 5025SOL    HW215975   5.163   2.139   5.041
 5026SOL     OW15976   4.963   5.733   4.833
 5026SOL    HW115977   4.908   5.739   4.750
 5026SOL    HW215978   4.946   5.814   4.890
 5027SOL     OW15979   5.274   6.194   1.047
 5027SOL    HW115980   5.371   6.200   1.026
 5027SOL    HW215981   5.225   6.151   0.971
 5028SOL     OW15982   6.598   1.823   2.073
 5028SOL    HW115983   6.575   1.912   2.113
 5028SOL    HW215984   6.663   1.776   2.132
 5029SOL     OW15985   5.643   2.643   3.171
 5029SOL    HW115986   5.571   2.598   3.223
 5029SOL    HW215987   5.662   2.591   3.088
 5030SOL     OW15988   0.446   2.958   0.949
 5030SOL    HW115989   0.469   2.971   0.853
 5030SOL    HW215990   0.525   2.984   1.005
 5031SOL     OW15991   6.560   0.176   5.955
 5031SOL    HW115992   6.654   0.171   5.921
 5031SOL    HW215993   6.529   0.271   5.956
 5032SOL     OW15994   2.575   4.644   6.147
 5032SOL    HW115995   2.632   4.564   6.168
 5032SOL    HW215996   2.623   4.703   6.082
 5033SOL     OW15997   2.042   6.700   4.142
 5033SOL    HW115998   2.054   6.601   4.129
 5033SOL    HW215999   1.953   6.727   4.105
 5034SOL     OW16000   4.216   5.736   3.709
 5034SOL    HW116001   4.264   5.682   3.778
 5034SOL    HW216002   4.141   5.683   3.670
 5035SOL     OW16003   1.426   3.609   3.655
 5035SOL    HW116004   1.418   3.662   3.570
 5035SOL    HW216005   1.513   3.629   3.699
 5036SOL     OW16006   1.318   3.286   4.694
 5036SOL    HW116007   1.383   3.268   4.767
 5036SOL    HW216008   1.329   3.218   4.622
 5037SOL     OW16009   5.585   4.480   1.082
 5037SOL    HW116010   5.518   4.409   1.059
 5037SOL    HW216011   5.593   4.544   1.005
 5038SOL     OW16012   3.033   3.897   4.548
 5038SOL    HW116013   3.111   3.855   4.595
 5038SOL    HW216014   2.962   3.828   4.533
 5039SOL     OW16015   0.617   3.109   6.671
 5039SOL    HW116016   0.694   3.164   6.639
 5039SOL    HW216017   0.551   3.168   6.717
 5040SOL     OW16018   0.531   1.702   5.216
 5040SOL    HW116019   0.589   1.681   5.295
 5040SOL    HW216020   0.435   1.683   5.240
 5041SOL     OW16021   6.667   2.753   0.939
 5041SOL    HW116022   6.571   2.749   0.969
 5041SOL    HW216023   6.720   2.803   1.007
 5042SOL     OW16024   0.806   1.650   5.717
 5042SOL    HW116025   0.789   1.586   5.643
 5042SOL    HW216026   0.721   1.700   5.738
 5043SOL     OW16027   3.214   6.922   1.981
 5043SOL    HW116028   3.161   6.862   2.041
 5043SOL    HW216029   3.266   6.987   2.036
 5044SOL     OW16030   0.494   6.105   0.999
 5044SOL    HW116031   0.396   6.091   0.984
 5044SOL    HW216032   0.512   6.115   1.097
 5045SOL     OW16033   5.970   2.951   1.814
 5045SOL    HW116034   6.027   3.003   1.751
 5045SOL    HW216035   6.017   2.867   1.840
 5046SOL     OW16036   4.092   3.144   2.164
 5046SOL    HW116037   4.105   3.231   2.115
 5046SOL    HW216038   4.182   3.108   2.190
 5047SOL     OW16039   2.026   4.122   3.793
 5047SOL    HW116040   1.936   4.086   3.769
 5047SOL    HW216041   2.072   4.059   3.856
 5048SOL     OW16042   1.963   0.195   5.709
 5048SOL    HW116043   2.054   0.154   5.718
 5048SOL    HW216044   1.894   0.123   5.713
 5049SOL     OW16045   3.758   1.663   6.602
 5049SOL    HW116046   3.836   1.606   6.577
 5049SOL    HW216047   3.675   1.607   6.608
 5050SOL     OW16048   1.052   0.370   1.008
 5050SOL    HW116049   1.012   0.432   1.075
 5050SOL    HW216050   1.093   0.423   0.933
 5051SOL     OW16051   4.214   4.367   1.018
 5051SOL    HW116052   4.155   4.303   1.068
 5051SOL    HW216053   4.217   4.341   0.922
 5052SOL     OW16054   1.840   3.522   4.217
 5052SOL    HW116055   1.916   3.467   4.252
 5052SOL    HW216056   1.755   3.492   4.259
 5053SOL     OW16057   6.508   0.784   0.808
 5053SOL    HW116058   6.517   0.688   0.783
 5053SOL    HW216059   6.555   0.800   0.895
 5054SOL     OW16060   4.135   5.098   3.110
 5054SOL    HW116061   4.072   5.137   3.178
 5054SOL    HW216062   4.211   5.053   3.158
 5055SOL     OW16063   0.031   4.438   5.323
 5055SOL    HW116064   0.043   4.538   5.322
 5055SOL    HW216065   6.975   4.414   5.385
 5056SOL     OW16066   6.733   4.748   3.194
 5056SOL    HW116067   6.728   4.844   3.224
 5056SOL    HW216068   6.649   4.725   3.145
 5057SOL     OW16069   6.747   6.354   2.336
 5057SOL    HW116070   6.798   6.357   2.250
 5057SOL    HW216071   6.752   6.444   2.380
 5058SOL     OW16072   2.825   5.328   5.530
 5058SOL    HW116073   2.854   5.401   5.592
 5058SOL    HW216074   2.809   5.366   5.439
 5059SOL     OW16075   7.000   0.010   1.932
 5059SOL    HW116076   6.906   0.008   1.965
 5059SOL    HW216077   0.016   0.104   1.934
 5060SOL     OW16078   0.083   2.672   6.637
 5060SOL    HW116079   0.165   2.712   6.679
 5060SOL    HW216080   0.059   2.723   6.554
 5061SOL     OW16081   5.911   3.438   0.674
 5061SOL    HW116082   5.819   3.456   0.638
 5061SOL    HW216083   5.909   3.441   0.774
 5062SOL     OW16084   6.318   0.011   6.953
 5062SOL    HW116085   6.286   0.103   6.931
 5062SOL    HW216086   6.340   0.006   0.032
 5063SOL     OW16087   0.947   6.553   2.761
 5063SOL    HW116088   0.933   6.468   2.710
 5063SOL    HW216089   0.858   6.591   2.786
 5064SOL     OW16090   5.540   4.023   0.139
 5064SOL    HW116091   5.594   3.953   0.092
 5064SOL    HW216092   5.498   4.084   0.072
 5065SOL     OW16093   2.715   6.704   6.118
 5065SOL    HW116094   2.746   6.611   6.136
 5065SOL    HW216095   2.625   6.719   6.159
 5066SOL     OW16096   5.079   4.907   0.348
 5066SOL    HW116097   5.110   5.001   0.337
 5066SOL    HW216098   5.156   4.849   0.374
 5067SOL     OW16099   5.561   0.928   6.405
 5067SOL    HW116100   5.467   0.914   6.371
 5067SOL    HW216101   5.626   0.895   6.336
 5068SOL     OW16102   3.210   5.045   1.401
 5068SOL    HW116103   3.233   4.983   1.476
 5068SOL    HW216104   3.250   5.011   1.316
 5069SOL     OW16105   6.909   5.325   3.450
 5069SOL    HW116106   6.893   5.408   3.504
 5069SOL    HW216107   6.878   5.340   3.356
 5070SOL     OW16108   5.106   2.326   3.703
 5070SOL    HW116109   5.110   2.279   3.615
 5070SOL    HW216110   5.026   2.386   3.706
 5071SOL     OW16111   5.263   0.813   1.351
 5071SOL    HW116112   5.351   0.856   1.328
 5071SOL    HW216113   5.235   0.753   1.277
 5072SOL     OW16114   0.495   4.184   2.209
 5072SOL    HW116115   0.413   4.170   2.153
 5072SOL    HW216116   0.544   4.265   2.176
 5073SOL     OW16117   3.961   2.231   3.287
 5073SOL    HW116118   3.948   2.197   3.194
 5073SOL    HW216119   4.013   2.316   3.284
 5074SOL     OW16120   3.981   4.265   5.240
 5074SOL    HW116121   3.993   4.226   5.331
 5074SOL    HW216122   4.070   4.288   5.201
 5075SOL     OW16123   6.775   0.270   4.531
 5075SOL    HW116124   6.777   0.363   4.494
 5075SOL    HW216125   6.703   0.218   4.484
 5076SOL     OW16126   5.453   0.501   1.066
 5076SOL    HW116127   5.457   0.439   1.145
 5076SOL    HW216128   5.474   0.449   0.983
 5077SOL     OW16129   6.833   1.458   2.505
 5077SOL    HW116130   6.824   1.378   2.564
 5077SOL    HW216131   6.917   1.451   2.452
 5078SOL     OW16132   0.224   1.735   4.745
 5078SOL    HW116133   0.242   1.769   4.837
 5078SOL    HW216134   0.274   1.649   4.730
 5079SOL     OW16135   4.638   5.018   4.806
 5079SOL    HW116136   4.679   5.108   4.786
 5079SOL    HW216137   4.711   4.951   4.817
 5080SOL     OW16138   5.640   0.401   5.977
 5080SOL    HW116139   5.708   0.472   5.999
 5080SOL    HW216140   5.686   0.313   5.967
 5081SOL     OW16141   3.136   3.515   3.162
 5081SOL    HW116142   3.064   3.451   3.187
 5081SOL    HW216143   3.096   3.599   3.126
 5082SOL     OW16144   0.846   2.072   5.291
 5082SOL    HW116145   0.900   2.047   5.210
 5082SOL    HW216146   0.775   2.137   5.264
 5083SOL     OW16147   1.007   3.764   2.189
 5083SOL    HW116148   1.039   3.763   2.284
 5083SOL    HW216149   0.921   3.815   2.183
 5084SOL     OW16150   1.337   5.839   2.293
 5084SOL    HW116151   1.364   5.876   2.205
 5084SOL    HW216152   1.384   5.752   2.309
 5085SOL     OW16153   6.284   3.873   0.510
 5085SOL    HW116154   6.305   3.787   0.555
 5085SOL    HW216155   6.323   3.949   0.563
 5086SOL     OW16156   6.279   5.485   4.796
 5086SOL    HW116157   6.356   5.545   4.773
 5086SOL    HW216158   6.251   5.435   4.713
 5087SOL     OW16159   5.115   5.161   5.644
 5087SOL    HW116160   5.069   5.073   5.635
 5087SOL    HW216161   5.049   5.235   5.629
 5088SOL     OW16162   6.165   0.974   6.507
 5088SOL    HW116163   6.124   1.052   6.460
 5088SOL    HW216164   6.102   0.942   6.579
 5089SOL     OW16165   5.349   2.855   3.884
 5089SOL    HW116166   5.291   2.879   3.962
 5089SOL    HW216167   5.422   2.923   3.874
 5090SOL     OW16168   1.043   4.823   0.153
 5090SOL    HW116169   1.143   4.820   0.145
 5090SOL    HW216170   1.013   4.751   0.215
 5091SOL     OW16171   0.675   5.946   3.737
 5091SOL    HW116172   0.679   5.989   3.827
 5091SOL    HW216173   0.701   6.012   3.667
 5092SOL     OW16174   3.195   2.825   0.778
 5092SOL    HW116175   3.157   2.796   0.691
 5092SOL    HW216176   3.191   2.749   0.843
 5093SOL     OW16177   0.563   1.268   2.630
 5093SOL    HW116178   0.546   1.185   2.683
 5093SOL    HW216179   0.534   1.348   2.683
 5094SOL     OW16180   0.786   0.086   6.615
 5094SOL    HW116181   0.764   0.154   6.545
 5094SOL    HW216182   0.704   0.033   6.637
 5095SOL     OW16183   3.261   6.905   5.406
 5095SOL    HW116184   3.228   6.817   5.440
 5095SOL    HW216185   3.187   6.972   5.411
 5096SOL     OW16186   3.457   6.318   2.423
 5096SOL    HW116187   3.370   6.357   2.394
 5096SOL    HW216188   3.465   6.224   2.390
 5097SOL     OW16189   1.079   2.283   6.916
 5097SOL    HW116190   1.154   2.342   6.886
 5097SOL    HW216191   1.116   2.206   6.968
 5098SOL     OW16192   1.280   2.336   2.857
 5098SOL    HW116193   1.367   2.365   2.897
 5098SOL    HW216194   1.222   2.416   2.841
 5099SOL     OW16195   0.578   1.337   3.949
 5099SOL    HW116196   0.647   1.275   3.986
 5099SOL    HW216197   0.536   1.297   3.868
 5100SOL     OW16198   5.084   4.773   5.344
 5100SOL    HW116199   5.102   4.763   5.247
 5100SOL    HW216200   5.166   4.748   5.396
 5101SOL     OW16201   5.326   6.123   0.466
 5101SOL    HW116202   5.266   6.124   0.386
 5101SOL    HW216203   5.401   6.059   0.451
 5102SOL     OW16204   3.688   6.223   4.060
 5102SOL    HW116205   3.605   6.180   4.095
 5102SOL    HW216206   3.743   6.256   4.137
 5103SOL     OW16207   1.207   2.356   3.490
 5103SOL    HW116208   1.210   2.385   3.586
 5103SOL    HW216209   1.284   2.294   3.471
 5104SOL     OW16210   0.700   0.372   0.766
 5104SOL    HW116211   0.787   0.332   0.737
 5104SOL    HW216212   0.625   0.330   0.715
 5105SOL     OW16213   1.680   2.836   0.138
 5105SOL    HW116214   1.679   2.926   0.093
 5105SOL    HW216215   1.674   2.764   0.069
 5106SOL     OW16216   2.145   6.895   2.068
 5106SOL    HW116217   2.096   6.963   2.122
 5106SOL    HW216218   2.226   6.937   2.027
 5107SOL     OW16219   1.707   0.187   6.132
 5107SOL    HW116220   1.712   0.261   6.200
 5107SOL    HW216221   1.622   0.196   6.080
 5108SOL     OW16222   3.683   3.767   4.714
 5108SOL    HW116223   3.724   3.855   4.691
 5108SOL    HW216224   3.599   3.754   4.661
 5109SOL     OW16225   0.249   2.085   2.275
 5109SOL    HW116226   0.253   2.139   2.191
 5109SOL    HW216227   0.340   2.080   2.316
 5110SOL     OW16228   2.060   5.543   5.674
 5110SOL    HW116229   2.127   5.468   5.674
 5110SOL    HW216230   2.016   5.549   5.585
 5111SOL     OW16231   1.223   0.586   6.410
 5111SOL    HW116232   1.217   0.519   6.484
 5111SOL    HW216233   1.143   0.576   6.350
 5112SOL     OW16234   0.317   7.016   3.407
 5112SOL    HW116235   0.385   0.033   3.343
 5112SOL    HW216236   0.265   6.942   3.363
 5113SOL     OW16237   0.738   1.077   6.817
 5113SOL    HW116238   0.763   1.147   6.750
 5113SOL    HW216239   0.818   1.020   6.836
 5114SOL     OW16240   4.809   5.280   6.426
 5114SOL    HW116241   4.813   5.249   6.332
 5114SOL    HW216242   4.713   5.286   6.455
 5115SOL     OW16243   2.692   3.929   5.259
 5115SOL    HW116244   2.719   3.835   5.239
 5115SOL    HW216245   2.596   3.942   5.234
 5116SOL     OW16246   6.751   3.644   1.219
 5116SOL    HW116247   6.696   3.684   1.292
 5116SOL    HW216248   6.705   3.564   1.182
 5117SOL     OW16249   2.452   5.276   2.933
 5117SOL    HW116250   2.404   5.313   3.013
 5117SOL    HW216251   2.389   5.222   2.878
 5118SOL     OW16252   3.934   0.111   1.016
 5118SOL    HW116253   3.951   0.148   1.107
 5118SOL    HW216254   3.886   0.023   1.024
 5119SOL     OW16255   6.047   0.509   2.602
 5119SOL    HW116256   5.998   0.441   2.548
 5119SOL    HW216257   6.030   0.492   2.699
 5120SOL     OW16258   3.778   1.276   0.687
 5120SOL    HW116259   3.851   1.207   0.684
 5120SOL    HW216260   3.700   1.239   0.737
 5121SOL     OW16261   0.797   4.233   4.475
 5121SOL    HW116262   0.757   4.141   4.480
 5121SOL    HW216263   0.817   4.265   4.568
 5122SOL     OW16264   2.671   5.495   2.681
 5122SOL    HW116265   2.754   5.551   2.689
 5122SOL    HW216266   2.691   5.402   2.713
 5123SOL     OW16267   6.271   2.947   2.388
 5123SOL    HW116268   6.209   2.874   2.360
 5123SOL    HW216269   6.295   2.936   2.484
 5124SOL     OW16270   3.709   6.727   0.210
 5124SOL    HW116271   3.729   6.651   0.148
 5124SOL    HW216272   3.662   6.693   0.291
 5125SOL     OW16273   0.664   1.889   6.329
 5125SOL    HW116274   0.627   1.982   6.330
 5125SOL    HW216275   0.761   1.890   6.353
 5126SOL     OW16276   4.775   1.654   0.401
 5126SOL    HW116277   4.873   1.638   0.399
 5126SOL    HW216278   4.737   1.640   0.309
 5127SOL     OW16279   4.804   3.558   5.941
 5127SOL    HW116280   4.798   3.542   6.039
 5127SOL    HW216281   4.753   3.488   5.892
 5128SOL     OW16282   0.003   0.390   6.966
 5128SOL    HW116283   6.938   0.358   7.012
 5128SOL    HW216284   0.072   0.415   0.016
 5129SOL     OW16285   4.537   2.486   3.887
 5129SOL    HW116286   4.474   2.424   3.932
 5129SOL    HW216287   4.600   2.524   3.954
 5130SOL     OW16288   2.157   6.868   4.788
 5130SOL    HW116289   2.217   6.875   4.708
 5130SOL    HW216290   2.196   6.921   4.863
 5131SOL     OW16291   2.912   4.877   3.035
 5131SOL    HW116292   2.927   4.932   3.116
 5131SOL    HW216293   2.817   4.847   3.032
 5132SOL     OW16294   3.185   1.880   6.313
 5132SOL    HW116295   3.154   1.975   6.319
 5132SOL    HW216296   3.131   1.832   6.244
 5133SOL     OW16297   4.076   4.397   6.360
 5133SOL    HW116298   4.073   4.478   6.301
 5133SOL    HW216299   3.987   4.385   6.404
 5134SOL     OW16300   6.202   5.770   0.991
 5134SOL    HW116301   6.280   5.811   1.038
 5134SOL    HW216302   6.123   5.768   1.051
 5135SOL     OW16303   1.016   2.838   2.211
 5135SOL    HW116304   1.046   2.922   2.256
 5135SOL    HW216305   0.936   2.859   2.154
 5136SOL     OW16306   6.798   0.166   4.803
 5136SOL    HW116307   6.729   0.097   4.778
 5136SOL    HW216308   6.845   0.198   4.720
 5137SOL     OW16309   5.180   0.803   3.208
 5137SOL    HW116310   5.141   0.892   3.187
 5137SOL    HW216311   5.108   0.742   3.242
 5138SOL     OW16312   3.394   3.675   2.761
 5138SOL    HW116313   3.305   3.712   2.788
 5138SOL    HW216314   3.397   3.577   2.782
 5139SOL     OW16315   5.167   0.948   4.805
 5139SOL    HW116316   5.085   0.988   4.765
 5139SOL    HW216317   5.144   0.905   4.893
 5140SOL     OW16318   2.796   3.710   5.886
 5140SOL    HW116319   2.868   3.714   5.817
 5140SOL    HW216320   2.740   3.793   5.882
 5141SOL     OW16321   0.861   2.900   1.504
 5141SOL    HW116322   0.942   2.843   1.515
 5141SOL    HW216323   0.888   2.994   1.488
 5142SOL     OW16324   6.828   6.675   2.946
 5142SOL    HW116325   6.845   6.607   3.017
 5142SOL    HW216326   6.912   6.724   2.926
 5143SOL     OW16327   6.304   6.134   2.573
 5143SOL    HW116328   6.283   6.133   2.475
 5143SOL    HW216329   6.222   6.159   2.624
 5144SOL     OW16330   1.523   2.868   5.017
 5144SOL    HW116331   1.585   2.923   5.073
 5144SOL    HW216332   1.547   2.771   5.027
 5145SOL     OW16333   1.384   4.851   6.002
 5145SOL    HW116334   1.308   4.829   5.941
 5145SOL    HW216335   1.361   4.824   6.096
 5146SOL     OW16336   5.172   5.809   6.676
 5146SOL    HW116337   5.269   5.827   6.662
 5146SOL    HW216338   5.158   5.770   6.767
 5147SOL     OW16339   4.554   1.389   2.848
 5147SOL    HW116340   4.575   1.292   2.838
 5147SOL    HW216341   4.505   1.404   2.934
 5148SOL     OW16342   6.027   1.447   0.753
 5148SOL    HW116343   6.076   1.533   0.735
 5148SOL    HW216344   6.059   1.409   0.840
 5149SOL     OW16345   3.187   6.459   3.628
 5149SOL    HW116346   3.213   6.500   3.715
 5149SOL    HW216347   3.088   6.452   3.622
 5150SOL     OW16348   6.684   0.653   4.196
 5150SOL    HW116349   6.662   0.750   4.191
 5150SOL    HW216350   6.693   0.615   4.104
 5151SOL     OW16351   5.284   4.545   2.082
 5151SOL    HW116352   5.233   4.556   1.996
 5151SOL    HW216353   5.240   4.475   2.138
 5152SOL     OW16354   2.347   1.285   0.465
 5152SOL    HW116355   2.315   1.348   0.535
 5152SOL    HW216356   2.286   1.288   0.386
 5153SOL     OW16357   1.983   2.190   0.218
 5153SOL    HW116358   1.921   2.218   0.291
 5153SOL    HW216359   2.032   2.270   0.183
 5154SOL     OW16360   0.832   2.912   6.664
 5154SOL    HW116361   0.851   2.952   6.753
 5154SOL    HW216362   0.765   2.968   6.615
 5155SOL     OW16363   1.403   0.598   0.388
 5155SOL    HW116364   1.381   0.615   0.292
 5155SOL    HW216365   1.497   0.563   0.394
 5156SOL     OW16366   5.146   3.950   6.005
 5156SOL    HW116367   5.071   3.886   5.992
 5156SOL    HW216368   5.211   3.942   5.929
 5157SOL     OW16369   3.816   1.293   1.752
 5157SOL    HW116370   3.810   1.264   1.847
 5157SOL    HW216371   3.739   1.353   1.729
 5158SOL     OW16372   1.937   2.931   2.725
 5158SOL    HW116373   1.869   2.998   2.694
 5158SOL    HW216374   2.028   2.969   2.713
 5159SOL     OW16375   6.769   2.922   5.916
 5159SOL    HW116376   6.829   2.867   5.858
 5159SOL    HW216377   6.767   2.883   6.008
 5160SOL     OW16378   6.579   0.476   3.063
 5160SOL    HW116379   6.545   0.437   2.977
 5160SOL    HW216380   6.600   0.573   3.050
 5161SOL     OW16381   1.099   1.895   6.533
 5161SOL    HW116382   1.053   1.835   6.598
 5161SOL    HW216383   1.197   1.897   6.552
 5162SOL     OW16384   0.224   0.004   5.828
 5162SOL    HW116385   0.171   6.999   5.910
 5162SOL    HW216386   0.165   0.051   5.762
 5163SOL     OW16387   3.188   0.953   1.308
 5163SOL    HW116388   3.248   1.030   1.286
 5163SOL    HW216389   3.145   0.968   1.397
 5164SOL     OW16390   2.787   2.975   0.134
 5164SOL    HW116391   2.797   3.025   0.220
 5164SOL    HW216392   2.786   2.877   0.153
 5165SOL     OW16393   0.934   5.196   5.581
 5165SOL    HW116394   0.971   5.192   5.675
 5165SOL    HW216395   0.995   5.146   5.520
 5166SOL     OW16396   6.534   6.239   5.504
 5166SOL    HW116397   6.583   6.153   5.489
 5166SOL    HW216398   6.436   6.221   5.507
 5167SOL     OW16399   6.460   3.448   6.019
 5167SOL    HW116400   6.403   3.502   6.081
 5167SOL    HW216401   6.550   3.433   6.062
 5168SOL     OW16402   5.121   1.322   3.559
 5168SOL    HW116403   5.173   1.402   3.588
 5168SOL    HW216404   5.030   1.350   3.526
 5169SOL     OW16405   5.110   6.058   4.589
 5169SOL    HW116406   5.198   6.076   4.543
 5169SOL    HW216407   5.048   6.013   4.524
 5170SOL     OW16408   2.533   3.590   6.264
 5170SOL    HW116409   2.570   3.575   6.172
 5170SOL    HW216410   2.503   3.502   6.302
 5171SOL     OW16411   1.823   6.462   5.659
 5171SOL    HW116412   1.783   6.472   5.750
 5171SOL    HW216413   1.781   6.528   5.597
 5172SOL     OW16414   4.759   5.229   5.438
 5172SOL    HW116415   4.840   5.286   5.441
 5172SOL    HW216416   4.786   5.134   5.421
 5173SOL     OW16417   4.329   6.141   3.917
 5173SOL    HW116418   4.299   6.234   3.939
 5173SOL    HW216419   4.428   6.138   3.914
 5174SOL     OW16420   0.556   5.955   3.279
 5174SOL    HW116421   0.575   5.920   3.371
 5174SOL    HW216422   0.641   5.967   3.229
 5175SOL     OW16423   2.924   1.813   6.167
 5175SOL    HW116424   2.877   1.895   6.201
 5175SOL    HW216425   2.900   1.735   6.225
 5176SOL     OW16426   5.516   6.259   6.443
 5176SOL    HW116427   5.613   6.237   6.442
 5176SOL    HW216428   5.473   6.218   6.524
 5177SOL     OW16429   5.539   5.402   1.123
 5177SOL    HW116430   5.532   5.326   1.188
 5177SOL    HW216431   5.612   5.383   1.057
 5178SOL     OW16432   0.888   3.993   0.629
 5178SOL    HW116433   0.934   4.072   0.669
 5178SOL    HW216434   0.811   4.023   0.573
 5179SOL     OW16435   4.000   5.278   2.636
 5179SOL    HW116436   3.966   5.189   2.606
 5179SOL    HW216437   3.926   5.329   2.681
 5180SOL     OW16438   2.917   5.231   2.073
 5180SOL    HW116439   2.919   5.225   1.973
 5180SOL    HW216440   2.999   5.279   2.105
 5181SOL     OW16441   6.539   1.462   5.584
 5181SOL    HW116442   6.614   1.509   5.630
 5181SOL    HW216443   6.455   1.517   5.592
 5182SOL     OW16444   2.239   6.080   2.283
 5182SOL    HW116445   2.217   5.987   2.314
 5182SOL    HW216446   2.339   6.091   2.280
 5183SOL     OW16447   5.639   1.773   3.728
 5183SOL    HW116448   5.686   1.791   3.642
 5183SOL    HW216449   5.634   1.858   3.782
 5184SOL     OW16450   3.188   1.447   1.874
 5184SOL    HW116451   3.098   1.413   1.902
 5184SOL    HW216452   3.177   1.528   1.817
 5185SOL     OW16453   6.515   0.385   1.290
 5185SOL    HW116454   6.451   0.407   1.217
 5185SOL    HW216455   6.466   0.373   1.376
 5186SOL     OW16456   5.646   2.331   6.362
 5186SOL    HW116457   5.601   2.258   6.311
 5186SOL    HW216458   5.723   2.294   6.413
 5187SOL     OW16459   1.355   4.868   5.223
 5187SOL    HW116460   1.385   4.847   5.316
 5187SOL    HW216461   1.260   4.838   5.211
 5188SOL     OW16462   0.233   0.453   2.061
 5188SOL    HW116463   0.195   0.500   2.141
 5188SOL    HW216464   0.327   0.484   2.045
 5189SOL     OW16465   5.269   6.187   6.307
 5189SOL    HW116466   5.345   6.201   6.371
 5189SOL    HW216467   5.303   6.150   6.221
 5190SOL     OW16468   1.341   5.243   0.593
 5190SOL    HW116469   1.328   5.211   0.687
 5190SOL    HW216470   1.255   5.234   0.543
 5191SOL     OW16471   3.143   4.094   1.333
 5191SOL    HW116472   3.097   4.180   1.309
 5191SOL    HW216473   3.125   4.026   1.262
 5192SOL     OW16474   0.708   4.240   2.829
 5192SOL    HW116475   0.754   4.182   2.762
 5192SOL    HW216476   0.629   4.191   2.866
 5193SOL     OW16477   3.844   0.253   4.424
 5193SOL    HW116478   3.796   0.333   4.390
 5193SOL    HW216479   3.804   0.225   4.511
 5194SOL     OW16480   4.221   1.272   5.556
 5194SOL    HW116481   4.195   1.228   5.470
 5194SOL    HW216482   4.210   1.207   5.631
 5195SOL     OW16483   1.659   1.232   5.067
 5195SOL    HW116484   1.619   1.280   5.145
 5195SOL    HW216485   1.615   1.143   5.057
 5196SOL     OW16486   5.840   6.118   2.859
 5196SOL    HW116487   5.784   6.114   2.776
 5196SOL    HW216488   5.849   6.213   2.889
 5197SOL     OW16489   2.220   3.813   5.629
 5197SOL    HW116490   2.209   3.883   5.558
 5197SOL    HW216491   2.131   3.793   5.670
 5198SOL     OW16492   6.459   5.784   4.227
 5198SOL    HW116493   6.552   5.749   4.213
 5198SOL    HW216494   6.396   5.707   4.241
 5199SOL     OW16495   0.914   5.768   1.516
 5199SOL    HW116496   0.814   5.772   1.511
 5199SOL    HW216497   0.949   5.715   1.439
 5200SOL     OW16498   6.893   3.864   5.135
 5200SOL    HW116499   6.846   3.794   5.189
 5200SOL    HW216500   6.987   3.835   5.118
 5201SOL     OW16501   0.781   5.774   4.383
 5201SOL    HW116502   0.704   5.710   4.379
 5201SOL    HW216503   0.819   5.772   4.476
 5202SOL     OW16504   0.308   4.934   1.566
 5202SOL    HW116505   0.234   4.985   1.611
 5202SOL    HW216506   0.314   4.961   1.470
 5203SOL     OW16507   6.624   3.156   6.787
 5203SOL    HW116508   6.557   3.096   6.743
 5203SOL    HW216509   6.700   3.101   6.823
 5204SOL     OW16510   5.698   5.225   6.118
 5204SOL    HW116511   5.611   5.273   6.105
 5204SOL    HW216512   5.773   5.279   6.081
 5205SOL     OW16513   2.377   5.938   0.436
 5205SOL    HW116514   2.383   5.852   0.486
 5205SOL    HW216515   2.412   6.012   0.492
 5206SOL     OW16516   0.407   4.168   4.982
 5206SOL    HW116517   0.390   4.265   4.996
 5206SOL    HW216518   0.503   4.148   5.003
 5207SOL     OW16519   1.599   6.357   2.728
 5207SOL    HW116520   1.501   6.377   2.725
 5207SOL    HW216521   1.644   6.403   2.652
 5208SOL     OW16522   4.679   2.297   0.249
 5208SOL    HW116523   4.773   2.283   0.216
 5208SOL    HW216524   4.632   2.209   0.252
 5209SOL     OW16525   6.299   5.377   3.231
 5209SOL    HW116526   6.281   5.282   3.208
 5209SOL    HW216527   6.305   5.431   3.147
 5210SOL     OW16528   5.112   3.433   3.379
 5210SOL    HW116529   5.024   3.473   3.352
 5210SOL    HW216530   5.178   3.506   3.397
 5211SOL     OW16531   2.989   4.063   1.796
 5211SOL    HW116532   2.993   4.049   1.895
 5211SOL    HW216533   2.930   4.141   1.776
 5212SOL     OW16534   0.883   6.851   6.567
 5212SOL    HW116535   0.973   6.826   6.531
 5212SOL    HW216536   0.880   6.949   6.587
 5213SOL     OW16537   4.771   1.564   6.480
 5213SOL    HW116538   4.861   1.567   6.437
 5213SOL    HW216539   4.710   1.630   6.436
 5214SOL     OW16540   4.956   2.288   0.149
 5214SOL    HW116541   4.950   2.361   0.218
 5214SOL    HW216542   4.998   2.324   0.066
 5215SOL     OW16543   5.733   5.581   4.222
 5215SOL    HW116544   5.695   5.546   4.136
 5215SOL    HW216545   5.832   5.584   4.216
 5216SOL     OW16546   3.758   5.851   0.960
 5216SOL    HW116547   3.820   5.900   1.023
 5216SOL    HW216548   3.777   5.753   0.965
 5217SOL     OW16549   2.901   5.457   3.790
 5217SOL    HW116550   2.834   5.489   3.856
 5217SOL    HW216551   2.896   5.357   3.783
 5218SOL     OW16552   0.913   0.716   3.276
 5218SOL    HW116553   0.937   0.812   3.290
 5218SOL    HW216554   0.856   0.684   3.352
 5219SOL     OW16555   3.094   0.034   0.850
 5219SOL    HW116556   3.096   7.016   0.756
 5219SOL    HW216557   3.065   0.130   0.848
 5220SOL     OW16558   0.662   6.208   2.523
 5220SOL    HW116559   0.679   6.127   2.579
 5220SOL    HW216560   0.670   6.184   2.426
 5221SOL     OW16561   4.696   0.701   0.561
 5221SOL    HW116562   4.744   0.755   0.492
 5221SOL    HW216563   4.762   0.643   0.609
 5222SOL     OW16564   0.016   6.327   2.445
 5222SOL    HW116565   6.976   6.277   2.381
 5222SOL    HW216566   6.980   6.398   2.489
 5223SOL     OW16567   4.516   6.700   1.657
 5223SOL    HW116568   4.519   6.657   1.567
 5223SOL    HW216569   4.572   6.784   1.656
 5224SOL     OW16570   5.643   0.738   3.857
 5224SOL    HW116571   5.565   0.780   3.810
 5224SOL    HW216572   5.655   0.644   3.826
 5225SOL     OW16573   0.048   6.491   5.641
 5225SOL    HW116574   0.050   6.480   5.541
 5225SOL    HW216575   6.974   6.519   5.669
 5226SOL     OW16576   2.261   0.922   3.824
 5226SOL    HW116577   2.355   0.955   3.832
 5226SOL    HW216578   2.199   1.000   3.809
 5227SOL     OW16579   5.779   3.572   4.671
 5227SOL    HW116580   5.732   3.616   4.747
 5227SOL    HW216581   5.875   3.602   4.669
 5228SOL     OW16582   4.807   0.061   1.975
 5228SOL    HW116583   4.743   0.031   2.045
 5228SOL    HW216584   4.783   0.153   1.944
 5229SOL     OW16585   0.492   4.389   3.975
 5229SOL    HW116586   0.441   4.305   3.991
 5229SOL    HW216587   0.577   4.387   4.028
 5230SOL     OW16588   0.502   1.464   6.877
 5230SOL    HW116589   0.560   1.402   6.930
 5230SOL    HW216590   0.408   1.430   6.878
 5231SOL     OW16591   2.997   3.931   3.357
 5231SOL    HW116592   2.932   3.996   3.398
 5231SOL    HW216593   3.060   3.981   3.298
 5232SOL     OW16594   5.333   2.830   4.617
 5232SOL    HW116595   5.289   2.900   4.561
 5232SOL    HW216596   5.283   2.820   4.703
 5233SOL     OW16597   0.961   7.013   2.946
 5233SOL    HW116598   0.947   6.936   3.008
 5233SOL    HW216599   0.893   0.065   2.964
 5234SOL     OW16600   3.572   4.308   1.492
 5234SOL    HW116601   3.526   4.363   1.562
 5234SOL    HW216602   3.655   4.355   1.462
 5235SOL     OW16603   1.172   2.028   1.788
 5235SOL    HW116604   1.148   2.088   1.864
 5235SOL    HW216605   1.123   1.941   1.798
 5236SOL     OW16606   6.187   3.084   0.430
 5236SOL    HW116607   6.245   3.104   0.509
 5236SOL    HW216608   6.137   3.166   0.402
 5237SOL     OW16609   2.000   2.316   2.487
 5237SOL    HW116610   1.932   2.243   2.488
 5237SOL    HW216611   1.961   2.398   2.446
 5238SOL     OW16612   2.036   3.467   1.218
 5238SOL    HW116613   2.118   3.450   1.273
 5238SOL    HW216614   1.983   3.383   1.209
 5239SOL     OW16615   2.778   3.292   5.416
 5239SOL    HW116616   2.864   3.265   5.459
 5239SOL    HW216617   2.728   3.210   5.388
 5240SOL     OW16618   3.824   1.727   4.124
 5240SOL    HW116619   3.889   1.705   4.197
 5240SOL    HW216620   3.800   1.643   4.076
 5241SOL     OW16621   4.290   5.706   5.623
 5241SOL    HW116622   4.299   5.772   5.699
 5241SOL    HW216623   4.199   5.664   5.627
 5242SOL     OW16624   3.747   0.568   5.742
 5242SOL    HW116625   3.784   0.488   5.790
 5242SOL    HW216626   3.770   0.651   5.792
 5243SOL     OW16627   1.550   4.048   0.436
 5243SOL    HW116628   1.596   4.041   0.524
 5243SOL    HW216629   1.576   4.135   0.392
 5244SOL     OW16630   6.238   3.196   6.706
 5244SOL    HW116631   6.199   3.197   6.798
 5244SOL    HW216632   6.280   3.284   6.686
 5245SOL     OW16633   4.814   4.558   5.921
 5245SOL    HW116634   4.768   4.496   5.858
 5245SOL    HW216635   4.878   4.507   5.978
 5246SOL     OW16636   1.342   3.787   3.473
 5246SOL    HW116637   1.255   3.766   3.429
 5246SOL    HW216638   1.396   3.847   3.413
 5247SOL     OW16639   0.604   4.497   0.216
 5247SOL    HW116640   0.512   4.500   0.176
 5247SOL    HW216641   0.600   4.533   0.309
 5248SOL     OW16642   5.119   1.281   0.454
 5248SOL    HW116643   5.104   1.184   0.437
 5248SOL    HW216644   5.053   1.335   0.402
 5249SOL     OW16645   0.970   5.225   0.018
 5249SOL    HW116646   0.889   5.257   0.068
 5249SOL    HW216647   1.029   5.172   0.080
 5250SOL     OW16648   1.385   1.450   5.587
 5250SOL    HW116649   1.373   1.484   5.494
 5250SOL    HW216650   1.475   1.407   5.595
 5251SOL     OW16651   0.739   2.554   1.580
 5251SOL    HW116652   0.722   2.642   1.625
 5251SOL    HW216653   0.670   2.538   1.510
 5252SOL     OW16654   5.333   5.875   1.021
 5252SOL    HW116655   5.295   5.942   1.084
 5252SOL    HW216656   5.397   5.816   1.070
 5253SOL     OW16657   5.958   3.239   4.071
 5253SOL    HW116658   5.980   3.186   3.989
 5253SOL    HW216659   5.859   3.246   4.081
 5254SOL     OW16660   5.323   0.624   4.433
 5254SOL    HW116661   5.396   0.563   4.402
 5254SOL    HW216662   5.357   0.718   4.437
 5255SOL     OW16663   2.365   5.831   2.835
 5255SOL    HW116664   2.395   5.744   2.874
 5255SOL    HW216665   2.404   5.906   2.889
 5256SOL     OW16666   4.575   6.052   2.158
 5256SOL    HW116667   4.647   5.998   2.200
 5256SOL    HW216668   4.615   6.120   2.097
 5257SOL     OW16669   2.714   1.433   2.780
 5257SOL    HW116670   2.745   1.373   2.706
 5257SOL    HW216671   2.785   1.499   2.802
 5258SOL     OW16672   5.698   2.039   1.593
 5258SOL    HW116673   5.657   2.075   1.509
 5258SOL    HW216674   5.702   1.939   1.587
 5259SOL     OW16675   6.018   5.064   1.714
 5259SOL    HW116676   5.963   5.023   1.642
 5259SOL    HW216677   5.977   5.045   1.803
 5260SOL     OW16678   4.988   2.906   1.918
 5260SOL    HW116679   5.043   2.878   1.996
 5260SOL    HW216680   4.915   2.967   1.948
 5261SOL     OW16681   2.403   2.734   5.040
 5261SOL    HW116682   2.387   2.832   5.046
 5261SOL    HW216683   2.501   2.717   5.032
 5262SOL     OW16684   0.903   0.255   1.572
 5262SOL    HW116685   0.869   0.336   1.620
 5262SOL    HW216686   0.960   0.283   1.495
 5263SOL     OW16687   1.618   7.010   6.950
 5263SOL    HW116688   1.521   7.007   6.929
 5263SOL    HW216689   1.669   0.022   6.868
 5264SOL     OW16690   0.931   0.310   0.631
 5264SOL    HW116691   0.978   0.225   0.656
 5264SOL    HW216692   0.978   0.388   0.673
 5265SOL     OW16693   5.316   4.916   3.866
 5265SOL    HW116694   5.280   4.994   3.918
 5265SOL    HW216695   5.397   4.879   3.913
 5266SOL     OW16696   1.564   6.942   1.469
 5266SOL    HW116697   1.494   6.925   1.400
 5266SOL    HW216698   1.654   6.945   1.425
 5267SOL     OW16699   4.000   3.845   5.002
 5267SOL    HW116700   3.960   3.936   4.998
 5267SOL    HW216701   3.930   3.780   5.034
 5268SOL     OW16702   5.669   5.056   5.800
 5268SOL    HW116703   5.629   5.023   5.886
 5268SOL    HW216704   5.625   5.141   5.773
 5269SOL     OW16705   2.705   5.741   5.523
 5269SOL    HW116706   2.619   5.743   5.472
 5269SOL    HW216707   2.766   5.812   5.488
 5270SOL     OW16708   6.776   1.919   3.142
 5270SOL    HW116709   6.727   1.838   3.109
 5270SOL    HW216710   6.805   1.904   3.237
 5271SOL     OW16711   5.298   3.675   5.143
 5271SOL    HW116712   5.313   3.580   5.116
 5271SOL    HW216713   5.377   3.708   5.194
 5272SOL     OW16714   2.466   2.296   3.547
 5272SOL    HW116715   2.405   2.255   3.614
 5272SOL    HW216716   2.419   2.371   3.500
 5273SOL     OW16717   6.773   0.947   5.692
 5273SOL    HW116718   6.733   0.901   5.613
 5273SOL    HW216719   6.724   1.032   5.710
 5274SOL     OW16720   0.627   5.035   4.801
 5274SOL    HW116721   0.704   5.055   4.861
 5274SOL    HW216722   0.659   5.020   4.708
 5275SOL     OW16723   2.267   6.507   0.086
 5275SOL    HW116724   2.273   6.601   0.122
 5275SOL    HW216725   2.282   6.509   7.005
 5276SOL     OW16726   6.970   0.629   0.280
 5276SOL    HW116727   6.974   0.728   0.269
 5276SOL    HW216728   7.018   0.604   0.365
 5277SOL     OW16729   0.499   1.111   1.579
 5277SOL    HW116730   0.559   1.039   1.615
 5277SOL    HW216731   0.534   1.142   1.490
 5278SOL     OW16732   0.120   4.840   6.234
 5278SOL    HW116733   0.078   4.931   6.241
 5278SOL    HW216734   0.100   4.802   6.143
 5279SOL     OW16735   2.610   6.304   0.185
 5279SOL    HW116736   2.589   6.273   0.092
 5279SOL    HW216737   2.524   6.328   0.232
 5280SOL     OW16738   4.905   6.004   5.943
 5280SOL    HW116739   4.846   6.067   5.891
 5280SOL    HW216740   4.907   6.031   6.039
 5281SOL     OW16741   2.154   6.523   4.771
 5281SOL    HW116742   2.075   6.462   4.769
 5281SOL    HW216743   2.124   6.618   4.762
 5282SOL     OW16744   6.794   5.906   0.778
 5282SOL    HW116745   6.802   5.806   0.784
 5282SOL    HW216746   6.860   5.939   0.710
 5283SOL     OW16747   1.574   0.611   3.991
 5283SOL    HW116748   1.481   0.622   4.025
 5283SOL    HW216749   1.572   0.571   3.899
 5284SOL     OW16750   4.880   2.920   2.218
 5284SOL    HW116751   4.835   2.833   2.238
 5284SOL    HW216752   4.817   2.978   2.165
 5285SOL     OW16753   2.082   1.481   3.924
 5285SOL    HW116754   2.161   1.530   3.887
 5285SOL    HW216755   2.020   1.457   3.849
 5286SOL     OW16756   0.392   3.230   1.418
 5286SOL    HW116757   0.299   3.213   1.386
 5286SOL    HW216758   0.392   3.307   1.482
 5287SOL     OW16759   0.642   5.080   2.540
 5287SOL    HW116760   0.623   5.081   2.638
 5287SOL    HW216761   0.696   4.998   2.518
 5288SOL     OW16762   4.516   0.753   1.586
 5288SOL    HW116763   4.444   0.809   1.627
 5288SOL    HW216764   4.493   0.656   1.597
 5289SOL     OW16765   1.850   5.256   6.295
 5289SOL    HW116766   1.927   5.310   6.261
 5289SOL    HW216767   1.873   5.159   6.295
 5290SOL     OW16768   1.731   2.953   5.284
 5290SOL    HW116769   1.810   3.001   5.322
 5290SOL    HW216770   1.740   2.855   5.300
 5291SOL     OW16771   3.024   5.984   4.888
 5291SOL    HW116772   3.093   6.054   4.906
 5291SOL    HW216773   3.025   5.916   4.961
 5292SOL     OW16774   0.910   3.950   4.673
 5292SOL    HW116775   0.991   3.978   4.724
 5292SOL    HW216776   0.934   3.876   4.610
 5293SOL     OW16777   2.387   0.356   3.573
 5293SOL    HW116778   2.357   0.369   3.668
 5293SOL    HW216779   2.309   0.368   3.511
 5294SOL     OW16780   4.828   6.972   4.242
 5294SOL    HW116781   4.808   0.016   4.166
 5294SOL    HW216782   4.746   6.957   4.296
 5295SOL     OW16783   2.230   0.433   1.298
 5295SOL    HW116784   2.299   0.394   1.358
 5295SOL    HW216785   2.194   0.517   1.338
 5296SOL     OW16786   4.628   5.044   2.302
 5296SOL    HW116787   4.605   5.101   2.222
 5296SOL    HW216788   4.710   4.991   2.283
 5297SOL     OW16789   3.359   4.919   5.733
 5297SOL    HW116790   3.417   5.000   5.734
 5297SOL    HW216791   3.263   4.946   5.741
 5298SOL     OW16792   3.477   1.224   6.985
 5298SOL    HW116793   3.447   1.157   6.917
 5298SOL    HW216794   3.436   1.313   6.964
 5299SOL     OW16795   1.489   0.391   1.301
 5299SOL    HW116796   1.546   0.376   1.382
 5299SOL    HW216797   1.412   0.327   1.303
 5300SOL     OW16798   2.963   4.770   6.860
 5300SOL    HW116799   2.948   4.769   6.959
 5300SOL    HW216800   2.966   4.865   6.828
 5301SOL     OW16801   6.842   6.879   6.006
 5301SOL    HW116802   6.867   6.827   5.925
 5301SOL    HW216803   6.744   6.869   6.023
 5302SOL     OW16804   4.913   5.043   3.477
 5302SOL    HW116805   4.874   4.980   3.410
 5302SOL    HW216806   4.994   5.000   3.519
 5303SOL     OW16807   1.600   6.347   5.198
 5303SOL    HW116808   1.534   6.318   5.267
 5303SOL    HW216809   1.693   6.335   5.233
 5304SOL     OW16810   6.911   0.238   3.503
 5304SOL    HW116811   6.944   0.208   3.593
 5304SOL    HW216812   6.843   0.310   3.514
 5305SOL     OW16813   6.502   5.299   4.555
 5305SOL    HW116814   6.596   5.296   4.521
 5305SOL    HW216815   6.456   5.212   4.534
 5306SOL     OW16816   0.897   2.006   6.431
 5306SOL    HW116817   0.923   2.077   6.366
 5306SOL    HW216818   0.977   1.954   6.458
 5307SOL     OW16819   0.812   1.247   1.619
 5307SOL    HW116820   0.756   1.322   1.583
 5307SOL    HW216821   0.789   1.163   1.572
 5308SOL     OW16822   1.938   4.286   2.670
 5308SOL    HW116823   1.882   4.210   2.636
 5308SOL    HW216824   2.035   4.265   2.659
 5309SOL     OW16825   5.483   6.260   3.490
 5309SOL    HW116826   5.420   6.327   3.451
 5309SOL    HW216827   5.446   6.227   3.577
 5310SOL     OW16828   6.191   1.729   3.092
 5310SOL    HW116829   6.199   1.714   2.993
 5310SOL    HW216830   6.220   1.822   3.114
 5311SOL     OW16831   5.982   6.870   0.113
 5311SOL    HW116832   6.077   6.868   0.145
 5311SOL    HW216833   5.969   6.802   0.042
 5312SOL     OW16834   5.722   6.650   0.891
 5312SOL    HW116835   5.675   6.610   0.813
 5312SOL    HW216836   5.789   6.584   0.927
 5313SOL     OW16837   1.617   6.493   5.863
 5313SOL    HW116838   1.586   6.418   5.922
 5313SOL    HW216839   1.537   6.542   5.828
 5314SOL     OW16840   5.803   2.172   1.818
 5314SOL    HW116841   5.748   2.114   1.759
 5314SOL    HW216842   5.836   2.119   1.896
 5315SOL     OW16843   4.136   2.169   3.524
 5315SOL    HW116844   4.221   2.222   3.514
 5315SOL    HW216845   4.090   2.162   3.436
 5316SOL     OW16846   0.042   2.795   4.978
 5316SOL    HW116847   0.126   2.779   5.029
 5316SOL    HW216848   0.052   2.757   4.885
 5317SOL     OW16849   5.471   3.109   1.202
 5317SOL    HW116850   5.391   3.109   1.142
 5317SOL    HW216851   5.473   3.193   1.256
 5318SOL     OW16852   6.841   4.168   5.903
 5318SOL    HW116853   6.872   4.256   5.867
 5318SOL    HW216854   6.825   4.176   6.001
 5319SOL     OW16855   4.019   6.054   2.582
 5319SOL    HW116856   3.930   6.025   2.546
 5319SOL    HW216857   4.055   5.984   2.644
 5320SOL     OW16858   4.716   5.854   0.537
 5320SOL    HW116859   4.624   5.821   0.559
 5320SOL    HW216860   4.784   5.796   0.581
 5321SOL     OW16861   1.435   4.091   5.911
 5321SOL    HW116862   1.414   4.003   5.955
 5321SOL    HW216863   1.351   4.128   5.871
 5322SOL     OW16864   4.095   6.144   1.817
 5322SOL    HW116865   4.060   6.055   1.846
 5322SOL    HW216866   4.146   6.135   1.732
 5323SOL     OW16867   4.097   0.372   6.472
 5323SOL    HW116868   4.136   0.447   6.526
 5323SOL    HW216869   4.097   0.396   6.375
 5324SOL     OW16870   0.994   1.400   1.893
 5324SOL    HW116871   1.076   1.348   1.918
 5324SOL    HW216872   1.021   1.487   1.852
 5325SOL     OW16873   2.256   2.993   4.561
 5325SOL    HW116874   2.317   2.914   4.555
 5325SOL    HW216875   2.225   3.004   4.655
 5326SOL     OW16876   5.961   6.892   1.482
 5326SOL    HW116877   6.054   6.926   1.498
 5326SOL    HW216878   5.964   6.810   1.426
 5327SOL     OW16879   0.637   2.703   5.565
 5327SOL    HW116880   0.704   2.629   5.579
 5327SOL    HW216881   0.659   2.752   5.481
 5328SOL     OW16882   3.912   5.317   0.595
 5328SOL    HW116883   3.940   5.221   0.604
 5328SOL    HW216884   3.897   5.355   0.686
 5329SOL     OW16885   2.802   6.131   6.144
 5329SOL    HW116886   2.768   6.064   6.210
 5329SOL    HW216887   2.893   6.105   6.113
 5330SOL     OW16888   2.872   5.451   1.381
 5330SOL    HW116889   2.944   5.503   1.427
 5330SOL    HW216890   2.805   5.515   1.343
 5331SOL     OW16891   6.376   1.700   6.402
 5331SOL    HW116892   6.281   1.704   6.434
 5331SOL    HW216893   6.419   1.617   6.435
 5332SOL     OW16894   0.842   4.564   1.982
 5332SOL    HW116895   0.847   4.632   2.055
 5332SOL    HW216896   0.794   4.603   1.904
 5333SOL     OW16897   0.963   6.446   4.548
 5333SOL    HW116898   1.057   6.412   4.559
 5333SOL    HW216899   0.965   6.541   4.516
 5334SOL     OW16900   3.536   7.012   5.429
 5334SOL    HW116901   3.476   0.016   5.506
 5334SOL    HW216902   3.496   6.937   5.376
 5335SOL     OW16903   6.727   6.200   0.811
 5335SOL    HW116904   6.734   6.276   0.875
 5335SOL    HW216905   6.818   6.169   0.785
 5336SOL     OW16906   1.180   3.993   1.138
 5336SOL    HW116907   1.147   3.907   1.099
 5336SOL    HW216908   1.275   3.982   1.167
 5337SOL     OW16909   5.328   4.643   1.747
 5337SOL    HW116910   5.379   4.565   1.783
 5337SOL    HW216911   5.342   4.722   1.806
 5338SOL     OW16912   5.452   2.947   0.581
 5338SOL    HW116913   5.517   3.005   0.630
 5338SOL    HW216914   5.375   2.926   0.641
 5339SOL     OW16915   6.746   0.082   2.015
 5339SOL    HW116916   6.656   0.045   2.038
 5339SOL    HW216917   6.736   0.174   1.978
 5340SOL     OW16918   4.873   2.721   0.029
 5340SOL    HW116919   4.898   2.808   0.071
 5340SOL    HW216920   4.956   2.667   0.012
 5341SOL     OW16921   4.857   0.324   0.873
 5341SOL    HW116922   4.820   0.395   0.812
 5341SOL    HW216923   4.788   0.254   0.889
 5342SOL     OW16924   2.459   0.636   5.740
 5342SOL    HW116925   2.378   0.644   5.799
 5342SOL    HW216926   2.496   0.728   5.722
 5343SOL     OW16927   3.073   4.364   1.258
 5343SOL    HW116928   3.170   4.351   1.238
 5343SOL    HW216929   3.042   4.450   1.218
 5344SOL     OW16930   2.076   2.483   2.686
 5344SOL    HW116931   2.040   2.409   2.630
 5344SOL    HW216932   2.003   2.548   2.708
 5345SOL     OW16933   4.821   0.194   3.559
 5345SOL    HW116934   4.917   0.170   3.542
 5345SOL    HW216935   4.763   0.115   3.540
 5346SOL     OW16936   3.132   0.579   4.031
 5346SOL    HW116937   3.072   0.623   4.097
 5346SOL    HW216938   3.090   0.581   3.940
 5347SOL     OW16939   6.698   1.194   1.819
 5347SOL    HW116940   6.614   1.244   1.798
 5347SOL    HW216941   6.753   1.184   1.736
 5348SOL     OW16942   6.487   1.510   7.011
 5348SOL    HW116943   6.487   1.513   0.092
 5348SOL    HW216944   6.483   1.415   6.980
 5349SOL     OW16945   5.800   0.234   1.127
 5349SOL    HW116946   5.806   0.222   1.027
 5349SOL    HW216947   5.853   0.162   1.172
 5350SOL     OW16948   2.731   0.683   6.763
 5350SOL    HW116949   2.800   0.626   6.809
 5350SOL    HW216950   2.761   0.701   6.669
 5351SOL     OW16951   4.491   1.166   2.198
 5351SOL    HW116952   4.434   1.101   2.248
 5351SOL    HW216953   4.574   1.121   2.167
 5352SOL     OW16954   3.374   0.440   3.121
 5352SOL    HW116955   3.469   0.466   3.141
 5352SOL    HW216956   3.352   0.467   3.027
 5353SOL     OW16957   6.160   0.269   6.058
 5353SOL    HW116958   6.182   0.365   6.072
 5353SOL    HW216959   6.210   0.234   5.979
 5354SOL     OW16960   1.450   3.379   1.038
 5354SOL    HW116961   1.411   3.354   0.950
 5354SOL    HW216962   1.397   3.454   1.078
 5355SOL     OW16963   4.876   1.519   5.802
 5355SOL    HW116964   4.876   1.426   5.764
 5355SOL    HW216965   4.885   1.585   5.727
 5356SOL     OW16966   6.520   3.133   1.499
 5356SOL    HW116967   6.597   3.071   1.480
 5356SOL    HW216968   6.499   3.185   1.417
 5357SOL     OW16969   3.966   5.884   0.386
 5357SOL    HW116970   4.014   5.923   0.307
 5357SOL    HW216971   3.891   5.827   0.354
 5358SOL     OW16972   5.429   4.205   2.004
 5358SOL    HW116973   5.344   4.157   1.979
 5358SOL    HW216974   5.436   4.289   1.951
 5359SOL     OW16975   3.265   0.609   5.494
 5359SOL    HW116976   3.213   0.565   5.421
 5359SOL    HW216977   3.279   0.544   5.569
 5360SOL     OW16978   4.531   2.067   0.242
 5360SOL    HW116979   4.444   2.111   0.218
 5360SOL    HW216980   4.514   1.990   0.303
 5361SOL     OW16981   1.243   1.139   6.357
 5361SOL    HW116982   1.212   1.124   6.263
 5361SOL    HW216983   1.191   1.080   6.419
 5362SOL     OW16984   4.028   5.610   3.589
 5362SOL    HW116985   3.930   5.608   3.610
 5362SOL    HW216986   4.045   5.681   3.521
 5363SOL     OW16987   0.928   5.845   4.628
 5363SOL    HW116988   0.877   5.913   4.681
 5363SOL    HW216989   0.960   5.772   4.688
 5364SOL     OW16990   1.614   5.996   6.779
 5364SOL    HW116991   1.649   5.948   6.698
 5364SOL    HW216992   1.544   6.062   6.751
 5365SOL     OW16993   3.892   2.469   5.995
 5365SOL    HW116994   3.917   2.381   6.035
 5365SOL    HW216995   3.974   2.525   5.982
 5366SOL     OW16996   3.574   3.613   6.019
 5366SOL    HW116997   3.670   3.620   5.993
 5366SOL    HW216998   3.523   3.566   5.947
 5367SOL     OW16999   0.399   4.952   0.736
 5367SOL    HW117000   0.445   5.009   0.803
 5367SOL    HW217001   0.345   4.882   0.782
 5368SOL     OW17002   0.657   0.248   3.585
 5368SOL    HW117003   0.698   0.329   3.542
 5368SOL    HW217004   0.559   0.247   3.568
 5369SOL     OW17005   2.079   3.475   2.452
 5369SOL    HW117006   2.047   3.519   2.536
 5369SOL    HW217007   2.117   3.545   2.391
 5370SOL     OW17008   3.649   2.759   1.430
 5370SOL    HW117009   3.661   2.812   1.514
 5370SOL    HW217010   3.554   2.731   1.421
 5371SOL     OW17011   1.949   4.180   5.206
 5371SOL    HW117012   1.938   4.105   5.271
 5371SOL    HW217013   2.042   4.215   5.211
 5372SOL     OW17014   3.268   6.260   2.725
 5372SOL    HW117015   3.171   6.269   2.749
 5372SOL    HW217016   3.277   6.213   2.637
 5373SOL     OW17017   2.174   5.147   3.759
 5373SOL    HW117018   2.088   5.137   3.809
 5373SOL    HW217019   2.247   5.170   3.823
 5374SOL     OW17020   3.005   2.412   0.526
 5374SOL    HW117021   2.948   2.383   0.449
 5374SOL    HW217022   2.973   2.368   0.610
 5375SOL     OW17023   1.287   4.136   5.005
 5375SOL    HW117024   1.383   4.134   5.033
 5375SOL    HW217025   1.265   4.225   4.965
 5376SOL     OW17026   2.769   4.476   5.893
 5376SOL    HW117027   2.825   4.442   5.818
 5376SOL    HW217028   2.808   4.561   5.928
 5377SOL     OW17029   0.646   2.231   1.654
 5377SOL    HW117030   0.584   2.178   1.595
 5377SOL    HW217031   0.603   2.248   1.742
 5378SOL     OW17032   4.799   0.437   6.696
 5378SOL    HW117033   4.797   0.537   6.699
 5378SOL    HW217034   4.708   0.401   6.716
 5379SOL     OW17035   0.119   6.751   0.294
 5379SOL    HW117036   0.200   6.766   0.237
 5379SOL    HW217037   0.045   6.714   0.238
 5380SOL     OW17038   2.036   1.543   5.253
 5380SOL    HW117039   1.945   1.543   5.213
 5380SOL    HW217040   2.105   1.554   5.181
 5381SOL     OW17041   6.101   3.834   1.873
 5381SOL    HW117042   6.148   3.777   1.941
 5381SOL    HW217043   6.012   3.793   1.852
 5382SOL     OW17044   1.840   6.689   1.367
 5382SOL    HW117045   1.801   6.770   1.323
 5382SOL    HW217046   1.804   6.682   1.460
 5383SOL     OW17047   2.156   2.091   4.886
 5383SOL    HW117048   2.137   2.179   4.929
 5383SOL    HW217049   2.071   2.051   4.852
 5384SOL     OW17050   5.066   6.561   4.848
 5384SOL    HW117051   4.981   6.509   4.851
 5384SOL    HW217052   5.073   6.618   4.930
 5385SOL     OW17053   3.548   4.136   2.605
 5385SOL    HW117054   3.601   4.196   2.545
 5385SOL    HW217055   3.605   4.105   2.681
 5386SOL     OW17056   5.666   6.545   5.877
 5386SOL    HW117057   5.669   6.645   5.881
 5386SOL    HW217058   5.757   6.509   5.895
 5387SOL     OW17059   3.587   4.744   0.793
 5387SOL    HW117060   3.567   4.672   0.859
 5387SOL    HW217061   3.685   4.746   0.775
 5388SOL     OW17062   5.850   5.939   3.070
 5388SOL    HW117063   5.851   6.008   2.998
 5388SOL    HW217064   5.780   5.962   3.137
 5389SOL     OW17065   5.851   3.282   1.570
 5389SOL    HW117066   5.932   3.246   1.616
 5389SOL    HW217067   5.817   3.215   1.505
 5390SOL     OW17068   6.486   5.024   6.427
 5390SOL    HW117069   6.409   5.076   6.462
 5390SOL    HW217070   6.552   5.086   6.385
 5391SOL     OW17071   3.800   4.434   0.209
 5391SOL    HW117072   3.793   4.354   0.150
 5391SOL    HW217073   3.720   4.438   0.269
 5392SOL     OW17074   0.476   2.571   3.259
 5392SOL    HW117075   0.493   2.616   3.346
 5392SOL    HW217076   0.562   2.560   3.209
 5393SOL     OW17077   6.562   6.794   6.387
 5393SOL    HW117078   6.516   6.773   6.301
 5393SOL    HW217079   6.526   6.879   6.425
 5394SOL     OW17080   1.907   3.828   6.140
 5394SOL    HW117081   1.964   3.900   6.178
 5394SOL    HW217082   1.931   3.741   6.183
 5395SOL     OW17083   4.754   0.453   1.229
 5395SOL    HW117084   4.761   0.474   1.326
 5395SOL    HW217085   4.669   0.492   1.192
 5396SOL     OW17086   4.926   2.167   1.144
 5396SOL    HW117087   4.938   2.250   1.199
 5396SOL    HW217088   4.894   2.093   1.203
 5397SOL     OW17089   1.363   2.795   1.749
 5397SOL    HW117090   1.444   2.775   1.803
 5397SOL    HW217091   1.309   2.712   1.736
 5398SOL     OW17092   3.414   3.938   2.472
 5398SOL    HW117093   3.400   3.866   2.540
 5398SOL    HW217094   3.439   4.023   2.518
 5399SOL     OW17095   0.790   5.211   0.330
 5399SOL    HW117096   0.754   5.279   0.266
 5399SOL    HW217097   0.778   5.120   0.293
 5400SOL     OW17098   2.405   3.580   6.690
 5400SOL    HW117099   2.432   3.643   6.617
 5400SOL    HW217100   2.339   3.624   6.750
 5401SOL     OW17101   6.378   1.736   0.652
 5401SOL    HW117102   6.455   1.711   0.593
 5401SOL    HW217103   6.368   1.668   0.725
 5402SOL     OW17104   1.142   6.030   2.377
 5402SOL    HW117105   1.217   5.966   2.358
 5402SOL    HW217106   1.055   5.988   2.352
 5403SOL     OW17107   6.158   2.712   6.317
 5403SOL    HW117108   6.200   2.632   6.272
 5403SOL    HW217109   6.220   2.745   6.388
 5404SOL     OW17110   0.674   2.805   3.138
 5404SOL    HW117111   0.679   2.707   3.122
 5404SOL    HW217112   0.761   2.837   3.177
 5405SOL     OW17113   6.537   4.478   5.404
 5405SOL    HW117114   6.471   4.419   5.451
 5405SOL    HW217115   6.613   4.498   5.466
 5406SOL     OW17116   1.609   0.124   3.195
 5406SOL    HW117117   1.681   0.139   3.127
 5406SOL    HW217118   1.559   0.041   3.173
 5407SOL     OW17119   4.227   3.483   6.189
 5407SOL    HW117120   4.201   3.396   6.229
 5407SOL    HW217121   4.201   3.557   6.251
 5408SOL     OW17122   3.867   0.684   6.342
 5408SOL    HW117123   3.853   0.781   6.320
 5408SOL    HW217124   3.801   0.656   6.412
 5409SOL     OW17125   4.920   0.814   1.350
 5409SOL    HW117126   4.876   0.836   1.437
 5409SOL    HW217127   4.976   0.732   1.361
 5410SOL     OW17128   1.240   2.793   3.094
 5410SOL    HW117129   1.320   2.772   3.149
 5410SOL    HW217130   1.262   2.864   3.027
 5411SOL     OW17131   2.394   4.539   4.923
 5411SOL    HW117132   2.470   4.564   4.982
 5411SOL    HW217133   2.332   4.477   4.972
 5412SOL     OW17134   6.193   1.813   2.204
 5412SOL    HW117135   6.260   1.746   2.236
 5412SOL    HW217136   6.175   1.879   2.277
 5413SOL     OW17137   1.633   6.804   2.689
 5413SOL    HW117138   1.563   6.738   2.660
 5413SOL    HW217139   1.720   6.756   2.700
 5414SOL     OW17140   4.172   0.072   6.131
 5414SOL    HW117141   4.221   0.087   6.217
 5414SOL    HW217142   4.077   0.050   6.150
 5415SOL     OW17143   6.501   3.577   2.780
 5415SOL    HW117144   6.541   3.571   2.872
 5415SOL    HW217145   6.556   3.521   2.717
 5416SOL     OW17146   4.176   4.936   4.383
 5416SOL    HW117147   4.192   4.884   4.467
 5416SOL    HW217148   4.151   5.030   4.406
 5417SOL     OW17149   2.655   6.656   5.586
 5417SOL    HW117150   2.734   6.676   5.527
 5417SOL    HW217151   2.684   6.655   5.682
 5418SOL     OW17152   3.588   1.208   3.454
 5418SOL    HW117153   3.542   1.276   3.510
 5418SOL    HW217154   3.616   1.131   3.511
 5419SOL     OW17155   3.362   4.198   6.969
 5419SOL    HW117156   3.381   4.294   6.985
 5419SOL    HW217157   3.324   4.187   6.877
 5420SOL     OW17158   1.143   2.560   2.778
 5420SOL    HW117159   1.103   2.620   2.847
 5420SOL    HW217160   1.223   2.603   2.738
 5421SOL     OW17161   2.385   2.616   0.829
 5421SOL    HW117162   2.447   2.596   0.753
 5421SOL    HW217163   2.377   2.535   0.887
 5422SOL     OW17164   0.994   2.979   0.481
 5422SOL    HW117165   0.953   2.895   0.517
 5422SOL    HW217166   1.080   2.957   0.435
 5423SOL     OW17167   3.980   3.047   6.032
 5423SOL    HW117168   4.031   3.112   5.975
 5423SOL    HW217169   3.939   3.095   6.109
 5424SOL     OW17170   5.499   3.179   5.716
 5424SOL    HW117171   5.407   3.139   5.716
 5424SOL    HW217172   5.535   3.178   5.623
 5425SOL     OW17173   5.095   1.343   4.883
 5425SOL    HW117174   5.085   1.264   4.945
 5425SOL    HW217175   5.022   1.408   4.900
 5426SOL     OW17176   0.521   0.064   4.745
 5426SOL    HW117177   0.500   0.152   4.788
 5426SOL    HW217178   0.456   7.013   4.778
 5427SOL     OW17179   3.739   6.973   0.324
 5427SOL    HW117180   3.775   6.949   0.414
 5427SOL    HW217181   3.714   6.890   0.275
 5428SOL     OW17182   2.277   0.610   0.402
 5428SOL    HW117183   2.276   0.629   0.303
 5428SOL    HW217184   2.221   0.528   0.420
 5429SOL     OW17185   1.381   2.484   6.242
 5429SOL    HW117186   1.304   2.428   6.211
 5429SOL    HW217187   1.365   2.579   6.217
 5430SOL     OW17188   2.182   2.694   5.222
 5430SOL    HW117189   2.150   2.788   5.216
 5430SOL    HW217190   2.258   2.680   5.158
 5431SOL     OW17191   3.468   5.770   4.377
 5431SOL    HW117192   3.523   5.756   4.295
 5431SOL    HW217193   3.454   5.868   4.392
 5432SOL     OW17194   5.704   4.699   1.462
 5432SOL    HW117195   5.607   4.707   1.484
 5432SOL    HW217196   5.758   4.694   1.546
 5433SOL     OW17197   1.460   1.892   3.645
 5433SOL    HW117198   1.440   1.879   3.548
 5433SOL    HW217199   1.432   1.810   3.696
 5434SOL     OW17200   2.246   5.948   5.214
 5434SOL    HW117201   2.176   5.946   5.142
 5434SOL    HW217202   2.223   5.880   5.284
 5435SOL     OW17203   4.675   0.863   2.352
 5435SOL    HW117204   4.599   0.821   2.402
 5435SOL    HW217205   4.743   0.793   2.330
 5436SOL     OW17206   5.149   4.100   2.897
 5436SOL    HW117207   5.099   4.087   2.983
 5436SOL    HW217208   5.089   4.077   2.820
 5437SOL     OW17209   3.748   4.867   6.202
 5437SOL    HW117210   3.789   4.776   6.201
 5437SOL    HW217211   3.702   4.884   6.115
 5438SOL     OW17212   6.634   0.804   0.550
 5438SOL    HW117213   6.581   0.809   0.634
 5438SOL    HW217214   6.636   0.710   0.517
 5439SOL     OW17215   1.339   2.699   0.621
 5439SOL    HW117216   1.287   2.755   0.685
 5439SOL    HW217217   1.377   2.757   0.549
 5440SOL     OW17218   2.142   0.659   1.391
 5440SOL    HW117219   2.160   0.735   1.329
 5440SOL    HW217220   2.147   0.691   1.485
 5441SOL     OW17221   3.939   1.893   4.567
 5441SOL    HW117222   3.865   1.856   4.623
 5441SOL    HW217223   3.951   1.836   4.485
 5442SOL     OW17224   3.475   1.198   1.653
 5442SOL    HW117225   3.431   1.200   1.564
 5442SOL    HW217226   3.504   1.291   1.678
 5443SOL     OW17227   1.425   6.602   5.658
 5443SOL    HW117228   1.371   6.680   5.689
 5443SOL    HW217229   1.437   6.608   5.559
 5444SOL     OW17230   0.257   0.846   3.787
 5444SOL    HW117231   0.313   0.823   3.707
 5444SOL    HW217232   0.198   0.768   3.809
 5445SOL     OW17233   6.236   3.681   2.029
 5445SOL    HW117234   6.318   3.656   1.978
 5445SOL    HW217235   6.230   3.624   2.112
 5446SOL     OW17236   6.378   6.126   5.943
 5446SOL    HW117237   6.362   6.217   5.906
 5446SOL    HW217238   6.318   6.060   5.898
 5447SOL     OW17239   3.199   2.904   1.099
 5447SOL    HW117240   3.192   2.876   1.195
 5447SOL    HW217241   3.278   2.860   1.057
 5448SOL     OW17242   5.405   1.557   6.578
 5448SOL    HW117243   5.317   1.540   6.621
 5448SOL    HW217244   5.454   1.628   6.628
 5449SOL     OW17245   0.232   2.629   6.909
 5449SOL    HW117246   0.297   2.557   6.885
 5449SOL    HW217247   0.254   2.712   6.858
 5450SOL     OW17248   2.283   6.311   0.920
 5450SOL    HW117249   2.329   6.252   0.986
 5450SOL    HW217250   2.205   6.357   0.964
 5451SOL     OW17251   2.836   0.464   2.351
 5451SOL    HW117252   2.881   0.417   2.427
 5451SOL    HW217253   2.783   0.541   2.387
 5452SOL     OW17254   2.995   3.674   5.652
 5452SOL    HW117255   2.996   3.734   5.572
 5452SOL    HW217256   3.052   3.594   5.634
 5453SOL     OW17257   0.369   5.448   5.475
 5453SOL    HW117258   0.399   5.466   5.381
 5453SOL    HW217259   0.389   5.353   5.499
 5454SOL     OW17260   0.879   3.778   5.764
 5454SOL    HW117261   0.874   3.717   5.843
 5454SOL    HW217262   0.932   3.734   5.691
 5455SOL     OW17263   6.353   1.804   0.919
 5455SOL    HW117264   6.334   1.865   0.842
 5455SOL    HW217265   6.386   1.857   0.997
 5456SOL     OW17266   3.660   0.112   1.176
 5456SOL    HW117267   3.714   0.041   1.129
 5456SOL    HW217268   3.572   0.073   1.203
 5457SOL     OW17269   6.198   3.580   1.251
 5457SOL    HW117270   6.260   3.526   1.308
 5457SOL    HW217271   6.252   3.641   1.192
 5458SOL     OW17272   1.611   4.300   5.977
 5458SOL    HW117273   1.548   4.222   5.989
 5458SOL    HW217274   1.703   4.272   6.005
 5459SOL     OW17275   2.425   3.814   6.148
 5459SOL    HW117276   2.388   3.811   6.054
 5459SOL    HW217277   2.452   3.721   6.175
 5460SOL     OW17278   4.107   0.261   4.340
 5460SOL    HW117279   4.014   0.232   4.363
 5460SOL    HW217280   4.110   0.288   4.244
 5461SOL     OW17281   4.141   6.731   5.062
 5461SOL    HW117282   4.047   6.761   5.076
 5461SOL    HW217283   4.150   6.693   4.970
 5462SOL     OW17284   0.043   0.701   1.712
 5462SOL    HW117285   6.995   0.773   1.690
 5462SOL    HW217286   0.009   0.613   1.679
 5463SOL     OW17287   6.793   3.190   0.909
 5463SOL    HW117288   6.815   3.125   0.836
 5463SOL    HW217289   6.877   3.212   0.959
 5464SOL     OW17290   1.434   6.610   4.817
 5464SOL    HW117291   1.387   6.526   4.842
 5464SOL    HW217292   1.493   6.639   4.892
 5465SOL     OW17293   2.920   5.889   7.017
 5465SOL    HW117294   2.899   5.889   6.920
 5465SOL    HW217295   2.860   5.825   0.047
 5466SOL     OW17296   5.049   6.683   4.393
 5466SOL    HW117297   4.969   6.692   4.334
 5466SOL    HW217298   5.077   6.587   4.396
 5467SOL     OW17299   6.142   1.775   1.648
 5467SOL    HW117300   6.134   1.772   1.747
 5467SOL    HW217301   6.225   1.824   1.622
 5468SOL     OW17302   4.399   1.505   6.611
 5468SOL    HW117303   4.438   1.458   6.531
 5468SOL    HW217304   4.306   1.534   6.590
 5469SOL     OW17305   4.884   4.658   1.561
 5469SOL    HW117306   4.825   4.666   1.641
 5469SOL    HW217307   4.841   4.704   1.483
 5470SOL     OW17308   0.407   4.903   3.680
 5470SOL    HW117309   0.500   4.876   3.654
 5470SOL    HW217310   0.341   4.844   3.634
 5471SOL     OW17311   6.808   4.320   2.224
 5471SOL    HW117312   6.764   4.314   2.134
 5471SOL    HW217313   6.773   4.400   2.273
 5472SOL     OW17314   3.652   5.318   5.633
 5472SOL    HW117315   3.583   5.263   5.680
 5472SOL    HW217316   3.617   5.348   5.544
 5473SOL     OW17317   1.992   4.601   3.835
 5473SOL    HW117318   1.921   4.546   3.791
 5473SOL    HW217319   1.962   4.627   3.927
 5474SOL     OW17320   0.797   6.022   3.136
 5474SOL    HW117321   0.874   6.045   3.195
 5474SOL    HW217322   0.817   6.050   3.042
 5475SOL     OW17323   3.386   2.629   1.495
 5475SOL    HW117324   3.365   2.727   1.495
 5475SOL    HW217325   3.396   2.597   1.589
 5476SOL     OW17326   2.148   3.288   6.747
 5476SOL    HW117327   2.247   3.283   6.736
 5476SOL    HW217328   2.123   3.379   6.782
 5477SOL     OW17329   2.139   2.537   2.150
 5477SOL    HW117330   2.101   2.569   2.237
 5477SOL    HW217331   2.202   2.462   2.168
 5478SOL     OW17332   0.199   5.631   5.122
 5478SOL    HW117333   0.192   5.534   5.148
 5478SOL    HW217334   0.225   5.636   5.025
 5479SOL     OW17335   4.285   6.031   5.557
 5479SOL    HW117336   4.261   6.009   5.462
 5479SOL    HW217337   4.322   6.123   5.562
 5480SOL     OW17338   0.066   2.263   5.951
 5480SOL    HW117339   7.012   2.209   5.909
 5480SOL    HW217340   0.098   2.218   6.035
 5481SOL     OW17341   4.215   6.325   3.109
 5481SOL    HW117342   4.154   6.403   3.123
 5481SOL    HW217343   4.169   6.241   3.135
 5482SOL     OW17344   1.584   6.140   2.081
 5482SOL    HW117345   1.597   6.234   2.110
 5482SOL    HW217346   1.549   6.138   1.988
 5483SOL     OW17347   0.691   2.344   6.775
 5483SOL    HW117348   0.747   2.416   6.815
 5483SOL    HW217349   0.732   2.255   6.795
 5484SOL     OW17350   5.026   0.116   5.248
 5484SOL    HW117351   5.073   0.194   5.288
 5484SOL    HW217352   5.094   0.056   5.205
 5485SOL     OW17353   3.247   0.659   4.655
 5485SOL    HW117354   3.169   0.721   4.644
 5485SOL    HW217355   3.294   0.681   4.740
 5486SOL     OW17356   2.608   5.350   3.962
 5486SOL    HW117357   2.670   5.381   4.035
 5486SOL    HW217358   2.547   5.280   3.998
 5487SOL     OW17359   3.696   6.042   5.069
 5487SOL    HW117360   3.712   6.102   5.147
 5487SOL    HW217361   3.755   5.962   5.076
 5488SOL     OW17362   4.721   2.019   6.489
 5488SOL    HW117363   4.794   2.005   6.556
 5488SOL    HW217364   4.736   1.958   6.411
 5489SOL     OW17365   6.594   2.625   4.017
 5489SOL    HW117366   6.513   2.655   3.966
 5489SOL    HW217367   6.580   2.638   4.115
 5490SOL     OW17368   0.463   5.275   2.421
 5490SOL    HW117369   0.521   5.214   2.475
 5490SOL    HW217370   0.464   5.246   2.325
 5491SOL     OW17371   6.264   4.131   0.642
 5491SOL    HW117372   6.235   4.108   0.735
 5491SOL    HW217373   6.184   4.144   0.584
 5492SOL     OW17374   0.936   1.920   0.008
 5492SOL    HW117375   1.018   1.974   0.029
 5492SOL    HW217376   0.889   1.897   0.092
 5493SOL     OW17377   4.156   3.905   6.128
 5493SOL    HW117378   4.109   3.981   6.085
 5493SOL    HW217379   4.141   3.822   6.075
 5494SOL     OW17380   5.731   2.058   4.946
 5494SOL    HW117381   5.775   1.973   4.915
 5494SOL    HW217382   5.754   2.075   5.042
 5495SOL     OW17383   5.580   0.805   0.567
 5495SOL    HW117384   5.585   0.804   0.667
 5495SOL    HW217385   5.490   0.838   0.538
 5496SOL     OW17386   4.006   6.270   6.261
 5496SOL    HW117387   4.037   6.189   6.311
 5496SOL    HW217388   3.917   6.298   6.296
 5497SOL     OW17389   0.786   0.124   6.283
 5497SOL    HW117390   0.752   0.201   6.338
 5497SOL    HW217391   0.868   0.086   6.325
 5498SOL     OW17392   0.295   5.906   1.953
 5498SOL    HW117393   0.332   5.901   1.860
 5498SOL    HW217394   0.319   5.822   2.002
 5499SOL     OW17395   2.172   0.311   3.399
 5499SOL    HW117396   2.120   0.245   3.345
 5499SOL    HW217397   2.145   0.404   3.374
 5500SOL     OW17398   1.236   6.395   1.782
 5500SOL    HW117399   1.295   6.456   1.836
 5500SOL    HW217400   1.142   6.427   1.787
 5501SOL     OW17401   5.318   3.320   0.935
 5501SOL    HW117402   5.231   3.355   0.899
 5501SOL    HW217403   5.383   3.310   0.859
 5502SOL     OW17404   4.676   3.773   0.309
 5502SOL    HW117405   4.678   3.796   0.407
 5502SOL    HW217406   4.582   3.769   0.277
 5503SOL     OW17407   6.493   2.895   1.258
 5503SOL    HW117408   6.496   2.865   1.354
 5503SOL    HW217409   6.544   2.830   1.202
 5504SOL     OW17410   3.106   2.030   6.864
 5504SOL    HW117411   3.176   2.022   6.934
 5504SOL    HW217412   3.107   2.123   6.827
 5505SOL     OW17413   2.515   5.383   2.301
 5505SOL    HW117414   2.508   5.459   2.366
 5505SOL    HW217415   2.588   5.402   2.235
 5506SOL     OW17416   6.735   2.776   6.454
 5506SOL    HW117417   6.648   2.778   6.503
 5506SOL    HW217418   6.781   2.688   6.472
 5507SOL     OW17419   3.965   5.939   0.071
 5507SOL    HW117420   3.886   5.977   0.023
 5507SOL    HW217421   4.048   5.958   0.018
 5508SOL     OW17422   6.590   2.207   6.386
 5508SOL    HW117423   6.662   2.183   6.320
 5508SOL    HW217424   6.605   2.157   6.471
 5509SOL     OW17425   6.234   4.225   0.294
 5509SOL    HW117426   6.174   4.294   0.335
 5509SOL    HW217427   6.186   4.137   0.290
 5510SOL     OW17428   5.546   5.884   6.895
 5510SOL    HW117429   5.623   5.948   6.897
 5510SOL    HW217430   5.498   5.892   6.807
 5511SOL     OW17431   1.080   2.902   6.315
 5511SOL    HW117432   1.094   2.955   6.398
 5511SOL    HW217433   1.050   2.962   6.241
 5512SOL     OW17434   3.393   0.017   2.203
 5512SOL    HW117435   3.450   0.036   2.124
 5512SOL    HW217436   3.424   0.072   2.281
 5513SOL     OW17437   3.870   4.615   6.615
 5513SOL    HW117438   3.849   4.518   6.604
 5513SOL    HW217439   3.801   4.658   6.673
 5514SOL     OW17440   3.831   1.724   0.062
 5514SOL    HW117441   3.913   1.731   0.006
 5514SOL    HW217442   3.833   1.638   0.114
 5515SOL     OW17443   3.502   4.927   2.749
 5515SOL    HW117444   3.490   4.845   2.805
 5515SOL    HW217445   3.417   4.947   2.701
 5516SOL     OW17446   0.751   3.004   6.245
 5516SOL    HW117447   0.729   2.915   6.285
 5516SOL    HW217448   0.828   2.994   6.181
 5517SOL     OW17449   0.939   1.844   4.335
 5517SOL    HW117450   0.889   1.829   4.421
 5517SOL    HW217451   0.997   1.925   4.344
 5518SOL     OW17452   4.299   4.261   5.840
 5518SOL    HW117453   4.214   4.243   5.790
 5518SOL    HW217454   4.369   4.293   5.776
 5519SOL     OW17455   5.375   3.026   5.362
 5519SOL    HW117456   5.336   3.041   5.452
 5519SOL    HW217457   5.308   2.980   5.304
 5520SOL     OW17458   5.041   5.807   1.629
 5520SOL    HW117459   5.064   5.796   1.726
 5520SOL    HW217460   4.989   5.892   1.618
 5521SOL     OW17461   4.621   0.429   2.224
 5521SOL    HW117462   4.604   0.377   2.307
 5521SOL    HW217463   4.553   0.501   2.215
 5522SOL     OW17464   4.555   6.477   6.633
 5522SOL    HW117465   4.535   6.521   6.546
 5522SOL    HW217466   4.648   6.440   6.631
 5523SOL     OW17467   5.302   1.531   0.301
 5523SOL    HW117468   5.337   1.470   0.372
 5523SOL    HW217469   5.213   1.568   0.329
 5524SOL     OW17470   2.114   1.597   2.498
 5524SOL    HW117471   2.062   1.606   2.413
 5524SOL    HW217472   2.207   1.631   2.483
 5525SOL     OW17473   6.367   0.992   1.038
 5525SOL    HW117474   6.436   1.030   1.100
 5525SOL    HW217475   6.347   0.898   1.063
 5526SOL     OW17476   5.249   4.023   3.782
 5526SOL    HW117477   5.303   4.106   3.795
 5526SOL    HW217478   5.292   3.965   3.713
 5527SOL     OW17479   6.132   0.163   2.635
 5527SOL    HW117480   6.058   0.132   2.695
 5527SOL    HW217481   6.206   0.202   2.690
 5528SOL     OW17482   1.901   1.316   0.258
 5528SOL    HW117483   1.990   1.283   0.289
 5528SOL    HW217484   1.881   1.278   0.168
 5529SOL     OW17485   3.511   0.605   2.125
 5529SOL    HW117486   3.545   0.655   2.204
 5529SOL    HW217487   3.587   0.582   2.065
 5530SOL     OW17488   0.870   1.509   1.230
 5530SOL    HW117489   0.962   1.474   1.244
 5530SOL    HW217490   0.806   1.433   1.216
 5531SOL     OW17491   1.309   4.815   0.137
 5531SOL    HW117492   1.331   4.762   0.219
 5531SOL    HW217493   1.389   4.867   0.109
 5532SOL     OW17494   0.138   4.696   5.981
 5532SOL    HW117495   0.084   4.616   6.007
 5532SOL    HW217496   0.231   4.667   5.956
 5533SOL     OW17497   3.268   0.982   3.503
 5533SOL    HW117498   3.296   0.955   3.410
 5533SOL    HW217499   3.313   1.068   3.528
 5534SOL     OW17500   1.377   0.708   4.297
 5534SOL    HW117501   1.330   0.619   4.296
 5534SOL    HW217502   1.319   0.776   4.251
 5535SOL     OW17503   0.269   1.919   2.539
 5535SOL    HW117504   0.231   1.917   2.631
 5535SOL    HW217505   0.224   1.991   2.486
 5536SOL     OW17506   4.356   0.605   4.397
 5536SOL    HW117507   4.410   0.542   4.342
 5536SOL    HW217508   4.305   0.554   4.466
 5537SOL     OW17509   2.648   2.268   2.975
 5537SOL    HW117510   2.564   2.304   3.014
 5537SOL    HW217511   2.656   2.298   2.880
 5538SOL     OW17512   3.720   5.345   3.646
 5538SOL    HW117513   3.738   5.430   3.695
 5538SOL    HW217514   3.685   5.277   3.711
 5539SOL     OW17515   2.558   3.757   0.228
 5539SOL    HW117516   2.574   3.716   0.138
 5539SOL    HW217517   2.646   3.781   0.270
 5540SOL     OW17518   3.786   5.595   0.886
 5540SOL    HW117519   3.695   5.554   0.893
 5540SOL    HW217520   3.791   5.653   0.805
 5541SOL     OW17521   4.494   0.541   6.580
 5541SOL    HW117522   4.456   0.611   6.519
 5541SOL    HW217523   4.520   0.583   6.667
 5542SOL     OW17524   5.775   3.627   6.773
 5542SOL    HW117525   5.732   3.690   6.708
 5542SOL    HW217526   5.711   3.607   6.847
 5543SOL     OW17527   0.860   2.418   4.924
 5543SOL    HW117528   0.832   2.408   5.020
 5543SOL    HW217529   0.958   2.401   4.917
 5544SOL     OW17530   5.360   6.721   0.032
 5544SOL    HW117531   5.399   6.704   6.960
 5544SOL    HW217532   5.370   6.818   0.055
 5545SOL     OW17533   2.624   2.372   1.994
 5545SOL    HW117534   2.723   2.357   1.986
 5545SOL    HW217535   2.576   2.286   1.976
 5546SOL     OW17536   3.278   5.566   4.769
 5546SOL    HW117537   3.196   5.609   4.806
 5546SOL    HW217538   3.270   5.559   4.669
 5547SOL     OW17539   2.642   5.028   3.757
 5547SOL    HW117540   2.556   5.066   3.790
 5547SOL    HW217541   2.714   5.097   3.764
 5548SOL     OW17542   6.607   1.787   4.391
 5548SOL    HW117543   6.529   1.815   4.448
 5548SOL    HW217544   6.598   1.690   4.369
 5549SOL     OW17545   3.076   4.962   5.764
 5549SOL    HW117546   3.029   4.891   5.817
 5549SOL    HW217547   3.072   5.049   5.813
 5550SOL     OW17548   2.967   6.009   2.705
 5550SOL    HW117549   2.878   6.036   2.666
 5550SOL    HW217550   3.041   6.048   2.650
 5551SOL     OW17551   0.686   1.422   2.440
 5551SOL    HW117552   0.661   1.344   2.497
 5551SOL    HW217553   0.605   1.457   2.394
 5552SOL     OW17554   1.970   2.328   2.050
 5552SOL    HW117555   1.872   2.348   2.041
 5552SOL    HW217556   2.016   2.406   2.093
 5553SOL     OW17557   4.680   6.525   5.786
 5553SOL    HW117558   4.621   6.604   5.768
 5553SOL    HW217559   4.774   6.547   5.761
 5554SOL     OW17560   2.837   0.264   5.802
 5554SOL    HW117561   2.852   0.214   5.887
 5554SOL    HW217562   2.783   0.209   5.738
 5555SOL     OW17563   1.271   5.656   1.596
 5555SOL    HW117564   1.229   5.569   1.619
 5555SOL    HW217565   1.230   5.729   1.652
 5556SOL     OW17566   7.011   1.249   5.060
 5556SOL    HW117567   6.992   1.204   5.147
 5556SOL    HW217568   6.957   1.206   4.987
 5557SOL     OW17569   3.666   0.712   2.359
 5557SOL    HW117570   3.765   0.698   2.367
 5557SOL    HW217571   3.644   0.808   2.376
 5558SOL     OW17572   5.006   2.699   6.458
 5558SOL    HW117573   4.999   2.785   6.509
 5558SOL    HW217574   4.967   2.711   6.367
 5559SOL     OW17575   3.594   1.076   0.852
 5559SOL    HW117576   3.495   1.074   0.867
 5559SOL    HW217577   3.640   1.030   0.928
 5560SOL     OW17578   0.275   2.083   4.747
 5560SOL    HW117579   0.243   2.146   4.676
 5560SOL    HW217580   0.241   1.991   4.728
 5561SOL     OW17581   2.074   4.516   2.169
 5561SOL    HW117582   2.170   4.486   2.177
 5561SOL    HW217583   2.014   4.438   2.184
 5562SOL     OW17584   4.455   2.562   0.292
 5562SOL    HW117585   4.538   2.615   0.275
 5562SOL    HW217586   4.469   2.503   0.372
 5563SOL     OW17587   3.646   4.417   1.179
 5563SOL    HW117588   3.622   4.322   1.199
 5563SOL    HW217589   3.679   4.462   1.262
 5564SOL     OW17590   6.490   0.729   2.218
 5564SOL    HW117591   6.561   0.659   2.223
 5564SOL    HW217592   6.440   0.733   2.305
 5565SOL     OW17593   1.748   2.746   5.992
 5565SOL    HW117594   1.768   2.651   5.966
 5565SOL    HW217595   1.832   2.788   6.029
 5566SOL     OW17596   2.275   4.349   0.664
 5566SOL    HW117597   2.358   4.380   0.710
 5566SOL    HW217598   2.223   4.289   0.725
 5567SOL     OW17599   1.176   5.823   3.397
 5567SOL    HW117600   1.203   5.737   3.440
 5567SOL    HW217601   1.078   5.823   3.379
 5568SOL     OW17602   4.158   2.912   6.686
 5568SOL    HW117603   4.234   2.877   6.741
 5568SOL    HW217604   4.085   2.943   6.746
 5569SOL     OW17605   4.773   1.350   6.167
 5569SOL    HW117606   4.714   1.318   6.241
 5569SOL    HW217607   4.850   1.287   6.156
 5570SOL     OW17608   1.908   2.242   6.064
 5570SOL    HW117609   1.872   2.183   6.137
 5570SOL    HW217610   1.990   2.200   6.025
 5571SOL     OW17611   0.564   4.670   6.512
 5571SOL    HW117612   0.630   4.741   6.490
 5571SOL    HW217613   0.498   4.662   6.437
 5572SOL     OW17614   1.030   3.617   5.541
 5572SOL    HW117615   1.101   3.555   5.575
 5572SOL    HW217616   1.037   3.624   5.442
 5573SOL     OW17617   0.216   3.590   6.742
 5573SOL    HW117618   0.159   3.590   6.660
 5573SOL    HW217619   0.285   3.663   6.735
 5574SOL     OW17620   2.156   6.147   4.688
 5574SOL    HW117621   2.147   6.050   4.712
 5574SOL    HW217622   2.084   6.199   4.733
 5575SOL     OW17623   1.034   1.461   2.714
 5575SOL    HW117624   0.987   1.376   2.738
 5575SOL    HW217625   1.127   1.440   2.684
 5576SOL     OW17626   5.200   6.831   6.258
 5576SOL    HW117627   5.199   6.825   6.158
 5576SOL    HW217628   5.294   6.817   6.291
 5577SOL     OW17629   1.409   4.982   4.984
 5577SOL    HW117630   1.484   5.046   5.000
 5577SOL    HW217631   1.389   4.933   5.069
 5578SOL     OW17632   4.290   1.764   6.325
 5578SOL    HW117633   4.320   1.855   6.354
 5578SOL    HW217634   4.191   1.765   6.310
 5579SOL     OW17635   4.775   4.829   1.989
 5579SOL    HW117636   4.763   4.883   2.072
 5579SOL    HW217637   4.853   4.865   1.937
 5580SOL     OW17638   6.547   1.242   2.079
 5580SOL    HW117639   6.463   1.277   2.038
 5580SOL    HW217640   6.554   1.144   2.062
 5581SOL     OW17641   3.365   3.301   0.667
 5581SOL    HW117642   3.293   3.359   0.705
 5581SOL    HW217643   3.356   3.208   0.703
 5582SOL     OW17644   2.928   3.482   5.097
 5582SOL    HW117645   2.978   3.531   5.024
 5582SOL    HW217646   2.924   3.385   5.075
 5583SOL     OW17647   4.193   1.305   6.481
 5583SOL    HW117648   4.209   1.378   6.414
 5583SOL    HW217649   4.096   1.302   6.505
 5584SOL     OW17650   4.920   3.375   4.323
 5584SOL    HW117651   4.935   3.308   4.395
 5584SOL    HW217652   4.832   3.358   4.278
 5585SOL     OW17653   7.007   0.785   3.532
 5585SOL    HW117654   0.015   0.860   3.472
 5585SOL    HW217655   6.946   0.820   3.604
 5586SOL     OW17656   1.797   0.853   0.065
 5586SOL    HW117657   1.806   0.909   7.001
 5586SOL    HW217658   1.744   0.771   0.043
 5587SOL     OW17659   3.701   6.895   3.197
 5587SOL    HW117660   3.737   6.984   3.173
 5587SOL    HW217661   3.688   6.841   3.113
 5588SOL     OW17662   4.667   5.484   0.407
 5588SOL    HW117663   4.632   5.395   0.378
 5588SOL    HW217664   4.592   5.551   0.406
 5589SOL     OW17665   1.505   2.534   6.630
 5589SOL    HW117666   1.543   2.626   6.625
 5589SOL    HW217667   1.432   2.525   6.562
 5590SOL     OW17668   6.053   0.620   3.556
 5590SOL    HW117669   5.969   0.673   3.569
 5590SOL    HW217670   6.105   0.659   3.480
 5591SOL     OW17671   5.275   1.465   6.220
 5591SOL    HW117672   5.294   1.557   6.256
 5591SOL    HW217673   5.252   1.472   6.123
 5592SOL     OW17674   1.259   3.482   2.782
 5592SOL    HW117675   1.215   3.515   2.699
 5592SOL    HW217676   1.190   3.473   2.854
 5593SOL     OW17677   2.277   3.449   5.203
 5593SOL    HW117678   2.204   3.491   5.257
 5593SOL    HW217679   2.356   3.430   5.262
 5594SOL     OW17680   2.704   1.049   5.869
 5594SOL    HW117681   2.728   1.131   5.817
 5594SOL    HW217682   2.785   1.016   5.918
 5595SOL     OW17683   0.026   3.357   0.559
 5595SOL    HW117684   0.043   3.265   0.596
 5595SOL    HW217685   6.991   3.410   0.625
 5596SOL     OW17686   5.206   3.558   4.052
 5596SOL    HW117687   5.161   3.628   3.995
 5596SOL    HW217688   5.205   3.587   4.147
 5597SOL     OW17689   0.378   1.968   6.769
 5597SOL    HW117690   0.424   1.885   6.800
 5597SOL    HW217691   0.283   1.968   6.801
 5598SOL     OW17692   6.462   0.006   3.343
 5598SOL    HW117693   6.477   6.928   3.319
 5598SOL    HW217694   6.508   0.026   3.429
 5599SOL     OW17695   4.745   2.875   2.578
 5599SOL    HW117696   4.739   2.803   2.647
 5599SOL    HW217697   4.780   2.959   2.620
 5600SOL     OW17698   2.075   3.314   2.050
 5600SOL    HW117699   2.113   3.315   2.143
 5600SOL    HW217700   2.134   3.367   1.989
 5601SOL     OW17701   4.947   2.422   6.473
 5601SOL    HW117702   4.874   2.402   6.538
 5601SOL    HW217703   4.974   2.518   6.481
 5602SOL     OW17704   5.582   0.943   2.622
 5602SOL    HW117705   5.566   0.978   2.529
 5602SOL    HW217706   5.513   0.980   2.684
 5603SOL     OW17707   3.913   1.211   6.598
 5603SOL    HW117708   3.920   1.111   6.601
 5603SOL    HW217709   3.842   1.238   6.533
 5604SOL     OW17710   1.781   4.052   3.699
 5604SOL    HW117711   1.722   4.086   3.626
 5604SOL    HW217712   1.732   4.059   3.787
 5605SOL     OW17713   3.233   6.647   4.670
 5605SOL    HW117714   3.177   6.671   4.749
 5605SOL    HW217715   3.246   6.548   4.667
 5606SOL     OW17716   4.528   4.296   1.057
 5606SOL    HW117717   4.434   4.330   1.066
 5606SOL    HW217718   4.582   4.360   1.002
 5607SOL     OW17719   1.497   1.837   1.904
 5607SOL    HW117720   1.422   1.771   1.896
 5607SOL    HW217721   1.519   1.851   2.001
 5608SOL     OW17722   6.886   6.393   4.118
 5608SOL    HW117723   6.820   6.391   4.044
 5608SOL    HW217724   6.909   6.300   4.146
 5609SOL     OW17725   6.912   1.182   0.589
 5609SOL    HW117726   6.989   1.150   0.645
 5609SOL    HW217727   6.932   1.275   0.557
 5610SOL     OW17728   5.213   6.502   6.508
 5610SOL    HW117729   5.188   6.598   6.492
 5610SOL    HW217730   5.256   6.465   6.426
 5611SOL     OW17731   0.024   4.334   1.541
 5611SOL    HW117732   0.064   4.250   1.503
 5611SOL    HW217733   6.943   4.327   1.540
 5612SOL     OW17734   5.213   1.909   1.093
 5612SOL    HW117735   5.122   1.899   1.134
 5612SOL    HW217736   5.280   1.861   1.149
 5613SOL     OW17737   6.707   5.277   5.143
 5613SOL    HW117738   6.801   5.311   5.140
 5613SOL    HW217739   6.648   5.343   5.189
 5614SOL     OW17740   5.403   2.435   4.438
 5614SOL    HW117741   5.427   2.528   4.466
 5614SOL    HW217742   5.467   2.370   4.479
 5615SOL     OW17743   0.900   3.218   2.477
 5615SOL    HW117744   0.923   3.312   2.450
 5615SOL    HW217745   0.868   3.218   2.571
 5616SOL     OW17746   1.846   3.021   1.788
 5616SOL    HW117747   1.852   3.010   1.887
 5616SOL    HW217748   1.864   2.934   1.743
 5617SOL     OW17749   0.525   4.784   4.776
 5617SOL    HW117750   0.437   4.751   4.810
 5617SOL    HW217751   0.542   4.876   4.813
 5618SOL     OW17752   5.107   1.373   3.096
 5618SOL    HW117753   5.198   1.370   3.054
 5618SOL    HW217754   5.038   1.363   3.025
 5619SOL     OW17755   3.818   4.060   4.244
 5619SOL    HW117756   3.776   4.056   4.153
 5619SOL    HW217757   3.789   4.144   4.290
 5620SOL     OW17758   4.896   4.632   5.495
 5620SOL    HW117759   4.939   4.633   5.585
 5620SOL    HW217760   4.963   4.654   5.425
 5621SOL     OW17761   0.917   3.121   0.206
 5621SOL    HW117762   0.950   3.094   0.297
 5621SOL    HW217763   0.967   3.201   0.174
 5622SOL     OW17764   5.323   5.764   3.432
 5622SOL    HW117765   5.384   5.771   3.511
 5622SOL    HW217766   5.248   5.830   3.441
 5623SOL     OW17767   4.578   4.375   3.455
 5623SOL    HW117768   4.602   4.332   3.542
 5623SOL    HW217769   4.481   4.397   3.454
 5624SOL     OW17770   5.034   3.789   4.124
 5624SOL    HW117771   5.058   3.735   4.205
 5624SOL    HW217772   5.101   3.863   4.112
 5625SOL     OW17773   3.898   6.960   6.197
 5625SOL    HW117774   3.869   6.865   6.183
 5625SOL    HW217775   3.852   6.997   6.278
 5626SOL     OW17776   1.862   4.199   6.061
 5626SOL    HW117777   1.879   4.161   5.970
 5626SOL    HW217778   1.938   4.176   6.121
 5627SOL     OW17779   0.688   5.472   0.900
 5627SOL    HW117780   0.722   5.379   0.891
 5627SOL    HW217781   0.731   5.531   0.831
 5628SOL     OW17782   0.885   2.529   6.860
 5628SOL    HW117783   0.887   2.470   6.941
 5628SOL    HW217784   0.912   2.622   6.887
 5629SOL     OW17785   0.750   3.258   5.150
 5629SOL    HW117786   0.760   3.311   5.065
 5629SOL    HW217787   0.821   3.188   5.155
 5630SOL     OW17788   0.994   4.675   6.627
 5630SOL    HW117789   1.002   4.631   6.717
 5630SOL    HW217790   0.967   4.607   6.559
 5631SOL     OW17791   2.704   0.758   3.863
 5631SOL    HW117792   2.796   0.799   3.861
 5631SOL    HW217793   2.671   0.757   3.957
 5632SOL     OW17794   2.652   6.377   6.578
 5632SOL    HW117795   2.616   6.470   6.578
 5632SOL    HW217796   2.587   6.317   6.530
 5633SOL     OW17797   1.860   5.621   4.769
 5633SOL    HW117798   1.811   5.599   4.684
 5633SOL    HW217799   1.816   5.574   4.845
 5634SOL     OW17800   2.423   0.224   1.458
 5634SOL    HW117801   2.357   0.244   1.530
 5634SOL    HW217802   2.379   0.168   1.388
 5635SOL     OW17803   4.151   1.014   2.881
 5635SOL    HW117804   4.111   1.083   2.941
 5635SOL    HW217805   4.089   0.995   2.805
 5636SOL     OW17806   4.973   0.361   4.393
 5636SOL    HW117807   4.887   0.409   4.371
 5636SOL    HW217808   4.988   0.365   4.491
 5637SOL     OW17809   6.033   0.027   5.561
 5637SOL    HW117810   5.988   0.094   5.619
 5637SOL    HW217811   6.129   0.017   5.590
 5638SOL     OW17812   1.306   6.761   6.973
 5638SOL    HW117813   1.387   6.711   7.003
 5638SOL    HW217814   1.239   6.764   0.030
 5639SOL     OW17815   3.605   0.061   1.520
 5639SOL    HW117816   3.581   6.983   1.506
 5639SOL    HW217817   3.695   0.079   1.480
 5640SOL     OW17818   4.845   6.486   4.247
 5640SOL    HW117819   4.862   6.566   4.188
 5640SOL    HW217820   4.753   6.452   4.230
 5641SOL     OW17821   6.486   4.652   3.731
 5641SOL    HW117822   6.513   4.630   3.637
 5641SOL    HW217823   6.386   4.651   3.738
 5642SOL     OW17824   2.287   2.100   6.427
 5642SOL    HW117825   2.197   2.070   6.393
 5642SOL    HW217826   2.284   2.107   6.527
 5643SOL     OW17827   5.235   2.574   3.465
 5643SOL    HW117828   5.236   2.622   3.553
 5643SOL    HW217829   5.144   2.581   3.424
 5644SOL     OW17830   2.977   0.959   5.978
 5644SOL    HW117831   3.055   0.987   6.034
 5644SOL    HW217832   3.002   0.968   5.881
 5645SOL     OW17833   6.336   6.349   4.520
 5645SOL    HW117834   6.335   6.391   4.610
 5645SOL    HW217835   6.371   6.414   4.452
 5646SOL     OW17836   6.752   0.984   2.626
 5646SOL    HW117837   6.728   0.961   2.531
 5646SOL    HW217838   6.818   1.059   2.627
 5647SOL     OW17839   5.945   3.412   6.694
 5647SOL    HW117840   5.870   3.468   6.728
 5647SOL    HW217841   6.007   3.469   6.640
 5648SOL     OW17842   1.385   2.088   4.042
 5648SOL    HW117843   1.324   2.014   4.012
 5648SOL    HW217844   1.417   2.068   4.135
 5649SOL     OW17845   6.683   0.691   4.654
 5649SOL    HW117846   6.594   0.736   4.664
 5649SOL    HW217847   6.737   0.706   4.737
 5650SOL     OW17848   6.218   4.818   5.830
 5650SOL    HW117849   6.174   4.905   5.855
 5650SOL    HW217850   6.155   4.763   5.775
 5651SOL     OW17851   5.805   0.456   3.330
 5651SOL    HW117852   5.892   0.409   3.345
 5651SOL    HW217853   5.812   0.511   3.247
 5652SOL     OW17854   4.302   4.375   6.494
 5652SOL    HW117855   4.219   4.381   6.440
 5652SOL    HW217856   4.319   4.280   6.521
 5653SOL     OW17857   2.041   6.700   6.357
 5653SOL    HW117858   1.962   6.644   6.332
 5653SOL    HW217859   2.083   6.662   6.439
 5654SOL     OW17860   2.584   6.639   0.385
 5654SOL    HW117861   2.575   6.723   0.439
 5654SOL    HW217862   2.531   6.647   0.301
 5655SOL     OW17863   6.136   5.535   2.447
 5655SOL    HW117864   6.189   5.554   2.364
 5655SOL    HW217865   6.074   5.459   2.430
 5656SOL     OW17866   3.263   4.862   6.330
 5656SOL    HW117867   3.325   4.940   6.333
 5656SOL    HW217868   3.170   4.892   6.352
 5657SOL     OW17869   5.209   5.683   2.087
 5657SOL    HW117870   5.160   5.750   2.143
 5657SOL    HW217871   5.178   5.591   2.110
 5658SOL     OW17872   4.489   6.734   5.750
 5658SOL    HW117873   4.465   6.824   5.786
 5658SOL    HW217874   4.408   6.692   5.710
 5659SOL     OW17875   2.904   3.582   2.534
 5659SOL    HW117876   2.912   3.487   2.502
 5659SOL    HW217877   2.857   3.637   2.465
 5660SOL     OW17878   0.478   5.100   1.732
 5660SOL    HW117879   0.509   5.116   1.638
 5660SOL    HW217880   0.390   5.054   1.731
 5661SOL     OW17881   5.945   5.838   4.905
 5661SOL    HW117882   5.937   5.833   4.806
 5661SOL    HW217883   5.855   5.824   4.946
 5662SOL     OW17884   1.793   3.897   4.826
 5662SOL    HW117885   1.783   3.822   4.762
 5662SOL    HW217886   1.845   3.867   4.906
 5663SOL     OW17887   2.703   4.066   0.477
 5663SOL    HW117888   2.625   4.052   0.538
 5663SOL    HW217889   2.685   4.143   0.416
 5664SOL     OW17890   6.355   6.897   1.329
 5664SOL    HW117891   6.297   6.884   1.249
 5664SOL    HW217892   6.417   6.820   1.339
 5665SOL     OW17893   1.381   0.746   5.639
 5665SOL    HW117894   1.422   0.655   5.640
 5665SOL    HW217895   1.416   0.799   5.717
 5666SOL     OW17896   5.053   6.050   6.555
 5666SOL    HW117897   5.020   6.033   6.462
 5666SOL    HW217898   5.096   5.967   6.590
 5667SOL     OW17899   5.343   4.426   3.349
 5667SOL    HW117900   5.315   4.492   3.419
 5667SOL    HW217901   5.295   4.446   3.263
 5668SOL     OW17902   5.942   2.645   6.475
 5668SOL    HW117903   5.861   2.660   6.419
 5668SOL    HW217904   6.023   2.681   6.428
 5669SOL     OW17905   0.606   2.075   5.521
 5669SOL    HW117906   0.671   2.141   5.559
 5669SOL    HW217907   0.629   1.983   5.555
 5670SOL     OW17908   1.406   3.206   2.008
 5670SOL    HW117909   1.330   3.141   1.996
 5670SOL    HW217910   1.490   3.167   1.970
 5671SOL     OW17911   0.590   0.475   6.051
 5671SOL    HW117912   0.544   0.528   5.980
 5671SOL    HW217913   0.677   0.440   6.017
 5672SOL     OW17914   4.645   4.604   5.555
 5672SOL    HW117915   4.744   4.595   5.548
 5672SOL    HW217916   4.606   4.516   5.583
 5673SOL     OW17917   1.886   6.413   1.308
 5673SOL    HW117918   1.869   6.371   1.397
 5673SOL    HW217919   1.851   6.507   1.309
 5674SOL     OW17920   0.814   2.852   0.821
 5674SOL    HW117921   0.861   2.939   0.834
 5674SOL    HW217922   0.715   2.868   0.817
 5675SOL     OW17923   3.879   1.212   5.333
 5675SOL    HW117924   3.874   1.235   5.236
 5675SOL    HW217925   3.801   1.155   5.358
 5676SOL     OW17926   2.291   6.414   2.191
 5676SOL    HW117927   2.199   6.380   2.172
 5676SOL    HW217928   2.289   6.513   2.197
 5677SOL     OW17929   5.811   0.108   3.061
 5677SOL    HW117930   5.790   0.010   3.067
 5677SOL    HW217931   5.737   0.161   3.101
 5678SOL     OW17932   1.529   5.630   2.686
 5678SOL    HW117933   1.605   5.571   2.660
 5678SOL    HW217934   1.497   5.605   2.777
 5679SOL     OW17935   3.761   5.709   5.568
 5679SOL    HW117936   3.803   5.731   5.656
 5679SOL    HW217937   3.662   5.706   5.577
 5680SOL     OW17938   1.706   0.369   6.314
 5680SOL    HW117939   1.785   0.424   6.341
 5680SOL    HW217940   1.622   0.424   6.324
 5681SOL     OW17941   3.267   3.603   0.252
 5681SOL    HW117942   3.277   3.688   0.304
 5681SOL    HW217943   3.336   3.537   0.279
 5682SOL     OW17944   2.087   3.608   4.745
 5682SOL    HW117945   2.103   3.698   4.787
 5682SOL    HW217946   2.017   3.616   4.674
 5683SOL     OW17947   3.441   3.598   4.932
 5683SOL    HW117948   3.462   3.692   4.958
 5683SOL    HW217949   3.524   3.543   4.932
 5684SOL     OW17950   3.304   4.060   2.776
 5684SOL    HW117951   3.331   4.076   2.871
 5684SOL    HW217952   3.358   4.120   2.717
 5685SOL     OW17953   0.377   0.098   1.861
 5685SOL    HW117954   0.347   0.034   1.790
 5685SOL    HW217955   0.298   0.132   1.912
 5686SOL     OW17956   3.576   4.718   6.406
 5686SOL    HW117957   3.562   4.643   6.341
 5686SOL    HW217958   3.622   4.794   6.361
 5687SOL     OW17959   4.434   6.195   6.145
 5687SOL    HW117960   4.427   6.232   6.237
 5687SOL    HW217961   4.504   6.245   6.094
 5688SOL     OW17962   5.383   1.435   2.337
 5688SOL    HW117963   5.390   1.350   2.389
 5688SOL    HW217964   5.346   1.416   2.246
 5689SOL     OW17965   3.811   2.863   5.156
 5689SOL    HW117966   3.879   2.936   5.165
 5689SOL    HW217967   3.786   2.854   5.060
 5690SOL     OW17968   3.613   0.203   3.102
 5690SOL    HW117969   3.663   0.164   3.025
 5690SOL    HW217970   3.677   0.244   3.167
 5691SOL     OW17971   3.114   0.410   4.629
 5691SOL    HW117972   3.185   0.340   4.614
 5691SOL    HW217973   3.156   0.501   4.629
 5692SOL     OW17974   5.787   2.862   0.413
 5692SOL    HW117975   5.715   2.793   0.400
 5692SOL    HW217976   5.789   2.890   0.509
 5693SOL     OW17977   5.575   3.285   1.722
 5693SOL    HW117978   5.521   3.205   1.695
 5693SOL    HW217979   5.650   3.298   1.656
 5694SOL     OW17980   2.101   2.319   5.028
 5694SOL    HW117981   2.150   2.346   5.111
 5694SOL    HW217982   2.099   2.396   4.964
 5695SOL     OW17983   1.630   3.422   3.436
 5695SOL    HW117984   1.593   3.352   3.497
 5695SOL    HW217985   1.692   3.481   3.488
 5696SOL     OW17986   3.437   1.473   6.591
 5696SOL    HW117987   3.455   1.544   6.658
 5696SOL    HW217988   3.338   1.466   6.575
 5697SOL     OW17989   6.650   3.879   0.741
 5697SOL    HW117990   6.570   3.939   0.739
 5697SOL    HW217991   6.650   3.821   0.660
 5698SOL     OW17992   1.661   4.408   4.274
 5698SOL    HW117993   1.693   4.357   4.354
 5698SOL    HW217994   1.572   4.449   4.294
 5699SOL     OW17995   0.814   2.462   5.204
 5699SOL    HW117996   0.770   2.550   5.185
 5699SOL    HW217997   0.748   2.401   5.249
 5700SOL     OW17998   1.199   5.186   4.466
 5700SOL    HW117999   1.234   5.262   4.412
 5700SOL    HW218000   1.232   5.194   4.560
 5701SOL     OW18001   4.811   2.096   2.378
 5701SOL    HW118002   4.741   2.120   2.312
 5701SOL    HW218003   4.878   2.171   2.385
 5702SOL     OW18004   4.161   0.585   6.654
 5702SOL    HW118005   4.063   0.607   6.653
 5702SOL    HW218006   4.204   0.630   6.732
 5703SOL     OW18007   5.114   3.796   2.470
 5703SOL    HW118008   5.143   3.892   2.472
 5703SOL    HW218009   5.162   3.749   2.396
 5704SOL     OW18010   5.303   3.621   3.390
 5704SOL    HW118011   5.366   3.595   3.463
 5704SOL    HW218012   5.276   3.716   3.402
 5705SOL     OW18013   6.890   0.880   3.832
 5705SOL    HW118014   6.918   0.821   3.908
 5705SOL    HW218015   6.820   0.833   3.778
 5706SOL     OW18016   2.260   1.537   5.900
 5706SOL    HW118017   2.320   1.461   5.926
 5706SOL    HW218018   2.307   1.595   5.833
 5707SOL     OW18019   4.621   0.739   1.300
 5707SOL    HW118020   4.583   0.671   1.362
 5707SOL    HW218021   4.707   0.773   1.338
 5708SOL     OW18022   1.114   6.648   0.577
 5708SOL    HW118023   1.048   6.659   0.502
 5708SOL    HW218024   1.110   6.555   0.611
 5709SOL     OW18025   0.282   2.746   0.922
 5709SOL    HW118026   0.196   2.788   0.948
 5709SOL    HW218027   0.358   2.806   0.947
 5710SOL     OW18028   3.509   5.154   6.650
 5710SOL    HW118029   3.506   5.241   6.601
 5710SOL    HW218030   3.505   5.079   6.584
 5711SOL     OW18031   4.728   1.342   4.857
 5711SOL    HW118032   4.699   1.371   4.948
 5711SOL    HW218033   4.656   1.286   4.816
 5712SOL     OW18034   5.406   6.652   6.025
 5712SOL    HW118035   5.479   6.603   5.978
 5712SOL    HW218036   5.441   6.689   6.111
 5713SOL     OW18037   0.251   3.997   2.520
 5713SOL    HW118038   0.256   4.035   2.427
 5713SOL    HW218039   0.155   3.978   2.543
 5714SOL     OW18040   2.554   0.575   1.341
 5714SOL    HW118041   2.632   0.512   1.336
 5714SOL    HW218042   2.509   0.565   1.429
 5715SOL     OW18043   0.679   6.093   3.971
 5715SOL    HW118044   0.656   6.190   3.983
 5715SOL    HW218045   0.740   6.064   4.044
 5716SOL     OW18046   1.451   2.450   5.121
 5716SOL    HW118047   1.525   2.517   5.118
 5716SOL    HW218048   1.490   2.357   5.120
 5717SOL     OW18049   0.599   4.033   5.856
 5717SOL    HW118050   0.508   4.007   5.825
 5717SOL    HW218051   0.642   4.092   5.787
 5718SOL     OW18052   3.090   6.011   6.052
 5718SOL    HW118053   3.114   6.024   6.148
 5718SOL    HW218054   3.147   5.939   6.013
 5719SOL     OW18055   2.117   0.860   6.921
 5719SOL    HW118056   2.077   0.898   7.004
 5719SOL    HW218057   2.053   0.871   6.845
 5720SOL     OW18058   2.094   5.886   4.172
 5720SOL    HW118059   2.131   5.917   4.259
 5720SOL    HW218060   2.169   5.864   4.110
 5721SOL     OW18061   6.318   5.599   6.620
 5721SOL    HW118062   6.341   5.683   6.669
 5721SOL    HW218063   6.402   5.552   6.594
 5722SOL     OW18064   5.377   0.891   4.454
 5722SOL    HW118065   5.291   0.937   4.431
 5722SOL    HW218066   5.397   0.904   4.551
 5723SOL     OW18067   6.788   4.903   0.928
 5723SOL    HW118068   6.747   4.964   0.996
 5723SOL    HW218069   6.887   4.916   0.925
 5724SOL     OW18070   4.416   2.845   6.309
 5724SOL    HW118071   4.456   2.933   6.284
 5724SOL    HW218072   4.485   2.787   6.351
 5725SOL     OW18073   6.046   6.743   5.628
 5725SOL    HW118074   5.955   6.783   5.625
 5725SOL    HW218075   6.114   6.810   5.599
 5726SOL     OW18076   3.926   5.287   5.699
 5726SOL    HW118077   3.960   5.270   5.607
 5726SOL    HW218078   3.826   5.288   5.698
 5727SOL     OW18079   5.490   2.675   3.605
 5727SOL    HW118080   5.482   2.703   3.701
 5727SOL    HW218081   5.441   2.589   3.591
 5728SOL     OW18082   3.845   0.946   5.590
 5728SOL    HW118083   3.853   0.984   5.498
 5728SOL    HW218084   3.825   1.019   5.655
 5729SOL     OW18085   2.431   2.164   3.827
 5729SOL    HW118086   2.493   2.127   3.758
 5729SOL    HW218087   2.469   2.148   3.918
 5730SOL     OW18088   3.913   4.367   0.589
 5730SOL    HW118089   4.007   4.367   0.624
 5730SOL    HW218090   3.897   4.450   0.535
 5731SOL     OW18091   4.634   1.064   5.048
 5731SOL    HW118092   4.610   1.083   4.953
 5731SOL    HW218093   4.603   1.139   5.106
 5732SOL     OW18094   6.781   3.835   4.306
 5732SOL    HW118095   6.845   3.833   4.228
 5732SOL    HW218096   6.824   3.792   4.385
 5733SOL     OW18097   2.081   6.464   1.111
 5733SOL    HW118098   2.036   6.500   1.029
 5733SOL    HW218099   2.011   6.439   1.179
 5734SOL     OW18100   1.769   0.077   5.482
 5734SOL    HW118101   1.727   0.006   5.426
 5734SOL    HW218102   1.850   0.113   5.436
 5735SOL     OW18103   5.265   1.550   0.888
 5735SOL    HW118104   5.295   1.622   0.825
 5735SOL    HW218105   5.204   1.487   0.840
 5736SOL     OW18106   4.529   3.407   6.533
 5736SOL    HW118107   4.588   3.404   6.453
 5736SOL    HW218108   4.565   3.474   6.598
 5737SOL     OW18109   5.391   5.595   2.635
 5737SOL    HW118110   5.469   5.532   2.636
 5737SOL    HW218111   5.415   5.677   2.584
 5738SOL     OW18112   3.313   1.795   0.740
 5738SOL    HW118113   3.238   1.757   0.795
 5738SOL    HW218114   3.283   1.880   0.698
 5739SOL     OW18115   2.444   1.324   5.993
 5739SOL    HW118116   2.527   1.299   6.044
 5739SOL    HW218117   2.451   1.291   5.899
 5740SOL     OW18118   4.946   2.653   2.546
 5740SOL    HW118119   4.884   2.697   2.481
 5740SOL    HW218120   5.032   2.631   2.500
 5741SOL     OW18121   1.487   3.570   4.079
 5741SOL    HW118122   1.490   3.504   4.154
 5741SOL    HW218123   1.426   3.537   4.008
 5742SOL     OW18124   6.316   4.513   2.283
 5742SOL    HW118125   6.244   4.553   2.340
 5742SOL    HW218126   6.336   4.574   2.207
 5743SOL     OW18127   3.125   6.573   6.379
 5743SOL    HW118128   3.190   6.601   6.308
 5743SOL    HW218129   3.174   6.564   6.466
 5744SOL     OW18130   5.256   5.773   3.727
 5744SOL    HW118131   5.190   5.842   3.758
 5744SOL    HW218132   5.208   5.701   3.677
 5745SOL     OW18133   1.339   3.455   2.323
 5745SOL    HW118134   1.431   3.451   2.284
 5745SOL    HW218135   1.315   3.366   2.362
 5746SOL     OW18136   5.471   0.821   3.301
 5746SOL    HW118137   5.378   0.833   3.265
 5746SOL    HW218138   5.493   0.896   3.363
 5747SOL     OW18139   1.327   6.682   1.834
 5747SOL    HW118140   1.409   6.738   1.845
 5747SOL    HW218141   1.265   6.698   1.911
 5748SOL     OW18142   6.663   6.868   0.394
 5748SOL    HW118143   6.675   6.814   0.477
 5748SOL    HW218144   6.585   6.832   0.342
 5749SOL     OW18145   1.932   6.319   6.267
 5749SOL    HW118146   2.012   6.323   6.207
 5749SOL    HW218147   1.892   6.410   6.275
 5750SOL     OW18148   6.071   2.518   4.274
 5750SOL    HW118149   6.110   2.427   4.267
 5750SOL    HW218150   6.089   2.555   4.366
 5751SOL     OW18151   6.993   3.796   4.123
 5751SOL    HW118152   0.048   3.745   4.167
 5751SOL    HW218153   0.013   3.856   4.053
 5752SOL     OW18154   5.753   1.615   6.704
 5752SOL    HW118155   5.796   1.610   6.795
 5752SOL    HW218156   5.722   1.709   6.687
 5753SOL     OW18157   3.739   2.903   4.107
 5753SOL    HW118158   3.693   2.893   4.018
 5753SOL    HW218159   3.670   2.910   4.179
 5754SOL     OW18160   6.011   0.225   0.778
 5754SOL    HW118161   6.110   0.223   0.796
 5754SOL    HW218162   5.980   0.320   0.774
 5755SOL     OW18163   0.567   3.626   6.491
 5755SOL    HW118164   0.603   3.635   6.398
 5755SOL    HW218165   0.518   3.539   6.499
 5756SOL     OW18166   5.826   6.501   1.861
 5756SOL    HW118167   5.752   6.569   1.864
 5756SOL    HW218168   5.786   6.409   1.857
 5757SOL     OW18169   1.488   2.048   4.290
 5757SOL    HW118170   1.475   1.960   4.336
 5757SOL    HW218171   1.536   2.111   4.352
 5758SOL     OW18172   6.123   6.540   2.952
 5758SOL    HW118173   6.058   6.553   2.877
 5758SOL    HW218174   6.097   6.459   3.004
 5759SOL     OW18175   2.406   6.264   2.774
 5759SOL    HW118176   2.366   6.328   2.708
 5759SOL    HW218177   2.481   6.309   2.823
 5760SOL     OW18178   0.670   2.237   0.153
 5760SOL    HW118179   0.623   2.205   0.070
 5760SOL    HW218180   0.755   2.283   0.127
 5761SOL     OW18181   6.313   6.768   5.325
 5761SOL    HW118182   6.266   6.809   5.246
 5761SOL    HW218183   6.411   6.780   5.315
 5762SOL     OW18184   0.792   6.376   5.620
 5762SOL    HW118185   0.789   6.434   5.701
 5762SOL    HW218186   0.885   6.370   5.586
 5763SOL     OW18187   5.233   0.477   0.029
 5763SOL    HW118188   5.160   0.435   6.994
 5763SOL    HW218189   5.231   0.441   0.122
 5764SOL     OW18190   4.119   6.341   4.247
 5764SOL    HW118191   4.215   6.370   4.246
 5764SOL    HW218192   4.094   6.305   4.157
 5765SOL     OW18193   6.525   6.806   2.503
 5765SOL    HW118194   6.555   6.760   2.587
 5765SOL    HW218195   6.539   6.904   2.512
 5766SOL     OW18196   0.829   0.778   4.447
 5766SOL    HW118197   0.901   0.811   4.507
 5766SOL    HW218198   0.785   0.856   4.401
 5767SOL     OW18199   6.460   6.683   0.314
 5767SOL    HW118200   6.376   6.685   0.259
 5767SOL    HW218201   6.461   6.600   0.370
 5768SOL     OW18202   1.477   0.497   4.756
 5768SOL    HW118203   1.525   0.525   4.674
 5768SOL    HW218204   1.459   0.578   4.813
 5769SOL     OW18205   1.352   1.995   5.975
 5769SOL    HW118206   1.355   2.045   5.888
 5769SOL    HW218207   1.421   1.923   5.975
 5770SOL     OW18208   1.031   3.779   2.466
 5770SOL    HW118209   0.932   3.763   2.465
 5770SOL    HW218210   1.053   3.846   2.537
 5771SOL     OW18211   2.613   6.410   2.835
 5771SOL    HW118212   2.618   6.427   2.934
 5771SOL    HW218213   2.639   6.493   2.786
 5772SOL     OW18214   2.527   0.625   3.640
 5772SOL    HW118215   2.500   0.538   3.598
 5772SOL    HW218216   2.560   0.607   3.733
 5773SOL     OW18217   5.981   0.609   4.679
 5773SOL    HW118218   5.894   0.628   4.726
 5773SOL    HW218219   5.967   0.616   4.580
 5774SOL     OW18220   0.961   5.994   3.571
 5774SOL    HW118221   0.964   5.894   3.559
 5774SOL    HW218222   0.959   6.038   3.482
 5775SOL     OW18223   5.301   4.514   2.750
 5775SOL    HW118224   5.401   4.505   2.748
 5775SOL    HW218225   5.275   4.582   2.819
 5776SOL     OW18226   3.766   0.635   4.211
 5776SOL    HW118227   3.797   0.552   4.165
 5776SOL    HW218228   3.710   0.689   4.148
 5777SOL     OW18229   0.617   0.495   1.788
 5777SOL    HW118230   0.557   0.546   1.850
 5777SOL    HW218231   0.712   0.523   1.802
 5778SOL     OW18232   0.248   0.942   0.282
 5778SOL    HW118233   0.202   0.861   0.244
 5778SOL    HW218234   0.278   1.001   0.207
 5779SOL     OW18235   5.634   1.345   0.235
 5779SOL    HW118236   5.590   1.397   0.162
 5779SOL    HW218237   5.729   1.325   0.209
 5780SOL     OW18238   5.233   4.963   4.718
 5780SOL    HW118239   5.262   5.029   4.649
 5780SOL    HW218240   5.278   4.984   4.805
 5781SOL     OW18241   1.393   5.893   6.049
 5781SOL    HW118242   1.386   5.947   5.965
 5781SOL    HW218243   1.364   5.949   6.127
 5782SOL     OW18244   5.765   0.742   1.358
 5782SOL    HW118245   5.851   0.752   1.407
 5782SOL    HW218246   5.774   0.673   1.286
 5783SOL     OW18247   2.399   2.392   6.670
 5783SOL    HW118248   2.311   2.409   6.625
 5783SOL    HW218249   2.399   2.434   6.761
 5784SOL     OW18250   6.934   6.189   0.407
 5784SOL    HW118251   6.948   6.238   0.321
 5784SOL    HW218252   6.986   6.103   0.405
 5785SOL     OW18253   1.779   1.150   2.248
 5785SOL    HW118254   1.843   1.204   2.192
 5785SOL    HW218255   1.811   1.056   2.253
 5786SOL     OW18256   5.988   5.250   2.231
 5786SOL    HW118257   5.917   5.230   2.164
 5786SOL    HW218258   6.077   5.255   2.185
 5787SOL     OW18259   1.824   3.329   6.852
 5787SOL    HW118260   1.818   3.361   6.758
 5787SOL    HW218261   1.756   3.378   6.908
 5788SOL     OW18262   3.202   0.637   3.486
 5788SOL    HW118263   3.138   0.713   3.498
 5788SOL    HW218264   3.230   0.602   3.576
 5789SOL     OW18265   3.004   4.731   6.207
 5789SOL    HW118266   3.076   4.754   6.273
 5789SOL    HW218267   2.929   4.683   6.254
 5790SOL     OW18268   1.753   3.796   3.860
 5790SOL    HW118269   1.676   3.813   3.922
 5790SOL    HW218270   1.780   3.882   3.817
 5791SOL     OW18271   1.161   1.183   3.246
 5791SOL    HW118272   1.217   1.243   3.189
 5791SOL    HW218273   1.103   1.238   3.306
 5792SOL     OW18274   0.821   2.176   3.456
 5792SOL    HW118275   0.770   2.231   3.522
 5792SOL    HW218276   0.909   2.150   3.494
 5793SOL     OW18277   6.176   1.746   5.368
 5793SOL    HW118278   6.136   1.669   5.320
 5793SOL    HW218279   6.203   1.817   5.303
 5794SOL     OW18280   0.123   4.061   6.485
 5794SOL    HW118281   0.069   4.060   6.401
 5794SOL    HW218282   0.067   4.029   6.561
 5795SOL     OW18283   6.990   4.682   6.940
 5795SOL    HW118284   0.030   4.634   6.874
 5795SOL    HW218285   6.910   4.626   6.961
 5796SOL     OW18286   2.616   1.977   0.533
 5796SOL    HW118287   2.610   1.975   0.633
 5796SOL    HW218288   2.707   1.944   0.505
 5797SOL     OW18289   3.274   3.261   5.415
 5797SOL    HW118290   3.253   3.174   5.370
 5797SOL    HW218291   3.311   3.325   5.348
 5798SOL     OW18292   6.403   4.733   4.057
 5798SOL    HW118293   6.352   4.647   4.054
 5798SOL    HW218294   6.495   4.715   4.092
 5799SOL     OW18295   5.437   0.419   4.298
 5799SOL    HW118296   5.532   0.401   4.274
 5799SOL    HW218297   5.378   0.354   4.251
 5800SOL     OW18298   5.575   6.377   6.758
 5800SOL    HW118299   5.542   6.471   6.770
 5800SOL    HW218300   5.674   6.375   6.766
 5801SOL     OW18301   1.528   1.176   2.058
 5801SOL    HW118302   1.607   1.121   2.085
 5801SOL    HW218303   1.540   1.270   2.092
 5802SOL     OW18304   0.084   2.691   4.564
 5802SOL    HW118305   0.173   2.706   4.522
 5802SOL    HW218306   0.064   2.766   4.628
 5803SOL     OW18307   1.562   5.217   1.293
 5803SOL    HW118308   1.541   5.205   1.390
 5803SOL    HW218309   1.648   5.171   1.272
 5804SOL     OW18310   0.223   3.101   6.713
 5804SOL    HW118311   0.125   3.109   6.700
 5804SOL    HW218312   0.264   3.059   6.632
 5805SOL     OW18313   4.638   3.573   6.749
 5805SOL    HW118314   4.733   3.557   6.773
 5805SOL    HW218315   4.602   3.649   6.804
 5806SOL     OW18316   6.216   6.526   6.220
 5806SOL    HW118317   6.167   6.531   6.133
 5806SOL    HW218318   6.282   6.601   6.226
 5807SOL     OW18319   2.583   4.233   1.625
 5807SOL    HW118320   2.607   4.146   1.582
 5807SOL    HW218321   2.664   4.289   1.635
 5808SOL     OW18322   6.853   1.604   3.705
 5808SOL    HW118323   6.902   1.522   3.678
 5808SOL    HW218324   6.776   1.580   3.763
 5809SOL     OW18325   0.990   3.238   3.970
 5809SOL    HW118326   1.063   3.266   4.033
 5809SOL    HW218327   0.959   3.317   3.918
 5810SOL     OW18328   3.358   1.647   2.423
 5810SOL    HW118329   3.458   1.634   2.421
 5810SOL    HW218330   3.322   1.644   2.330
 5811SOL     OW18331   2.529   0.104   1.693
 5811SOL    HW118332   2.546   0.201   1.677
 5811SOL    HW218333   2.456   0.072   1.632
 5812SOL     OW18334   4.284   0.888   4.297
 5812SOL    HW118335   4.282   0.792   4.326
 5812SOL    HW218336   4.237   0.944   4.364
 5813SOL     OW18337   1.854   2.224   5.091
 5813SOL    HW118338   1.864   2.125   5.089
 5813SOL    HW218339   1.938   2.267   5.056
 5814SOL     OW18340   0.619   5.265   1.503
 5814SOL    HW118341   0.691   5.333   1.518
 5814SOL    HW218342   0.640   5.210   1.423
 5815SOL     OW18343   4.064   6.483   4.498
 5815SOL    HW118344   4.094   6.445   4.411
 5815SOL    HW218345   4.142   6.487   4.561
 5816SOL     OW18346   5.317   6.290   0.204
 5816SOL    HW118347   5.345   6.228   0.130
 5816SOL    HW218348   5.233   6.255   0.245
 5817SOL     OW18349   5.562   2.491   6.075
 5817SOL    HW118350   5.656   2.524   6.068
 5817SOL    HW218351   5.541   2.435   5.995
 5818SOL     OW18352   5.977   6.595   5.204
 5818SOL    HW118353   6.033   6.672   5.175
 5818SOL    HW218354   5.896   6.629   5.252
 5819SOL     OW18355   6.645   6.939   1.308
 5819SOL    HW118356   6.619   6.940   1.404
 5819SOL    HW218357   6.703   6.860   1.290
 5820SOL     OW18358   5.373   4.863   2.052
 5820SOL    HW118359   5.310   4.786   2.056
 5820SOL    HW218360   5.365   4.907   1.963
 5821SOL     OW18361   3.030   6.853   2.684
 5821SOL    HW118362   3.069   6.889   2.599
 5821SOL    HW218363   2.968   6.921   2.723
 5822SOL     OW18364   0.328   1.028   2.562
 5822SOL    HW118365   0.247   1.012   2.619
 5822SOL    HW218366   0.331   0.960   2.488
 5823SOL     OW18367   1.852   2.746   3.847
 5823SOL    HW118368   1.807   2.687   3.780
 5823SOL    HW218369   1.788   2.814   3.882
 5824SOL     OW18370   4.776   0.256   3.826
 5824SOL    HW118371   4.785   0.207   3.739
 5824SOL    HW218372   4.829   0.340   3.823
 5825SOL     OW18373   3.344   1.203   1.373
 5825SOL    HW118374   3.417   1.262   1.340
 5825SOL    HW218375   3.256   1.249   1.360
 5826SOL     OW18376   0.548   6.658   3.438
 5826SOL    HW118377   0.471   6.676   3.499
 5826SOL    HW218378   0.557   6.560   3.423
 5827SOL     OW18379   2.001   4.934   5.633
 5827SOL    HW118380   2.051   4.848   5.621
 5827SOL    HW218381   2.022   4.973   5.722
 5828SOL     OW18382   6.162   1.596   1.189
 5828SOL    HW118383   6.131   1.690   1.181
 5828SOL    HW218384   6.261   1.592   1.179
 5829SOL     OW18385   2.000   0.790   1.651
 5829SOL    HW118386   1.909   0.759   1.681
 5829SOL    HW218387   1.990   0.863   1.584
 5830SOL     OW18388   1.492   0.924   5.835
 5830SOL    HW118389   1.462   0.917   5.930
 5830SOL    HW218390   1.504   1.021   5.811
 5831SOL     OW18391   5.772   5.675   3.107
 5831SOL    HW118392   5.802   5.766   3.078
 5831SOL    HW218393   5.750   5.676   3.205
 5832SOL     OW18394   3.500   3.275   4.567
 5832SOL    HW118395   3.463   3.334   4.638
 5832SOL    HW218396   3.463   3.302   4.478
 5833SOL     OW18397   3.216   2.959   4.750
 5833SOL    HW118398   3.173   3.017   4.681
 5833SOL    HW218399   3.184   2.865   4.740
 5834SOL     OW18400   5.704   1.021   6.639
 5834SOL    HW118401   5.687   1.107   6.687
 5834SOL    HW218402   5.649   1.017   6.556
 5835SOL     OW18403   5.202   2.730   3.695
 5835SOL    HW118404   5.187   2.660   3.765
 5835SOL    HW218405   5.265   2.800   3.730
 5836SOL     OW18406   3.534   0.069   3.839
 5836SOL    HW118407   3.532   0.004   3.762
 5836SOL    HW218408   3.562   0.021   3.922
 5837SOL     OW18409   4.106   3.695   6.329
 5837SOL    HW118410   4.012   3.692   6.365
 5837SOL    HW218411   4.111   3.761   6.255
 5838SOL     OW18412   0.775   1.340   6.271
 5838SOL    HW118413   0.681   1.373   6.275
 5838SOL    HW218414   0.837   1.417   6.257
 5839SOL     OW18415   6.689   2.418   2.062
 5839SOL    HW118416   6.656   2.449   2.151
 5839SOL    HW218417   6.713   2.497   2.006
 5840SOL     OW18418   3.235   5.820   0.470
 5840SOL    HW118419   3.274   5.737   0.431
 5840SOL    HW218420   3.284   5.843   0.554
 5841SOL     OW18421   6.549   1.892   3.591
 5841SOL    HW118422   6.450   1.901   3.578
 5841SOL    HW218423   6.579   1.954   3.663
 5842SOL     OW18424   3.387   2.055   0.998
 5842SOL    HW118425   3.462   2.010   0.950
 5842SOL    HW218426   3.403   2.153   1.002
 5843SOL     OW18427   0.039   2.716   1.094
 5843SOL    HW118428   7.005   2.631   1.087
 5843SOL    HW218429   0.004   2.783   1.029
 5844SOL     OW18430   1.652   6.280   6.062
 5844SOL    HW118431   1.736   6.240   6.099
 5844SOL    HW218432   1.589   6.300   6.137
 5845SOL     OW18433   1.973   2.918   4.589
 5845SOL    HW118434   1.950   2.907   4.686
 5845SOL    HW218435   2.063   2.962   4.581
 5846SOL     OW18436   0.354   3.849   0.079
 5846SOL    HW118437   0.450   3.842   0.104
 5846SOL    HW218438   0.299   3.792   0.141
 5847SOL     OW18439   1.503   2.547   4.536
 5847SOL    HW118440   1.462   2.637   4.553
 5847SOL    HW218441   1.603   2.555   4.538
 5848SOL     OW18442   0.863   4.614   3.804
 5848SOL    HW118443   0.811   4.642   3.884
 5848SOL    HW218444   0.803   4.566   3.740
 5849SOL     OW18445   2.412   0.291   5.827
 5849SOL    HW118446   2.461   0.376   5.810
 5849SOL    HW218447   2.378   0.290   5.921
 5850SOL     OW18448   0.743   4.423   3.034
 5850SOL    HW118449   0.648   4.427   3.063
 5850SOL    HW218450   0.748   4.390   2.939
 5851SOL     OW18451   6.349   2.809   1.774
 5851SOL    HW118452   6.343   2.756   1.690
 5851SOL    HW218453   6.408   2.762   1.839
 5852SOL     OW18454   4.070   6.390   3.341
 5852SOL    HW118455   4.099   6.337   3.421
 5852SOL    HW218456   3.974   6.370   3.320
 5853SOL     OW18457   4.785   3.943   5.238
 5853SOL    HW118458   4.773   3.845   5.226
 5853SOL    HW218459   4.799   3.964   5.335
 5854SOL     OW18460   1.513   1.429   6.681
 5854SOL    HW118461   1.578   1.498   6.651
 5854SOL    HW218462   1.420   1.460   6.662
 5855SOL     OW18463   1.482   1.810   4.437
 5855SOL    HW118464   1.580   1.829   4.433
 5855SOL    HW218465   1.459   1.766   4.523
 5856SOL     OW18466   0.972   6.399   3.046
 5856SOL    HW118467   0.984   6.431   2.952
 5856SOL    HW218468   0.877   6.412   3.074
 5857SOL     OW18469   0.590   2.240   5.302
 5857SOL    HW118470   0.499   2.213   5.272
 5857SOL    HW218471   0.609   2.201   5.392
 5858SOL     OW18472   2.954   0.072   3.958
 5858SOL    HW118473   2.972   0.167   3.931
 5858SOL    HW218474   2.993   0.056   4.049
 5859SOL     OW18475   5.798   5.215   2.030
 5859SOL    HW118476   5.704   5.199   1.998
 5859SOL    HW218477   5.856   5.139   2.002
 5860SOL     OW18478   6.841   4.784   0.678
 5860SOL    HW118479   6.811   4.828   0.762
 5860SOL    HW218480   6.813   4.840   0.600
 5861SOL     OW18481   6.018   1.767   4.172
 5861SOL    HW118482   6.106   1.735   4.206
 5861SOL    HW218483   5.945   1.710   4.212
 5862SOL     OW18484   5.677   5.223   4.123
 5862SOL    HW118485   5.577   5.229   4.129
 5862SOL    HW218486   5.715   5.202   4.213
 5863SOL     OW18487   2.523   1.025   0.424
 5863SOL    HW118488   2.469   0.955   0.471
 5863SOL    HW218489   2.490   1.116   0.451
 5864SOL     OW18490   4.949   5.158   0.920
 5864SOL    HW118491   4.900   5.161   1.007
 5864SOL    HW218492   4.895   5.108   0.853
 5865SOL     OW18493   4.216   0.793   3.252
 5865SOL    HW118494   4.306   0.779   3.295
 5865SOL    HW218495   4.170   0.870   3.297
 5866SOL     OW18496   3.429   1.631   6.847
 5866SOL    HW118497   3.466   1.665   6.933
 5866SOL    HW218498   3.334   1.603   6.859
 5867SOL     OW18499   6.721   2.895   1.695
 5867SOL    HW118500   6.774   2.965   1.647
 5867SOL    HW218501   6.671   2.938   1.771
 5868SOL     OW18502   0.477   6.189   5.309
 5868SOL    HW118503   0.395   6.144   5.343
 5868SOL    HW218504   0.523   6.236   5.385
 5869SOL     OW18505   2.432   5.265   4.459
 5869SOL    HW118506   2.432   5.169   4.489
 5869SOL    HW218507   2.338   5.294   4.444
 5870SOL     OW18508   4.988   5.689   3.958
 5870SOL    HW118509   4.901   5.735   3.973
 5870SOL    HW218510   4.974   5.609   3.900
 5871SOL     OW18511   3.463   4.630   0.559
 5871SOL    HW118512   3.511   4.671   0.636
 5871SOL    HW218513   3.427   4.701   0.499
 5872SOL     OW18514   4.118   5.356   3.669
 5872SOL    HW118515   4.063   5.308   3.738
 5872SOL    HW218516   4.076   5.445   3.649
 5873SOL     OW18517   2.133   3.091   0.495
 5873SOL    HW118518   2.203   3.021   0.508
 5873SOL    HW218519   2.134   3.154   0.573
 5874SOL     OW18520   0.584   4.314   6.401
 5874SOL    HW118521   0.624   4.374   6.333
 5874SOL    HW218522   0.635   4.227   6.403
 5875SOL     OW18523   3.984   2.347   1.199
 5875SOL    HW118524   4.035   2.393   1.272
 5875SOL    HW218525   3.891   2.330   1.230
 5876SOL     OW18526   4.593   4.104   5.999
 5876SOL    HW118527   4.519   4.143   6.053
 5876SOL    HW218528   4.590   4.004   6.006
 5877SOL     OW18529   5.275   6.613   3.041
 5877SOL    HW118530   5.373   6.606   3.025
 5877SOL    HW218531   5.259   6.674   3.119
 5878SOL     OW18532   4.792   3.042   2.974
 5878SOL    HW118533   4.705   3.088   2.987
 5878SOL    HW218534   4.818   3.045   2.877
 5879SOL     OW18535   3.072   4.816   5.041
 5879SOL    HW118536   3.076   4.788   5.136
 5879SOL    HW218537   3.000   4.764   4.994
 5880SOL     OW18538   6.418   2.322   0.457
 5880SOL    HW118539   6.362   2.308   0.539
 5880SOL    HW218540   6.508   2.280   0.470
 5881SOL     OW18541   1.136   5.783   2.899
 5881SOL    HW118542   1.085   5.762   2.982
 5881SOL    HW218543   1.172   5.876   2.904
 5882SOL     OW18544   1.329   5.696   5.422
 5882SOL    HW118545   1.243   5.743   5.403
 5882SOL    HW218546   1.363   5.654   5.337
 5883SOL     OW18547   0.136   5.858   0.059
 5883SOL    HW118548   0.181   5.810   7.001
 5883SOL    HW218549   0.063   5.801   0.096
 5884SOL     OW18550   0.710   1.084   1.893
 5884SOL    HW118551   0.616   1.116   1.882
 5884SOL    HW218552   0.763   1.152   1.943
 5885SOL     OW18553   0.129   5.598   1.898
 5885SOL    HW118554   0.201   5.651   1.943
 5885SOL    HW218555   0.101   5.645   1.814
 5886SOL     OW18556   1.491   4.652   3.596
 5886SOL    HW118557   1.559   4.724   3.607
 5886SOL    HW218558   1.529   4.565   3.629
 5887SOL     OW18559   2.201   4.056   0.822
 5887SOL    HW118560   2.235   4.054   0.728
 5887SOL    HW218561   2.239   3.979   0.873
 5888SOL     OW18562   2.912   6.357   1.738
 5888SOL    HW118563   2.892   6.437   1.794
 5888SOL    HW218564   2.842   6.348   1.667
 5889SOL     OW18565   5.027   1.263   1.909
 5889SOL    HW118566   5.110   1.302   1.868
 5889SOL    HW218567   4.952   1.327   1.899
 5890SOL     OW18568   2.422   4.650   2.808
 5890SOL    HW118569   2.380   4.614   2.725
 5890SOL    HW218570   2.521   4.652   2.797
 5891SOL     OW18571   2.645   3.034   6.935
 5891SOL    HW118572   2.643   2.953   6.877
 5891SOL    HW218573   2.694   3.013   0.001
 5892SOL     OW18574   0.369   2.795   1.543
 5892SOL    HW118575   0.331   2.727   1.481
 5892SOL    HW218576   0.460   2.823   1.513
 5893SOL     OW18577   0.352   6.458   1.416
 5893SOL    HW118578   0.408   6.427   1.493
 5893SOL    HW218579   0.399   6.437   1.330
 5894SOL     OW18580   2.764   5.058   6.586
 5894SOL    HW118581   2.808   5.148   6.590
 5894SOL    HW218582   2.829   4.990   6.553
 5895SOL     OW18583   5.770   2.574   4.328
 5895SOL    HW118584   5.818   2.646   4.379
 5895SOL    HW218585   5.707   2.616   4.262
 5896SOL     OW18586   5.491   2.651   0.849
 5896SOL    HW118587   5.466   2.561   0.813
 5896SOL    HW218588   5.425   2.719   0.818
 5897SOL     OW18589   3.752   3.730   6.766
 5897SOL    HW118590   3.699   3.806   6.803
 5897SOL    HW218591   3.849   3.757   6.760
 5898SOL     OW18592   3.626   0.671   6.490
 5898SOL    HW118593   3.551   0.738   6.497
 5898SOL    HW218594   3.587   0.579   6.480
 5899SOL     OW18595   0.530   0.188   0.219
 5899SOL    HW118596   0.576   0.139   0.145
 5899SOL    HW218597   0.540   0.286   0.206
 5900SOL     OW18598   5.617   6.415   2.773
 5900SOL    HW118599   5.587   6.323   2.751
 5900SOL    HW218600   5.627   6.468   2.689
 5901SOL     OW18601   1.367   0.685   4.955
 5901SOL    HW118602   1.295   0.740   4.997
 5901SOL    HW218603   1.443   0.673   5.019
 5902SOL     OW18604   4.378   3.757   5.855
 5902SOL    HW118605   4.384   3.853   5.827
 5902SOL    HW218606   4.360   3.700   5.776
 5903SOL     OW18607   5.909   1.179   5.644
 5903SOL    HW118608   5.923   1.178   5.545
 5903SOL    HW218609   5.867   1.093   5.673
 5904SOL     OW18610   0.129   5.113   1.679
 5904SOL    HW118611   0.154   5.103   1.775
 5904SOL    HW218612   0.122   5.210   1.656
 5905SOL     OW18613   6.336   1.935   4.503
 5905SOL    HW118614   6.269   1.892   4.564
 5905SOL    HW218615   6.425   1.940   4.550
 5906SOL     OW18616   4.267   0.061   4.463
 5906SOL    HW118617   4.245   0.149   4.420
 5906SOL    HW218618   4.244   7.005   4.401
 5907SOL     OW18619   0.674   3.441   5.861
 5907SOL    HW118620   0.613   3.478   5.791
 5907SOL    HW218621   0.624   3.375   5.917
 5908SOL     OW18622   4.408   3.047   6.562
 5908SOL    HW118623   4.411   2.949   6.581
 5908SOL    HW218624   4.432   3.063   6.466
 5909SOL     OW18625   6.508   4.976   3.576
 5909SOL    HW118626   6.512   5.057   3.517
 5909SOL    HW218627   6.596   4.928   3.571
 5910SOL     OW18628   2.392   4.189   1.888
 5910SOL    HW118629   2.363   4.094   1.878
 5910SOL    HW218630   2.484   4.200   1.850
 5911SOL     OW18631   6.554   0.915   5.501
 5911SOL    HW118632   6.480   0.953   5.556
 5911SOL    HW218633   6.523   0.833   5.454
 5912SOL     OW18634   0.430   3.856   6.222
 5912SOL    HW118635   0.483   3.929   6.179
 5912SOL    HW218636   0.478   3.769   6.209
 5913SOL     OW18637   1.666   2.784   4.710
 5913SOL    HW118638   1.729   2.803   4.785
 5913SOL    HW218639   1.715   2.741   4.635
 5914SOL     OW18640   1.204   5.632   0.171
 5914SOL    HW118641   1.159   5.715   0.135
 5914SOL    HW218642   1.185   5.556   0.109
 5915SOL     OW18643   5.576   4.161   4.400
 5915SOL    HW118644   5.541   4.236   4.455
 5915SOL    HW218645   5.518   4.080   4.413
 5916SOL     OW18646   3.422   0.857   6.394
 5916SOL    HW118647   3.424   0.946   6.348
 5916SOL    HW218648   3.430   0.784   6.326
 5917SOL     OW18649   3.610   3.842   1.887
 5917SOL    HW118650   3.527   3.894   1.909
 5917SOL    HW218651   3.649   3.804   1.971
 5918SOL     OW18652   3.081   1.756   4.172
 5918SOL    HW118653   3.156   1.719   4.117
 5918SOL    HW218654   3.006   1.785   4.112
 5919SOL     OW18655   1.580   2.246   6.388
 5919SOL    HW118656   1.571   2.331   6.336
 5919SOL    HW218657   1.493   2.196   6.388
 5920SOL     OW18658   2.590   4.356   0.076
 5920SOL    HW118659   2.549   4.446   0.065
 5920SOL    HW218660   2.604   4.315   7.004
 5921SOL     OW18661   3.868   6.534   4.854
 5921SOL    HW118662   3.807   6.456   4.840
 5921SOL    HW218663   3.963   6.504   4.844
 5922SOL     OW18664   6.634   5.472   2.278
 5922SOL    HW118665   6.578   5.512   2.350
 5922SOL    HW218666   6.720   5.438   2.317
 5923SOL     OW18667   0.550   0.790   3.133
 5923SOL    HW118668   0.607   0.831   3.204
 5923SOL    HW218669   0.604   0.780   3.049
 5924SOL     OW18670   5.480   1.817   4.786
 5924SOL    HW118671   5.417   1.870   4.730
 5924SOL    HW218672   5.470   1.720   4.764
 5925SOL     OW18673   6.670   6.196   0.518
 5925SOL    HW118674   6.764   6.162   0.511
 5925SOL    HW218675   6.631   6.169   0.606
 5926SOL     OW18676   2.981   6.596   1.883
 5926SOL    HW118677   2.906   6.639   1.931
 5926SOL    HW218678   3.021   6.661   1.818
 5927SOL     OW18679   2.028   5.234   1.205
 5927SOL    HW118680   1.967   5.249   1.127
 5927SOL    HW218681   2.118   5.206   1.171
 5928SOL     OW18682   6.800   6.270   1.102
 5928SOL    HW118683   6.837   6.281   1.194
 5928SOL    HW218684   6.778   6.173   1.086
 5929SOL     OW18685   0.175   6.701   5.999
 5929SOL    HW118686   0.214   6.654   6.078
 5929SOL    HW218687   0.085   6.663   5.979
 5930SOL     OW18688   6.299   1.557   4.910
 5930SOL    HW118689   6.348   1.626   4.963
 5930SOL    HW218690   6.302   1.470   4.959
 5931SOL     OW18691   5.486   4.489   0.396
 5931SOL    HW118692   5.487   4.469   0.299
 5931SOL    HW218693   5.440   4.415   0.445
 5932SOL     OW18694   2.723   0.393   0.318
 5932SOL    HW118695   2.705   0.489   0.300
 5932SOL    HW218696   2.817   0.371   0.295
 5933SOL     OW18697   5.659   2.220   3.140
 5933SOL    HW118698   5.713   2.301   3.166
 5933SOL    HW218699   5.622   2.177   3.222
 5934SOL     OW18700   4.189   3.243   1.808
 5934SOL    HW118701   4.267   3.210   1.754
 5934SOL    HW218702   4.124   3.169   1.822
 5935SOL     OW18703   3.760   3.447   2.614
 5935SOL    HW118704   3.746   3.350   2.594
 5935SOL    HW218705   3.672   3.494   2.615
 5936SOL     OW18706   6.204   6.246   6.874
 5936SOL    HW118707   6.192   6.231   6.775
 5936SOL    HW218708   6.300   6.232   6.898
 5937SOL     OW18709   0.681   4.083   0.484
 5937SOL    HW118710   0.682   4.151   0.411
 5937SOL    HW218711   0.589   4.075   0.521
 5938SOL     OW18712   2.556   5.377   1.127
 5938SOL    HW118713   2.566   5.282   1.157
 5938SOL    HW218714   2.464   5.409   1.149
 5939SOL     OW18715   0.915   0.210   2.473
 5939SOL    HW118716   0.905   0.265   2.390
 5939SOL    HW218717   0.989   0.144   2.460
 5940SOL     OW18718   4.358   4.616   3.221
 5940SOL    HW118719   4.317   4.652   3.305
 5940SOL    HW218720   4.292   4.623   3.146
 5941SOL     OW18721   5.961   2.719   4.108
 5941SOL    HW118722   6.052   2.755   4.087
 5941SOL    HW218723   5.967   2.652   4.182
 5942SOL     OW18724   6.859   1.525   4.611
 5942SOL    HW118725   6.892   1.452   4.551
 5942SOL    HW218726   6.847   1.609   4.559
 5943SOL     OW18727   1.957   5.741   1.114
 5943SOL    HW118728   1.902   5.822   1.093
 5943SOL    HW218729   1.918   5.693   1.192
 5944SOL     OW18730   5.455   2.847   2.957
 5944SOL    HW118731   5.499   2.775   2.902
 5944SOL    HW218732   5.430   2.810   3.046
 5945SOL     OW18733   6.628   5.869   6.110
 5945SOL    HW118734   6.538   5.827   6.122
 5945SOL    HW218735   6.634   5.910   6.020
 5946SOL     OW18736   4.013   2.441   5.388
 5946SOL    HW118737   3.943   2.511   5.401
 5946SOL    HW218738   4.066   2.462   5.306
 5947SOL     OW18739   5.840   3.606   2.662
 5947SOL    HW118740   5.753   3.642   2.696
 5947SOL    HW218741   5.833   3.506   2.655
 5948SOL     OW18742   2.919   5.674   3.117
 5948SOL    HW118743   2.852   5.725   3.062
 5948SOL    HW218744   2.921   5.712   3.210
 5949SOL     OW18745   4.778   4.015   2.922
 5949SOL    HW118746   4.789   3.927   2.968
 5949SOL    HW218747   4.738   4.080   2.987
 5950SOL     OW18748   6.962   1.675   4.798
 5950SOL    HW118749   6.919   1.603   4.743
 5950SOL    HW218750   0.034   1.695   4.761
 5951SOL     OW18751   2.129   0.568   3.311
 5951SOL    HW118752   2.058   0.636   3.330
 5951SOL    HW218753   2.209   0.613   3.272
 5952SOL     OW18754   0.358   6.606   4.547
 5952SOL    HW118755   0.276   6.555   4.572
 5952SOL    HW218756   0.375   6.597   4.449
 5953SOL     OW18757   0.842   3.495   6.338
 5953SOL    HW118758   0.775   3.424   6.316
 5953SOL    HW218759   0.932   3.453   6.350
 5954SOL     OW18760   1.617   4.933   6.321
 5954SOL    HW118761   1.683   4.937   6.246
 5954SOL    HW218762   1.525   4.926   6.284
 5955SOL     OW18763   3.686   5.249   2.469
 5955SOL    HW118764   3.702   5.324   2.405
 5955SOL    HW218765   3.752   5.176   2.453
 5956SOL     OW18766   0.444   1.736   0.347
 5956SOL    HW118767   0.348   1.747   0.318
 5956SOL    HW218768   0.484   1.826   0.364
 5957SOL     OW18769   4.071   6.356   6.013
 5957SOL    HW118770   4.020   6.310   6.086
 5957SOL    HW218771   4.076   6.454   6.033
 5958SOL     OW18772   1.070   5.731   2.531
 5958SOL    HW118773   1.049   5.819   2.573
 5958SOL    HW218774   1.121   5.745   2.447
 5959SOL     OW18775   1.659   0.694   5.926
 5959SOL    HW118776   1.707   0.743   5.998
 5959SOL    HW218777   1.619   0.759   5.862
 5960SOL     OW18778   3.572   5.835   5.308
 5960SOL    HW118779   3.555   5.816   5.212
 5960SOL    HW218780   3.603   5.930   5.318
 5961SOL     OW18781   2.756   1.378   5.539
 5961SOL    HW118782   2.738   1.447   5.609
 5961SOL    HW218783   2.855   1.362   5.532
 5962SOL     OW18784   5.300   4.211   2.705
 5962SOL    HW118785   5.215   4.222   2.757
 5962SOL    HW218786   5.351   4.298   2.706
 5963SOL     OW18787   4.260   4.392   1.711
 5963SOL    HW118788   4.188   4.340   1.666
 5963SOL    HW218789   4.331   4.330   1.744
 5964SOL     OW18790   1.207   3.405   5.074
 5964SOL    HW118791   1.209   3.505   5.081
 5964SOL    HW218792   1.121   3.371   5.109
 5965SOL     OW18793   2.135   2.121   4.555
 5965SOL    HW118794   2.155   2.208   4.600
 5965SOL    HW218795   2.221   2.076   4.530
 5966SOL     OW18796   1.482   6.225   4.175
 5966SOL    HW118797   1.472   6.137   4.221
 5966SOL    HW218798   1.488   6.298   4.243
 5967SOL     OW18799   4.748   5.466   1.120
 5967SOL    HW118800   4.835   5.451   1.073
 5967SOL    HW218801   4.757   5.444   1.217
 5968SOL     OW18802   1.645   2.218   3.964
 5968SOL    HW118803   1.559   2.169   3.980
 5968SOL    HW218804   1.696   2.173   3.891
 5969SOL     OW18805   1.052   2.171   2.943
 5969SOL    HW118806   1.056   2.076   2.975
 5969SOL    HW218807   1.143   2.213   2.953
 5970SOL     OW18808   2.246   4.197   3.254
 5970SOL    HW118809   2.259   4.256   3.334
 5970SOL    HW218810   2.210   4.109   3.283
 5971SOL     OW18811   2.786   5.630   3.999
 5971SOL    HW118812   2.726   5.571   4.052
 5971SOL    HW218813   2.760   5.725   4.012
 5972SOL     OW18814   5.847   0.190   1.767
 5972SOL    HW118815   5.787   0.265   1.738
 5972SOL    HW218816   5.822   0.107   1.718
 5973SOL     OW18817   2.433   4.859   3.386
 5973SOL    HW118818   2.356   4.838   3.326
 5973SOL    HW218819   2.399   4.901   3.470
 5974SOL     OW18820   1.012   4.460   6.134
 5974SOL    HW118821   1.098   4.419   6.104
 5974SOL    HW218822   0.953   4.389   6.173
 5975SOL     OW18823   2.149   2.400   6.600
 5975SOL    HW118824   2.094   2.380   6.520
 5975SOL    HW218825   2.111   2.480   6.648
 5976SOL     OW18826   3.465   3.750   4.540
 5976SOL    HW118827   3.419   3.677   4.490
 5976SOL    HW218828   3.518   3.805   4.476
 5977SOL     OW18829   0.376   3.767   2.569
 5977SOL    HW118830   0.338   3.857   2.549
 5977SOL    HW218831   0.312   3.696   2.541
 5978SOL     OW18832   5.141   5.435   1.454
 5978SOL    HW118833   5.168   5.530   1.469
 5978SOL    HW218834   5.219   5.382   1.422
 5979SOL     OW18835   0.606   1.402   1.496
 5979SOL    HW118836   0.587   1.486   1.446
 5979SOL    HW218837   0.531   1.382   1.559
 5980SOL     OW18838   6.022   2.656   5.302
 5980SOL    HW118839   6.120   2.677   5.306
 5980SOL    HW218840   5.998   2.597   5.379
 5981SOL     OW18841   3.268   2.198   0.406
 5981SOL    HW118842   3.217   2.237   0.329
 5981SOL    HW218843   3.268   2.263   0.482
 5982SOL     OW18844   6.158   2.858   6.829
 5982SOL    HW118845   6.078   2.890   6.778
 5982SOL    HW218846   6.201   2.934   6.877
 5983SOL     OW18847   0.725   0.584   4.293
 5983SOL    HW118848   0.744   0.661   4.354
 5983SOL    HW218849   0.673   0.514   4.343
 5984SOL     OW18850   0.625   0.152   6.062
 5984SOL    HW118851   0.672   0.222   6.009
 5984SOL    HW218852   0.669   0.141   6.151
 5985SOL     OW18853   5.904   2.982   4.282
 5985SOL    HW118854   5.885   2.901   4.338
 5985SOL    HW218855   6.003   2.998   4.279
 5986SOL     OW18856   3.175   3.676   2.241
 5986SOL    HW118857   3.123   3.690   2.157
 5986SOL    HW218858   3.165   3.756   2.301
 5987SOL     OW18859   3.885   0.028   5.390
 5987SOL    HW118860   3.900   0.026   5.489
 5987SOL    HW218861   3.840   0.113   5.365
 5988SOL     OW18862   3.648   6.641   6.011
 5988SOL    HW118863   3.662   6.682   5.920
 5988SOL    HW218864   3.576   6.572   6.005
 5989SOL     OW18865   2.991   1.629   6.707
 5989SOL    HW118866   2.917   1.684   6.746
 5989SOL    HW218867   3.056   1.689   6.660
 5990SOL     OW18868   3.123   6.150   3.307
 5990SOL    HW118869   3.079   6.138   3.396
 5990SOL    HW218870   3.223   6.150   3.319
 5991SOL     OW18871   3.580   5.042   3.342
 5991SOL    HW118872   3.557   5.011   3.250
 5991SOL    HW218873   3.512   5.009   3.407
 5992SOL     OW18874   4.048   1.718   4.324
 5992SOL    HW118875   4.121   1.667   4.368
 5992SOL    HW218876   4.087   1.781   4.257
 5993SOL     OW18877   2.910   5.314   4.350
 5993SOL    HW118878   2.946   5.251   4.281
 5993SOL    HW218879   2.938   5.283   4.441
 5994SOL     OW18880   6.484   2.073   0.105
 5994SOL    HW118881   6.473   2.172   0.119
 5994SOL    HW218882   6.394   2.031   0.098
 5995SOL     OW18883   0.453   3.758   1.868
 5995SOL    HW118884   0.544   3.722   1.846
 5995SOL    HW218885   0.450   3.786   1.964
 5996SOL     OW18886   1.660   5.896   6.015
 5996SOL    HW118887   1.561   5.904   6.009
 5996SOL    HW218888   1.684   5.802   6.039
 5997SOL     OW18889   0.685   0.497   1.303
 5997SOL    HW118890   0.641   0.431   1.364
 5997SOL    HW218891   0.647   0.489   1.211
 5998SOL     OW18892   5.397   3.309   3.370
 5998SOL    HW118893   5.411   3.369   3.291
 5998SOL    HW218894   5.304   3.321   3.405
 5999SOL     OW18895   2.121   2.785   2.997
 5999SOL    HW118896   2.150   2.699   2.956
 5999SOL    HW218897   2.027   2.776   3.030
 6000SOL     OW18898   5.335   1.178   3.374
 6000SOL    HW118899   5.245   1.136   3.363
 6000SOL    HW218900   5.329   1.255   3.438
 6001SOL     OW18901   5.855   1.227   0.042
 6001SOL    HW118902   5.939   1.237   7.006
 6001SOL    HW218903   5.783   1.188   7.002
 6002SOL     OW18904   2.529   0.192   2.430
 6002SOL    HW118905   2.517   0.195   2.331
 6002SOL    HW218906   2.603   0.129   2.453
 6003SOL     OW18907   4.904   4.157   4.031
 6003SOL    HW118908   4.956   4.183   3.950
 6003SOL    HW218909   4.848   4.077   4.010
 6004SOL     OW18910   0.742   3.646   1.794
 6004SOL    HW118911   0.685   3.585   1.739
 6004SOL    HW218912   0.788   3.593   1.865
 6005SOL     OW18913   2.312   6.339   2.477
 6005SOL    HW118914   2.278   6.248   2.499
 6005SOL    HW218915   2.297   6.356   2.379
 6006SOL     OW18916   2.207   5.916   6.776
 6006SOL    HW118917   2.251   5.831   6.746
 6006SOL    HW218918   2.204   5.919   6.876
 6007SOL     OW18919   5.412   3.685   4.806
 6007SOL    HW118920   5.322   3.698   4.846
 6007SOL    HW218921   5.441   3.590   4.816
 6008SOL     OW18922   4.867   3.975   1.889
 6008SOL    HW118923   4.906   4.068   1.887
 6008SOL    HW218924   4.826   3.953   1.801
 6009SOL     OW18925   3.818   1.372   4.564
 6009SOL    HW118926   3.726   1.338   4.586
 6009SOL    HW218927   3.828   1.380   4.465
 6010SOL     OW18928   1.938   4.928   3.681
 6010SOL    HW118929   1.994   4.858   3.725
 6010SOL    HW218930   1.996   4.983   3.620
 6011SOL     OW18931   6.266   2.041   2.062
 6011SOL    HW118932   6.256   2.116   2.129
 6011SOL    HW218933   6.256   1.953   2.109
 6012SOL     OW18934   1.005   2.635   1.450
 6012SOL    HW118935   1.057   2.578   1.385
 6012SOL    HW218936   0.911   2.603   1.454
 6013SOL     OW18937   5.371   0.405   2.573
 6013SOL    HW118938   5.381   0.505   2.574
 6013SOL    HW218939   5.274   0.382   2.568
 6014SOL     OW18940   6.238   1.131   0.547
 6014SOL    HW118941   6.237   1.039   0.585
 6014SOL    HW218942   6.146   1.169   0.550
 6015SOL     OW18943   6.128   6.992   4.578
 6015SOL    HW118944   6.174   0.045   4.525
 6015SOL    HW218945   6.047   0.012   4.622
 6016SOL     OW18946   1.402   0.231   5.546
 6016SOL    HW118947   1.485   0.208   5.597
 6016SOL    HW218948   1.416   0.316   5.496
 6017SOL     OW18949   0.353   3.793   2.167
 6017SOL    HW118950   0.310   3.739   2.239
 6017SOL    HW218951   0.339   3.890   2.186
 6018SOL     OW18952   3.583   5.332   1.625
 6018SOL    HW118953   3.646   5.409   1.629
 6018SOL    HW218954   3.541   5.327   1.534
 6019SOL     OW18955   6.547   6.774   3.587
 6019SOL    HW118956   6.570   6.770   3.490
 6019SOL    HW218957   6.526   6.682   3.620
 6020SOL     OW18958   2.270   6.094   2.595
 6020SOL    HW118959   2.342   6.099   2.664
 6020SOL    HW218960   2.292   6.023   2.528
 6021SOL     OW18961   2.952   0.370   3.519
 6021SOL    HW118962   3.024   0.363   3.449
 6021SOL    HW218963   2.924   0.466   3.527
 6022SOL     OW18964   3.776   1.837   5.828
 6022SOL    HW118965   3.874   1.823   5.842
 6022SOL    HW218966   3.724   1.781   5.893
 6023SOL     OW18967   0.109   2.093   1.802
 6023SOL    HW118968   0.091   1.999   1.832
 6023SOL    HW218969   0.095   2.156   1.878
 6024SOL     OW18970   6.237   5.543   2.689
 6024SOL    HW118971   6.237   5.643   2.694
 6024SOL    HW218972   6.213   5.513   2.597
 6025SOL     OW18973   4.493   2.024   2.409
 6025SOL    HW118974   4.411   2.020   2.351
 6025SOL    HW218975   4.540   2.111   2.394
 6026SOL     OW18976   0.693   4.179   5.639
 6026SOL    HW118977   0.701   4.232   5.555
 6026SOL    HW218978   0.753   4.218   5.709
 6027SOL     OW18979   4.327   4.420   0.447
 6027SOL    HW118980   4.280   4.497   0.405
 6027SOL    HW218981   4.353   4.354   0.376
 6028SOL     OW18982   0.781   4.008   6.293
 6028SOL    HW118983   0.722   3.957   6.356
 6028SOL    HW218984   0.862   3.953   6.272
 6029SOL     OW18985   1.166   5.210   1.782
 6029SOL    HW118986   1.202   5.200   1.874
 6029SOL    HW218987   1.229   5.168   1.716
 6030SOL     OW18988   1.927   6.414   1.697
 6030SOL    HW118989   2.017   6.458   1.695
 6030SOL    HW218990   1.867   6.465   1.759
 6031SOL     OW18991   4.580   0.788   4.360
 6031SOL    HW118992   4.652   0.734   4.403
 6031SOL    HW218993   4.498   0.731   4.349
 6032SOL     OW18994   1.261   2.330   1.880
 6032SOL    HW118995   1.283   2.417   1.925
 6032SOL    HW218996   1.229   2.264   1.949
 6033SOL     OW18997   0.074   6.846   4.711
 6033SOL    HW118998   0.006   6.907   4.669
 6033SOL    HW218999   0.053   6.751   4.689
 6034SOL     OW19000   2.358   4.701   4.595
 6034SOL    HW119001   2.440   4.731   4.645
 6034SOL    HW219002   2.283   4.689   4.659
 6035SOL     OW19003   4.735   0.215   4.110
 6035SOL    HW119004   4.800   0.288   4.131
 6035SOL    HW219005   4.712   0.219   4.012
 6036SOL     OW19006   5.663   0.547   5.125
 6036SOL    HW119007   5.727   0.537   5.201
 6036SOL    HW219008   5.574   0.511   5.151
 6037SOL     OW19009   0.659   5.886   4.754
 6037SOL    HW119010   0.596   5.918   4.683
 6037SOL    HW219011   0.631   5.795   4.784
 6038SOL     OW19012   0.656   3.903   6.506
 6038SOL    HW119013   0.572   3.958   6.511
 6038SOL    HW219014   0.633   3.807   6.519
 6039SOL     OW19015   3.456   3.254   4.008
 6039SOL    HW119016   3.545   3.214   4.026
 6039SOL    HW219017   3.398   3.246   4.089
 6040SOL     OW19018   1.329   0.771   0.561
 6040SOL    HW119019   1.352   0.690   0.507
 6040SOL    HW219020   1.407   0.834   0.562
 6041SOL     OW19021   0.663   3.027   0.152
 6041SOL    HW119022   0.629   2.940   0.189
 6041SOL    HW219023   0.761   3.033   0.169
 6042SOL     OW19024   5.201   5.633   4.740
 6042SOL    HW119025   5.131   5.645   4.811
 6042SOL    HW219026   5.188   5.703   4.670
 6043SOL     OW19027   0.176   4.692   3.537
 6043SOL    HW119028   0.132   4.644   3.613
 6043SOL    HW219029   0.274   4.677   3.542
 6044SOL     OW19030   1.547   0.627   0.846
 6044SOL    HW119031   1.602   0.546   0.828
 6044SOL    HW219032   1.450   0.604   0.839
 6045SOL     OW19033   6.384   4.262   6.697
 6045SOL    HW119034   6.428   4.190   6.751
 6045SOL    HW219035   6.288   4.237   6.680
 6046SOL     OW19036   1.224   3.645   6.819
 6046SOL    HW119037   1.277   3.722   6.784
 6046SOL    HW219038   1.280   3.594   6.884
 6047SOL     OW19039   1.299   5.900   5.087
 6047SOL    HW119040   1.275   5.997   5.073
 6047SOL    HW219041   1.216   5.845   5.082
 6048SOL     OW19042   4.434   5.859   4.017
 6048SOL    HW119043   4.364   5.915   4.062
 6048SOL    HW219044   4.488   5.916   3.957
 6049SOL     OW19045   6.693   5.703   0.109
 6049SOL    HW119046   6.743   5.626   0.149
 6049SOL    HW219047   6.640   5.671   0.030
 6050SOL     OW19048   5.966   4.367   5.359
 6050SOL    HW119049   5.908   4.341   5.282
 6050SOL    HW219050   6.050   4.408   5.325
 6051SOL     OW19051   3.122   1.981   3.604
 6051SOL    HW119052   3.079   1.967   3.515
 6051SOL    HW219053   3.079   1.921   3.671
 6052SOL     OW19054   0.488   1.731   6.888
 6052SOL    HW119055   0.495   1.632   6.875
 6052SOL    HW219056   0.551   1.759   6.961
 6053SOL     OW19057   0.668   0.283   6.462
 6053SOL    HW119058   0.583   0.315   6.422
 6053SOL    HW219059   0.719   0.361   6.499
 6054SOL     OW19060   0.589   4.346   5.921
 6054SOL    HW119061   0.575   4.262   5.973
 6054SOL    HW219062   0.535   4.343   5.838
 6055SOL     OW19063   5.654   6.663   2.897
 6055SOL    HW119064   5.600   6.739   2.862
 6055SOL    HW219065   5.640   6.583   2.839
 6056SOL     OW19066   5.162   3.125   6.168
 6056SOL    HW119067   5.102   3.198   6.135
 6056SOL    HW219068   5.181   3.061   6.093
 6057SOL     OW19069   4.443   0.978   6.729
 6057SOL    HW119070   4.430   1.021   6.640
 6057SOL    HW219071   4.504   1.034   6.785
 6058SOL     OW19072   5.357   2.190   5.286
 6058SOL    HW119073   5.441   2.139   5.305
 6058SOL    HW219074   5.371   2.286   5.310
 6059SOL     OW19075   0.325   6.310   6.663
 6059SOL    HW119076   0.226   6.296   6.666
 6059SOL    HW219077   0.368   6.234   6.614
 6060SOL     OW19078   2.806   5.353   6.617
 6060SOL    HW119079   2.785   5.416   6.692
 6060SOL    HW219080   2.727   5.347   6.555
 6061SOL     OW19081   2.201   1.263   0.245
 6061SOL    HW119082   2.211   1.321   0.164
 6061SOL    HW219083   2.175   1.170   0.216
 6062SOL     OW19084   1.325   0.512   3.432
 6062SOL    HW119085   1.322   0.607   3.402
 6062SOL    HW219086   1.377   0.457   3.366
 6063SOL     OW19087   6.034   5.834   6.738
 6063SOL    HW119088   6.056   5.888   6.820
 6063SOL    HW219089   6.008   5.742   6.766
 6064SOL     OW19090   1.177   5.580   2.722
 6064SOL    HW119091   1.130   5.614   2.641
 6064SOL    HW219092   1.160   5.641   2.800
 6065SOL     OW19093   5.270   0.125   1.106
 6065SOL    HW119094   5.189   0.179   1.133
 6065SOL    HW219095   5.353   0.171   1.138
 6066SOL     OW19096   4.322   2.348   5.606
 6066SOL    HW119097   4.354   2.320   5.696
 6066SOL    HW219098   4.229   2.385   5.613
 6067SOL     OW19099   4.785   1.797   6.830
 6067SOL    HW119100   4.846   1.857   6.883
 6067SOL    HW219101   4.837   1.754   6.757
 6068SOL     OW19102   4.949   0.682   5.495
 6068SOL    HW119103   5.011   0.713   5.567
 6068SOL    HW219104   4.975   0.725   5.408
 6069SOL     OW19105   6.544   5.520   3.582
 6069SOL    HW119106   6.496   5.578   3.517
 6069SOL    HW219107   6.576   5.576   3.659
 6070SOL     OW19108   5.011   3.447   0.998
 6070SOL    HW119109   4.942   3.420   0.931
 6070SOL    HW219110   5.081   3.503   0.954
 6071SOL     OW19111   4.783   0.240   5.110
 6071SOL    HW119112   4.847   0.182   5.160
 6071SOL    HW219113   4.697   0.191   5.096
 6072SOL     OW19114   6.073   1.524   1.589
 6072SOL    HW119115   6.096   1.619   1.569
 6072SOL    HW219116   6.039   1.517   1.683
 6073SOL     OW19117   5.845   1.160   0.887
 6073SOL    HW119118   5.902   1.079   0.887
 6073SOL    HW219119   5.868   1.217   0.808
 6074SOL     OW19120   0.439   0.608   5.845
 6074SOL    HW119121   0.507   0.673   5.809
 6074SOL    HW219122   0.349   0.651   5.845
 6075SOL     OW19123   5.126   3.647   5.789
 6075SOL    HW119124   5.155   3.657   5.694
 6075SOL    HW219125   5.089   3.735   5.822
 6076SOL     OW19126   2.544   0.464   4.053
 6076SOL    HW119127   2.610   0.394   4.026
 6076SOL    HW219128   2.469   0.466   3.987
 6077SOL     OW19129   5.133   4.873   3.672
 6077SOL    HW119130   5.057   4.827   3.719
 6077SOL    HW219131   5.213   4.873   3.732
 6078SOL     OW19132   1.847   4.521   4.690
 6078SOL    HW119133   1.832   4.456   4.765
 6078SOL    HW219134   1.791   4.602   4.706
 6079SOL     OW19135   2.915   2.041   0.460
 6079SOL    HW119136   2.918   1.964   0.397
 6079SOL    HW219137   2.872   2.120   0.415
 6080SOL     OW19138   5.750   3.633   3.160
 6080SOL    HW119139   5.811   3.657   3.235
 6080SOL    HW219140   5.804   3.618   3.077
 6081SOL     OW19141   0.669   4.448   1.643
 6081SOL    HW119142   0.719   4.377   1.693
 6081SOL    HW219143   0.706   4.457   1.551
 6082SOL     OW19144   4.533   1.825   5.115
 6082SOL    HW119145   4.549   1.864   5.025
 6082SOL    HW219146   4.607   1.760   5.137
 6083SOL     OW19147   1.974   6.879   6.715
 6083SOL    HW119148   1.991   6.803   6.779
 6083SOL    HW219149   2.035   6.955   6.738
 6084SOL     OW19150   0.188   5.792   6.245
 6084SOL    HW119151   0.142   5.856   6.182
 6084SOL    HW219152   0.285   5.816   6.251
 6085SOL     OW19153   5.143   5.005   1.410
 6085SOL    HW119154   5.121   4.911   1.439
 6085SOL    HW219155   5.150   5.063   1.491
 6086SOL     OW19156   3.207   1.926   2.130
 6086SOL    HW119157   3.165   2.013   2.103
 6086SOL    HW219158   3.305   1.929   2.109
 6087SOL     OW19159   4.110   0.734   0.606
 6087SOL    HW119160   4.013   0.712   0.590
 6087SOL    HW219161   4.123   0.758   0.702
 6088SOL     OW19162   0.427   0.801   5.019
 6088SOL    HW119163   0.342   0.853   5.015
 6088SOL    HW219164   0.476   0.823   5.104
 6089SOL     OW19165   6.632   3.914   1.011
 6089SOL    HW119166   6.645   3.878   0.918
 6089SOL    HW219167   6.722   3.935   1.051
 6090SOL     OW19168   6.838   6.122   4.188
 6090SOL    HW119169   6.910   6.098   4.122
 6090SOL    HW219170   6.756   6.068   4.169
 6091SOL     OW19171   6.841   2.225   1.911
 6091SOL    HW119172   6.841   2.152   1.979
 6091SOL    HW219173   6.779   2.298   1.941
 6092SOL     OW19174   0.945   3.593   0.867
 6092SOL    HW119175   0.947   3.557   0.774
 6092SOL    HW219176   0.861   3.645   0.881
 6093SOL     OW19177   0.909   4.648   0.575
 6093SOL    HW119178   0.903   4.746   0.555
 6093SOL    HW219179   0.829   4.620   0.627
 6094SOL     OW19180   0.458   1.273   0.784
 6094SOL    HW119181   0.402   1.302   0.707
 6094SOL    HW219182   0.452   1.174   0.795
 6095SOL     OW19183   0.139   3.750   5.098
 6095SOL    HW119184   0.165   3.804   5.018
 6095SOL    HW219185   0.210   3.755   5.167
 6096SOL     OW19186   5.609   1.940   2.639
 6096SOL    HW119187   5.525   1.971   2.594
 6096SOL    HW219188   5.688   1.976   2.590
 6097SOL     OW19189   3.869   1.621   2.442
 6097SOL    HW119190   3.887   1.717   2.419
 6097SOL    HW219191   3.852   1.613   2.540
 6098SOL     OW19192   0.663   0.823   6.662
 6098SOL    HW119193   0.640   0.915   6.632
 6098SOL    HW219194   0.587   0.785   6.715
 6099SOL     OW19195   6.127   3.993   4.732
 6099SOL    HW119196   6.051   4.026   4.676
 6099SOL    HW219197   6.189   3.940   4.674
 6100SOL     OW19198   6.895   3.073   1.191
 6100SOL    HW119199   6.952   3.045   1.114
 6100SOL    HW219200   6.923   3.164   1.222
 6101SOL     OW19201   6.356   6.379   3.781
 6101SOL    HW119202   6.265   6.408   3.751
 6101SOL    HW219203   6.347   6.315   3.858
 6102SOL     OW19204   3.442   6.285   5.030
 6102SOL    HW119205   3.396   6.353   5.087
 6102SOL    HW219206   3.411   6.193   5.055
 6103SOL     OW19207   5.700   1.746   5.266
 6103SOL    HW119208   5.793   1.781   5.278
 6103SOL    HW219209   5.696   1.690   5.183
 6104SOL     OW19210   2.169   3.026   1.346
 6104SOL    HW119211   2.078   3.057   1.372
 6104SOL    HW219212   2.193   2.945   1.398
 6105SOL     OW19213   3.304   4.979   4.620
 6105SOL    HW119214   3.252   4.964   4.703
 6105SOL    HW219215   3.270   4.918   4.548
 6106SOL     OW19216   2.102   5.031   4.525
 6106SOL    HW119217   2.127   5.040   4.621
 6106SOL    HW219218   2.156   4.958   4.483
 6107SOL     OW19219   2.101   5.024   6.206
 6107SOL    HW119220   2.148   5.101   6.249
 6107SOL    HW219221   2.138   4.938   6.242
 6108SOL     OW19222   5.386   1.901   5.062
 6108SOL    HW119223   5.348   1.988   5.030
 6108SOL    HW219224   5.427   1.853   4.985
 6109SOL     OW19225   0.010   4.716   1.523
 6109SOL    HW119226   0.095   4.699   1.574
 6109SOL    HW219227   0.001   4.813   1.505
 6110SOL     OW19228   3.519   2.128   3.947
 6110SOL    HW119229   3.488   2.118   4.042
 6110SOL    HW219230   3.441   2.116   3.885
 6111SOL     OW19231   0.431   4.648   3.544
 6111SOL    HW119232   0.469   4.648   3.452
 6111SOL    HW219233   0.471   4.573   3.597
 6112SOL     OW19234   1.209   0.914   1.186
 6112SOL    HW119235   1.270   0.864   1.249
 6112SOL    HW219236   1.217   1.012   1.203
 6113SOL     OW19237   1.375   4.523   5.609
 6113SOL    HW119238   1.464   4.528   5.655
 6113SOL    HW219239   1.389   4.532   5.510
 6114SOL     OW19240   3.492   4.204   1.259
 6114SOL    HW119241   3.514   4.221   1.355
 6114SOL    HW219242   3.423   4.270   1.228
 6115SOL     OW19243   0.065   4.720   2.378
 6115SOL    HW119244   0.159   4.743   2.355
 6115SOL    HW219245   0.020   4.799   2.420
 6116SOL     OW19246   4.175   2.480   1.033
 6116SOL    HW119247   4.124   2.433   1.105
 6116SOL    HW219248   4.118   2.551   0.992
 6117SOL     OW19249   5.251   5.626   4.042
 6117SOL    HW119250   5.164   5.672   4.025
 6117SOL    HW219251   5.315   5.645   3.967
 6118SOL     OW19252   6.361   0.182   3.796
 6118SOL    HW119253   6.345   0.089   3.826
 6118SOL    HW219254   6.454   0.210   3.821
 6119SOL     OW19255   5.828   5.242   4.692
 6119SOL    HW119256   5.756   5.194   4.742
 6119SOL    HW219257   5.817   5.224   4.594
 6120SOL     OW19258   2.376   1.969   2.755
 6120SOL    HW119259   2.328   1.942   2.672
 6120SOL    HW219260   2.398   2.067   2.750
 6121SOL     OW19261   6.870   2.349   3.171
 6121SOL    HW119262   6.924   2.413   3.117
 6121SOL    HW219263   6.915   2.260   3.171
 6122SOL     OW19264   3.788   5.421   4.054
 6122SOL    HW119265   3.784   5.321   4.053
 6122SOL    HW219266   3.884   5.450   4.056
 6123SOL     OW19267   5.910   1.598   2.592
 6123SOL    HW119268   5.935   1.693   2.575
 6123SOL    HW219269   5.963   1.538   2.532
 6124SOL     OW19270   2.854   0.295   5.223
 6124SOL    HW119271   2.826   0.204   5.254
 6124SOL    HW219272   2.937   0.323   5.271
 6125SOL     OW19273   1.129   4.100   2.432
 6125SOL    HW119274   1.036   4.112   2.467
 6125SOL    HW219275   1.158   4.183   2.383
 6126SOL     OW19276   3.614   6.777   3.426
 6126SOL    HW119277   3.583   6.696   3.377
 6126SOL    HW219278   3.668   6.834   3.363
 6127SOL     OW19279   1.926   5.656   1.390
 6127SOL    HW119280   1.982   5.734   1.415
 6127SOL    HW219281   1.842   5.656   1.444
 6128SOL     OW19282   5.683   4.081   1.890
 6128SOL    HW119283   5.728   4.023   1.958
 6128SOL    HW219284   5.612   4.136   1.935
 6129SOL     OW19285   6.634   3.629   3.612
 6129SOL    HW119286   6.679   3.695   3.672
 6129SOL    HW219287   6.580   3.678   3.544
 6130SOL     OW19288   5.187   3.267   2.907
 6130SOL    HW119289   5.254   3.198   2.881
 6130SOL    HW219290   5.177   3.333   2.833
 6131SOL     OW19291   6.944   1.099   5.381
 6131SOL    HW119292   7.010   1.092   5.456
 6131SOL    HW219293   6.852   1.082   5.416
 6132SOL     OW19294   0.147   2.533   0.282
 6132SOL    HW119295   0.078   2.533   0.210
 6132SOL    HW219296   0.223   2.474   0.256
 6133SOL     OW19297   1.579   4.914   0.386
 6133SOL    HW119298   1.515   4.837   0.384
 6133SOL    HW219299   1.672   4.881   0.368
 6134SOL     OW19300   4.674   3.681   6.497
 6134SOL    HW119301   4.586   3.692   6.452
 6134SOL    HW219302   4.661   3.638   6.586
 6135SOL     OW19303   5.774   6.734   2.106
 6135SOL    HW119304   5.852   6.756   2.046
 6135SOL    HW219305   5.697   6.792   2.083
 6136SOL     OW19306   1.479   2.156   2.525
 6136SOL    HW119307   1.491   2.228   2.594
 6136SOL    HW219308   1.559   2.096   2.525
 6137SOL     OW19309   3.204   0.193   6.212
 6137SOL    HW119310   3.207   0.094   6.193
 6137SOL    HW219311   3.160   0.208   6.300
 6138SOL     OW19312   4.638   0.848   3.013
 6138SOL    HW119313   4.730   0.886   3.012
 6138SOL    HW219314   4.638   0.760   3.060
 6139SOL     OW19315   2.464   6.183   3.666
 6139SOL    HW119316   2.398   6.131   3.720
 6139SOL    HW219317   2.417   6.236   3.596
 6140SOL     OW19318   2.226   5.718   1.274
 6140SOL    HW119319   2.214   5.747   1.369
 6140SOL    HW219320   2.143   5.737   1.222
 6141SOL     OW19321   0.882   6.297   5.060
 6141SOL    HW119322   0.967   6.257   5.092
 6141SOL    HW219323   0.893   6.331   4.967
 6142SOL     OW19324   6.876   3.154   3.937
 6142SOL    HW119325   6.837   3.069   3.972
 6142SOL    HW219326   6.804   3.211   3.898
 6143SOL     OW19327   6.180   5.933   6.166
 6143SOL    HW119328   6.223   6.011   6.210
 6143SOL    HW219329   6.243   5.855   6.168
 6144SOL     OW19330   0.470   5.951   4.530
 6144SOL    HW119331   0.487   5.972   4.434
 6144SOL    HW219332   0.418   6.025   4.572
 6145SOL     OW19333   6.134   5.204   3.675
 6145SOL    HW119334   6.131   5.276   3.605
 6145SOL    HW219335   6.040   5.176   3.698
 6146SOL     OW19336   6.046   2.025   3.420
 6146SOL    HW119337   6.052   2.122   3.397
 6146SOL    HW219338   5.951   2.001   3.439
 6147SOL     OW19339   1.108   3.853   3.781
 6147SOL    HW119340   1.057   3.932   3.748
 6147SOL    HW219341   1.204   3.861   3.755
 6148SOL     OW19342   6.101   6.644   3.343
 6148SOL    HW119343   6.146   6.728   3.311
 6148SOL    HW219344   6.167   6.588   3.393
 6149SOL     OW19345   1.308   5.946   4.576
 6149SOL    HW119346   1.280   5.889   4.498
 6149SOL    HW219347   1.328   5.888   4.655
 6150SOL     OW19348   4.656   6.560   6.216
 6150SOL    HW119349   4.731   6.524   6.272
 6150SOL    HW219350   4.590   6.607   6.275
 6151SOL     OW19351   4.067   0.367   4.752
 6151SOL    HW119352   4.157   0.377   4.792
 6151SOL    HW219353   4.000   0.419   4.805
 6152SOL     OW19354   6.473   3.913   6.302
 6152SOL    HW119355   6.496   4.002   6.342
 6152SOL    HW219356   6.549   3.883   6.244
 6153SOL     OW19357   3.526   5.571   5.714
 6153SOL    HW119358   3.619   5.553   5.679
 6153SOL    HW219359   3.470   5.610   5.641
 6154SOL     OW19360   5.365   2.948   3.315
 6154SOL    HW119361   5.268   2.973   3.313
 6154SOL    HW219362   5.380   2.870   3.254
 6155SOL     OW19363   2.795   4.743   4.638
 6155SOL    HW119364   2.891   4.736   4.662
 6155SOL    HW219365   2.781   4.707   4.546
 6156SOL     OW19366   5.632   0.618   4.489
 6156SOL    HW119367   5.680   0.623   4.401
 6156SOL    HW219368   5.647   0.528   4.530
 6157SOL     OW19369   1.434   1.036   4.720
 6157SOL    HW119370   1.481   1.036   4.632
 6157SOL    HW219371   1.356   1.099   4.716
 6158SOL     OW19372   4.837   6.584   6.890
 6158SOL    HW119373   4.920   6.639   6.901
 6158SOL    HW219374   4.862   6.490   6.866
 6159SOL     OW19375   5.178   3.661   6.279
 6159SOL    HW119376   5.225   3.573   6.276
 6159SOL    HW219377   5.088   3.650   6.322
 6160SOL     OW19378   6.270   5.330   0.051
 6160SOL    HW119379   6.223   5.267   0.113
 6160SOL    HW219380   6.250   5.424   0.078
 6161SOL     OW19381   5.691   0.091   6.250
 6161SOL    HW119382   5.686   0.097   6.349
 6161SOL    HW219383   5.604   0.117   6.209
 6162SOL     OW19384   5.915   5.653   3.573
 6162SOL    HW119385   6.000   5.656   3.625
 6162SOL    HW219386   5.933   5.617   3.481
 6163SOL     OW19387   0.019   3.992   3.013
 6163SOL    HW119388   0.099   4.051   3.010
 6163SOL    HW219389   0.044   3.899   2.987
 6164SOL     OW19390   4.703   3.211   1.117
 6164SOL    HW119391   4.672   3.133   1.063
 6164SOL    HW219392   4.653   3.293   1.089
 6165SOL     OW19393   3.825   6.971   0.770
 6165SOL    HW119394   3.791   0.044   0.747
 6165SOL    HW219395   3.842   6.964   0.868
 6166SOL     OW19396   3.137   0.694   0.306
 6166SOL    HW119397   3.206   0.759   0.274
 6166SOL    HW219398   3.147   0.608   0.255
 6167SOL     OW19399   0.088   5.142   3.524
 6167SOL    HW119400   0.138   5.138   3.437
 6167SOL    HW219401   0.004   5.194   3.511
 6168SOL     OW19402   0.111   2.773   1.750
 6168SOL    HW119403   0.171   2.693   1.759
 6168SOL    HW219404   0.121   2.832   1.830
 6169SOL     OW19405   1.302   4.288   0.991
 6169SOL    HW119406   1.203   4.275   0.985
 6169SOL    HW219407   1.346   4.244   0.913
 6170SOL     OW19408   6.445   2.240   3.483
 6170SOL    HW119409   6.440   2.329   3.530
 6170SOL    HW219410   6.372   2.181   3.516
 6171SOL     OW19411   5.580   2.170   6.143
 6171SOL    HW119412   5.573   2.083   6.094
 6171SOL    HW219413   5.582   2.245   6.077
 6172SOL     OW19414   0.249   4.715   3.983
 6172SOL    HW119415   0.231   4.679   4.075
 6172SOL    HW219416   0.213   4.651   3.915
 6173SOL     OW19417   5.313   6.351   2.959
 6173SOL    HW119418   5.271   6.442   2.969
 6173SOL    HW219419   5.372   6.350   2.878
 6174SOL     OW19420   0.523   2.296   3.370
 6174SOL    HW119421   0.472   2.347   3.301
 6174SOL    HW219422   0.559   2.212   3.329
 6175SOL     OW19423   4.202   2.500   6.541
 6175SOL    HW119424   4.139   2.463   6.609
 6175SOL    HW219425   4.155   2.570   6.487
 6176SOL     OW19426   2.892   5.044   5.523
 6176SOL    HW119427   2.902   5.143   5.516
 6176SOL    HW219428   2.942   5.011   5.603
 6177SOL     OW19429   5.739   5.463   1.896
 6177SOL    HW119430   5.715   5.418   1.810
 6177SOL    HW219431   5.685   5.422   1.970
 6178SOL     OW19432   4.365   4.633   1.901
 6178SOL    HW119433   4.374   4.578   1.983
 6178SOL    HW219434   4.383   4.577   1.820
 6179SOL     OW19435   4.746   5.262   4.741
 6179SOL    HW119436   4.820   5.311   4.695
 6179SOL    HW219437   4.760   5.266   4.840
 6180SOL     OW19438   2.233   3.723   6.865
 6180SOL    HW119439   2.138   3.721   6.896
 6180SOL    HW219440   2.286   3.782   6.925
 6181SOL     OW19441   0.296   6.447   0.085
 6181SOL    HW119442   0.364   6.381   0.052
 6181SOL    HW219443   0.257   6.414   0.171
 6182SOL     OW19444   2.805   2.609   5.881
 6182SOL    HW119445   2.763   2.697   5.900
 6182SOL    HW219446   2.837   2.567   5.966
 6183SOL     OW19447   0.365   0.449   0.524
 6183SOL    HW119448   0.400   0.356   0.515
 6183SOL    HW219449   0.398   0.490   0.609
 6184SOL     OW19450   3.628   6.283   5.625
 6184SOL    HW119451   3.528   6.292   5.620
 6184SOL    HW219452   3.670   6.373   5.617
 6185SOL     OW19453   3.116   3.099   3.768
 6185SOL    HW119454   3.082   3.038   3.697
 6185SOL    HW219455   3.216   3.089   3.775
 6186SOL     OW19456   1.104   1.905   2.278
 6186SOL    HW119457   1.078   1.821   2.326
 6186SOL    HW219458   1.047   1.916   2.196
 6187SOL     OW19459   3.579   2.098   5.637
 6187SOL    HW119460   3.623   2.137   5.718
 6187SOL    HW219461   3.631   2.018   5.607
 6188SOL     OW19462   1.354   1.243   5.830
 6188SOL    HW119463   1.407   1.276   5.753
 6188SOL    HW219464   1.308   1.158   5.805
 6189SOL     OW19465   6.888   5.652   0.783
 6189SOL    HW119466   6.971   5.644   0.727
 6189SOL    HW219467   6.834   5.567   0.775
 6190SOL     OW19468   0.877   2.990   4.022
 6190SOL    HW119469   0.934   3.071   4.007
 6190SOL    HW219470   0.837   2.994   4.113
 6191SOL     OW19471   3.410   4.471   0.027
 6191SOL    HW119472   3.471   4.540   0.068
 6191SOL    HW219473   3.342   4.515   6.988
 6192SOL     OW19474   2.625   1.936   1.351
 6192SOL    HW119475   2.637   1.889   1.438
 6192SOL    HW219476   2.587   1.873   1.284
 6193SOL     OW19477   4.539   5.466   6.997
 6193SOL    HW119478   4.522   5.442   6.901
 6193SOL    HW219479   4.637   5.472   7.013
 6194SOL     OW19480   5.712   6.811   5.892
 6194SOL    HW119481   5.648   6.884   5.918
 6194SOL    HW219482   5.783   6.848   5.832
 6195SOL     OW19483   4.800   5.154   5.750
 6195SOL    HW119484   4.723   5.173   5.812
 6195SOL    HW219485   4.782   5.197   5.661
 6196SOL     OW19486   6.907   3.529   3.370
 6196SOL    HW119487   6.885   3.520   3.467
 6196SOL    HW219488   6.967   3.454   3.342
 6197SOL     OW19489   0.641   5.542   0.489
 6197SOL    HW119490   0.730   5.503   0.510
 6197SOL    HW219491   0.643   5.641   0.500
 6198SOL     OW19492   6.587   1.688   5.887
 6198SOL    HW119493   6.540   1.752   5.826
 6198SOL    HW219494   6.534   1.678   5.972
 6199SOL     OW19495   2.272   0.267   6.081
 6199SOL    HW119496   2.181   0.226   6.093
 6199SOL    HW219497   2.294   0.322   6.162
 6200SOL     OW19498   1.798   0.058   6.709
 6200SOL    HW119499   1.842   0.142   6.676
 6200SOL    HW219500   1.865   7.003   6.716
 6201SOL     OW19501   0.659   4.700   3.980
 6201SOL    HW119502   0.584   4.636   3.996
 6201SOL    HW219503   0.626   4.793   3.991
 6202SOL     OW19504   5.535   0.903   1.307
 6202SOL    HW119505   5.621   0.855   1.325
 6202SOL    HW219506   5.549   1.001   1.315
 6203SOL     OW19507   0.283   1.366   2.166
 6203SOL    HW119508   0.278   1.356   2.265
 6203SOL    HW219509   0.293   1.463   2.142
 6204SOL     OW19510   1.211   6.212   4.569
 6204SOL    HW119511   1.116   6.184   4.581
 6204SOL    HW219512   1.270   6.131   4.566
 6205SOL     OW19513   6.903   4.384   3.754
 6205SOL    HW119514   6.961   4.398   3.673
 6205SOL    HW219515   6.845   4.304   3.740
 6206SOL     OW19516   5.173   2.212   3.434
 6206SOL    HW119517   5.078   2.204   3.402
 6206SOL    HW219518   5.224   2.272   3.372
 6207SOL     OW19519   1.824   5.859   3.341
 6207SOL    HW119520   1.755   5.923   3.375
 6207SOL    HW219521   1.915   5.892   3.368
 6208SOL     OW19522   3.668   4.575   6.046
 6208SOL    HW119523   3.727   4.550   6.123
 6208SOL    HW219524   3.583   4.615   6.082
 6209SOL     OW19525   3.363   0.734   2.628
 6209SOL    HW119526   3.372   0.817   2.683
 6209SOL    HW219527   3.357   0.758   2.531
 6210SOL     OW19528   5.355   0.386   3.854
 6210SOL    HW119529   5.289   0.449   3.896
 6210SOL    HW219530   5.315   0.347   3.771
 6211SOL     OW19531   5.430   2.696   5.141
 6211SOL    HW119532   5.403   2.600   5.143
 6211SOL    HW219533   5.468   2.722   5.229
 6212SOL     OW19534   4.907   4.086   4.528
 6212SOL    HW119535   4.993   4.068   4.481
 6212SOL    HW219536   4.897   4.022   4.605
 6213SOL     OW19537   5.227   6.094   0.742
 6213SOL    HW119538   5.314   6.055   0.711
 6213SOL    HW219539   5.194   6.160   0.675
 6214SOL     OW19540   6.684   6.305   6.299
 6214SOL    HW119541   6.595   6.349   6.304
 6214SOL    HW219542   6.752   6.363   6.344
 6215SOL     OW19543   5.774   2.512   5.031
 6215SOL    HW119544   5.865   2.510   4.991
 6215SOL    HW219545   5.730   2.599   5.010
 6216SOL     OW19546   5.198   2.901   6.001
 6216SOL    HW119547   5.241   2.815   6.030
 6216SOL    HW219548   5.180   2.898   5.903
 6217SOL     OW19549   0.240   4.251   2.055
 6217SOL    HW119550   0.300   4.283   1.982
 6217SOL    HW219551   0.199   4.330   2.102
 6218SOL     OW19552   5.151   6.816   1.359
 6218SOL    HW119553   5.155   6.717   1.344
 6218SOL    HW219554   5.112   6.835   1.449
 6219SOL     OW19555   2.621   0.690   0.657
 6219SOL    HW119556   2.662   0.728   0.574
 6219SOL    HW219557   2.607   0.591   0.645
 6220SOL     OW19558   2.920   0.433   2.863
 6220SOL    HW119559   3.019   0.435   2.849
 6220SOL    HW219560   2.884   0.526   2.865
 6221SOL     OW19561   4.169   5.047   5.025
 6221SOL    HW119562   4.088   5.094   5.062
 6221SOL    HW219563   4.156   4.948   5.032
 6222SOL     OW19564   0.549   1.260   2.153
 6222SOL    HW119565   0.529   1.244   2.056
 6222SOL    HW219566   0.472   1.307   2.196
 6223SOL     OW19567   6.674   5.339   4.008
 6223SOL    HW119568   6.729   5.421   4.022
 6223SOL    HW219569   6.639   5.337   3.915
 6224SOL     OW19570   3.835   0.052   6.950
 6224SOL    HW119571   3.916   7.011   6.951
 6224SOL    HW219572   3.753   7.015   6.964
 6225SOL     OW19573   5.546   5.284   6.502
 6225SOL    HW119574   5.604   5.233   6.565
 6225SOL    HW219575   5.593   5.368   6.475
 6226SOL     OW19576   1.191   1.163   4.084
 6226SOL    HW119577   1.224   1.114   4.003
 6226SOL    HW219578   1.139   1.244   4.055
 6227SOL     OW19579   2.483   4.068   6.228
 6227SOL    HW119580   2.497   4.119   6.143
 6227SOL    HW219581   2.469   3.971   6.207
 6228SOL     OW19582   0.454   2.834   4.193
 6228SOL    HW119583   0.372   2.886   4.213
 6228SOL    HW219584   0.442   2.783   4.108
 6229SOL     OW19585   0.210   4.305   4.808
 6229SOL    HW119586   0.231   4.223   4.861
 6229SOL    HW219587   0.111   4.320   4.808
 6230SOL     OW19588   0.772   0.530   0.959
 6230SOL    HW119589   0.705   0.478   0.906
 6230SOL    HW219590   0.864   0.505   0.931
 6231SOL     OW19591   2.219   5.312   5.591
 6231SOL    HW119592   2.275   5.270   5.662
 6231SOL    HW219593   2.157   5.244   5.552
 6232SOL     OW19594   3.957   0.985   6.457
 6232SOL    HW119595   4.054   0.967   6.475
 6232SOL    HW219596   3.948   1.058   6.389
 6233SOL     OW19597   0.117   4.399   1.017
 6233SOL    HW119598   0.043   4.417   1.081
 6233SOL    HW219599   0.155   4.485   0.983
 6234SOL     OW19600   5.024   5.123   3.015
 6234SOL    HW119601   4.944   5.182   3.019
 6234SOL    HW219602   5.101   5.168   3.061
 6235SOL     OW19603   0.647   0.910   1.672
 6235SOL    HW119604   0.585   0.836   1.646
 6235SOL    HW219605   0.652   0.916   1.772
 6236SOL     OW19606   6.299   5.881   1.508
 6236SOL    HW119607   6.354   5.958   1.476
 6236SOL    HW219608   6.205   5.892   1.477
 6237SOL     OW19609   4.346   1.045   2.679
 6237SOL    HW119610   4.435   1.066   2.719
 6237SOL    HW219611   4.279   1.028   2.751
 6238SOL     OW19612   2.245   6.713   3.758
 6238SOL    HW119613   2.246   6.789   3.823
 6238SOL    HW219614   2.333   6.707   3.712
 6239SOL     OW19615   3.831   1.480   4.303
 6239SOL    HW119616   3.914   1.444   4.260
 6239SOL    HW219617   3.855   1.553   4.367
 6240SOL     OW19618   3.860   3.168   4.414
 6240SOL    HW119619   3.796   3.102   4.454
 6240SOL    HW219620   3.903   3.221   4.488
 6241SOL     OW19621   4.183   0.210   3.486
 6241SOL    HW119622   4.136   0.122   3.481
 6241SOL    HW219623   4.280   0.195   3.507
 6242SOL     OW19624   3.409   2.140   4.681
 6242SOL    HW119625   3.311   2.136   4.699
 6242SOL    HW219626   3.425   2.167   4.586
 6243SOL     OW19627   2.928   0.766   0.033
 6243SOL    HW119628   2.952   0.848   6.998
 6243SOL    HW219629   2.894   0.794   0.123
 6244SOL     OW19630   4.844   2.675   1.736
 6244SOL    HW119631   4.803   2.749   1.788
 6244SOL    HW219632   4.797   2.666   1.648
 6245SOL     OW19633   0.041   4.972   1.443
 6245SOL    HW119634   0.042   5.014   1.534
 6245SOL    HW219635   0.059   5.041   1.374
 6246SOL     OW19636   1.083   5.807   5.346
 6246SOL    HW119637   1.061   5.901   5.370
 6246SOL    HW219638   1.089   5.799   5.246
 6247SOL     OW19639   5.817   5.515   2.687
 6247SOL    HW119640   5.802   5.470   2.600
 6247SOL    HW219641   5.914   5.533   2.700
 6248SOL     OW19642   4.424   2.349   6.083
 6248SOL    HW119643   4.426   2.445   6.055
 6248SOL    HW219644   4.474   2.338   6.169
 6249SOL     OW19645   5.472   2.328   2.729
 6249SOL    HW119646   5.454   2.329   2.828
 6249SOL    HW219647   5.548   2.390   2.709
 6250SOL     OW19648   4.992   6.753   5.031
 6250SOL    HW119649   4.964   6.798   4.946
 6250SOL    HW219650   5.046   6.817   5.086
 6251SOL     OW19651   2.889   1.139   4.039
 6251SOL    HW119652   2.794   1.150   4.068
 6251SOL    HW219653   2.903   1.186   3.952
 6252SOL     OW19654   2.501   4.913   0.379
 6252SOL    HW119655   2.583   4.968   0.395
 6252SOL    HW219656   2.525   4.833   0.325
 6253SOL     OW19657   4.698   6.127   3.456
 6253SOL    HW119658   4.679   6.071   3.376
 6253SOL    HW219659   4.797   6.136   3.469
 6254SOL     OW19660   6.938   6.847   1.741
 6254SOL    HW119661   6.963   6.928   1.795
 6254SOL    HW219662   6.869   6.794   1.790
 6255SOL     OW19663   2.478   0.634   1.086
 6255SOL    HW119664   2.486   0.622   1.185
 6255SOL    HW219665   2.544   0.574   1.040
 6256SOL     OW19666   0.194   4.612   1.990
 6256SOL    HW119667   0.125   4.685   1.984
 6256SOL    HW219668   0.242   4.620   2.077
 6257SOL     OW19669   4.162   3.887   0.616
 6257SOL    HW119670   4.139   3.798   0.577
 6257SOL    HW219671   4.118   3.959   0.563
 6258SOL     OW19672   4.292   4.962   3.565
 6258SOL    HW119673   4.366   4.957   3.499
 6258SOL    HW219674   4.222   5.025   3.532
 6259SOL     OW19675   5.001   0.352   4.902
 6259SOL    HW119676   5.037   0.437   4.941
 6259SOL    HW219677   5.057   0.275   4.932
 6260SOL     OW19678   3.564   2.216   6.942
 6260SOL    HW119679   3.564   2.148   6.869
 6260SOL    HW219680   3.659   2.235   6.969
 6261SOL     OW19681   4.785   6.445   1.336
 6261SOL    HW119682   4.804   6.530   1.385
 6261SOL    HW219683   4.870   6.394   1.323
 6262SOL     OW19684   6.184   1.361   3.622
 6262SOL    HW119685   6.177   1.445   3.676
 6262SOL    HW219686   6.274   1.356   3.580
 6263SOL     OW19687   6.029   6.512   5.986
 6263SOL    HW119688   6.019   6.453   5.905
 6263SOL    HW219689   6.064   6.601   5.957
 6264SOL     OW19690   1.192   6.764   1.470
 6264SOL    HW119691   1.199   6.799   1.376
 6264SOL    HW219692   1.097   6.771   1.501
 6265SOL     OW19693   3.904   6.507   6.781
 6265SOL    HW119694   3.966   6.431   6.763
 6265SOL    HW219695   3.846   6.523   6.701
 6266SOL     OW19696   2.659   5.128   3.479
 6266SOL    HW119697   2.737   5.189   3.489
 6266SOL    HW219698   2.644   5.079   3.564
 6267SOL     OW19699   0.766   6.407   4.140
 6267SOL    HW119700   0.834   6.481   4.146
 6267SOL    HW219701   0.773   6.349   4.221
 6268SOL     OW19702   3.260   1.767   1.093
 6268SOL    HW119703   3.185   1.757   1.158
 6268SOL    HW219704   3.225   1.801   1.006
 6269SOL     OW19705   0.132   6.035   0.352
 6269SOL    HW119706   0.132   5.968   0.278
 6269SOL    HW219707   0.219   6.031   0.401
 6270SOL     OW19708   1.332   6.115   1.025
 6270SOL    HW119709   1.382   6.108   0.939
 6270SOL    HW219710   1.284   6.029   1.042
 6271SOL     OW19711   6.677   3.426   6.201
 6271SOL    HW119712   6.756   3.481   6.229
 6271SOL    HW219713   6.599   3.448   6.260
 6272SOL     OW19714   6.832   0.983   0.970
 6272SOL    HW119715   6.758   0.980   1.037
 6272SOL    HW219716   6.794   0.986   0.878
 6273SOL     OW19717   0.263   6.586   2.756
 6273SOL    HW119718   0.188   6.636   2.713
 6273SOL    HW219719   0.270   6.612   2.853
 6274SOL     OW19720   3.526   5.754   4.097
 6274SOL    HW119721   3.428   5.770   4.084
 6274SOL    HW219722   3.563   5.708   4.016
 6275SOL     OW19723   3.096   5.585   1.487
 6275SOL    HW119724   3.155   5.515   1.526
 6275SOL    HW219725   3.099   5.667   1.545
 6276SOL     OW19726   1.177   4.322   2.280
 6276SOL    HW119727   1.271   4.349   2.260
 6276SOL    HW219728   1.117   4.356   2.208
 6277SOL     OW19729   5.439   2.247   1.142
 6277SOL    HW119730   5.531   2.263   1.107
 6277SOL    HW219731   5.376   2.229   1.066
 6278SOL     OW19732   3.865   3.330   0.174
 6278SOL    HW119733   3.914   3.288   0.097
 6278SOL    HW219734   3.772   3.353   0.145
 6279SOL     OW19735   0.990   6.349   2.184
 6279SOL    HW119736   1.023   6.337   2.278
 6279SOL    HW219737   1.059   6.398   2.131
 6280SOL     OW19738   5.000   1.040   6.775
 6280SOL    HW119739   4.901   1.056   6.783
 6280SOL    HW219740   5.049   1.096   6.841
 6281SOL     OW19741   5.795   3.856   6.441
 6281SOL    HW119742   5.749   3.916   6.506
 6281SOL    HW219743   5.875   3.816   6.485
 6282SOL     OW19744   0.294   4.462   5.930
 6282SOL    HW119745   0.351   4.446   5.849
 6282SOL    HW219746   0.264   4.374   5.967
 6283SOL     OW19747   2.772   6.618   4.511
 6283SOL    HW119748   2.785   6.596   4.414
 6283SOL    HW219749   2.862   6.631   4.554
 6284SOL     OW19750   2.096   4.006   6.289
 6284SOL    HW119751   2.152   4.023   6.209
 6284SOL    HW219752   2.084   4.090   6.341
 6285SOL     OW19753   1.753   4.465   3.861
 6285SOL    HW119754   1.693   4.538   3.896
 6285SOL    HW219755   1.705   4.416   3.788
 6286SOL     OW19756   1.118   3.324   6.870
 6286SOL    HW119757   1.065   3.337   6.955
 6286SOL    HW219758   1.068   3.364   6.794
 6287SOL     OW19759   4.124   5.463   5.269
 6287SOL    HW119760   4.135   5.554   5.229
 6287SOL    HW219761   4.193   5.401   5.232
 6288SOL     OW19762   3.236   3.917   6.140
 6288SOL    HW119763   3.216   3.879   6.050
 6288SOL    HW219764   3.151   3.936   6.188
 6289SOL     OW19765   2.705   5.144   5.905
 6289SOL    HW119766   2.691   5.166   5.808
 6289SOL    HW219767   2.769   5.209   5.944
 6290SOL     OW19768   6.098   0.370   3.086
 6290SOL    HW119769   6.187   0.396   3.123
 6290SOL    HW219770   6.090   0.270   3.083
 6291SOL     OW19771   2.916   3.169   2.107
 6291SOL    HW119772   2.863   3.131   2.031
 6291SOL    HW219773   2.937   3.096   2.172
 6292SOL     OW19774   0.938   4.238   5.016
 6292SOL    HW119775   0.957   4.323   5.065
 6292SOL    HW219776   1.020   4.181   5.016
 6293SOL     OW19777   2.695   1.414   0.557
 6293SOL    HW119778   2.628   1.400   0.484
 6293SOL    HW219779   2.722   1.325   0.595
 6294SOL     OW19780   1.324   0.268   2.375
 6294SOL    HW119781   1.314   0.354   2.324
 6294SOL    HW219782   1.411   0.268   2.424
 6295SOL     OW19783   4.576   2.530   5.525
 6295SOL    HW119784   4.571   2.446   5.579
 6295SOL    HW219785   4.632   2.514   5.444
 6296SOL     OW19786   0.065   2.079   0.202
 6296SOL    HW119787   0.158   2.061   0.170
 6296SOL    HW219788   0.059   2.059   0.300
 6297SOL     OW19789   0.270   1.129   4.514
 6297SOL    HW119790   0.268   1.148   4.416
 6297SOL    HW219791   0.362   1.100   4.540
 6298SOL     OW19792   6.788   0.707   6.497
 6298SOL    HW119793   6.790   0.741   6.591
 6298SOL    HW219794   6.839   0.769   6.438
 6299SOL     OW19795   3.004   1.834   3.798
 6299SOL    HW119796   3.077   1.775   3.831
 6299SOL    HW219797   2.942   1.781   3.739
 6300SOL     OW19798   2.862   2.306   1.164
 6300SOL    HW119799   2.941   2.332   1.109
 6300SOL    HW219800   2.778   2.341   1.122
 6301SOL     OW19801   4.011   6.405   1.051
 6301SOL    HW119802   3.931   6.408   0.990
 6301SOL    HW219803   4.090   6.371   1.001
 6302SOL     OW19804   1.728   3.589   0.590
 6302SOL    HW119805   1.752   3.683   0.565
 6302SOL    HW219806   1.792   3.525   0.547
 6303SOL     OW19807   6.416   4.760   4.954
 6303SOL    HW119808   6.442   4.678   4.903
 6303SOL    HW219809   6.477   4.771   5.032
 6304SOL     OW19810   2.098   2.529   4.840
 6304SOL    HW119811   2.123   2.475   4.759
 6304SOL    HW219812   2.150   2.614   4.842
 6305SOL     OW19813   1.046   5.812   5.053
 6305SOL    HW119814   0.965   5.824   5.110
 6305SOL    HW219815   1.020   5.769   4.966
 6306SOL     OW19816   1.085   4.479   3.903
 6306SOL    HW119817   1.015   4.534   3.859
 6306SOL    HW219818   1.080   4.385   3.869
 6307SOL     OW19819   3.432   3.404   2.847
 6307SOL    HW119820   3.516   3.354   2.825
 6307SOL    HW219821   3.353   3.345   2.832
 6308SOL     OW19822   1.013   0.801   1.387
 6308SOL    HW119823   1.055   0.859   1.317
 6308SOL    HW219824   0.988   0.857   1.466
 6309SOL     OW19825   1.759   5.949   5.113
 6309SOL    HW119826   1.745   5.988   5.204
 6309SOL    HW219827   1.697   5.872   5.099
 6310SOL     OW19828   0.932   6.783   3.115
 6310SOL    HW119829   1.004   6.735   3.165
 6310SOL    HW219830   0.893   6.722   3.046
 6311SOL     OW19831   5.688   1.333   5.995
 6311SOL    HW119832   5.753   1.364   6.065
 6311SOL    HW219833   5.605   1.298   6.039
 6312SOL     OW19834   3.965   5.352   1.787
 6312SOL    HW119835   3.885   5.410   1.774
 6312SOL    HW219836   4.037   5.380   1.723
 6313SOL     OW19837   5.409   4.954   3.059
 6313SOL    HW119838   5.377   4.985   2.970
 6313SOL    HW219839   5.508   4.964   3.064
 6314SOL     OW19840   2.151   6.182   2.871
 6314SOL    HW119841   2.173   6.196   2.968
 6314SOL    HW219842   2.229   6.142   2.824
 6315SOL     OW19843   2.195   2.537   2.893
 6315SOL    HW119844   2.153   2.505   2.808
 6315SOL    HW219845   2.285   2.494   2.904
 6316SOL     OW19846   5.020   0.687   4.912
 6316SOL    HW119847   5.058   0.674   4.820
 6316SOL    HW219848   5.088   0.661   4.980
 6317SOL     OW19849   4.878   3.528   3.611
 6317SOL    HW119850   4.898   3.465   3.535
 6317SOL    HW219851   4.851   3.476   3.692
 6318SOL     OW19852   5.585   6.298   0.119
 6318SOL    HW119853   5.503   6.323   0.171
 6318SOL    HW219854   5.652   6.372   0.125
 6319SOL     OW19855   4.812   2.380   4.017
 6319SOL    HW119856   4.891   2.328   4.049
 6319SOL    HW219857   4.835   2.426   3.931
 6320SOL     OW19858   5.861   2.221   6.501
 6320SOL    HW119859   5.924   2.290   6.536
 6320SOL    HW219860   5.914   2.149   6.455
 6321SOL     OW19861   1.038   3.596   0.304
 6321SOL    HW119862   0.961   3.619   0.245
 6321SOL    HW219863   1.029   3.646   0.390
 6322SOL     OW19864   2.001   1.071   2.815
 6322SOL    HW119865   1.911   1.101   2.844
 6322SOL    HW219866   2.062   1.065   2.894
 6323SOL     OW19867   1.871   6.189   0.876
 6323SOL    HW119868   1.969   6.202   0.891
 6323SOL    HW219869   1.820   6.228   0.953
 6324SOL     OW19870   5.495   3.869   1.556
 6324SOL    HW119871   5.455   3.874   1.648
 6324SOL    HW219872   5.569   3.936   1.549
 6325SOL     OW19873   0.867   3.459   3.827
 6325SOL    HW119874   0.899   3.538   3.774
 6325SOL    HW219875   0.822   3.394   3.766
 6326SOL     OW19876   5.291   5.365   4.794
 6326SOL    HW119877   5.271   5.462   4.786
 6326SOL    HW219878   5.275   5.335   4.888
 6327SOL     OW19879   0.901   1.224   2.759
 6327SOL    HW119880   0.950   1.179   2.834
 6327SOL    HW219881   0.811   1.254   2.792
 6328SOL     OW19882   4.116   3.559   4.707
 6328SOL    HW119883   4.104   3.496   4.631
 6328SOL    HW219884   4.188   3.526   4.768
 6329SOL     OW19885   0.389   2.896   4.769
 6329SOL    HW119886   0.365   2.847   4.686
 6329SOL    HW219887   0.488   2.914   4.770
 6330SOL     OW19888   4.336   1.629   2.981
 6330SOL    HW119889   4.354   1.635   2.883
 6330SOL    HW219890   4.324   1.721   3.018
 6331SOL     OW19891   1.487   3.258   3.610
 6331SOL    HW119892   1.547   3.244   3.688
 6331SOL    HW219893   1.392   3.266   3.641
 6332SOL     OW19894   4.269   2.172   0.127
 6332SOL    HW119895   4.265   2.272   0.133
 6332SOL    HW219896   4.265   2.145   0.031
 6333SOL     OW19897   5.901   1.575   6.948
 6333SOL    HW119898   5.995   1.590   6.980
 6333SOL    HW219899   5.839   1.575   0.009
 6334SOL     OW19900   2.216   0.999   1.889
 6334SOL    HW119901   2.216   1.002   1.789
 6334SOL    HW219902   2.291   1.055   1.924
 6335SOL     OW19903   5.771   2.501   5.305
 6335SOL    HW119904   5.838   2.573   5.324
 6335SOL    HW219905   5.778   2.474   5.209
 6336SOL     OW19906   0.900   5.640   5.992
 6336SOL    HW119907   0.848   5.703   5.934
 6336SOL    HW219908   0.968   5.692   6.044
 6337SOL     OW19909   6.289   0.257   5.555
 6337SOL    HW119910   6.335   0.344   5.568
 6337SOL    HW219911   6.218   0.247   5.625
 6338SOL     OW19912   0.858   0.779   2.582
 6338SOL    HW119913   0.767   0.819   2.592
 6338SOL    HW219914   0.850   0.680   2.574
 6339SOL     OW19915   0.046   4.054   3.596
 6339SOL    HW119916   0.083   4.146   3.614
 6339SOL    HW219917   0.025   4.045   3.499
 6340SOL     OW19918   2.456   5.259   6.763
 6340SOL    HW119919   2.525   5.206   6.813
 6340SOL    HW219920   2.474   5.356   6.776
 6341SOL     OW19921   1.113   4.434   2.997
 6341SOL    HW119922   1.199   4.447   2.947
 6341SOL    HW219923   1.109   4.340   3.031
 6342SOL     OW19924   2.305   6.783   1.494
 6342SOL    HW119925   2.404   6.780   1.478
 6342SOL    HW219926   2.261   6.708   1.445
 6343SOL     OW19927   1.535   4.384   6.783
 6343SOL    HW119928   1.484   4.301   6.760
 6343SOL    HW219929   1.586   4.415   6.703
 6344SOL     OW19930   1.780   1.410   3.784
 6344SOL    HW119931   1.859   1.451   3.737
 6344SOL    HW219932   1.770   1.315   3.757
 6345SOL     OW19933   0.230   3.165   3.700
 6345SOL    HW119934   0.133   3.152   3.678
 6345SOL    HW219935   0.250   3.124   3.789
 6346SOL     OW19936   0.604   4.583   4.333
 6346SOL    HW119937   0.683   4.557   4.279
 6346SOL    HW219938   0.633   4.610   4.425
 6347SOL     OW19939   1.917   1.740   2.321
 6347SOL    HW119940   1.948   1.717   2.229
 6347SOL    HW219941   1.873   1.830   2.320
 6348SOL     OW19942   0.979   2.429   0.320
 6348SOL    HW119943   1.048   2.464   0.382
 6348SOL    HW219944   0.898   2.401   0.372
 6349SOL     OW19945   6.163   1.377   0.983
 6349SOL    HW119946   6.217   1.301   0.947
 6349SOL    HW219947   6.200   1.406   1.071
 6350SOL     OW19948   0.340   0.035   1.492
 6350SOL    HW119949   0.320   0.121   1.539
 6350SOL    HW219950   0.373   0.054   1.400
 6351SOL     OW19951   6.391   2.688   2.189
 6351SOL    HW119952   6.418   2.775   2.150
 6351SOL    HW219953   6.381   2.620   2.117
 6352SOL     OW19954   4.154   0.586   5.198
 6352SOL    HW119955   4.188   0.675   5.168
 6352SOL    HW219956   4.057   0.592   5.221
 6353SOL     OW19957   3.794   5.945   5.778
 6353SOL    HW119958   3.747   6.011   5.837
 6353SOL    HW219959   3.881   5.985   5.747
 6354SOL     OW19960   5.798   4.869   2.751
 6354SOL    HW119961   5.702   4.893   2.736
 6354SOL    HW219962   5.818   4.868   2.849
 6355SOL     OW19963   4.798   6.376   6.616
 6355SOL    HW119964   4.832   6.286   6.641
 6355SOL    HW219965   4.852   6.412   6.540
 6356SOL     OW19966   0.658   6.690   6.204
 6356SOL    HW119967   0.660   6.735   6.114
 6356SOL    HW219968   0.688   6.754   6.274
 6357SOL     OW19969   4.855   1.633   3.063
 6357SOL    HW119970   4.844   1.624   2.964
 6357SOL    HW219971   4.942   1.593   3.091
 6358SOL     OW19972   1.522   1.460   4.654
 6358SOL    HW119973   1.554   1.428   4.565
 6358SOL    HW219974   1.597   1.457   4.720
 6359SOL     OW19975   6.836   4.387   0.701
 6359SOL    HW119976   6.738   4.366   0.707
 6359SOL    HW219977   6.850   4.466   0.642
 6360SOL     OW19978   2.852   3.070   0.895
 6360SOL    HW119979   2.771   3.077   0.954
 6360SOL    HW219980   2.896   2.982   0.909
 6361SOL     OW19981   6.899   2.078   2.927
 6361SOL    HW119982   6.981   2.118   2.968
 6361SOL    HW219983   6.857   2.015   2.992
 6362SOL     OW19984   1.912   5.553   0.279
 6362SOL    HW119985   1.837   5.514   0.332
 6362SOL    HW219986   1.894   5.540   0.182
 6363SOL     OW19987   0.465   2.296   1.202
 6363SOL    HW119988   0.551   2.268   1.245
 6363SOL    HW219989   0.482   2.327   1.109
 6364SOL     OW19990   2.651   2.044   3.678
 6364SOL    HW119991   2.654   2.052   3.578
 6364SOL    HW219992   2.739   2.070   3.716
 6365SOL     OW19993   6.224   6.411   1.873
 6365SOL    HW119994   6.141   6.466   1.865
 6365SOL    HW219995   6.302   6.470   1.891
 6366SOL     OW19996   6.144   1.474   5.294
 6366SOL    HW119997   6.099   1.385   5.282
 6366SOL    HW219998   6.224   1.463   5.353
 6367SOL     OW19999   1.840   3.372   4.646
 6367SOL    HW120000   1.861   3.467   4.620
 6367SOL    HW220001   1.832   3.316   4.563
 6368SOL     OW20002   5.274   3.306   4.874
 6368SOL    HW120003   5.216   3.315   4.793
 6368SOL    HW220004   5.357   3.361   4.861
 6369SOL     OW20005   3.254   4.623   0.755
 6369SOL    HW120006   3.267   4.540   0.809
 6369SOL    HW220007   3.304   4.615   0.669
 6370SOL     OW20008   6.455   3.375   4.662
 6370SOL    HW120009   6.430   3.287   4.700
 6370SOL    HW220010   6.400   3.394   4.580
 6371SOL     OW20011   5.801   4.539   1.263
 6371SOL    HW120012   5.778   4.592   1.344
 6371SOL    HW220013   5.730   4.552   1.193
 6372SOL     OW20014   5.808   1.213   1.707
 6372SOL    HW120015   5.853   1.289   1.659
 6372SOL    HW220016   5.726   1.187   1.656
 6373SOL     OW20017   5.405   1.421   1.076
 6373SOL    HW120018   5.366   1.493   1.018
 6373SOL    HW220019   5.331   1.367   1.117
 6374SOL     OW20020   3.458   3.308   6.205
 6374SOL    HW120021   3.503   3.258   6.279
 6374SOL    HW220022   3.473   3.406   6.217
 6375SOL     OW20023   5.595   0.873   1.681
 6375SOL    HW120024   5.599   0.937   1.604
 6375SOL    HW220025   5.667   0.895   1.746
 6376SOL     OW20026   3.114   6.963   6.964
 6376SOL    HW120027   3.125   6.864   6.962
 6376SOL    HW220028   3.108   6.995   0.040
 6377SOL     OW20029   6.851   1.223   0.251
 6377SOL    HW120030   6.877   1.137   0.209
 6377SOL    HW220031   6.916   1.246   0.324
 6378SOL     OW20032   6.089   3.665   2.518
 6378SOL    HW120033   5.994   3.645   2.543
 6378SOL    HW220034   6.150   3.633   2.591
 6379SOL     OW20035   2.416   4.601   6.706
 6379SOL    HW120036   2.405   4.543   6.626
 6379SOL    HW220037   2.352   4.678   6.701
 6380SOL     OW20038   1.786   2.562   4.554
 6380SOL    HW120039   1.838   2.616   4.488
 6380SOL    HW220040   1.823   2.469   4.557
 6381SOL     OW20041   3.288   4.822   0.965
 6381SOL    HW120042   3.306   4.750   0.898
 6381SOL    HW220043   3.316   4.910   0.926
 6382SOL     OW20044   1.872   0.965   1.123
 6382SOL    HW120045   1.845   1.015   1.205
 6382SOL    HW220046   1.828   0.876   1.122
 6383SOL     OW20047   2.948   1.863   2.094
 6383SOL    HW120048   3.045   1.847   2.113
 6383SOL    HW220049   2.937   1.953   2.052
 6384SOL     OW20050   0.371   1.752   2.336
 6384SOL    HW120051   0.374   1.803   2.422
 6384SOL    HW220052   0.276   1.736   2.310
 6385SOL     OW20053   0.242   4.024   1.772
 6385SOL    HW120054   0.337   3.996   1.787
 6385SOL    HW220055   0.208   3.984   1.687
 6386SOL     OW20056   2.843   4.605   0.652
 6386SOL    HW120057   2.763   4.546   0.640
 6386SOL    HW220058   2.885   4.587   0.741
 6387SOL     OW20059   6.278   1.403   5.810
 6387SOL    HW120060   6.259   1.501   5.804
 6387SOL    HW220061   6.268   1.362   5.719
 6388SOL     OW20062   6.325   5.078   2.257
 6388SOL    HW120063   6.422   5.064   2.239
 6388SOL    HW220064   6.314   5.156   2.319
 6389SOL     OW20065   6.610   6.981   0.750
 6389SOL    HW120066   6.659   6.897   0.773
 6389SOL    HW220067   6.619   0.029   0.824
 6390SOL     OW20068   4.549   6.195   0.368
 6390SOL    HW120069   4.530   6.286   0.331
 6390SOL    HW220070   4.462   6.147   0.385
 6391SOL     OW20071   0.998   1.952   4.811
 6391SOL    HW120072   0.938   2.032   4.807
 6391SOL    HW220073   1.033   1.932   4.720
 6392SOL     OW20074   4.465   6.036   3.240
 6392SOL    HW120075   4.407   5.974   3.187
 6392SOL    HW220076   4.428   6.044   3.333
 6393SOL     OW20077   2.307   4.707   0.453
 6393SOL    HW120078   2.321   4.772   0.379
 6393SOL    HW220079   2.209   4.699   0.472
 6394SOL     OW20080   1.645   5.224   2.013
 6394SOL    HW120081   1.665   5.263   2.103
 6394SOL    HW220082   1.670   5.127   2.013
 6395SOL     OW20083   1.238   3.996   5.234
 6395SOL    HW120084   1.228   4.038   5.144
 6395SOL    HW220085   1.153   3.948   5.258
 6396SOL     OW20086   0.871   3.789   4.163
 6396SOL    HW120087   0.910   3.707   4.204
 6396SOL    HW220088   0.943   3.841   4.117
 6397SOL     OW20089   0.859   3.544   4.503
 6397SOL    HW120090   0.804   3.622   4.475
 6397SOL    HW220091   0.817   3.460   4.470
 6398SOL     OW20092   0.454   0.020   2.586
 6398SOL    HW120093   0.466   0.062   2.676
 6398SOL    HW220094   0.542   0.014   2.539
 6399SOL     OW20095   2.473   0.164   6.597
 6399SOL    HW120096   2.541   0.233   6.622
 6399SOL    HW220097   2.506   0.111   6.519
 6400SOL     OW20098   0.905   6.177   2.912
 6400SOL    HW120099   0.986   6.141   2.865
 6400SOL    HW220100   0.934   6.238   2.985
 6401SOL     OW20101   4.163   4.908   1.518
 6401SOL    HW120102   4.063   4.918   1.525
 6401SOL    HW220103   4.188   4.890   1.423
 6402SOL     OW20104   3.261   3.349   5.978
 6402SOL    HW120105   3.244   3.255   5.948
 6402SOL    HW220106   3.312   3.347   6.065
 6403SOL     OW20107   3.486   5.168   5.792
 6403SOL    HW120108   3.515   5.175   5.887
 6403SOL    HW220109   3.417   5.238   5.774
 6404SOL     OW20110   5.125   5.794   6.088
 6404SOL    HW120111   5.193   5.807   6.160
 6404SOL    HW220112   5.171   5.778   6.000
 6405SOL     OW20113   4.515   1.031   3.328
 6405SOL    HW120114   4.478   1.062   3.240
 6405SOL    HW220115   4.510   1.107   3.394
 6406SOL     OW20116   0.485   3.516   2.493
 6406SOL    HW120117   0.444   3.597   2.535
 6406SOL    HW220118   0.443   3.434   2.533
 6407SOL     OW20119   0.358   0.187   2.829
 6407SOL    HW120120   0.345   0.132   2.912
 6407SOL    HW220121   0.303   0.149   2.755
 6408SOL     OW20122   0.144   1.275   1.951
 6408SOL    HW120123   0.210   1.301   2.022
 6408SOL    HW220124   0.166   1.183   1.917
 6409SOL     OW20125   6.412   4.164   4.024
 6409SOL    HW120126   6.484   4.096   4.038
 6409SOL    HW220127   6.403   4.183   3.926
 6410SOL     OW20128   1.652   0.644   7.003
 6410SOL    HW120129   1.651   0.550   0.019
 6410SOL    HW220130   1.567   0.662   6.954
 6411SOL     OW20131   1.016   2.454   4.561
 6411SOL    HW120132   0.957   2.393   4.507
 6411SOL    HW220133   1.103   2.467   4.514
 6412SOL     OW20134   4.122   0.271   0.132
 6412SOL    HW120135   4.173   0.230   0.056
 6412SOL    HW220136   4.043   0.215   0.154
 6413SOL     OW20137   4.523   5.551   3.248
 6413SOL    HW120138   4.502   5.587   3.157
 6413SOL    HW220139   4.454   5.583   3.313
 6414SOL     OW20140   3.497   0.356   0.021
 6414SOL    HW120141   3.475   0.297   6.961
 6414SOL    HW220142   3.536   0.300   0.094
 6415SOL     OW20143   7.014   2.099   3.359
 6415SOL    HW120144   0.047   2.013   3.368
 6415SOL    HW220145   6.946   2.105   3.432
 6416SOL     OW20146   2.843   4.236   0.662
 6416SOL    HW120147   2.933   4.257   0.622
 6416SOL    HW220148   2.809   4.150   0.624
 6417SOL     OW20149   4.634   3.367   5.851
 6417SOL    HW120150   4.536   3.352   5.833
 6417SOL    HW220151   4.677   3.279   5.872
 6418SOL     OW20152   4.986   5.303   0.327
 6418SOL    HW120153   4.931   5.372   0.374
 6418SOL    HW220154   4.927   5.248   0.267
 6419SOL     OW20155   1.511   7.004   6.531
 6419SOL    HW120156   1.587   0.022   6.585
 6419SOL    HW220157   1.531   6.910   6.504
 6420SOL     OW20158   2.097   4.968   3.442
 6420SOL    HW120159   2.176   4.974   3.502
 6420SOL    HW220160   2.119   4.910   3.364
 6421SOL     OW20161   4.839   6.656   1.490
 6421SOL    HW120162   4.910   6.606   1.539
 6421SOL    HW220163   4.829   6.747   1.530
 6422SOL     OW20164   1.041   0.736   5.343
 6422SOL    HW120165   1.118   0.671   5.345
 6422SOL    HW220166   1.050   0.795   5.264
 6423SOL     OW20167   1.203   3.781   4.460
 6423SOL    HW120168   1.296   3.751   4.436
 6423SOL    HW220169   1.144   3.701   4.470
 6424SOL     OW20170   6.396   4.237   5.482
 6424SOL    HW120171   6.345   4.311   5.525
 6424SOL    HW220172   6.384   4.153   5.534
 6425SOL     OW20173   0.910   0.223   4.927
 6425SOL    HW120174   0.833   0.183   4.976
 6425SOL    HW220175   0.963   0.151   4.882
 6426SOL     OW20176   2.864   5.186   3.800
 6426SOL    HW120177   2.858   5.189   3.900
 6426SOL    HW220178   2.936   5.121   3.773
 6427SOL     OW20179   3.392   3.486   3.112
 6427SOL    HW120180   3.420   3.467   3.018
 6427SOL    HW220181   3.293   3.475   3.120
 6428SOL     OW20182   6.437   3.017   6.656
 6428SOL    HW120183   6.349   3.044   6.695
 6428SOL    HW220184   6.456   3.072   6.575
 6429SOL     OW20185   2.613   1.755   4.423
 6429SOL    HW120186   2.533   1.731   4.367
 6429SOL    HW220187   2.694   1.712   4.384
 6430SOL     OW20188   6.534   1.300   4.009
 6430SOL    HW120189   6.594   1.273   4.085
 6430SOL    HW220190   6.442   1.264   4.024
 6431SOL     OW20191   3.381   5.008   3.526
 6431SOL    HW120192   3.378   4.968   3.618
 6431SOL    HW220193   3.340   5.099   3.528
 6432SOL     OW20194   4.233   3.683   0.034
 6432SOL    HW120195   4.152   3.665   6.996
 6432SOL    HW220196   4.284   3.760   7.014
 6433SOL     OW20197   3.970   5.457   6.160
 6433SOL    HW120198   4.014   5.546   6.163
 6433SOL    HW220199   3.871   5.468   6.170
 6434SOL     OW20200   6.542   4.772   6.490
 6434SOL    HW120201   6.551   4.733   6.399
 6434SOL    HW220202   6.506   4.865   6.483
 6435SOL     OW20203   4.345   1.032   0.763
 6435SOL    HW120204   4.435   1.045   0.721
 6435SOL    HW220205   4.295   0.962   0.713
 6436SOL     OW20206   0.737   1.749   3.970
 6436SOL    HW120207   0.772   1.741   3.877
 6436SOL    HW220208   0.673   1.674   3.988
 6437SOL     OW20209   1.151   2.982   6.729
 6437SOL    HW120210   1.207   2.914   6.680
 6437SOL    HW220211   1.055   2.968   6.706
 6438SOL     OW20212   0.793   5.472   1.500
 6438SOL    HW120213   0.845   5.446   1.581
 6438SOL    HW220214   0.855   5.482   1.422
 6439SOL     OW20215   4.402   6.061   2.855
 6439SOL    HW120216   4.428   6.005   2.775
 6439SOL    HW220217   4.341   6.008   2.914
 6440SOL     OW20218   2.132   2.153   5.503
 6440SOL    HW120219   2.046   2.202   5.519
 6440SOL    HW220220   2.142   2.133   5.406
 6441SOL     OW20221   1.285   1.449   1.540
 6441SOL    HW120222   1.253   1.355   1.528
 6441SOL    HW220223   1.378   1.448   1.576
 6442SOL     OW20224   3.033   2.126   4.237
 6442SOL    HW120225   3.016   2.178   4.153
 6442SOL    HW220226   3.088   2.046   4.216
 6443SOL     OW20227   2.301   2.291   6.033
 6443SOL    HW120228   2.243   2.232   5.977
 6443SOL    HW220229   2.365   2.340   5.973
 6444SOL     OW20230   7.017   4.400   5.817
 6444SOL    HW120231   6.935   4.447   5.786
 6444SOL    HW220232   0.018   4.425   5.912
 6445SOL     OW20233   3.197   3.001   3.451
 6445SOL    HW120234   3.244   2.930   3.503
 6445SOL    HW220235   3.254   3.084   3.448
 6446SOL     OW20236   0.943   0.070   2.174
 6446SOL    HW120237   0.885   7.010   2.149
 6446SOL    HW220238   0.941   0.137   2.101
 6447SOL     OW20239   0.098   3.847   1.619
 6447SOL    HW120240   0.155   3.806   1.548
 6447SOL    HW220241   0.135   3.825   1.709
 6448SOL     OW20242   4.102   4.134   1.564
 6448SOL    HW120243   4.111   4.035   1.578
 6448SOL    HW220244   4.005   4.157   1.561
 6449SOL     OW20245   4.479   5.960   0.052
 6449SOL    HW120246   4.481   6.057   0.028
 6449SOL    HW220247   4.507   5.948   0.147
 6450SOL     OW20248   4.495   3.442   1.159
 6450SOL    HW120249   4.440   3.387   1.096
 6450SOL    HW220250   4.446   3.451   1.246
 6451SOL     OW20251   4.137   3.432   1.605
 6451SOL    HW120252   4.144   3.348   1.659
 6451SOL    HW220253   4.163   3.510   1.663
 6452SOL     OW20254   4.421   1.875   4.242
 6452SOL    HW120255   4.330   1.888   4.204
 6452SOL    HW220256   4.490   1.907   4.177
 6453SOL     OW20257   3.353   1.030   2.890
 6453SOL    HW120258   3.337   1.114   2.942
 6453SOL    HW220259   3.451   1.010   2.888
 6454SOL     OW20260   4.859   3.413   5.514
 6454SOL    HW120261   4.934   3.450   5.460
 6454SOL    HW220262   4.789   3.376   5.453
 6455SOL     OW20263   0.209   3.054   5.782
 6455SOL    HW120264   0.134   3.107   5.743
 6455SOL    HW220265   0.292   3.069   5.727
 6456SOL     OW20266   6.205   2.006   3.163
 6456SOL    HW120267   6.294   1.998   3.206
 6456SOL    HW220268   6.133   1.995   3.232
 6457SOL     OW20269   1.416   6.576   3.481
 6457SOL    HW120270   1.415   6.566   3.580
 6457SOL    HW220271   1.343   6.522   3.440
 6458SOL     OW20272   1.154   0.354   4.915
 6458SOL    HW120273   1.059   0.325   4.900
 6458SOL    HW220274   1.168   0.444   4.874
 6459SOL     OW20275   0.393   3.264   3.213
 6459SOL    HW120276   0.338   3.182   3.196
 6459SOL    HW220277   0.371   3.301   3.303
 6460SOL     OW20278   1.542   5.157   5.747
 6460SOL    HW120279   1.628   5.135   5.700
 6460SOL    HW220280   1.548   5.130   5.843
 6461SOL     OW20281   0.053   6.787   2.070
 6461SOL    HW120282   0.034   6.800   2.167
 6461SOL    HW220283   0.011   6.861   2.018
 6462SOL     OW20284   2.804   4.014   5.526
 6462SOL    HW120285   2.745   4.019   5.445
 6462SOL    HW220286   2.749   3.988   5.606
 6463SOL     OW20287   4.881   3.230   1.903
 6463SOL    HW120288   4.823   3.158   1.939
 6463SOL    HW220289   4.839   3.269   1.821
 6464SOL     OW20290   0.942   3.368   3.288
 6464SOL    HW120291   0.917   3.462   3.263
 6464SOL    HW220292   0.894   3.304   3.228
 6465SOL     OW20293   2.268   1.248   2.543
 6465SOL    HW120294   2.280   1.288   2.634
 6465SOL    HW220295   2.357   1.218   2.508
 6466SOL     OW20296   6.560   5.464   6.623
 6466SOL    HW120297   6.518   5.454   6.714
 6466SOL    HW220298   6.657   5.441   6.629
 6467SOL     OW20299   2.668   3.379   5.793
 6467SOL    HW120300   2.649   3.431   5.876
 6467SOL    HW220301   2.767   3.364   5.784
 6468SOL     OW20302   0.999   0.882   0.293
 6468SOL    HW120303   1.096   0.868   0.270
 6468SOL    HW220304   0.968   0.968   0.253
 6469SOL     OW20305   3.057   0.673   0.905
 6469SOL    HW120306   3.040   0.591   0.961
 6469SOL    HW220307   2.970   0.712   0.876
 6470SOL     OW20308   6.257   0.629   6.372
 6470SOL    HW120309   6.277   0.532   6.388
 6470SOL    HW220310   6.176   0.654   6.424
 6471SOL     OW20311   0.979   6.804   5.438
 6471SOL    HW120312   0.912   6.767   5.503
 6471SOL    HW220313   0.954   6.897   5.413
 6472SOL     OW20314   0.966   6.324   1.313
 6472SOL    HW120315   1.037   6.316   1.383
 6472SOL    HW220316   0.980   6.408   1.261
 6473SOL     OW20317   2.882   1.466   3.904
 6473SOL    HW120318   2.979   1.445   3.917
 6473SOL    HW220319   2.853   1.436   3.813
 6474SOL     OW20320   4.071   0.589   4.244
 6474SOL    HW120321   3.976   0.570   4.219
 6474SOL    HW220322   4.088   0.555   4.337
 6475SOL     OW20323   5.143   6.010   3.840
 6475SOL    HW120324   5.226   6.064   3.827
 6475SOL    HW220325   5.122   6.003   3.938
 6476SOL     OW20326   5.281   4.000   4.754
 6476SOL    HW120327   5.332   3.914   4.753
 6476SOL    HW220328   5.250   4.018   4.847
 6477SOL     OW20329   1.292   6.780   0.750
 6477SOL    HW120330   1.250   6.707   0.697
 6477SOL    HW220331   1.379   6.807   0.708
 6478SOL     OW20332   2.114   6.250   6.636
 6478SOL    HW120333   2.147   6.205   6.719
 6478SOL    HW220334   2.019   6.222   6.620
 6479SOL     OW20335   4.532   5.302   4.547
 6479SOL    HW120336   4.627   5.335   4.544
 6479SOL    HW220337   4.481   5.354   4.615
 6480SOL     OW20338   2.790   0.787   5.235
 6480SOL    HW120339   2.829   0.875   5.260
 6480SOL    HW220340   2.701   0.776   5.279
 6481SOL     OW20341   4.047   3.875   1.596
 6481SOL    HW120342   4.009   3.782   1.602
 6481SOL    HW220343   3.983   3.940   1.635
 6482SOL     OW20344   5.313   3.166   3.731
 6482SOL    HW120345   5.344   3.180   3.825
 6482SOL    HW220346   5.387   3.126   3.676
 6483SOL     OW20347   1.818   6.388   5.337
 6483SOL    HW120348   1.853   6.307   5.384
 6483SOL    HW220349   1.794   6.458   5.404
 6484SOL     OW20350   3.783   0.337   3.333
 6484SOL    HW120351   3.878   0.344   3.302
 6484SOL    HW220352   3.781   0.304   3.427
 6485SOL     OW20353   2.236   4.646   5.197
 6485SOL    HW120354   2.255   4.571   5.134
 6485SOL    HW220355   2.141   4.675   5.186
 6486SOL     OW20356   6.952   4.090   2.255
 6486SOL    HW120357   6.904   4.158   2.199
 6486SOL    HW220358   6.928   4.102   2.351
 6487SOL     OW20359   5.925   5.792   4.643
 6487SOL    HW120360   5.855   5.860   4.621
 6487SOL    HW220361   5.931   5.725   4.569
 6488SOL     OW20362   3.116   4.857   3.443
 6488SOL    HW120363   3.189   4.828   3.381
 6488SOL    HW220364   3.081   4.946   3.414
 6489SOL     OW20365   6.224   3.469   5.455
 6489SOL    HW120366   6.171   3.553   5.469
 6489SOL    HW220367   6.315   3.493   5.422
 6490SOL     OW20368   1.587   3.749   6.654
 6490SOL    HW120369   1.538   3.663   6.642
 6490SOL    HW220370   1.526   3.817   6.696
 6491SOL     OW20371   1.117   6.994   2.471
 6491SOL    HW120372   1.182   6.930   2.429
 6491SOL    HW220373   1.164   0.027   2.543
 6492SOL     OW20374   4.025   3.144   3.023
 6492SOL    HW120375   4.101   3.195   2.984
 6492SOL    HW220376   4.026   3.153   3.122
 6493SOL     OW20377   1.549   4.905   3.932
 6493SOL    HW120378   1.461   4.941   3.962
 6493SOL    HW220379   1.623   4.948   3.984
 6494SOL     OW20380   6.908   0.930   1.748
 6494SOL    HW120381   6.871   1.001   1.688
 6494SOL    HW220382   6.833   0.882   1.793
 6495SOL     OW20383   6.083   6.300   2.732
 6495SOL    HW120384   6.005   6.261   2.683
 6495SOL    HW220385   6.057   6.387   2.774
 6496SOL     OW20386   2.766   2.839   1.417
 6496SOL    HW120387   2.748   2.937   1.413
 6496SOL    HW220388   2.680   2.789   1.413
 6497SOL     OW20389   7.011   2.521   0.508
 6497SOL    HW120390   6.964   2.444   0.464
 6497SOL    HW220391   0.066   2.554   0.449
 6498SOL     OW20392   2.435   5.040   4.660
 6498SOL    HW120393   2.468   4.951   4.689
 6498SOL    HW220394   2.357   5.066   4.717
 6499SOL     OW20395   5.674   2.465   2.630
 6499SOL    HW120396   5.742   2.422   2.570
 6499SOL    HW220397   5.605   2.511   2.574
 6500SOL     OW20398   1.963   3.613   2.671
 6500SOL    HW120399   1.936   3.579   2.761
 6500SOL    HW220400   2.031   3.685   2.681
 6501SOL     OW20401   6.567   1.465   2.511
 6501SOL    HW120402   6.659   1.486   2.477
 6501SOL    HW220403   6.532   1.383   2.467
 6502SOL     OW20404   0.793   2.771   2.714
 6502SOL    HW120405   0.808   2.676   2.741
 6502SOL    HW220406   0.770   2.775   2.617
 6503SOL     OW20407   0.381   2.770   5.668
 6503SOL    HW120408   0.354   2.836   5.598
 6503SOL    HW220409   0.476   2.741   5.652
 6504SOL     OW20410   4.035   5.946   6.040
 6504SOL    HW120411   4.127   5.933   6.078
 6504SOL    HW220412   3.971   5.965   6.114
 6505SOL     OW20413   0.797   6.962   0.032
 6505SOL    HW120414   0.887   6.943   0.071
 6505SOL    HW220415   0.790   0.041   0.010
 6506SOL     OW20416   0.562   4.633   2.132
 6506SOL    HW120417   0.604   4.722   2.116
 6506SOL    HW220418   0.614   4.563   2.083
 6507SOL     OW20419   5.558   5.100   0.744
 6507SOL    HW120420   5.478   5.119   0.686
 6507SOL    HW220421   5.529   5.098   0.840
 6508SOL     OW20422   0.067   0.920   4.575
 6508SOL    HW120423   6.991   0.927   4.543
 6508SOL    HW220424   0.118   1.002   4.550
 6509SOL     OW20425   2.064   1.634   6.766
 6509SOL    HW120426   2.104   1.546   6.738
 6509SOL    HW220427   2.131   1.685   6.820
 6510SOL     OW20428   3.937   4.942   4.039
 6510SOL    HW120429   3.984   4.864   4.080
 6510SOL    HW220430   3.981   4.965   3.952
 6511SOL     OW20431   3.627   3.292   0.023
 6511SOL    HW120432   3.554   3.259   0.082
 6511SOL    HW220433   3.588   3.347   6.967
 6512SOL     OW20434   5.276   1.687   1.921
 6512SOL    HW120435   5.370   1.719   1.928
 6512SOL    HW220436   5.248   1.647   2.008
 6513SOL     OW20437   3.551   5.032   2.007
 6513SOL    HW120438   3.584   4.938   2.004
 6513SOL    HW220439   3.529   5.062   1.914
 6514SOL     OW20440   4.990   5.533   5.600
 6514SOL    HW120441   5.050   5.527   5.680
 6514SOL    HW220442   4.940   5.619   5.601
 6515SOL     OW20443   1.024   5.153   2.601
 6515SOL    HW120444   0.978   5.132   2.688
 6515SOL    HW220445   0.996   5.086   2.532
 6516SOL     OW20446   5.583   1.420   3.464
 6516SOL    HW120447   5.678   1.394   3.475
 6516SOL    HW220448   5.546   1.451   3.552
 6517SOL     OW20449   6.905   4.159   0.564
 6517SOL    HW120450   6.875   4.233   0.623
 6517SOL    HW220451   6.964   4.096   0.616
 6518SOL     OW20452   0.868   2.067   1.934
 6518SOL    HW120453   0.879   2.013   1.851
 6518SOL    HW220454   0.914   2.155   1.923
 6519SOL     OW20455   1.623   2.333   3.558
 6519SOL    HW120456   1.580   2.382   3.634
 6519SOL    HW220457   1.674   2.398   3.501
 6520SOL     OW20458   6.214   6.555   6.701
 6520SOL    HW120459   6.190   6.639   6.651
 6520SOL    HW220460   6.243   6.579   6.793
 6521SOL     OW20461   1.435   4.616   4.577
 6521SOL    HW120462   1.424   4.697   4.520
 6521SOL    HW220463   1.531   4.608   4.604
 6522SOL     OW20464   2.093   2.957   5.094
 6522SOL    HW120465   2.064   3.041   5.140
 6522SOL    HW220466   2.186   2.969   5.058
 6523SOL     OW20467   4.806   6.603   0.439
 6523SOL    HW120468   4.760   6.521   0.405
 6523SOL    HW220469   4.896   6.611   0.397
 6524SOL     OW20470   3.615   1.964   0.892
 6524SOL    HW120471   3.677   2.042   0.896
 6524SOL    HW220472   3.652   1.895   0.830
 6525SOL     OW20473   2.898   4.823   3.644
 6525SOL    HW120474   2.960   4.836   3.566
 6525SOL    HW220475   2.826   4.759   3.620
 6526SOL     OW20476   6.229   6.539   0.654
 6526SOL    HW120477   6.188   6.516   0.566
 6526SOL    HW220478   6.287   6.463   0.685
 6527SOL     OW20479   5.458   2.522   0.476
 6527SOL    HW120480   5.451   2.621   0.487
 6527SOL    HW220481   5.402   2.494   0.398
 6528SOL     OW20482   4.533   6.856   0.531
 6528SOL    HW120483   4.544   6.826   0.436
 6528SOL    HW220484   4.549   6.955   0.536
 6529SOL     OW20485   3.828   6.561   1.446
 6529SOL    HW120486   3.828   6.480   1.387
 6529SOL    HW220487   3.889   6.546   1.523
 6530SOL     OW20488   6.974   2.806   4.212
 6530SOL    HW120489   6.946   2.865   4.288
 6530SOL    HW220490   0.046   2.768   4.231
 6531SOL     OW20491   2.988   3.840   3.924
 6531SOL    HW120492   3.000   3.742   3.938
 6531SOL    HW220493   2.992   3.887   4.013
 6532SOL     OW20494   1.283   5.949   6.874
 6532SOL    HW120495   1.318   6.041   6.889
 6532SOL    HW220496   1.354   5.882   6.900
 6533SOL     OW20497   5.409   4.629   1.256
 6533SOL    HW120498   5.437   4.629   1.160
 6533SOL    HW220499   5.396   4.535   1.287
 6534SOL     OW20500   6.609   3.065   4.635
 6534SOL    HW120501   6.551   2.984   4.632
 6534SOL    HW220502   6.594   3.120   4.552
 6535SOL     OW20503   5.547   3.565   6.910
 6535SOL    HW120504   5.519   3.472   6.885
 6535SOL    HW220505   5.485   3.630   6.867
 6536SOL     OW20506   6.850   5.890   5.308
 6536SOL    HW120507   6.937   5.903   5.260
 6536SOL    HW220508   6.798   5.818   5.262
 6537SOL     OW20509   6.500   5.245   4.203
 6537SOL    HW120510   6.573   5.293   4.154
 6537SOL    HW220511   6.538   5.165   4.250
 6538SOL     OW20512   1.084   3.766   3.364
 6538SOL    HW120513   1.050   3.847   3.412
 6538SOL    HW220514   1.010   3.725   3.312
 6539SOL     OW20515   5.656   6.392   5.447
 6539SOL    HW120516   5.562   6.427   5.437
 6539SOL    HW220517   5.717   6.468   5.472
 6540SOL     OW20518   1.174   2.309   5.536
 6540SOL    HW120519   1.211   2.219   5.511
 6540SOL    HW220520   1.098   2.296   5.600
 6541SOL     OW20521   3.681   1.526   5.362
 6541SOL    HW120522   3.672   1.497   5.266
 6541SOL    HW220523   3.777   1.517   5.390
 6542SOL     OW20524   1.709   4.677   2.033
 6542SOL    HW120525   1.755   4.648   1.949
 6542SOL    HW220526   1.716   4.777   2.042
 6543SOL     OW20527   3.721   1.718   4.446
 6543SOL    HW120528   3.734   1.789   4.377
 6543SOL    HW220529   3.638   1.666   4.426
 6544SOL     OW20530   1.242   0.654   1.524
 6544SOL    HW120531   1.209   0.609   1.607
 6544SOL    HW220532   1.167   0.706   1.483
 6545SOL     OW20533   6.258   4.742   0.720
 6545SOL    HW120534   6.235   4.836   0.748
 6545SOL    HW220535   6.353   4.723   0.742
 6546SOL     OW20536   4.327   5.112   3.861
 6546SOL    HW120537   4.234   5.124   3.895
 6546SOL    HW220538   4.330   5.034   3.799
 6547SOL     OW20539   0.678   6.668   5.273
 6547SOL    HW120540   0.739   6.594   5.302
 6547SOL    HW220541   0.726   6.728   5.210
 6548SOL     OW20542   1.041   1.414   5.091
 6548SOL    HW120543   1.083   1.489   5.039
 6548SOL    HW220544   1.050   1.432   5.189
 6549SOL     OW20545   2.564   1.617   2.559
 6549SOL    HW120546   2.517   1.602   2.646
 6549SOL    HW220547   2.630   1.691   2.570
 6550SOL     OW20548   5.611   6.745   1.794
 6550SOL    HW120549   5.642   6.781   1.706
 6550SOL    HW220550   5.564   6.658   1.780
 6551SOL     OW20551   2.299   5.474   1.180
 6551SOL    HW120552   2.237   5.435   1.248
 6551SOL    HW220553   2.309   5.572   1.196
 6552SOL     OW20554   2.658   3.617   6.944
 6552SOL    HW120555   2.745   3.574   6.966
 6552SOL    HW220556   2.673   3.698   6.887
 6553SOL     OW20557   0.105   1.854   3.440
 6553SOL    HW120558   0.165   1.785   3.399
 6553SOL    HW220559   0.145   1.885   3.527
 6554SOL     OW20560   2.164   1.868   3.910
 6554SOL    HW120561   2.139   1.960   3.940
 6554SOL    HW220562   2.237   1.832   3.969
 6555SOL     OW20563   2.103   3.721   1.914
 6555SOL    HW120564   2.093   3.745   2.010
 6555SOL    HW220565   2.162   3.640   1.906
 6556SOL     OW20566   5.113   3.021   3.349
 6556SOL    HW120567   5.093   3.065   3.262
 6556SOL    HW220568   5.123   3.090   3.420
 6557SOL     OW20569   1.942   6.531   2.087
 6557SOL    HW120570   2.019   6.519   2.025
 6557SOL    HW220571   1.974   6.569   2.173
 6558SOL     OW20572   5.001   5.419   1.024
 6558SOL    HW120573   4.977   5.348   0.958
 6558SOL    HW220574   5.082   5.392   1.076
 6559SOL     OW20575   0.213   1.753   6.221
 6559SOL    HW120576   0.251   1.802   6.300
 6559SOL    HW220577   0.187   1.661   6.249
 6560SOL     OW20578   6.563   4.649   6.242
 6560SOL    HW120579   6.506   4.641   6.161
 6560SOL    HW220580   6.647   4.698   6.219
 6561SOL     OW20581   2.649   5.346   0.227
 6561SOL    HW120582   2.602   5.291   0.158
 6561SOL    HW220583   2.748   5.344   0.210
 6562SOL     OW20584   4.631   2.771   1.196
 6562SOL    HW120585   4.602   2.791   1.290
 6562SOL    HW220586   4.571   2.700   1.157
 6563SOL     OW20587   6.071   4.714   5.622
 6563SOL    HW120588   6.009   4.767   5.565
 6563SOL    HW220589   6.027   4.627   5.646
 6564SOL     OW20590   6.412   3.890   1.741
 6564SOL    HW120591   6.472   3.816   1.770
 6564SOL    HW220592   6.339   3.902   1.809
 6565SOL     OW20593   5.292   5.320   1.834
 6565SOL    HW120594   5.286   5.228   1.797
 6565SOL    HW220595   5.202   5.362   1.833
 6566SOL     OW20596   5.371   5.365   4.168
 6566SOL    HW120597   5.357   5.341   4.264
 6566SOL    HW220598   5.320   5.448   4.146
 6567SOL     OW20599   2.820   0.929   2.450
 6567SOL    HW120600   2.874   0.869   2.510
 6567SOL    HW220601   2.865   1.018   2.443
 6568SOL     OW20602   5.302   1.706   0.097
 6568SOL    HW120603   5.324   1.656   0.014
 6568SOL    HW220604   5.310   1.646   0.177
 6569SOL     OW20605   1.829   4.140   3.312
 6569SOL    HW120606   1.877   4.212   3.261
 6569SOL    HW220607   1.799   4.068   3.249
 6570SOL     OW20608   4.391   0.228   2.716
 6570SOL    HW120609   4.438   0.315   2.735
 6570SOL    HW220610   4.446   0.153   2.753
 6571SOL     OW20611   2.523   6.871   2.838
 6571SOL    HW120612   2.475   6.815   2.772
 6571SOL    HW220613   2.465   6.948   2.865
 6572SOL     OW20614   1.090   6.252   3.599
 6572SOL    HW120615   1.040   6.179   3.552
 6572SOL    HW220616   1.025   6.322   3.630
 6573SOL     OW20617   1.122   2.746   3.943
 6573SOL    HW120618   1.028   2.780   3.942
 6573SOL    HW220619   1.176   2.794   3.874
 6574SOL     OW20620   1.086   4.843   1.958
 6574SOL    HW120621   1.134   4.770   2.008
 6574SOL    HW220622   1.041   4.803   1.878
 6575SOL     OW20623   6.747   1.217   4.151
 6575SOL    HW120624   6.779   1.210   4.056
 6575SOL    HW220625   6.802   1.158   4.209
 6576SOL     OW20626   4.126   0.354   2.416
 6576SOL    HW120627   4.028   0.338   2.422
 6576SOL    HW220628   4.143   0.441   2.368
 6577SOL     OW20629   3.081   1.128   5.374
 6577SOL    HW120630   3.056   1.207   5.430
 6577SOL    HW220631   3.159   1.081   5.416
 6578SOL     OW20632   0.882   6.027   0.155
 6578SOL    HW120633   0.783   6.019   0.138
 6578SOL    HW220634   0.901   6.116   0.196
 6579SOL     OW20635   2.021   1.985   2.795
 6579SOL    HW120636   1.967   1.900   2.796
 6579SOL    HW220637   2.108   1.969   2.841
 6580SOL     OW20638   3.262   2.589   6.827
 6580SOL    HW120639   3.211   2.674   6.812
 6580SOL    HW220640   3.320   2.571   6.748
 6581SOL     OW20641   0.983   2.366   1.603
 6581SOL    HW120642   0.890   2.395   1.580
 6581SOL    HW220643   0.989   2.348   1.701
 6582SOL     OW20644   3.930   6.646   3.225
 6582SOL    HW120645   3.977   6.608   3.305
 6582SOL    HW220646   3.893   6.736   3.248
 6583SOL     OW20647   2.536   4.552   1.328
 6583SOL    HW120648   2.566   4.479   1.268
 6583SOL    HW220649   2.469   4.517   1.393
 6584SOL     OW20650   4.246   3.598   5.643
 6584SOL    HW120651   4.265   3.588   5.545
 6584SOL    HW220652   4.154   3.564   5.662
 6585SOL     OW20653   5.036   6.943   1.907
 6585SOL    HW120654   4.971   6.992   1.965
 6585SOL    HW220655   5.127   6.948   1.946
 6586SOL     OW20656   6.844   1.735   6.731
 6586SOL    HW120657   6.787   1.713   6.810
 6586SOL    HW220658   6.788   1.776   6.659
 6587SOL     OW20659   2.470   4.490   5.532
 6587SOL    HW120660   2.467   4.468   5.629
 6587SOL    HW220661   2.563   4.515   5.506
 6588SOL     OW20662   1.137   2.392   0.686
 6588SOL    HW120663   1.170   2.459   0.620
 6588SOL    HW220664   1.097   2.439   0.764
 6589SOL     OW20665   5.757   0.126   0.831
 6589SOL    HW120666   5.845   0.155   0.794
 6589SOL    HW220667   5.685   0.144   0.763
 6590SOL     OW20668   1.164   6.155   4.263
 6590SOL    HW120669   1.108   6.109   4.332
 6590SOL    HW220670   1.186   6.247   4.295
 6591SOL     OW20671   6.656   3.430   3.368
 6591SOL    HW120672   6.738   3.434   3.311
 6591SOL    HW220673   6.579   3.468   3.317
 6592SOL     OW20674   0.074   0.432   4.568
 6592SOL    HW120675   0.118   0.343   4.563
 6592SOL    HW220676   7.000   0.423   4.606
 6593SOL     OW20677   1.079   0.632   3.065
 6593SOL    HW120678   1.029   0.674   3.141
 6593SOL    HW220679   1.061   0.534   3.063
 6594SOL     OW20680   5.384   0.093   6.535
 6594SOL    HW120681   5.319   0.092   6.460
 6594SOL    HW220682   5.375   0.009   6.589
 6595SOL     OW20683   0.678   0.176   5.085
 6595SOL    HW120684   0.685   0.262   5.136
 6595SOL    HW220685   0.603   0.183   5.019
 6596SOL     OW20686   4.930   0.683   3.192
 6596SOL    HW120687   4.869   0.734   3.252
 6596SOL    HW220688   4.896   0.688   3.098
 6597SOL     OW20689   1.165   5.402   1.535
 6597SOL    HW120690   1.116   5.344   1.601
 6597SOL    HW220691   1.161   5.360   1.445
 6598SOL     OW20692   1.535   5.384   1.773
 6598SOL    HW120693   1.577   5.317   1.834
 6598SOL    HW220694   1.511   5.466   1.825
 6599SOL     OW20695   0.745   6.296   6.679
 6599SOL    HW120696   0.655   6.255   6.666
 6599SOL    HW220697   0.781   6.270   6.768
 6600SOL     OW20698   4.881   0.350   4.644
 6600SOL    HW120699   4.799   0.403   4.667
 6600SOL    HW220700   4.932   0.329   4.727
 6601SOL     OW20701   0.566   2.704   3.490
 6601SOL    HW120702   0.528   2.769   3.556
 6601SOL    HW220703   0.614   2.631   3.538
 6602SOL     OW20704   6.376   6.050   0.676
 6602SOL    HW120705   6.424   5.968   0.707
 6602SOL    HW220706   6.283   6.026   0.648
 6603SOL     OW20707   6.819   4.638   2.312
 6603SOL    HW120708   6.817   4.683   2.222
 6603SOL    HW220709   6.914   4.625   2.340
 6604SOL     OW20710   2.277   5.015   2.345
 6604SOL    HW120711   2.368   5.053   2.363
 6604SOL    HW220712   2.215   5.090   2.319
 6605SOL     OW20713   6.999   5.781   1.007
 6605SOL    HW120714   6.940   5.739   0.937
 6605SOL    HW220715   0.067   5.809   0.965
 6606SOL     OW20716   1.496   5.189   3.200
 6606SOL    HW120717   1.420   5.145   3.248
 6606SOL    HW220718   1.461   5.239   3.121
 6607SOL     OW20719   6.576   2.921   4.307
 6607SOL    HW120720   6.485   2.880   4.316
 6607SOL    HW220721   6.639   2.874   4.369
 6608SOL     OW20722   1.852   0.618   5.417
 6608SOL    HW120723   1.800   0.590   5.336
 6608SOL    HW220724   1.950   0.608   5.398
 6609SOL     OW20725   2.547   1.636   0.133
 6609SOL    HW120726   2.559   1.711   0.198
 6609SOL    HW220727   2.547   1.549   0.182
 6610SOL     OW20728   3.292   5.830   0.813
 6610SOL    HW120729   3.241   5.751   0.779
 6610SOL    HW220730   3.387   5.825   0.782
 6611SOL     OW20731   2.924   1.507   4.991
 6611SOL    HW120732   2.969   1.586   5.033
 6611SOL    HW220733   2.845   1.538   4.938
 6612SOL     OW20734   6.245   0.535   6.917
 6612SOL    HW120735   6.279   0.527   6.823
 6612SOL    HW220736   6.260   0.450   6.965
 6613SOL     OW20737   5.028   6.945   0.777
 6613SOL    HW120738   5.082   6.862   0.792
 6613SOL    HW220739   4.943   6.921   0.730
 6614SOL     OW20740   4.441   5.010   0.880
 6614SOL    HW120741   4.344   5.014   0.906
 6614SOL    HW220742   4.498   5.019   0.962
 6615SOL     OW20743   3.648   5.606   6.083
 6615SOL    HW120744   3.582   5.551   6.032
 6615SOL    HW220745   3.714   5.646   6.019
 6616SOL     OW20746   3.914   2.379   6.329
 6616SOL    HW120747   3.910   2.346   6.235
 6616SOL    HW220748   3.841   2.445   6.345
 6617SOL     OW20749   3.546   1.505   4.295
 6617SOL    HW120750   3.643   1.485   4.309
 6617SOL    HW220751   3.530   1.526   4.199
 6618SOL     OW20752   6.340   2.748   3.805
 6618SOL    HW120753   6.264   2.786   3.752
 6618SOL    HW220754   6.324   2.651   3.821
 6619SOL     OW20755   4.402   4.541   3.584
 6619SOL    HW120756   4.348   4.613   3.540
 6619SOL    HW220757   4.365   4.523   3.675
 6620SOL     OW20758   0.951   3.117   3.699
 6620SOL    HW120759   0.879   3.175   3.660
 6620SOL    HW220760   0.977   3.153   3.789
 6621SOL     OW20761   3.833   3.557   3.438
 6621SOL    HW120762   3.779   3.591   3.361
 6621SOL    HW220763   3.930   3.565   3.416
 6622SOL     OW20764   6.749   5.009   1.937
 6622SOL    HW120765   6.785   4.922   1.970
 6622SOL    HW220766   6.673   4.991   1.874
 6623SOL     OW20767   3.319   3.092   4.406
 6623SOL    HW120768   3.363   3.169   4.358
 6623SOL    HW220769   3.388   3.041   4.457
 6624SOL     OW20770   2.284   2.537   2.486
 6624SOL    HW120771   2.211   2.479   2.523
 6624SOL    HW220772   2.346   2.480   2.432
 6625SOL     OW20773   0.954   4.924   5.842
 6625SOL    HW120774   0.963   5.023   5.843
 6625SOL    HW220775   0.857   4.900   5.832
 6626SOL     OW20776   3.423   5.767   5.855
 6626SOL    HW120777   3.455   5.844   5.799
 6626SOL    HW220778   3.461   5.682   5.819
 6627SOL     OW20779   2.668   0.243   4.569
 6627SOL    HW120780   2.642   0.334   4.604
 6627SOL    HW220781   2.590   0.182   4.575
 6628SOL     OW20782   3.715   6.068   3.831
 6628SOL    HW120783   3.618   6.051   3.816
 6628SOL    HW220784   3.727   6.122   3.914
 6629SOL     OW20785   4.999   5.989   5.257
 6629SOL    HW120786   4.919   5.950   5.211
 6629SOL    HW220787   5.023   6.075   5.213
 6630SOL     OW20788   1.908   0.162   0.520
 6630SOL    HW120789   1.877   0.177   0.614
 6630SOL    HW220790   1.987   0.100   0.521
 6631SOL     OW20791   1.564   1.626   5.824
 6631SOL    HW120792   1.649   1.605   5.775
 6631SOL    HW220793   1.521   1.541   5.854
 6632SOL     OW20794   1.224   0.490   5.781
 6632SOL    HW120795   1.187   0.480   5.688
 6632SOL    HW220796   1.226   0.401   5.826
 6633SOL     OW20797   4.758   6.816   5.829
 6633SOL    HW120798   4.683   6.750   5.829
 6633SOL    HW220799   4.821   6.794   5.903
 6634SOL     OW20800   3.011   2.238   3.958
 6634SOL    HW120801   2.958   2.236   3.873
 6634SOL    HW220802   3.108   2.225   3.937
 6635SOL     OW20803   4.724   5.325   6.125
 6635SOL    HW120804   4.737   5.421   6.150
 6635SOL    HW220805   4.813   5.280   6.116
 6636SOL     OW20806   4.572   1.357   1.274
 6636SOL    HW120807   4.631   1.277   1.264
 6636SOL    HW220808   4.578   1.413   1.192
 6637SOL     OW20809   0.326   3.445   6.978
 6637SOL    HW120810   0.276   3.388   0.025
 6637SOL    HW220811   0.265   3.472   6.903
 6638SOL     OW20812   2.872   3.633   4.292
 6638SOL    HW120813   2.945   3.575   4.328
 6638SOL    HW220814   2.827   3.680   4.368
 6639SOL     OW20815   5.359   3.094   1.967
 6639SOL    HW120816   5.335   3.163   1.898
 6639SOL    HW220817   5.282   3.083   2.030
 6640SOL     OW20818   0.417   3.594   3.944
 6640SOL    HW120819   0.498   3.625   3.992
 6640SOL    HW220820   0.359   3.542   4.006
 6641SOL     OW20821   5.100   2.463   0.346
 6641SOL    HW120822   5.078   2.561   0.345
 6641SOL    HW220823   5.067   2.423   0.432
 6642SOL     OW20824   0.644   5.231   6.263
 6642SOL    HW120825   0.711   5.195   6.328
 6642SOL    HW220826   0.683   5.310   6.215
 6643SOL     OW20827   5.177   5.497   5.802
 6643SOL    HW120828   5.111   5.559   5.844
 6643SOL    HW220829   5.175   5.409   5.850
 6644SOL     OW20830   1.882   6.199   3.413
 6644SOL    HW120831   1.922   6.217   3.502
 6644SOL    HW220832   1.794   6.153   3.424
 6645SOL     OW20833   5.012   2.755   5.251
 6645SOL    HW120834   4.924   2.794   5.278
 6645SOL    HW220835   5.032   2.675   5.308
 6646SOL     OW20836   4.871   0.080   5.989
 6646SOL    HW120837   4.862   0.113   5.895
 6646SOL    HW220838   4.799   0.014   6.008
 6647SOL     OW20839   3.212   5.177   0.661
 6647SOL    HW120840   3.113   5.171   0.675
 6647SOL    HW220841   3.246   5.089   0.627
 6648SOL     OW20842   3.396   5.708   5.532
 6648SOL    HW120843   3.300   5.715   5.505
 6648SOL    HW220844   3.453   5.751   5.462
 6649SOL     OW20845   5.799   3.011   5.118
 6649SOL    HW120846   5.888   3.042   5.151
 6649SOL    HW220847   5.748   3.089   5.082
 6650SOL     OW20848   2.516   0.618   5.022
 6650SOL    HW120849   2.484   0.678   4.949
 6650SOL    HW220850   2.606   0.581   4.997
 6651SOL     OW20851   6.262   0.970   3.455
 6651SOL    HW120852   6.193   1.008   3.517
 6651SOL    HW220853   6.251   0.871   3.449
 6652SOL     OW20854   7.002   5.339   6.484
 6652SOL    HW120855   6.957   5.378   6.404
 6652SOL    HW220856   0.038   5.259   6.457
 6653SOL     OW20857   5.770   3.730   0.119
 6653SOL    HW120858   5.831   3.795   0.074
 6653SOL    HW220859   5.677   3.742   0.084
 6654SOL     OW20860   6.851   1.838   3.403
 6654SOL    HW120861   6.950   1.845   3.409
 6654SOL    HW220862   6.809   1.882   3.483
 6655SOL     OW20863   0.054   5.699   1.627
 6655SOL    HW120864   0.119   5.774   1.640
 6655SOL    HW220865   6.989   5.735   1.585
 6656SOL     OW20866   5.217   1.477   2.083
 6656SOL    HW120867   5.220   1.386   2.042
 6656SOL    HW220868   5.122   1.503   2.100
 6657SOL     OW20869   4.686   1.939   4.079
 6657SOL    HW120870   4.701   2.038   4.071
 6657SOL    HW220871   4.774   1.891   4.069
 6658SOL     OW20872   6.293   6.011   4.276
 6658SOL    HW120873   6.219   5.988   4.339
 6658SOL    HW220874   6.350   5.930   4.261
 6659SOL     OW20875   0.990   6.537   1.156
 6659SOL    HW120876   1.006   6.628   1.196
 6659SOL    HW220877   1.075   6.504   1.114
 6660SOL     OW20878   1.468   0.776   3.720
 6660SOL    HW120879   1.514   0.856   3.759
 6660SOL    HW220880   1.430   0.720   3.793
 6661SOL     OW20881   3.949   6.560   3.809
 6661SOL    HW120882   3.903   6.507   3.737
 6661SOL    HW220883   3.943   6.658   3.788
 6662SOL     OW20884   4.059   6.594   1.643
 6662SOL    HW120885   4.105   6.675   1.681
 6662SOL    HW220886   4.116   6.555   1.570
 6663SOL     OW20887   1.532   4.098   5.127
 6663SOL    HW120888   1.617   4.141   5.096
 6663SOL    HW220889   1.531   4.094   5.227
 6664SOL     OW20890   3.258   0.104   1.485
 6664SOL    HW120891   3.173   0.095   1.537
 6664SOL    HW220892   3.315   0.175   1.526
 6665SOL     OW20893   2.682   0.347   6.693
 6665SOL    HW120894   2.684   0.406   6.613
 6665SOL    HW220895   2.773   0.343   6.735
 6666SOL     OW20896   2.710   6.723   5.847
 6666SOL    HW120897   2.682   6.819   5.841
 6666SOL    HW220898   2.750   6.706   5.937
 6667SOL     OW20899   1.920   5.869   0.024
 6667SOL    HW120900   1.872   5.937   6.988
 6667SOL    HW220901   1.860   5.790   0.041
 6668SOL     OW20902   0.243   3.690   5.861
 6668SOL    HW120903   0.259   3.684   5.959
 6668SOL    HW220904   0.161   3.638   5.837
 6669SOL     OW20905   0.524   3.449   3.758
 6669SOL    HW120906   0.480   3.499   3.833
 6669SOL    HW220907   0.521   3.504   3.675
 6670SOL     OW20908   2.509   4.082   0.648
 6670SOL    HW120909   2.442   4.093   0.575
 6670SOL    HW220910   2.518   4.169   0.698
 6671SOL     OW20911   5.023   5.043   0.614
 6671SOL    HW120912   4.957   5.114   0.590
 6671SOL    HW220913   5.038   4.983   0.536
 6672SOL     OW20914   1.936   2.385   0.866
 6672SOL    HW120915   1.869   2.311   0.857
 6672SOL    HW220916   1.997   2.385   0.787
 6673SOL     OW20917   5.651   3.804   4.531
 6673SOL    HW120918   5.703   3.728   4.570
 6673SOL    HW220919   5.701   3.889   4.546
 6674SOL     OW20920   6.346   1.278   6.895
 6674SOL    HW120921   6.310   1.361   6.853
 6674SOL    HW220922   6.311   1.269   6.988
 6675SOL     OW20923   4.956   1.075   0.366
 6675SOL    HW120924   4.936   0.977   0.367
 6675SOL    HW220925   4.901   1.121   0.435
 6676SOL     OW20926   0.984   3.237   5.477
 6676SOL    HW120927   0.944   3.147   5.499
 6676SOL    HW220928   0.924   3.309   5.510
 6677SOL     OW20929   0.516   2.106   6.955
 6677SOL    HW120930   0.612   2.125   6.935
 6677SOL    HW220931   0.465   2.099   6.869
 6678SOL     OW20932   3.391   4.209   6.465
 6678SOL    HW120933   3.349   4.264   6.392
 6678SOL    HW220934   3.477   4.171   6.431
 6679SOL     OW20935   1.597   0.302   3.596
 6679SOL    HW120936   1.692   0.332   3.587
 6679SOL    HW220937   1.588   0.209   3.560
 6680SOL     OW20938   6.535   5.866   1.943
 6680SOL    HW120939   6.531   5.823   1.853
 6680SOL    HW220940   6.575   5.803   2.009
 6681SOL     OW20941   3.421   5.918   1.059
 6681SOL    HW120942   3.378   5.873   0.982
 6681SOL    HW220943   3.359   5.986   1.098
 6682SOL     OW20944   2.505   4.788   6.353
 6682SOL    HW120945   2.407   4.804   6.340
 6682SOL    HW220946   2.541   4.736   6.275
 6683SOL     OW20947   7.008   6.247   6.610
 6683SOL    HW120948   0.002   6.148   6.601
 6683SOL    HW220949   6.986   6.286   6.521
 6684SOL     OW20950   2.921   0.095   6.014
 6684SOL    HW120951   2.923   7.018   6.042
 6684SOL    HW220952   3.015   0.131   6.012
 6685SOL     OW20953   3.755   2.874   0.827
 6685SOL    HW120954   3.700   2.883   0.910
 6685SOL    HW220955   3.734   2.948   0.764
 6686SOL     OW20956   4.749   4.324   5.510
 6686SOL    HW120957   4.770   4.296   5.604
 6686SOL    HW220958   4.832   4.320   5.455
 6687SOL     OW20959   6.862   2.505   0.740
 6687SOL    HW120960   6.904   2.593   0.766
 6687SOL    HW220961   6.915   2.464   0.666
 6688SOL     OW20962   5.769   5.959   0.542
 6688SOL    HW120963   5.835   5.897   0.499
 6688SOL    HW220964   5.788   6.053   0.514
 6689SOL     OW20965   3.595   4.598   5.722
 6689SOL    HW120966   3.528   4.656   5.676
 6689SOL    HW220967   3.687   4.635   5.708
 6690SOL     OW20968   1.184   0.127   6.988
 6690SOL    HW120969   1.151   0.052   0.027
 6690SOL    HW220970   1.247   0.091   6.919
 6691SOL     OW20971   2.313   1.909   2.140
 6691SOL    HW120972   2.292   1.938   2.233
 6691SOL    HW220973   2.406   1.937   2.117
 6692SOL     OW20974   3.929   6.347   2.066
 6692SOL    HW120975   3.904   6.257   2.103
 6692SOL    HW220976   3.888   6.358   1.976
 6693SOL     OW20977   2.652   1.255   6.147
 6693SOL    HW120978   2.733   1.225   6.096
 6693SOL    HW220979   2.667   1.244   6.245
 6694SOL     OW20980   4.565   4.058   1.665
 6694SOL    HW120981   4.516   4.127   1.718
 6694SOL    HW220982   4.651   4.095   1.633
 6695SOL     OW20983   3.181   2.321   0.167
 6695SOL    HW120984   3.101   2.380   0.158
 6695SOL    HW220985   3.225   2.311   0.078
 6696SOL     OW20986   3.474   3.220   4.978
 6696SOL    HW120987   3.515   3.176   4.898
 6696SOL    HW220988   3.546   3.243   5.044
 6697SOL     OW20989   4.994   1.064   2.727
 6697SOL    HW120990   4.967   1.051   2.823
 6697SOL    HW220991   4.979   1.160   2.702
 6698SOL     OW20992   2.930   3.675   1.436
 6698SOL    HW120993   2.988   3.599   1.407
 6698SOL    HW220994   2.985   3.741   1.488
 6699SOL     OW20995   1.364   3.627   6.387
 6699SOL    HW120996   1.399   3.707   6.338
 6699SOL    HW220997   1.437   3.588   6.443
 6700SOL     OW20998   5.065   0.286   1.178
 6700SOL    HW120999   5.069   0.381   1.206
 6700SOL    HW221000   4.976   0.266   1.138
 6701SOL     OW21001   6.473   6.567   1.479
 6701SOL    HW121002   6.411   6.555   1.401
 6701SOL    HW221003   6.422   6.605   1.556
 6702SOL     OW21004   4.837   2.646   1.286
 6702SOL    HW121005   4.765   2.692   1.234
 6702SOL    HW221006   4.922   2.698   1.278
 6703SOL     OW21007   0.091   1.127   0.758
 6703SOL    HW121008   0.167   1.070   0.790
 6703SOL    HW221009   0.119   1.223   0.761
 6704SOL     OW21010   2.450   6.181   6.494
 6704SOL    HW121011   2.452   6.120   6.414
 6704SOL    HW221012   2.378   6.249   6.482
 6705SOL     OW21013   1.331   4.153   2.666
 6705SOL    HW121014   1.352   4.237   2.716
 6705SOL    HW221015   1.261   4.171   2.597
 6706SOL     OW21016   0.484   5.737   1.270
 6706SOL    HW121017   0.396   5.692   1.254
 6706SOL    HW221018   0.474   5.836   1.257
 6707SOL     OW21019   4.912   0.702   2.915
 6707SOL    HW121020   4.881   0.724   2.823
 6707SOL    HW221021   5.001   0.742   2.931
 6708SOL     OW21022   0.767   3.326   0.840
 6708SOL    HW121023   0.817   3.369   0.765
 6708SOL    HW221024   0.713   3.395   0.889
 6709SOL     OW21025   1.988   4.456   1.725
 6709SOL    HW121026   1.954   4.403   1.803
 6709SOL    HW221027   2.087   4.468   1.734
 6710SOL     OW21028   4.592   2.166   1.917
 6710SOL    HW121029   4.493   2.171   1.906
 6710SOL    HW221030   4.637   2.221   1.846
 6711SOL     OW21031   4.433   5.756   6.359
 6711SOL    HW121032   4.396   5.836   6.311
 6711SOL    HW221033   4.360   5.711   6.409
 6712SOL     OW21034   5.597   3.661   0.949
 6712SOL    HW121035   5.684   3.710   0.953
 6712SOL    HW221036   5.531   3.715   0.897
 6713SOL     OW21037   2.133   4.625   4.292
 6713SOL    HW121038   2.103   4.616   4.387
 6713SOL    HW221039   2.185   4.544   4.266
 6714SOL     OW21040   6.278   1.034   2.384
 6714SOL    HW121041   6.183   1.063   2.385
 6714SOL    HW221042   6.292   0.959   2.448
 6715SOL     OW21043   0.942   7.015   5.798
 6715SOL    HW121044   0.869   7.005   5.731
 6715SOL    HW221045   1.019   0.045   5.755
 6716SOL     OW21046   1.473   4.492   1.937
 6716SOL    HW121047   1.561   4.537   1.954
 6716SOL    HW221048   1.447   4.504   1.842
 6717SOL     OW21049   6.167   2.331   5.407
 6717SOL    HW121050   6.241   2.398   5.415
 6717SOL    HW221051   6.126   2.338   5.316
 6718SOL     OW21052   4.625   2.377   0.944
 6718SOL    HW121053   4.529   2.363   0.918
 6718SOL    HW221054   4.632   2.385   1.043
 6719SOL     OW21055   1.660   0.538   0.351
 6719SOL    HW121056   1.658   0.550   0.251
 6719SOL    HW221057   1.754   0.550   0.383
 6720SOL     OW21058   1.288   1.684   4.258
 6720SOL    HW121059   1.365   1.731   4.299
 6720SOL    HW221060   1.308   1.586   4.252
 6721SOL     OW21061   6.117   6.485   0.402
 6721SOL    HW121062   6.130   6.545   0.323
 6721SOL    HW221063   6.159   6.396   0.384
 6722SOL     OW21064   6.651   3.761   1.428
 6722SOL    HW121065   6.698   3.847   1.447
 6722SOL    HW221066   6.552   3.773   1.442
 6723SOL     OW21067   1.981   3.291   4.307
 6723SOL    HW121068   2.045   3.269   4.380
 6723SOL    HW221069   2.028   3.287   4.219
 6724SOL     OW21070   1.927   3.109   5.365
 6724SOL    HW121071   1.892   3.180   5.426
 6724SOL    HW221072   1.968   3.151   5.284
 6725SOL     OW21073   4.640   2.630   3.448
 6725SOL    HW121074   4.660   2.701   3.380
 6725SOL    HW221075   4.663   2.541   3.411
 6726SOL     OW21076   6.968   1.417   0.063
 6726SOL    HW121077   6.913   1.371   0.132
 6726SOL    HW221078   0.047   1.405   0.084
 6727SOL     OW21079   0.852   5.471   5.602
 6727SOL    HW121080   0.918   5.395   5.598
 6727SOL    HW221081   0.833   5.502   5.509
 6728SOL     OW21082   3.590   1.530   5.054
 6728SOL    HW121083   3.598   1.629   5.044
 6728SOL    HW221084   3.650   1.485   4.988
 6729SOL     OW21085   4.027   1.305   2.657
 6729SOL    HW121086   3.992   1.213   2.642
 6729SOL    HW221087   4.028   1.326   2.754
 6730SOL     OW21088   0.363   1.913   1.338
 6730SOL    HW121089   0.425   1.969   1.393
 6730SOL    HW221090   0.273   1.911   1.381
 6731SOL     OW21091   3.839   0.344   5.905
 6731SOL    HW121092   3.938   0.347   5.900
 6731SOL    HW221093   3.810   0.308   5.993
 6732SOL     OW21094   6.046   5.031   5.901
 6732SOL    HW121095   6.038   5.065   5.994
 6732SOL    HW221096   6.009   5.097   5.836
 6733SOL     OW21097   5.319   4.877   5.675
 6733SOL    HW121098   5.415   4.887   5.649
 6733SOL    HW221099   5.277   4.806   5.619
 6734SOL     OW21100   5.281   1.888   5.534
 6734SOL    HW121101   5.352   1.872   5.465
 6734SOL    HW221102   5.304   1.840   5.618
 6735SOL     OW21103   5.733   2.663   4.704
 6735SOL    HW121104   5.703   2.725   4.777
 6735SOL    HW221105   5.810   2.608   4.736
 6736SOL     OW21106   3.758   3.429   0.558
 6736SOL    HW121107   3.688   3.472   0.615
 6736SOL    HW221108   3.826   3.385   0.616
 6737SOL     OW21109   6.248   2.988   1.168
 6737SOL    HW121110   6.177   2.942   1.220
 6737SOL    HW221111   6.336   2.942   1.182
 6738SOL     OW21112   1.987   6.818   3.662
 6738SOL    HW121113   2.077   6.805   3.701
 6738SOL    HW221114   1.918   6.771   3.717
 6739SOL     OW21115   0.658   0.272   5.587
 6739SOL    HW121116   0.667   0.172   5.589
 6739SOL    HW221117   0.740   0.313   5.628
 6740SOL     OW21118   0.778   6.889   2.079
 6740SOL    HW121119   0.690   6.883   2.031
 6740SOL    HW221120   0.775   6.831   2.160
 6741SOL     OW21121   2.996   2.063   0.141
 6741SOL    HW121122   2.973   2.143   0.197
 6741SOL    HW221123   2.935   2.059   0.062
 6742SOL     OW21124   6.636   5.190   2.398
 6742SOL    HW121125   6.644   5.151   2.307
 6742SOL    HW221126   6.728   5.213   2.432
 6743SOL     OW21127   3.624   4.164   6.693
 6743SOL    HW121128   3.657   4.156   6.599
 6743SOL    HW221129   3.570   4.084   6.717
 6744SOL     OW21130   6.615   6.248   5.763
 6744SOL    HW121131   6.611   6.230   5.665
 6744SOL    HW221132   6.707   6.276   5.788
 6745SOL     OW21133   5.478   3.278   5.309
 6745SOL    HW121134   5.448   3.183   5.302
 6745SOL    HW221135   5.573   3.280   5.341
 6746SOL     OW21136   1.567   2.392   2.969
 6746SOL    HW121137   1.583   2.487   2.997
 6746SOL    HW221138   1.604   2.330   3.038
 6747SOL     OW21139   1.033   6.073   5.343
 6747SOL    HW121140   0.940   6.079   5.306
 6747SOL    HW221141   1.098   6.109   5.276
 6748SOL     OW21142   1.630   2.479   4.222
 6748SOL    HW121143   1.649   2.395   4.273
 6748SOL    HW221144   1.534   2.503   4.233
 6749SOL     OW21145   3.740   4.889   2.594
 6749SOL    HW121146   3.698   4.844   2.516
 6749SOL    HW221147   3.670   4.910   2.663
 6750SOL     OW21148   4.290   0.392   5.720
 6750SOL    HW121149   4.205   0.383   5.668
 6750SOL    HW221150   4.344   0.468   5.683
 6751SOL     OW21151   3.940   1.094   4.303
 6751SOL    HW121152   3.854   1.113   4.351
 6751SOL    HW221153   4.006   1.057   4.367
 6752SOL     OW21154   2.272   5.407   3.108
 6752SOL    HW121155   2.220   5.382   3.190
 6752SOL    HW221156   2.220   5.474   3.055
 6753SOL     OW21157   3.232   4.601   6.885
 6753SOL    HW121158   3.239   4.697   6.858
 6753SOL    HW221159   3.205   4.546   6.806
 6754SOL     OW21160   6.003   0.554   0.384
 6754SOL    HW121161   5.907   0.580   0.387
 6754SOL    HW221162   6.012   0.466   0.337
 6755SOL     OW21163   3.509   5.335   5.392
 6755SOL    HW121164   3.578   5.380   5.334
 6755SOL    HW221165   3.446   5.283   5.334
 6756SOL     OW21166   4.196   3.267   5.284
 6756SOL    HW121167   4.278   3.319   5.309
 6756SOL    HW221168   4.164   3.215   5.363
 6757SOL     OW21169   4.043   6.903   1.540
 6757SOL    HW121170   4.137   6.878   1.562
 6757SOL    HW221171   3.980   6.838   1.582
 6758SOL     OW21172   5.258   2.443   3.056
 6758SOL    HW121173   5.171   2.404   3.085
 6758SOL    HW221174   5.314   2.372   3.013
 6759SOL     OW21175   1.341   2.551   1.989
 6759SOL    HW121176   1.270   2.617   2.016
 6759SOL    HW221177   1.399   2.591   1.919
 6760SOL     OW21178   5.152   1.679   5.880
 6760SOL    HW121179   5.103   1.766   5.880
 6760SOL    HW221180   5.215   1.676   5.803
 6761SOL     OW21181   2.466   0.377   5.203
 6761SOL    HW121182   2.517   0.459   5.178
 6761SOL    HW221183   2.480   0.307   5.134
 6762SOL     OW21184   5.288   4.975   4.399
 6762SOL    HW121185   5.241   5.063   4.383
 6762SOL    HW221186   5.223   4.900   4.385
 6763SOL     OW21187   5.765   5.898   3.687
 6763SOL    HW121188   5.695   5.833   3.717
 6763SOL    HW221189   5.850   5.849   3.670
 6764SOL     OW21190   0.856   4.774   2.208
 6764SOL    HW121191   0.954   4.755   2.215
 6764SOL    HW221192   0.807   4.726   2.282
 6765SOL     OW21193   6.831   4.554   3.356
 6765SOL    HW121194   6.802   4.641   3.317
 6765SOL    HW221195   6.881   4.502   3.287
 6766SOL     OW21196   5.920   0.028   1.278
 6766SOL    HW121197   5.922   6.967   1.339
 6766SOL    HW221198   6.009   0.041   1.235
 6767SOL     OW21199   3.409   0.357   1.281
 6767SOL    HW121200   3.441   0.386   1.371
 6767SOL    HW221201   3.480   0.377   1.213
 6768SOL     OW21202   1.932   0.256   6.592
 6768SOL    HW121203   1.927   0.204   6.507
 6768SOL    HW221204   2.020   0.303   6.598
 6769SOL     OW21205   5.413   2.842   1.273
 6769SOL    HW121206   5.393   2.940   1.261
 6769SOL    HW221207   5.460   2.828   1.360
 6770SOL     OW21208   0.314   1.742   1.675
 6770SOL    HW121209   0.385   1.811   1.685
 6770SOL    HW221210   0.257   1.764   1.595
 6771SOL     OW21211   4.749   1.257   3.332
 6771SOL    HW121212   4.726   1.327   3.264
 6771SOL    HW221213   4.767   1.302   3.420
 6772SOL     OW21214   3.286   1.137   4.878
 6772SOL    HW121215   3.254   1.155   4.971
 6772SOL    HW221216   3.216   1.167   4.813
 6773SOL     OW21217   0.011   3.852   1.947
 6773SOL    HW121218   7.015   3.923   1.877
 6773SOL    HW221219   0.083   3.790   1.917
 6774SOL     OW21220   1.557   1.831   6.006
 6774SOL    HW121221   1.651   1.829   6.038
 6774SOL    HW221222   1.530   1.740   5.974
 6775SOL     OW21223   0.364   3.244   0.713
 6775SOL    HW121224   0.380   3.280   0.805
 6775SOL    HW221225   0.273   3.270   0.682
 6776SOL     OW21226   5.862   6.073   6.635
 6776SOL    HW121227   5.934   6.005   6.653
 6776SOL    HW221228   5.798   6.036   6.568
 6777SOL     OW21229   4.296   4.741   0.074
 6777SOL    HW121230   4.235   4.688   0.015
 6777SOL    HW221231   4.334   4.817   0.022
 6778SOL     OW21232   6.606   5.250   3.037
 6778SOL    HW121233   6.618   5.160   3.080
 6778SOL    HW221234   6.515   5.254   2.995
 6779SOL     OW21235   5.402   3.197   6.485
 6779SOL    HW121236   5.439   3.290   6.485
 6779SOL    HW221237   5.436   3.147   6.406
 6780SOL     OW21238   1.142   2.949   1.519
 6780SOL    HW121239   1.150   2.945   1.419
 6780SOL    HW221240   1.231   2.930   1.560
 6781SOL     OW21241   5.202   4.438   5.597
 6781SOL    HW121242   5.257   4.391   5.665
 6781SOL    HW221243   5.105   4.418   5.613
 6782SOL     OW21244   6.214   1.563   3.807
 6782SOL    HW121245   6.300   1.615   3.804
 6782SOL    HW221246   6.201   1.527   3.900
 6783SOL     OW21247   1.241   5.804   6.482
 6783SOL    HW121248   1.152   5.848   6.490
 6783SOL    HW221249   1.233   5.708   6.509
 6784SOL     OW21250   4.469   3.570   0.448
 6784SOL    HW121251   4.445   3.634   0.521
 6784SOL    HW221252   4.411   3.588   0.368
 6785SOL     OW21253   5.453   5.565   1.825
 6785SOL    HW121254   5.392   5.486   1.825
 6785SOL    HW221255   5.500   5.570   1.914
 6786SOL     OW21256   1.695   3.374   5.298
 6786SOL    HW121257   1.751   3.384   5.380
 6786SOL    HW221258   1.724   3.442   5.230
 6787SOL     OW21259   0.812   4.058   1.918
 6787SOL    HW121260   0.907   4.028   1.928
 6787SOL    HW221261   0.753   4.001   1.973
 6788SOL     OW21262   2.526   3.930   0.868
 6788SOL    HW121263   2.615   3.940   0.913
 6788SOL    HW221264   2.518   3.996   0.794
 6789SOL     OW21265   2.006   4.491   2.963
 6789SOL    HW121266   1.976   4.562   3.025
 6789SOL    HW221267   1.988   4.401   3.003
 6790SOL     OW21268   0.973   3.206   0.630
 6790SOL    HW121269   0.975   3.122   0.576
 6790SOL    HW221270   1.064   3.225   0.667
 6791SOL     OW21271   3.817   4.072   5.714
 6791SOL    HW121272   3.755   3.993   5.721
 6791SOL    HW221273   3.898   4.056   5.769
 6792SOL     OW21274   0.588   5.229   0.528
 6792SOL    HW121275   0.671   5.269   0.488
 6792SOL    HW221276   0.608   5.137   0.562
 6793SOL     OW21277   5.576   1.182   0.952
 6793SOL    HW121278   5.676   1.184   0.961
 6793SOL    HW221279   5.535   1.224   1.032
 6794SOL     OW21280   3.172   1.468   4.873
 6794SOL    HW121281   3.234   1.512   4.939
 6794SOL    HW221282   3.095   1.428   4.922
 6795SOL     OW21283   3.730   6.027   6.972
 6795SOL    HW121284   3.700   5.963   6.901
 6795SOL    HW221285   3.736   6.119   6.934
 6796SOL     OW21286   4.196   1.967   2.380
 6796SOL    HW121287   4.198   2.067   2.383
 6796SOL    HW221288   4.132   1.932   2.448
 6797SOL     OW21289   6.592   2.522   2.666
 6797SOL    HW121290   6.589   2.599   2.602
 6797SOL    HW221291   6.660   2.540   2.737
 6798SOL     OW21292   6.192   6.972   2.255
 6798SOL    HW121293   6.193   6.897   2.321
 6798SOL    HW221294   6.194   6.936   2.162
 6799SOL     OW21295   4.980   5.949   2.303
 6799SOL    HW121296   4.986   5.851   2.282
 6799SOL    HW221297   4.957   5.999   2.220
 6800SOL     OW21298   3.626   3.877   6.407
 6800SOL    HW121299   3.709   3.833   6.374
 6800SOL    HW221300   3.595   3.831   6.491
 6801SOL     OW21301   0.812   3.153   3.163
 6801SOL    HW121302   0.752   3.232   3.155
 6801SOL    HW221303   0.758   3.069   3.155
 6802SOL     OW21304   3.239   4.945   2.647
 6802SOL    HW121305   3.175   4.947   2.724
 6802SOL    HW221306   3.201   4.887   2.575
 6803SOL     OW21307   3.988   2.463   0.302
 6803SOL    HW121308   3.982   2.365   0.320
 6803SOL    HW221309   4.016   2.510   0.386
 6804SOL     OW21310   1.612   6.031   3.710
 6804SOL    HW121311   1.601   6.039   3.809
 6804SOL    HW221312   1.536   5.979   3.672
 6805SOL     OW21313   6.019   1.427   5.618
 6805SOL    HW121314   6.106   1.426   5.569
 6805SOL    HW221315   5.986   1.333   5.630
 6806SOL     OW21316   4.600   6.041   5.051
 6806SOL    HW121317   4.574   6.119   5.109
 6806SOL    HW221318   4.623   5.963   5.108
 6807SOL     OW21319   3.998   3.415   6.794
 6807SOL    HW121320   4.081   3.407   6.739
 6807SOL    HW221321   3.919   3.428   6.733
 6808SOL     OW21322   2.299   4.394   4.284
 6808SOL    HW121323   2.295   4.337   4.365
 6808SOL    HW221324   2.363   4.355   4.218
 6809SOL     OW21325   1.482   3.466   0.155
 6809SOL    HW121326   1.442   3.375   0.147
 6809SOL    HW221327   1.443   3.513   0.235
 6810SOL     OW21328   5.869   1.259   3.817
 6810SOL    HW121329   5.870   1.351   3.778
 6810SOL    HW221330   5.959   1.238   3.855
 6811SOL     OW21331   5.248   6.038   2.382
 6811SOL    HW121332   5.270   5.981   2.461
 6811SOL    HW221333   5.150   6.032   2.363
 6812SOL     OW21334   3.690   2.869   2.624
 6812SOL    HW121335   3.720   2.911   2.538
 6812SOL    HW221336   3.768   2.857   2.685
 6813SOL     OW21337   5.283   3.819   1.056
 6813SOL    HW121338   5.311   3.850   1.147
 6813SOL    HW221339   5.254   3.897   1.001
 6814SOL     OW21340   2.107   2.727   0.813
 6814SOL    HW121341   2.204   2.704   0.822
 6814SOL    HW221342   2.062   2.717   0.902
 6815SOL     OW21343   1.697   0.090   0.339
 6815SOL    HW121344   1.617   0.084   0.398
 6815SOL    HW221345   1.773   0.130   0.389
 6816SOL     OW21346   5.123   4.759   1.548
 6816SOL    HW121347   5.183   4.717   1.616
 6816SOL    HW221348   5.036   4.710   1.544
 6817SOL     OW21349   1.723   2.445   5.982
 6817SOL    HW121350   1.780   2.363   5.975
 6817SOL    HW221351   1.699   2.460   6.078
 6818SOL     OW21352   4.039   5.213   1.499
 6818SOL    HW121353   3.998   5.151   1.566
 6818SOL    HW221354   4.134   5.232   1.525
 6819SOL     OW21355   2.299   1.583   3.797
 6819SOL    HW121356   2.367   1.556   3.728
 6819SOL    HW221357   2.264   1.674   3.774
 6820SOL     OW21358   1.880   5.070   4.901
 6820SOL    HW121359   1.907   5.002   4.833
 6820SOL    HW221360   1.906   5.161   4.869
 6821SOL     OW21361   2.329   2.867   3.946
 6821SOL    HW121362   2.366   2.831   4.031
 6821SOL    HW221363   2.306   2.964   3.958
 6822SOL     OW21364   5.256   1.336   5.572
 6822SOL    HW121365   5.198   1.417   5.571
 6822SOL    HW221366   5.199   1.254   5.561
 6823SOL     OW21367   4.170   3.411   2.033
 6823SOL    HW121368   4.177   3.352   1.952
 6823SOL    HW221369   4.164   3.506   2.004
 6824SOL     OW21370   0.461   5.532   5.234
 6824SOL    HW121371   0.442   5.630   5.233
 6824SOL    HW221372   0.430   5.490   5.149
 6825SOL     OW21373   5.413   0.604   4.889
 6825SOL    HW121374   5.473   0.671   4.933
 6825SOL    HW221375   5.466   0.546   4.827
 6826SOL     OW21376   1.043   3.127   3.415
 6826SOL    HW121377   0.974   3.178   3.364
 6826SOL    HW221378   1.015   3.120   3.511
 6827SOL     OW21379   4.332   5.326   5.176
 6827SOL    HW121380   4.350   5.245   5.120
 6827SOL    HW221381   4.395   5.327   5.254
 6828SOL     OW21382   2.214   1.871   1.141
 6828SOL    HW121383   2.142   1.886   1.209
 6828SOL    HW221384   2.277   1.801   1.175
 6829SOL     OW21385   5.737   4.956   3.995
 6829SOL    HW121386   5.673   5.032   4.004
 6829SOL    HW221387   5.829   4.987   4.020
 6830SOL     OW21388   5.251   1.559   3.667
 6830SOL    HW121389   5.211   1.568   3.758
 6830SOL    HW221390   5.349   1.540   3.675
 6831SOL     OW21391   0.635   1.810   6.005
 6831SOL    HW121392   0.696   1.867   6.060
 6831SOL    HW221393   0.583   1.869   5.943
 6832SOL     OW21394   2.583   5.093   1.194
 6832SOL    HW121395   2.677   5.113   1.221
 6832SOL    HW221396   2.579   5.006   1.145
 6833SOL     OW21397   4.300   6.105   0.424
 6833SOL    HW121398   4.302   6.015   0.381
 6833SOL    HW221399   4.230   6.162   0.380
 6834SOL     OW21400   2.524   4.943   2.575
 6834SOL    HW121401   2.434   4.973   2.543
 6834SOL    HW221402   2.537   4.846   2.553
 6835SOL     OW21403   3.618   7.012   4.723
 6835SOL    HW121404   3.709   6.991   4.684
 6835SOL    HW221405   3.562   6.929   4.720
 6836SOL     OW21406   3.859   5.699   0.065
 6836SOL    HW121407   3.915   5.780   0.081
 6836SOL    HW221408   3.816   5.670   0.150
 6837SOL     OW21409   0.631   3.372   3.110
 6837SOL    HW121410   0.620   3.382   3.011
 6837SOL    HW221411   0.555   3.317   3.146
 6838SOL     OW21412   2.659   1.829   1.075
 6838SOL    HW121413   2.581   1.889   1.060
 6838SOL    HW221414   2.641   1.739   1.033
 6839SOL     OW21415   3.723   1.166   1.996
 6839SOL    HW121416   3.692   1.074   2.020
 6839SOL    HW221417   3.659   1.234   2.033
 6840SOL     OW21418   0.877   0.789   5.827
 6840SOL    HW121419   0.785   0.820   5.850
 6840SOL    HW221420   0.919   0.746   5.907
 6841SOL     OW21421   0.049   3.293   6.124
 6841SOL    HW121422   0.138   3.250   6.107
 6841SOL    HW221423   0.037   3.308   6.222
 6842SOL     OW21424   2.564   4.652   2.488
 6842SOL    HW121425   2.590   4.647   2.391
 6842SOL    HW221426   2.470   4.620   2.499
 6843SOL     OW21427   4.644   7.016   1.314
 6843SOL    HW121428   4.549   0.023   1.293
 6843SOL    HW221429   4.706   0.063   1.271
 6844SOL     OW21430   5.562   0.504   5.593
 6844SOL    HW121431   5.642   0.452   5.564
 6844SOL    HW221432   5.584   0.560   5.673
 6845SOL     OW21433   5.399   2.093   2.562
 6845SOL    HW121434   5.412   2.160   2.635
 6845SOL    HW221435   5.423   2.135   2.474
 6846SOL     OW21436   2.205   3.675   0.211
 6846SOL    HW121437   2.285   3.621   0.234
 6846SOL    HW221438   2.139   3.617   0.162
 6847SOL     OW21439   6.884   2.459   3.440
 6847SOL    HW121440   6.804   2.450   3.499
 6847SOL    HW221441   6.872   2.404   3.358
 6848SOL     OW21442   6.882   5.023   4.187
 6848SOL    HW121443   6.957   4.972   4.145
 6848SOL    HW221444   6.819   5.054   4.115
 6849SOL     OW21445   2.989   3.843   5.434
 6849SOL    HW121446   2.917   3.911   5.451
 6849SOL    HW221447   2.991   3.819   5.337
 6850SOL     OW21448   5.221   0.610   4.700
 6850SOL    HW121449   5.292   0.612   4.770
 6850SOL    HW221450   5.264   0.607   4.609
 6851SOL     OW21451   1.981   4.225   3.118
 6851SOL    HW121452   1.972   4.153   3.049
 6851SOL    HW221453   2.065   4.210   3.170
 6852SOL     OW21454   4.474   3.355   0.811
 6852SOL    HW121455   4.418   3.307   0.879
 6852SOL    HW221456   4.422   3.365   0.726
 6853SOL     OW21457   4.304   4.940   5.858
 6853SOL    HW121458   4.295   4.905   5.951
 6853SOL    HW221459   4.225   4.998   5.837
 6854SOL     OW21460   5.058   6.253   5.222
 6854SOL    HW121461   5.135   6.316   5.213
 6854SOL    HW221462   5.045   6.230   5.318
 6855SOL     OW21463   3.796   5.480   2.788
 6855SOL    HW121464   3.812   5.392   2.833
 6855SOL    HW221465   3.699   5.490   2.768
 6856SOL     OW21466   6.424   2.573   0.744
 6856SOL    HW121467   6.487   2.581   0.666
 6856SOL    HW221468   6.354   2.506   0.724
 6857SOL     OW21469   1.928   4.721   6.021
 6857SOL    HW121470   1.997   4.661   5.980
 6857SOL    HW221471   1.918   4.698   6.118
 6858SOL     OW21472   0.979   3.692   1.688
 6858SOL    HW121473   0.900   3.695   1.750
 6858SOL    HW221474   1.063   3.699   1.742
 6859SOL     OW21475   2.210   2.149   0.937
 6859SOL    HW121476   2.208   2.056   0.902
 6859SOL    HW221477   2.117   2.188   0.935
 6860SOL     OW21478   0.122   0.067   0.070
 6860SOL    HW121479   0.160   0.082   0.161
 6860SOL    HW221480   0.169   7.009   0.026
 6861SOL     OW21481   6.452   3.270   6.982
 6861SOL    HW121482   6.499   3.229   6.904
 6861SOL    HW221483   6.412   3.358   6.955
 6862SOL     OW21484   0.641   4.628   3.329
 6862SOL    HW121485   0.642   4.723   3.358
 6862SOL    HW221486   0.693   4.572   3.393
 6863SOL     OW21487   5.137   1.057   5.604
 6863SOL    HW121488   5.163   1.043   5.699
 6863SOL    HW221489   5.209   1.024   5.544
 6864SOL     OW21490   2.151   3.541   6.520
 6864SOL    HW121491   2.185   3.634   6.507
 6864SOL    HW221492   2.227   3.483   6.550
 6865SOL     OW21493   1.699   0.444   3.235
 6865SOL    HW121494   1.601   0.427   3.224
 6865SOL    HW221495   1.712   0.533   3.280
 6866SOL     OW21496   2.173   4.715   7.003
 6866SOL    HW121497   2.182   4.625   0.027
 6866SOL    HW221498   2.089   4.718   6.949
 6867SOL     OW21499   2.308   2.669   6.352
 6867SOL    HW121500   2.215   2.704   6.363
 6867SOL    HW221501   2.305   2.575   6.319
 6868SOL     OW21502   3.852   5.069   3.250
 6868SOL    HW121503   3.761   5.080   3.292
 6868SOL    HW221504   3.842   5.044   3.154
 6869SOL     OW21505   1.497   0.445   5.423
 6869SOL    HW121506   1.554   0.413   5.347
 6869SOL    HW221507   1.555   0.478   5.497
 6870SOL     OW21508   5.597   2.765   6.650
 6870SOL    HW121509   5.645   2.679   6.668
 6870SOL    HW221510   5.589   2.780   6.552
 6871SOL     OW21511   6.188   2.397   3.176
 6871SOL    HW121512   6.127   2.356   3.244
 6871SOL    HW221513   6.282   2.374   3.197
 6872SOL     OW21514   1.845   4.965   0.896
 6872SOL    HW121515   1.763   5.001   0.851
 6872SOL    HW221516   1.820   4.889   0.955
 6873SOL     OW21517   0.750   3.878   2.188
 6873SOL    HW121518   0.707   3.789   2.173
 6873SOL    HW221519   0.716   3.918   2.273
 6874SOL     OW21520   3.971   5.785   1.574
 6874SOL    HW121521   3.935   5.729   1.500
 6874SOL    HW221522   3.931   5.877   1.569
 6875SOL     OW21523   2.967   1.331   6.250
 6875SOL    HW121524   3.020   1.271   6.310
 6875SOL    HW221525   2.920   1.276   6.181
 6876SOL     OW21526   5.737   5.585   3.773
 6876SOL    HW121527   5.658   5.645   3.763
 6876SOL    HW221528   5.813   5.620   3.717
 6877SOL     OW21529   0.921   4.450   1.409
 6877SOL    HW121530   0.970   4.425   1.492
 6877SOL    HW221531   0.986   4.461   1.334
 6878SOL     OW21532   2.019   0.816   3.616
 6878SOL    HW121533   2.012   0.845   3.520
 6878SOL    HW221534   1.963   0.734   3.630
 6879SOL     OW21535   1.102   1.622   1.447
 6879SOL    HW121536   1.145   1.533   1.464
 6879SOL    HW221537   1.011   1.623   1.488
 6880SOL     OW21538   1.849   6.451   0.080
 6880SOL    HW121539   1.836   6.436   0.178
 6880SOL    HW221540   1.945   6.435   0.057
 6881SOL     OW21541   6.903   3.469   0.748
 6881SOL    HW121542   6.812   3.504   0.725
 6881SOL    HW221543   6.967   3.546   0.758
 6882SOL     OW21544   2.780   6.546   0.149
 6882SOL    HW121545   2.742   6.457   0.124
 6882SOL    HW221546   2.765   6.562   0.247
 6883SOL     OW21547   4.729   6.754   1.022
 6883SOL    HW121548   4.761   6.659   1.018
 6883SOL    HW221549   4.784   6.805   1.087
 6884SOL     OW21550   1.262   5.074   3.323
 6884SOL    HW121551   1.175   5.070   3.372
 6884SOL    HW221552   1.298   4.981   3.310
 6885SOL     OW21553   5.984   4.774   4.645
 6885SOL    HW121554   5.993   4.688   4.696
 6885SOL    HW221555   6.047   4.842   4.683
 6886SOL     OW21556   5.406   3.764   0.783
 6886SOL    HW121557   5.395   3.833   0.712
 6886SOL    HW221558   5.360   3.679   0.755
 6887SOL     OW21559   4.973   6.674   5.484
 6887SOL    HW121560   4.982   6.655   5.386
 6887SOL    HW221561   4.968   6.773   5.499
 6888SOL     OW21562   6.487   4.380   0.807
 6888SOL    HW121563   6.452   4.326   0.730
 6888SOL    HW221564   6.481   4.326   0.891
 6889SOL     OW21565   0.276   2.569   5.456
 6889SOL    HW121566   0.302   2.575   5.552
 6889SOL    HW221567   0.212   2.643   5.434
 6890SOL     OW21568   4.732   4.543   4.136
 6890SOL    HW121569   4.762   4.622   4.082
 6890SOL    HW221570   4.732   4.461   4.080
 6891SOL     OW21571   1.409   1.462   1.191
 6891SOL    HW121572   1.341   1.402   1.232
 6891SOL    HW221573   1.498   1.416   1.189
 6892SOL     OW21574   1.543   0.795   5.150
 6892SOL    HW121575   1.534   0.807   5.249
 6892SOL    HW221576   1.516   0.879   5.103
 6893SOL     OW21577   5.523   3.299   0.753
 6893SOL    HW121578   5.588   3.353   0.807
 6893SOL    HW221579   5.542   3.202   0.767
 6894SOL     OW21580   5.510   5.202   6.824
 6894SOL    HW121581   5.584   5.196   6.891
 6894SOL    HW221582   5.502   5.296   6.791
 6895SOL     OW21583   1.454   5.503   2.412
 6895SOL    HW121584   1.397   5.421   2.407
 6895SOL    HW221585   1.444   5.545   2.503
 6896SOL     OW21586   5.218   0.772   6.457
 6896SOL    HW121587   5.162   0.827   6.519
 6896SOL    HW221588   5.172   0.765   6.368
 6897SOL     OW21589   4.352   2.406   4.771
 6897SOL    HW121590   4.263   2.394   4.815
 6897SOL    HW221591   4.399   2.485   4.810
 6898SOL     OW21592   2.009   6.962   1.756
 6898SOL    HW121593   2.041   6.875   1.793
 6898SOL    HW221594   1.934   6.996   1.813
 6899SOL     OW21595   5.224   5.061   2.439
 6899SOL    HW121596   5.152   5.102   2.495
 6899SOL    HW221597   5.257   4.978   2.483
 6900SOL     OW21598   6.949   4.356   4.784
 6900SOL    HW121599   6.857   4.378   4.753
 6900SOL    HW221600   6.945   4.328   4.880
 6901SOL     OW21601   5.459   4.112   6.695
 6901SOL    HW121602   5.373   4.062   6.703
 6901SOL    HW221603   5.440   4.208   6.674
 6902SOL     OW21604   6.992   5.836   5.546
 6902SOL    HW121605   6.938   5.858   5.464
 6902SOL    HW221606   0.068   5.815   5.518
 6903SOL     OW21607   1.233   6.469   5.148
 6903SOL    HW121608   1.225   6.557   5.102
 6903SOL    HW221609   1.252   6.397   5.081
 6904SOL     OW21610   0.338   0.440   6.540
 6904SOL    HW121611   0.379   0.464   6.452
 6904SOL    HW221612   0.353   0.514   6.605
 6905SOL     OW21613   4.552   5.840   5.490
 6905SOL    HW121614   4.472   5.790   5.523
 6905SOL    HW221615   4.579   5.909   5.557
 6906SOL     OW21616   3.248   1.742   3.173
 6906SOL    HW121617   3.242   1.787   3.263
 6906SOL    HW221618   3.190   1.660   3.173
 6907SOL     OW21619   5.642   3.012   0.197
 6907SOL    HW121620   5.682   3.076   0.131
 6907SOL    HW221621   5.713   2.978   0.259
 6908SOL     OW21622   4.054   5.809   0.623
 6908SOL    HW121623   3.976   5.774   0.674
 6908SOL    HW221624   4.022   5.864   0.546
 6909SOL     OW21625   5.550   4.445   2.684
 6909SOL    HW121626   5.618   4.516   2.665
 6909SOL    HW221627   5.596   4.365   2.723
 6910SOL     OW21628   1.596   2.682   1.882
 6910SOL    HW121629   1.636   2.654   1.794
 6910SOL    HW221630   1.651   2.645   1.957
 6911SOL     OW21631   2.362   6.649   4.933
 6911SOL    HW121632   2.304   6.572   4.910
 6911SOL    HW221633   2.309   6.734   4.928
 6912SOL     OW21634   2.573   4.282   6.391
 6912SOL    HW121635   2.646   4.339   6.353
 6912SOL    HW221636   2.574   4.193   6.346
 6913SOL     OW21637   4.300   5.764   6.037
 6913SOL    HW121638   4.312   5.665   6.042
 6913SOL    HW221639   4.324   5.796   5.945
 6914SOL     OW21640   0.592   2.375   2.347
 6914SOL    HW121641   0.563   2.282   2.366
 6914SOL    HW221642   0.677   2.394   2.396
 6915SOL     OW21643   6.756   3.396   4.649
 6915SOL    HW121644   6.659   3.388   4.673
 6915SOL    HW221645   6.801   3.462   4.710
 6916SOL     OW21646   4.669   6.034   5.662
 6916SOL    HW121647   4.618   6.102   5.610
 6916SOL    HW221648   4.761   6.024   5.623
 6917SOL     OW21649   3.872   5.843   2.233
 6917SOL    HW121650   3.783   5.798   2.222
 6917SOL    HW221651   3.945   5.778   2.214
 6918SOL     OW21652   2.338   3.911   0.016
 6918SOL    HW121653   2.318   3.885   0.111
 6918SOL    HW221654   2.432   3.943   0.009
 6919SOL     OW21655   6.565   5.605   3.229
 6919SOL    HW121656   6.511   5.567   3.154
 6919SOL    HW221657   6.506   5.659   3.289
 6920SOL     OW21658   0.359   3.101   5.391
 6920SOL    HW121659   0.393   3.106   5.485
 6920SOL    HW221660   0.413   3.163   5.333
 6921SOL     OW21661   3.446   0.652   5.103
 6921SOL    HW121662   3.437   0.707   5.186
 6921SOL    HW221663   3.429   0.556   5.124
 6922SOL     OW21664   3.216   4.455   6.674
 6922SOL    HW121665   3.238   4.359   6.696
 6922SOL    HW221666   3.246   4.475   6.581
 6923SOL     OW21667   5.266   6.827   3.220
 6923SOL    HW121668   5.302   6.914   3.186
 6923SOL    HW221669   5.168   6.836   3.238
 6924SOL     OW21670   2.937   5.185   1.787
 6924SOL    HW121671   3.029   5.207   1.753
 6924SOL    HW221672   2.925   5.086   1.788
 6925SOL     OW21673   6.352   6.588   4.748
 6925SOL    HW121674   6.384   6.630   4.834
 6925SOL    HW221675   6.420   6.604   4.677
 6926SOL     OW21676   2.772   2.750   0.318
 6926SOL    HW121677   2.697   2.786   0.374
 6926SOL    HW221678   2.857   2.754   0.371
 6927SOL     OW21679   3.198   6.660   5.540
 6927SOL    HW121680   3.173   6.571   5.502
 6927SOL    HW221681   3.212   6.651   5.639
 6928SOL     OW21682   4.286   5.831   0.781
 6928SOL    HW121683   4.204   5.838   0.724
 6928SOL    HW221684   4.358   5.783   0.730
 6929SOL     OW21685   4.614   5.410   2.919
 6929SOL    HW121686   4.637   5.498   2.960
 6929SOL    HW221687   4.521   5.385   2.944
 6930SOL     OW21688   0.851   6.130   1.854
 6930SOL    HW121689   0.805   6.044   1.830
 6930SOL    HW221690   0.935   6.139   1.799
 6931SOL     OW21691   3.754   3.200   0.426
 6931SOL    HW121692   3.798   3.217   0.338
 6931SOL    HW221693   3.768   3.279   0.486
 6932SOL     OW21694   3.778   1.028   6.966
 6932SOL    HW121695   3.766   1.031   6.867
 6932SOL    HW221696   3.695   0.991   7.008
 6933SOL     OW21697   3.740   6.136   5.969
 6933SOL    HW121698   3.781   6.223   5.943
 6933SOL    HW221699   3.788   6.099   6.048
 6934SOL     OW21700   4.589   5.196   0.404
 6934SOL    HW121701   4.652   5.212   0.480
 6934SOL    HW221702   4.564   5.100   0.401
 6935SOL     OW21703   4.158   5.443   2.950
 6935SOL    HW121704   4.232   5.387   2.914
 6935SOL    HW221705   4.083   5.445   2.884
 6936SOL     OW21706   0.921   1.760   6.767
 6936SOL    HW121707   0.947   1.782   6.862
 6936SOL    HW221708   0.832   1.799   6.747
 6937SOL     OW21709   6.055   4.384   0.504
 6937SOL    HW121710   6.015   4.345   0.587
 6937SOL    HW221711   6.070   4.482   0.518
 6938SOL     OW21712   2.980   6.810   5.202
 6938SOL    HW121713   2.949   6.775   5.113
 6938SOL    HW221714   3.010   6.905   5.192
 6939SOL     OW21715   5.761   3.322   3.405
 6939SOL    HW121716   5.754   3.296   3.309
 6939SOL    HW221717   5.678   3.370   3.432
 6940SOL     OW21718   1.419   6.600   1.569
 6940SOL    HW121719   1.350   6.649   1.516
 6940SOL    HW221720   1.388   6.591   1.664
 6941SOL     OW21721   3.444   2.878   2.434
 6941SOL    HW121722   3.523   2.864   2.493
 6941SOL    HW221723   3.378   2.805   2.449
 6942SOL     OW21724   6.945   4.883   2.579
 6942SOL    HW121725   6.903   4.953   2.637
 6942SOL    HW221726   7.017   4.837   2.631
 6943SOL     OW21727   3.146   5.751   5.382
 6943SOL    HW121728   3.114   5.669   5.334
 6943SOL    HW221729   3.146   5.829   5.319
 6944SOL     OW21730   0.623   4.773   5.475
 6944SOL    HW121731   0.529   4.747   5.500
 6944SOL    HW221732   0.659   4.707   5.409
 6945SOL     OW21733   4.358   1.725   0.914
 6945SOL    HW121734   4.283   1.693   0.972
 6945SOL    HW221735   4.336   1.708   0.819
 6946SOL     OW21736   5.423   5.486   3.792
 6946SOL    HW121737   5.390   5.527   3.707
 6946SOL    HW221738   5.523   5.492   3.794
 6947SOL     OW21739   6.381   3.745   5.438
 6947SOL    HW121740   6.375   3.671   5.371
 6947SOL    HW221741   6.405   3.831   5.392
 6948SOL     OW21742   7.003   5.086   6.183
 6948SOL    HW121743   0.045   5.130   6.249
 6948SOL    HW221744   0.036   5.062   6.101
 6949SOL     OW21745   2.369   1.290   3.109
 6949SOL    HW121746   2.335   1.278   3.202
 6949SOL    HW221747   2.302   1.341   3.056
 6950SOL     OW21748   1.911   1.458   4.411
 6950SOL    HW121749   1.865   1.370   4.422
 6950SOL    HW221750   1.872   1.507   4.333
 6951SOL     OW21751   1.354   3.861   0.441
 6951SOL    HW121752   1.428   3.928   0.438
 6951SOL    HW221753   1.271   3.901   0.404
 6952SOL     OW21754   4.250   4.725   3.442
 6952SOL    HW121755   4.170   4.749   3.387
 6952SOL    HW221756   4.287   4.807   3.485
 6953SOL     OW21757   0.769   0.860   2.069
 6953SOL    HW121758   0.749   0.938   2.010
 6953SOL    HW221759   0.703   0.857   2.144
 6954SOL     OW21760   6.553   5.274   6.009
 6954SOL    HW121761   6.557   5.276   5.909
 6954SOL    HW221762   6.508   5.189   6.039
 6955SOL     OW21763   4.117   5.554   2.590
 6955SOL    HW121764   4.185   5.507   2.534
 6955SOL    HW221765   4.043   5.490   2.611
 6956SOL     OW21766   6.049   5.005   2.411
 6956SOL    HW121767   6.143   5.004   2.446
 6956SOL    HW221768   6.032   5.091   2.363
 6957SOL     OW21769   6.163   3.923   5.412
 6957SOL    HW121770   6.112   3.977   5.479
 6957SOL    HW221771   6.203   3.983   5.344
 6958SOL     OW21772   3.516   3.842   1.612
 6958SOL    HW121773   3.585   3.863   1.681
 6958SOL    HW221774   3.442   3.909   1.618
 6959SOL     OW21775   0.612   3.401   2.821
 6959SOL    HW121776   0.531   3.367   2.774
 6959SOL    HW221777   0.691   3.346   2.794
 6960SOL     OW21778   5.500   4.436   1.826
 6960SOL    HW121779   5.558   4.403   1.751
 6960SOL    HW221780   5.558   4.479   1.896
 6961SOL     OW21781   5.255   2.261   4.756
 6961SOL    HW121782   5.344   2.305   4.767
 6961SOL    HW221783   5.235   2.249   4.659
 6962SOL     OW21784   2.333   6.722   0.853
 6962SOL    HW121785   2.388   6.703   0.935
 6962SOL    HW221786   2.242   6.754   0.880
 6963SOL     OW21787   0.841   6.765   6.836
 6963SOL    HW121788   0.846   6.774   6.737
 6963SOL    HW221789   0.795   6.845   6.875
 6964SOL     OW21790   2.101   1.151   5.623
 6964SOL    HW121791   2.140   1.077   5.677
 6964SOL    HW221792   2.163   1.230   5.625
 6965SOL     OW21793   1.895   1.153   0.047
 6965SOL    HW121794   1.969   1.091   0.073
 6965SOL    HW221795   1.839   1.110   6.994
 6966SOL     OW21796   1.434   6.729   0.975
 6966SOL    HW121797   1.376   6.759   0.899
 6966SOL    HW221798   1.386   6.746   1.061
 6967SOL     OW21799   3.909   6.941   6.544
 6967SOL    HW121800   3.872   6.849   6.542
 6967SOL    HW221801   3.840   7.006   6.513
 6968SOL     OW21802   4.094   0.475   2.051
 6968SOL    HW121803   4.022   0.406   2.055
 6968SOL    HW221804   4.058   0.558   2.008
 6969SOL     OW21805   1.456   3.343   2.998
 6969SOL    HW121806   1.450   3.262   3.056
 6969SOL    HW221807   1.374   3.349   2.940
 6970SOL     OW21808   3.630   5.818   6.230
 6970SOL    HW121809   3.555   5.864   6.182
 6970SOL    HW221810   3.645   5.728   6.190
 6971SOL     OW21811   6.797   3.965   0.175
 6971SOL    HW121812   6.779   4.003   0.265
 6971SOL    HW221813   6.848   3.880   0.184
 6972SOL     OW21814   5.871   3.753   1.731
 6972SOL    HW121815   5.869   3.693   1.651
 6972SOL    HW221816   5.879   3.848   1.701
 6973SOL     OW21817   0.910   1.613   2.958
 6973SOL    HW121818   0.958   1.554   2.894
 6973SOL    HW221819   0.941   1.593   3.051
 6974SOL     OW21820   4.065   3.554   2.983
 6974SOL    HW121821   3.976   3.518   2.956
 6974SOL    HW221822   4.098   3.505   3.063
 6975SOL     OW21823   3.080   5.293   4.846
 6975SOL    HW121824   3.167   5.295   4.797
 6975SOL    HW221825   3.038   5.384   4.843
 6976SOL     OW21826   4.958   5.009   5.912
 6976SOL    HW121827   5.040   5.063   5.932
 6976SOL    HW221828   4.910   5.050   5.834
 6977SOL     OW21829   3.984   4.820   2.252
 6977SOL    HW121830   4.040   4.814   2.170
 6977SOL    HW221831   3.889   4.840   2.225
 6978SOL     OW21832   1.218   3.479   1.161
 6978SOL    HW121833   1.156   3.421   1.108
 6978SOL    HW221834   1.165   3.550   1.207
 6979SOL     OW21835   0.856   4.029   2.645
 6979SOL    HW121836   0.787   3.957   2.653
 6979SOL    HW221837   0.922   4.020   2.720
 6980SOL     OW21838   2.574   4.513   3.317
 6980SOL    HW121839   2.567   4.428   3.369
 6980SOL    HW221840   2.607   4.587   3.376
 6981SOL     OW21841   3.964   2.863   6.904
 6981SOL    HW121842   3.986   2.883   7.000
 6981SOL    HW221843   3.952   2.764   6.893
 6982SOL     OW21844   6.522   6.896   1.837
 6982SOL    HW121845   6.471   6.823   1.882
 6982SOL    HW221846   6.618   6.889   1.861
 6983SOL     OW21847   6.715   0.478   3.998
 6983SOL    HW121848   6.700   0.418   4.077
 6983SOL    HW221849   6.665   0.442   3.919
 6984SOL     OW21850   1.530   4.379   3.646
 6984SOL    HW121851   1.561   4.318   3.572
 6984SOL    HW221852   1.494   4.324   3.721
 6985SOL     OW21853   5.338   3.492   1.146
 6985SOL    HW121854   5.291   3.445   1.221
 6985SOL    HW221855   5.337   3.434   1.065
 6986SOL     OW21856   3.818   5.805   5.073
 6986SOL    HW121857   3.802   5.751   4.991
 6986SOL    HW221858   3.916   5.818   5.086
 6987SOL     OW21859   0.303   1.148   6.740
 6987SOL    HW121860   0.251   1.090   6.677
 6987SOL    HW221861   0.253   1.233   6.755
 6988SOL     OW21862   1.501   0.248   5.969
 6988SOL    HW121863   1.548   0.231   5.882
 6988SOL    HW221864   1.500   0.346   5.988
 6989SOL     OW21865   0.593   3.446   2.252
 6989SOL    HW121866   0.516   3.457   2.315
 6989SOL    HW221867   0.670   3.405   2.300
 6990SOL     OW21868   3.759   5.178   6.749
 6990SOL    HW121869   3.767   5.239   6.828
 6990SOL    HW221870   3.665   5.146   6.742
 6991SOL     OW21871   5.193   4.092   3.465
 6991SOL    HW121872   5.170   4.057   3.556
 6991SOL    HW221873   5.139   4.173   3.445
 6992SOL     OW21874   2.044   5.397   6.154
 6992SOL    HW121875   2.078   5.488   6.177
 6992SOL    HW221876   2.119   5.343   6.114
 6993SOL     OW21877   4.270   2.216   1.353
 6993SOL    HW121878   4.246   2.143   1.290
 6993SOL    HW221879   4.278   2.179   1.446
 6994SOL     OW21880   2.832   0.791   3.104
 6994SOL    HW121881   2.799   0.704   3.143
 6994SOL    HW221882   2.862   0.851   3.177
 6995SOL     OW21883   0.079   5.107   0.625
 6995SOL    HW121884   0.160   5.165   0.610
 6995SOL    HW221885   0.066   5.093   0.723
 6996SOL     OW21886   1.255   1.612   6.402
 6996SOL    HW121887   1.334   1.599   6.343
 6996SOL    HW221888   1.204   1.526   6.409
 6997SOL     OW21889   5.912   6.067   5.939
 6997SOL    HW121890   5.919   6.128   6.017
 6997SOL    HW221891   5.999   6.021   5.923
 6998SOL     OW21892   0.485   1.044   6.904
 6998SOL    HW121893   0.580   1.058   6.876
 6998SOL    HW221894   0.423   1.087   6.838
 6999SOL     OW21895   0.499   2.832   0.281
 6999SOL    HW121896   0.408   2.803   0.309
 6999SOL    HW221897   0.545   2.878   0.358
 7000SOL     OW21898   0.957   4.967   3.260
 7000SOL    HW121899   0.920   4.914   3.337
 7000SOL    HW221900   1.025   4.913   3.212
 7001SOL     OW21901   1.159   0.859   4.139
 7001SOL    HW121902   1.144   0.955   4.163
 7001SOL    HW221903   1.093   0.802   4.189
 7002SOL     OW21904   1.404   4.377   3.095
 7002SOL    HW121905   1.467   4.300   3.099
 7002SOL    HW221906   1.412   4.431   3.179
 7003SOL     OW21907   0.388   5.278   6.405
 7003SOL    HW121908   0.468   5.275   6.345
 7003SOL    HW221909   0.406   5.340   6.482
 7004SOL     OW21910   1.239   1.093   6.825
 7004SOL    HW121911   1.329   1.133   6.812
 7004SOL    HW221912   1.240   1.034   6.906
 7005SOL     OW21913   1.659   5.237   0.065
 7005SOL    HW121914   1.629   5.143   0.078
 7005SOL    HW221915   1.706   5.245   6.995
 7006SOL     OW21916   0.393   0.231   3.539
 7006SOL    HW121917   0.369   0.156   3.477
 7006SOL    HW221918   0.310   0.263   3.585
 7007SOL     OW21919   2.073   6.945   6.263
 7007SOL    HW121920   2.153   6.969   6.318
 7007SOL    HW221921   2.044   6.852   6.285
 7008SOL     OW21922   5.833   3.014   2.405
 7008SOL    HW121923   5.772   2.950   2.452
 7008SOL    HW221924   5.825   3.104   2.446
 7009SOL     OW21925   5.515   5.765   2.466
 7009SOL    HW121926   5.550   5.681   2.425
 7009SOL    HW221927   5.540   5.843   2.410
 7010SOL     OW21928   5.352   2.696   3.191
 7010SOL    HW121929   5.306   2.645   3.118
 7010SOL    HW221930   5.312   2.669   3.279
 7011SOL     OW21931   2.418   5.828   6.309
 7011SOL    HW121932   2.367   5.914   6.313
 7011SOL    HW221933   2.374   5.766   6.244
 7012SOL     OW21934   0.152   3.952   0.578
 7012SOL    HW121935   0.081   3.881   0.579
 7012SOL    HW221936   0.211   3.939   0.498
 7013SOL     OW21937   2.769   2.597   6.875
 7013SOL    HW121938   2.730   2.665   6.813
 7013SOL    HW221939   2.741   2.618   6.969
 7014SOL     OW21940   6.622   3.389   0.844
 7014SOL    HW121941   6.694   3.329   0.879
 7014SOL    HW221942   6.645   3.417   0.751
 7015SOL     OW21943   5.981   6.234   1.577
 7015SOL    HW121944   5.946   6.142   1.591
 7015SOL    HW221945   6.037   6.236   1.494
 7016SOL     OW21946   3.088   5.424   0.890
 7016SOL    HW121947   3.052   5.460   0.976
 7016SOL    HW221948   3.186   5.408   0.899
 7017SOL     OW21949   5.988   4.363   6.539
 7017SOL    HW121950   5.973   4.389   6.635
 7017SOL    HW221951   6.039   4.437   6.493
 7018SOL     OW21952   5.917   2.765   4.445
 7018SOL    HW121953   5.871   2.763   4.533
 7018SOL    HW221954   6.016   2.775   4.459
 7019SOL     OW21955   3.378   6.058   2.887
 7019SOL    HW121956   3.353   6.139   2.833
 7019SOL    HW221957   3.319   5.981   2.861
 7020SOL     OW21958   6.756   1.696   0.903
 7020SOL    HW121959   6.788   1.667   0.813
 7020SOL    HW221960   6.697   1.625   0.942
 7021SOL     OW21961   0.832   2.170   4.784
 7021SOL    HW121962   0.841   2.256   4.834
 7021SOL    HW221963   0.765   2.181   4.711
 7022SOL     OW21964   1.739   4.267   1.102
 7022SOL    HW121965   1.791   4.317   1.032
 7022SOL    HW221966   1.801   4.234   1.172
 7023SOL     OW21967   6.850   2.176   1.171
 7023SOL    HW121968   6.826   2.157   1.266
 7023SOL    HW221969   6.766   2.191   1.118
 7024SOL     OW21970   3.558   4.063   5.507
 7024SOL    HW121971   3.642   4.099   5.548
 7024SOL    HW221972   3.520   3.993   5.568
 7025SOL     OW21973   3.238   0.872   0.917
 7025SOL    HW121974   3.164   0.810   0.941
 7025SOL    HW221975   3.261   0.862   0.820
 7026SOL     OW21976   2.837   2.463   1.454
 7026SOL    HW121977   2.823   2.391   1.522
 7026SOL    HW221978   2.922   2.446   1.404
 7027SOL     OW21979   2.488   4.315   0.851
 7027SOL    HW121980   2.581   4.351   0.856
 7027SOL    HW221981   2.442   4.327   0.939
 7028SOL     OW21982   3.179   0.488   2.746
 7028SOL    HW121983   3.250   0.558   2.751
 7028SOL    HW221984   3.173   0.453   2.653
 7029SOL     OW21985   3.402   3.877   3.499
 7029SOL    HW121986   3.395   3.869   3.400
 7029SOL    HW221987   3.402   3.785   3.540
 7030SOL     OW21988   5.866   6.940   4.950
 7030SOL    HW121989   5.891   6.928   5.046
 7030SOL    HW221990   5.817   6.860   4.917
 7031SOL     OW21991   5.841   5.059   0.565
 7031SOL    HW121992   5.803   5.015   0.647
 7031SOL    HW221993   5.936   5.084   0.582
 7032SOL     OW21994   3.623   4.914   3.947
 7032SOL    HW121995   3.710   4.868   3.967
 7032SOL    HW221996   3.582   4.947   4.032
 7033SOL     OW21997   1.960   1.926   5.298
 7033SOL    HW121998   1.879   1.918   5.356
 7033SOL    HW221999   1.934   1.917   5.202
 7034SOL     OW22000   6.218   2.219   2.278
 7034SOL    HW122001   6.309   2.208   2.318
 7034SOL    HW222002   6.185   2.312   2.295
 7035SOL     OW22003   3.504   2.462   1.191
 7035SOL    HW122004   3.428   2.487   1.251
 7035SOL    HW222005   3.582   2.432   1.247
 7036SOL     OW22006   6.845   1.727   1.725
 7036SOL    HW122007   6.845   1.707   1.823
 7036SOL    HW222008   6.911   1.799   1.705
 7037SOL     OW22009   0.538   1.167   6.085
 7037SOL    HW122010   0.470   1.234   6.055
 7037SOL    HW222011   0.506   1.124   6.170
 7038SOL     OW22012   0.745   4.262   0.263
 7038SOL    HW122013   0.731   4.360   0.250
 7038SOL    HW222014   0.791   4.224   0.182
 7039SOL     OW22015   6.777   0.457   1.493
 7039SOL    HW122016   6.828   0.517   1.431
 7039SOL    HW222017   6.684   0.443   1.458
 7040SOL     OW22018   4.980   3.040   4.535
 7040SOL    HW122019   4.910   2.998   4.593
 7040SOL    HW222020   4.967   3.010   4.440
 7041SOL     OW22021   0.912   7.001   3.464
 7041SOL    HW122022   0.974   0.059   3.442
 7041SOL    HW222023   0.958   6.915   3.442
 7042SOL     OW22024   5.164   5.437   5.195
 7042SOL    HW122025   5.098   5.461   5.123
 7042SOL    HW222026   5.247   5.491   5.183
 7043SOL     OW22027   2.042   6.159   0.490
 7043SOL    HW122028   2.067   6.240   0.544
 7043SOL    HW222029   2.108   6.147   0.416
 7044SOL     OW22030   4.430   6.456   4.885
 7044SOL    HW122031   4.478   6.371   4.906
 7044SOL    HW222032   4.487   6.513   4.826
 7045SOL     OW22033   5.245   6.679   1.715
 7045SOL    HW122034   5.247   6.646   1.809
 7045SOL    HW222035   5.214   6.774   1.713
 7046SOL     OW22036   2.969   1.155   2.797
 7046SOL    HW122037   3.035   1.083   2.775
 7046SOL    HW222038   2.904   1.121   2.865
 7047SOL     OW22039   1.651   0.147   0.949
 7047SOL    HW122040   1.596   0.159   1.031
 7047SOL    HW222041   1.664   0.050   0.930
 7048SOL     OW22042   0.505   5.641   4.476
 7048SOL    HW122043   0.411   5.609   4.471
 7048SOL    HW222044   0.508   5.739   4.459
 7049SOL     OW22045   2.587   1.220   4.830
 7049SOL    HW122046   2.630   1.302   4.792
 7049SOL    HW222047   2.586   1.225   4.929
 7050SOL     OW22048   4.196   4.371   0.678
 7050SOL    HW122049   4.255   4.382   0.598
 7050SOL    HW222050   4.191   4.274   0.703
 7051SOL     OW22051   2.262   0.790   2.247
 7051SOL    HW122052   2.306   0.879   2.261
 7051SOL    HW222053   2.276   0.760   2.153
 7052SOL     OW22054   5.082   2.195   2.907
 7052SOL    HW122055   4.983   2.208   2.906
 7052SOL    HW222056   5.111   2.151   2.822
 7053SOL     OW22057   0.613   4.542   3.766
 7053SOL    HW122058   0.620   4.603   3.845
 7053SOL    HW222059   0.577   4.454   3.796
 7054SOL     OW22060   5.450   6.688   0.327
 7054SOL    HW122061   5.452   6.593   0.357
 7054SOL    HW222062   5.387   6.698   0.250
 7055SOL     OW22063   1.858   0.247   6.957
 7055SOL    HW122064   1.813   0.295   6.881
 7055SOL    HW222065   1.905   0.166   6.922
 7056SOL     OW22066   6.926   5.452   1.151
 7056SOL    HW122067   6.924   5.512   1.231
 7056SOL    HW222068   7.002   5.479   1.092
 7057SOL     OW22069   2.993   5.567   4.870
 7057SOL    HW122070   2.939   5.500   4.920
 7057SOL    HW222071   3.004   5.650   4.926
 7058SOL     OW22072   5.861   2.805   5.627
 7058SOL    HW122073   5.828   2.728   5.572
 7058SOL    HW222074   5.945   2.842   5.587
 7059SOL     OW22075   1.542   1.031   4.456
 7059SOL    HW122076   1.490   1.085   4.390
 7059SOL    HW222077   1.554   0.938   4.422
 7060SOL     OW22078   2.642   2.203   1.302
 7060SOL    HW122079   2.734   2.239   1.286
 7060SOL    HW222080   2.648   2.104   1.315
 7061SOL     OW22081   1.746   0.378   1.197
 7061SOL    HW122082   1.801   0.428   1.264
 7061SOL    HW222083   1.649   0.385   1.220
 7062SOL     OW22084   3.666   0.969   5.305
 7062SOL    HW122085   3.578   0.935   5.335
 7062SOL    HW222086   3.694   0.922   5.220
 7063SOL     OW22087   7.000   1.202   1.377
 7063SOL    HW122088   0.046   1.134   1.341
 7063SOL    HW222089   6.983   1.272   1.307
 7064SOL     OW22090   2.744   1.618   5.279
 7064SOL    HW122091   2.792   1.640   5.194
 7064SOL    HW222092   2.791   1.661   5.356
 7065SOL     OW22093   3.272   6.930   3.869
 7065SOL    HW122094   3.354   6.908   3.817
 7065SOL    HW222095   3.234   6.846   3.909
 7066SOL     OW22096   3.811   0.720   1.316
 7066SOL    HW122097   3.861   0.798   1.276
 7066SOL    HW222098   3.734   0.753   1.369
 7067SOL     OW22099   2.897   4.280   5.770
 7067SOL    HW122100   2.872   4.192   5.810
 7067SOL    HW222101   2.993   4.278   5.742
 7068SOL     OW22102   4.721   4.722   2.684
 7068SOL    HW122103   4.805   4.667   2.676
 7068SOL    HW222104   4.645   4.663   2.711
 7069SOL     OW22105   3.826   1.236   5.050
 7069SOL    HW122106   3.743   1.184   5.034
 7069SOL    HW222107   3.811   1.332   5.025
 7070SOL     OW22108   6.942   1.393   5.313
 7070SOL    HW122109   6.936   1.297   5.338
 7070SOL    HW222110   0.016   1.413   5.278
 7071SOL     OW22111   4.438   5.682   0.095
 7071SOL    HW122112   4.470   5.595   0.059
 7071SOL    HW222113   4.508   5.752   0.080
 7072SOL     OW22114   1.198   3.594   6.149
 7072SOL    HW122115   1.263   3.551   6.212
 7072SOL    HW222116   1.235   3.682   6.118
 7073SOL     OW22117   4.103   1.402   4.252
 7073SOL    HW122118   4.081   1.389   4.155
 7073SOL    HW222119   4.158   1.326   4.285
 7074SOL     OW22120   5.959   3.276   2.115
 7074SOL    HW122121   5.884   3.215   2.091
 7074SOL    HW222122   5.955   3.298   2.212
 7075SOL     OW22123   1.776   4.692   2.682
 7075SOL    HW122124   1.841   4.648   2.620
 7075SOL    HW222125   1.765   4.788   2.656
 7076SOL     OW22126   6.045   2.726   0.581
 7076SOL    HW122127   5.989   2.665   0.524
 7076SOL    HW222128   6.128   2.750   0.532
 7077SOL     OW22129   3.207   6.142   2.040
 7077SOL    HW122130   3.197   6.079   2.117
 7077SOL    HW222131   3.118   6.155   1.996
 7078SOL     OW22132   0.160   1.797   0.006
 7078SOL    HW122133   0.259   1.787   0.021
 7078SOL    HW222134   0.113   1.793   0.094
 7079SOL     OW22135   2.607   5.257   5.656
 7079SOL    HW122136   2.552   5.218   5.583
 7079SOL    HW222137   2.702   5.267   5.625
 7080SOL     OW22138   3.939   2.149   6.503
 7080SOL    HW122139   3.916   2.060   6.464
 7080SOL    HW222140   3.918   2.221   6.437
 7081SOL     OW22141   2.905   6.601   6.835
 7081SOL    HW122142   2.919   6.631   6.741
 7081SOL    HW222143   2.852   6.516   6.835
 7082SOL     OW22144   1.703   4.947   2.099
 7082SOL    HW122145   1.634   4.967   2.167
 7082SOL    HW222146   1.794   4.951   2.141
 7083SOL     OW22147   6.022   2.898   2.658
 7083SOL    HW122148   5.956   2.844   2.710
 7083SOL    HW222149   5.982   2.922   2.569
 7084SOL     OW22150   1.116   5.445   6.989
 7084SOL    HW122151   1.063   5.361   7.002
 7084SOL    HW222152   1.184   5.430   6.917
 7085SOL     OW22153   0.259   3.440   2.288
 7085SOL    HW122154   0.218   3.352   2.315
 7085SOL    HW222155   0.204   3.515   2.326
 7086SOL     OW22156   4.495   1.232   3.572
 7086SOL    HW122157   4.410   1.181   3.585
 7086SOL    HW222158   4.571   1.181   3.612
 7087SOL     OW22159   5.966   2.650   3.657
 7087SOL    HW122160   6.000   2.740   3.685
 7087SOL    HW222161   5.893   2.622   3.719
 7088SOL     OW22162   5.847   2.097   5.205
 7088SOL    HW122163   5.789   2.132   5.278
 7088SOL    HW222164   5.887   2.010   5.232
 7089SOL     OW22165   3.524   6.252   1.596
 7089SOL    HW122166   3.508   6.221   1.690
 7089SOL    HW222167   3.553   6.348   1.597
 7090SOL     OW22168   5.267   3.544   1.563
 7090SOL    HW122169   5.212   3.538   1.480
 7090SOL    HW222170   5.213   3.588   1.635
 7091SOL     OW22171   5.695   0.251   6.762
 7091SOL    HW122172   5.719   0.252   6.859
 7091SOL    HW222173   5.735   0.332   6.717
 7092SOL     OW22174   4.293   6.773   6.242
 7092SOL    HW122175   4.291   6.676   6.218
 7092SOL    HW222176   4.230   6.823   6.181
 7093SOL     OW22177   4.119   3.270   0.324
 7093SOL    HW122178   4.051   3.307   0.262
 7093SOL    HW222179   4.161   3.189   0.283
 7094SOL     OW22180   4.437   0.856   5.106
 7094SOL    HW122181   4.503   0.931   5.101
 7094SOL    HW222182   4.451   0.804   5.190
 7095SOL     OW22183   2.302   4.915   3.633
 7095SOL    HW122184   2.264   4.988   3.690
 7095SOL    HW222185   2.238   4.839   3.629
 7096SOL     OW22186   0.239   5.697   0.358
 7096SOL    HW122187   0.304   5.621   0.356
 7096SOL    HW222188   0.186   5.698   0.274
 7097SOL     OW22189   4.702   2.051   2.860
 7097SOL    HW122190   4.781   2.008   2.818
 7097SOL    HW222191   4.626   2.052   2.795
 7098SOL     OW22192   1.022   1.399   2.439
 7098SOL    HW122193   0.973   1.316   2.414
 7098SOL    HW222194   1.021   1.410   2.538
 7099SOL     OW22195   2.988   1.580   4.671
 7099SOL    HW122196   3.033   1.579   4.582
 7099SOL    HW222197   3.052   1.551   4.742
 7100SOL     OW22198   0.597   4.317   1.184
 7100SOL    HW122199   0.694   4.294   1.194
 7100SOL    HW222200   0.544   4.265   1.251
 7101SOL     OW22201   3.175   6.091   4.598
 7101SOL    HW122202   3.156   6.126   4.689
 7101SOL    HW222203   3.227   6.006   4.605
 7102SOL     OW22204   5.336   1.679   2.422
 7102SOL    HW122205   5.375   1.590   2.400
 7102SOL    HW222206   5.340   1.739   2.342
 7103SOL     OW22207   6.793   3.787   4.693
 7103SOL    HW122208   6.829   3.867   4.741
 7103SOL    HW222209   6.823   3.704   4.740
 7104SOL     OW22210   4.233   2.350   4.271
 7104SOL    HW122211   4.260   2.350   4.368
 7104SOL    HW222212   4.134   2.358   4.264
 7105SOL     OW22213   3.033   3.766   1.992
 7105SOL    HW122214   3.105   3.762   1.923
 7105SOL    HW222215   3.023   3.860   2.025
 7106SOL     OW22216   2.270   2.232   2.518
 7106SOL    HW122217   2.316   2.227   2.607
 7106SOL    HW222218   2.171   2.237   2.531
 7107SOL     OW22219   3.994   0.443   0.337
 7107SOL    HW122220   4.018   0.391   0.255
 7107SOL    HW222221   3.942   0.385   0.399
 7108SOL     OW22222   3.417   6.851   1.828
 7108SOL    HW122223   3.335   6.886   1.874
 7108SOL    HW222224   3.402   6.849   1.729
 7109SOL     OW22225   2.506   4.991   5.967
 7109SOL    HW122226   2.570   5.067   5.952
 7109SOL    HW222227   2.558   4.906   5.973
 7110SOL     OW22228   2.850   5.582   5.679
 7110SOL    HW122229   2.945   5.611   5.667
 7110SOL    HW222230   2.789   5.644   5.631
 7111SOL     OW22231   6.107   1.777   4.636
 7111SOL    HW122232   6.070   1.728   4.715
 7111SOL    HW222233   6.038   1.842   4.603
 7112SOL     OW22234   6.395   5.056   4.513
 7112SOL    HW122235   6.468   5.033   4.578
 7112SOL    HW222236   6.408   5.003   4.430
 7113SOL     OW22237   2.926   6.939   4.929
 7113SOL    HW122238   2.940   6.973   5.022
 7113SOL    HW222239   2.854   6.992   4.885
 7114SOL     OW22240   5.672   4.176   0.430
 7114SOL    HW122241   5.682   4.248   0.498
 7114SOL    HW222242   5.575   4.161   0.410
 7115SOL     OW22243   4.963   2.850   6.161
 7115SOL    HW122244   4.908   2.871   6.080
 7115SOL    HW222245   5.055   2.886   6.149
 7116SOL     OW22246   5.910   5.545   4.492
 7116SOL    HW122247   5.873   5.574   4.404
 7116SOL    HW222248   5.836   5.513   4.551
 7117SOL     OW22249   3.418   0.267   2.882
 7117SOL    HW122250   3.324   0.237   2.864
 7117SOL    HW222251   3.436   0.260   2.980
 7118SOL     OW22252   4.991   4.313   5.742
 7118SOL    HW122253   5.056   4.288   5.814
 7118SOL    HW222254   4.899   4.317   5.781
 7119SOL     OW22255   2.527   6.709   4.470
 7119SOL    HW122256   2.623   6.705   4.499
 7119SOL    HW222257   2.519   6.676   4.376
 7120SOL     OW22258   4.492   1.688   2.120
 7120SOL    HW122259   4.514   1.779   2.083
 7120SOL    HW222260   4.408   1.694   2.174
 7121SOL     OW22261   1.650   5.926   2.287
 7121SOL    HW122262   1.596   5.937   2.371
 7121SOL    HW222263   1.612   5.984   2.215
 7122SOL     OW22264   3.103   2.520   6.545
 7122SOL    HW122265   3.054   2.599   6.581
 7122SOL    HW222266   3.119   2.454   6.618
 7123SOL     OW22267   5.454   4.207   6.961
 7123SOL    HW122268   5.519   4.283   6.951
 7123SOL    HW222269   5.415   4.185   6.871
 7124SOL     OW22270   2.938   2.792   6.300
 7124SOL    HW122271   3.038   2.788   6.306
 7124SOL    HW222272   2.898   2.711   6.342
 7125SOL     OW22273   1.098   6.159   1.733
 7125SOL    HW122274   1.051   6.153   1.645
 7125SOL    HW222275   1.144   6.248   1.740
 7126SOL     OW22276   3.866   4.714   0.763
 7126SOL    HW122277   3.863   4.657   0.846
 7126SOL    HW222278   3.946   4.774   0.767
 7127SOL     OW22279   2.503   0.177   5.004
 7127SOL    HW122280   2.588   0.158   4.955
 7127SOL    HW222281   2.429   0.190   4.939
 7128SOL     OW22282   4.306   4.042   0.198
 7128SOL    HW122283   4.327   3.991   0.115
 7128SOL    HW222284   4.211   4.073   0.196
 7129SOL     OW22285   0.173   1.761   0.292
 7129SOL    HW122286   0.137   1.826   0.359
 7129SOL    HW222287   0.099   1.701   0.261
 7130SOL     OW22288   3.595   6.905   4.042
 7130SOL    HW122289   3.691   6.877   4.039
 7130SOL    HW222290   3.575   6.946   4.131
 7131SOL     OW22291   2.292   2.226   2.970
 7131SOL    HW122292   2.198   2.256   2.981
 7131SOL    HW222293   2.334   2.212   3.060
 7132SOL     OW22294   5.339   4.802   2.445
 7132SOL    HW122295   5.291   4.841   2.366
 7132SOL    HW222296   5.372   4.711   2.422
 7133SOL     OW22297   3.238   6.136   2.490
 7133SOL    HW122298   3.242   6.227   2.447
 7133SOL    HW222299   3.316   6.082   2.459
 7134SOL     OW22300   5.555   5.009   6.602
 7134SOL    HW122301   5.576   4.929   6.658
 7134SOL    HW222302   5.521   5.082   6.661
 7135SOL     OW22303   2.265   5.142   1.095
 7135SOL    HW122304   2.298   5.164   1.187
 7135SOL    HW222305   2.326   5.183   1.027
 7136SOL     OW22306   1.292   3.057   2.750
 7136SOL    HW122307   1.212   3.000   2.764
 7136SOL    HW222308   1.359   3.040   2.822
 7137SOL     OW22309   1.811   6.799   2.052
 7137SOL    HW122310   1.824   6.855   2.135
 7137SOL    HW222311   1.857   6.711   2.064
 7138SOL     OW22312   6.454   4.216   0.490
 7138SOL    HW122313   6.402   4.272   0.425
 7138SOL    HW222314   6.393   4.185   0.563
 7139SOL     OW22315   5.720   5.866   1.019
 7139SOL    HW122316   5.668   5.785   0.991
 7139SOL    HW222317   5.716   5.935   0.947
 7140SOL     OW22318   0.109   4.280   6.893
 7140SOL    HW122319   0.082   4.215   6.965
 7140SOL    HW222320   0.200   4.315   6.914
 7141SOL     OW22321   2.499   2.247   0.430
 7141SOL    HW122322   2.590   2.270   0.395
 7141SOL    HW222323   2.498   2.152   0.462
 7142SOL     OW22324   4.154   6.904   5.836
 7142SOL    HW122325   4.245   6.930   5.869
 7142SOL    HW222326   4.142   6.938   5.743
 7143SOL     OW22327   3.360   2.987   5.725
 7143SOL    HW122328   3.455   2.959   5.712
 7143SOL    HW222329   3.304   2.957   5.648
 7144SOL     OW22330   6.318   1.756   6.050
 7144SOL    HW122331   6.264   1.751   5.967
 7144SOL    HW222332   6.274   1.703   6.123
 7145SOL     OW22333   0.264   2.753   0.388
 7145SOL    HW122334   0.200   2.828   0.371
 7145SOL    HW222335   0.217   2.666   0.374
 7146SOL     OW22336   6.957   1.424   4.276
 7146SOL    HW122337   6.867   1.422   4.232
 7146SOL    HW222338   6.985   1.518   4.292
 7147SOL     OW22339   6.885   0.227   0.092
 7147SOL    HW122340   6.806   0.200   0.147
 7147SOL    HW222341   6.967   0.180   0.124
 7148SOL     OW22342   5.553   6.172   1.092
 7148SOL    HW122343   5.577   6.089   1.141
 7148SOL    HW222344   5.608   6.248   1.128
 7149SOL     OW22345   6.575   3.615   6.999
 7149SOL    HW122346   6.582   3.700   6.948
 7149SOL    HW222347   6.665   3.569   7.000
 7150SOL     OW22348   2.620   2.126   0.144
 7150SOL    HW122349   2.532   2.141   0.099
 7150SOL    HW222350   2.693   2.124   0.076
 7151SOL     OW22351   5.498   2.564   6.979
 7151SOL    HW122352   5.598   2.571   6.986
 7151SOL    HW222353   5.471   2.580   6.884
 7152SOL     OW22354   5.554   0.827   4.972
 7152SOL    HW122355   5.620   0.801   5.043
 7152SOL    HW222356   5.511   0.913   4.997
 7153SOL     OW22357   5.546   5.587   0.401
 7153SOL    HW122358   5.482   5.626   0.336
 7153SOL    HW222359   5.511   5.498   0.434
 7154SOL     OW22360   4.694   0.302   1.978
 7154SOL    HW122361   4.683   0.381   1.917
 7154SOL    HW222362   4.643   0.318   2.062
 7155SOL     OW22363   1.825   0.157   1.578
 7155SOL    HW122364   1.860   0.111   1.659
 7155SOL    HW222365   1.894   0.218   1.540
 7156SOL     OW22366   6.528   2.851   5.813
 7156SOL    HW122367   6.612   2.870   5.864
 7156SOL    HW222368   6.452   2.903   5.854
 7157SOL     OW22369   6.739   3.595   5.693
 7157SOL    HW122370   6.676   3.531   5.649
 7157SOL    HW222371   6.705   3.689   5.682
 7158SOL     OW22372   5.030   6.767   3.739
 7158SOL    HW122373   5.126   6.772   3.763
 7158SOL    HW222374   4.981   6.845   3.778
 7159SOL     OW22375   0.675   6.999   3.640
 7159SOL    HW122376   0.738   6.963   3.571
 7159SOL    HW222377   0.669   0.080   3.631
 7160SOL     OW22378   5.745   6.309   2.381
 7160SOL    HW122379   5.748   6.369   2.461
 7160SOL    HW222380   5.709   6.360   2.302
 7161SOL     OW22381   4.007   3.029   1.903
 7161SOL    HW122382   3.911   3.048   1.881
 7161SOL    HW222383   4.014   3.003   1.999
 7162SOL     OW22384   0.804   6.089   0.493
 7162SOL    HW122385   0.877   6.080   0.561
 7162SOL    HW222386   0.832   6.151   0.421
 7163SOL     OW22387   6.965   6.309   0.139
 7163SOL    HW122388   0.029   6.358   0.169
 7163SOL    HW222389   6.991   6.223   0.095
 7164SOL     OW22390   0.823   6.182   6.952
 7164SOL    HW122391   0.893   6.134   7.004
 7164SOL    HW222392   0.734   6.172   6.998
 7165SOL     OW22393   4.220   2.175   6.190
 7165SOL    HW122394   4.221   2.203   6.286
 7165SOL    HW222395   4.296   2.217   6.142
 7166SOL     OW22396   0.009   6.464   5.359
 7166SOL    HW122397   0.062   6.486   5.277
 7166SOL    HW222398   6.973   6.382   5.342
 7167SOL     OW22399   0.662   3.665   5.478
 7167SOL    HW122400   0.695   3.615   5.397
 7167SOL    HW222401   0.696   3.759   5.475
 7168SOL     OW22402   0.580   6.633   2.586
 7168SOL    HW122403   0.616   6.711   2.637
 7168SOL    HW222404   0.653   6.595   2.530
 7169SOL     OW22405   1.907   5.197   5.570
 7169SOL    HW122406   1.863   5.252   5.641
 7169SOL    HW222407   1.925   5.105   5.605
 7170SOL     OW22408   4.306   2.073   1.988
 7170SOL    HW122409   4.212   2.042   1.999
 7170SOL    HW222410   4.359   2.004   1.939
 7171SOL     OW22411   0.744   5.541   1.895
 7171SOL    HW122412   0.764   5.632   1.932
 7171SOL    HW222413   0.830   5.496   1.871
 7172SOL     OW22414   1.297   2.915   3.752
 7172SOL    HW122415   1.324   2.997   3.803
 7172SOL    HW222416   1.279   2.939   3.657
 7173SOL     OW22417   3.335   5.589   4.499
 7173SOL    HW122418   3.401   5.519   4.525
 7173SOL    HW222419   3.381   5.661   4.448
 7174SOL     OW22420   6.839   3.646   2.380
 7174SOL    HW122421   6.822   3.696   2.464
 7174SOL    HW222422   6.858   3.711   2.306
 7175SOL     OW22423   5.948   2.893   5.875
 7175SOL    HW122424   5.933   2.868   5.970
 7175SOL    HW222425   5.900   2.829   5.815
 7176SOL     OW22426   6.321   2.045   6.377
 7176SOL    HW122427   6.378   2.075   6.300
 7176SOL    HW222428   6.344   1.950   6.401
 7177SOL     OW22429   1.313   5.712   3.878
 7177SOL    HW122430   1.221   5.745   3.857
 7177SOL    HW222431   1.336   5.736   3.972
 7178SOL     OW22432   1.125   6.245   5.579
 7178SOL    HW122433   1.157   6.311   5.511
 7178SOL    HW222434   1.074   6.172   5.534
 7179SOL     OW22435   5.289   4.680   5.497
 7179SOL    HW122436   5.362   4.683   5.429
 7179SOL    HW222437   5.279   4.587   5.532
 7180SOL     OW22438   0.050   2.653   2.081
 7180SOL    HW122439   0.079   2.748   2.067
 7180SOL    HW222440   0.100   2.593   2.020
 7181SOL     OW22441   3.261   0.460   0.179
 7181SOL    HW122442   3.348   0.490   0.140
 7181SOL    HW222443   3.243   0.366   0.150
 7182SOL     OW22444   1.898   0.919   2.368
 7182SOL    HW122445   1.970   0.983   2.392
 7182SOL    HW222446   1.938   0.831   2.344
 7183SOL     OW22447   1.785   0.125   1.306
 7183SOL    HW122448   1.801   0.120   1.404
 7183SOL    HW222449   1.775   0.221   1.278
 7184SOL     OW22450   6.791   1.572   3.349
 7184SOL    HW122451   6.791   1.670   3.370
 7184SOL    HW222452   6.766   1.520   3.431
 7185SOL     OW22453   3.920   0.254   3.582
 7185SOL    HW122454   3.911   0.158   3.609
 7185SOL    HW222455   4.010   0.269   3.541
 7186SOL     OW22456   6.221   2.467   6.736
 7186SOL    HW122457   6.139   2.467   6.680
 7186SOL    HW222458   6.294   2.417   6.689
 7187SOL     OW22459   3.300   3.859   4.139
 7187SOL    HW122460   3.265   3.768   4.118
 7187SOL    HW222461   3.379   3.851   4.199
 7188SOL     OW22462   4.669   4.950   0.150
 7188SOL    HW122463   4.651   4.932   0.054
 7188SOL    HW222464   4.588   4.924   0.204
 7189SOL     OW22465   6.933   2.078   5.790
 7189SOL    HW122466   6.908   2.162   5.741
 7189SOL    HW222467   6.880   2.001   5.756
 7190SOL     OW22468   5.617   5.703   0.650
 7190SOL    HW122469   5.658   5.779   0.599
 7190SOL    HW222470   5.582   5.635   0.585
 7191SOL     OW22471   0.250   4.993   2.727
 7191SOL    HW122472   0.280   5.008   2.633
 7191SOL    HW222473   0.292   4.910   2.763
 7192SOL     OW22474   3.725   3.775   5.733
 7192SOL    HW122475   3.807   3.750   5.784
 7192SOL    HW222476   3.705   3.705   5.665
 7193SOL     OW22477   3.423   1.067   4.153
 7193SOL    HW122478   3.439   0.980   4.201
 7193SOL    HW222479   3.505   1.093   4.103
 7194SOL     OW22480   3.589   2.502   5.393
 7194SOL    HW122481   3.630   2.413   5.374
 7194SOL    HW222482   3.502   2.510   5.344
 7195SOL     OW22483   6.831   4.341   5.433
 7195SOL    HW122484   6.774   4.261   5.412
 7195SOL    HW222485   6.846   4.346   5.532
 7196SOL     OW22486   2.844   4.284   1.717
 7196SOL    HW122487   2.892   4.306   1.632
 7196SOL    HW222488   2.831   4.368   1.770
 7197SOL     OW22489   3.505   4.454   6.338
 7197SOL    HW122490   3.580   4.448   6.404
 7197SOL    HW222491   3.526   4.395   6.259
 7198SOL     OW22492   1.270   6.775   2.412
 7198SOL    HW122493   1.253   6.697   2.472
 7198SOL    HW222494   1.349   6.755   2.353
 7199SOL     OW22495   6.075   1.088   3.609
 7199SOL    HW122496   6.112   1.181   3.618
 7199SOL    HW222497   6.024   1.081   3.524
 7200SOL     OW22498   1.110   4.044   6.380
 7200SOL    HW122499   1.064   4.036   6.468
 7200SOL    HW222500   1.091   3.962   6.325
 7201SOL     OW22501   5.645   5.846   4.950
 7201SOL    HW122502   5.579   5.772   4.938
 7201SOL    HW222503   5.611   5.910   5.020
 7202SOL     OW22504   4.752   0.326   5.363
 7202SOL    HW122505   4.739   0.302   5.267
 7202SOL    HW222506   4.667   0.309   5.413
 7203SOL     OW22507   1.210   1.446   0.601
 7203SOL    HW122508   1.184   1.350   0.591
 7203SOL    HW222509   1.128   1.503   0.601
 7204SOL     OW22510   5.329   1.009   2.913
 7204SOL    HW122511   5.267   1.058   2.974
 7204SOL    HW222512   5.361   1.071   2.841
 7205SOL     OW22513   2.661   1.149   4.172
 7205SOL    HW122514   2.652   1.086   4.249
 7205SOL    HW222515   2.681   1.240   4.205
 7206SOL     OW22516   2.253   2.710   6.633
 7206SOL    HW122517   2.174   2.755   6.674
 7206SOL    HW222518   2.250   2.721   6.534
 7207SOL     OW22519   2.047   2.369   3.040
 7207SOL    HW122520   2.093   2.435   2.981
 7207SOL    HW222521   1.964   2.336   2.994
 7208SOL     OW22522   3.212   0.145   3.507
 7208SOL    HW122523   3.232   0.210   3.433
 7208SOL    HW222524   3.250   0.180   3.593
 7209SOL     OW22525   4.539   0.888   1.910
 7209SOL    HW122526   4.462   0.837   1.948
 7209SOL    HW222527   4.511   0.934   1.826
 7210SOL     OW22528   2.875   1.192   5.037
 7210SOL    HW122529   2.861   1.156   4.945
 7210SOL    HW222530   2.868   1.291   5.036
 7211SOL     OW22531   4.692   5.676   6.408
 7211SOL    HW122532   4.732   5.749   6.464
 7211SOL    HW222533   4.596   5.696   6.390
 7212SOL     OW22534   0.033   6.051   4.055
 7212SOL    HW122535   0.062   5.956   4.038
 7212SOL    HW222536   0.080   6.087   4.135
 7213SOL     OW22537   4.987   2.952   0.097
 7213SOL    HW122538   4.980   3.044   0.058
 7213SOL    HW222539   5.041   2.956   0.180
 7214SOL     OW22540   6.770   1.567   5.744
 7214SOL    HW122541   6.688   1.602   5.790
 7214SOL    HW222542   6.807   1.490   5.796
 7215SOL     OW22543   6.448   1.247   2.364
 7215SOL    HW122544   6.385   1.170   2.373
 7215SOL    HW222545   6.503   1.234   2.281
 7216SOL     OW22546   5.521   6.607   4.214
 7216SOL    HW122547   5.537   6.628   4.118
 7216SOL    HW222548   5.543   6.511   4.231
 7217SOL     OW22549   0.886   3.634   3.215
 7217SOL    HW122550   0.908   3.697   3.141
 7217SOL    HW222551   0.788   3.642   3.237
 7218SOL     OW22552   6.588   2.923   5.541
 7218SOL    HW122553   6.609   2.931   5.638
 7218SOL    HW222554   6.646   2.852   5.500
 7219SOL     OW22555   3.532   5.495   0.889
 7219SOL    HW122556   3.496   5.533   0.974
 7219SOL    HW222557   3.486   5.409   0.869
 7220SOL     OW22558   6.970   3.144   3.687
 7220SOL    HW122559   6.917   3.074   3.639
 7220SOL    HW222560   6.953   3.137   3.785
 7221SOL     OW22561   4.813   4.696   3.925
 7221SOL    HW122562   4.817   4.793   3.949
 7221SOL    HW222563   4.729   4.677   3.874
 7222SOL     OW22564   6.416   6.036   3.801
 7222SOL    HW122565   6.346   5.991   3.745
 7222SOL    HW222566   6.380   6.121   3.837
 7223SOL     OW22567   6.455   5.776   1.691
 7223SOL    HW122568   6.470   5.680   1.670
 7223SOL    HW222569   6.393   5.816   1.624
 7224SOL     OW22570   5.385   2.710   2.681
 7224SOL    HW122571   5.391   2.803   2.643
 7224SOL    HW222572   5.407   2.644   2.610
 7225SOL     OW22573   1.091   5.218   0.444
 7225SOL    HW122574   0.997   5.248   0.427
 7225SOL    HW222575   1.125   5.169   0.364
 7226SOL     OW22576   6.505   6.438   0.531
 7226SOL    HW122577   6.477   6.391   0.615
 7226SOL    HW222578   6.559   6.375   0.475
 7227SOL     OW22579   2.313   0.758   1.971
 7227SOL    HW122580   2.410   0.769   1.950
 7227SOL    HW222581   2.265   0.843   1.951
 7228SOL     OW22582   6.534   3.513   3.055
 7228SOL    HW122583   6.488   3.464   3.129
 7228SOL    HW222584   6.589   3.588   3.095
 7229SOL     OW22585   6.076   6.846   5.154
 7229SOL    HW122586   6.074   6.928   5.211
 7229SOL    HW222587   6.137   6.860   5.077
 7230SOL     OW22588   2.205   4.966   5.300
 7230SOL    HW122589   2.247   4.887   5.343
 7230SOL    HW222590   2.155   4.937   5.218
 7231SOL     OW22591   3.515   3.652   6.605
 7231SOL    HW122592   3.580   3.695   6.668
 7231SOL    HW222593   3.431   3.631   6.654
 7232SOL     OW22594   4.307   5.622   3.392
 7232SOL    HW122595   4.214   5.659   3.381
 7232SOL    HW222596   4.362   5.686   3.446
 7233SOL     OW22597   0.334   1.839   6.438
 7233SOL    HW122598   0.377   1.928   6.450
 7233SOL    HW222599   0.398   1.776   6.395
 7234SOL     OW22600   5.595   4.504   3.043
 7234SOL    HW122601   5.496   4.507   3.031
 7234SOL    HW222602   5.634   4.433   2.984
 7235SOL     OW22603   6.761   0.408   0.906
 7235SOL    HW122604   6.849   0.432   0.863
 7235SOL    HW222605   6.762   0.438   1.002
 7236SOL     OW22606   0.612   3.902   2.596
 7236SOL    HW122607   0.613   3.989   2.547
 7236SOL    HW222608   0.518   3.870   2.606
 7237SOL     OW22609   5.013   1.136   0.105
 7237SOL    HW122610   5.011   1.235   0.096
 7237SOL    HW222611   5.000   1.110   0.201
 7238SOL     OW22612   4.915   3.229   0.299
 7238SOL    HW122613   4.815   3.222   0.304
 7238SOL    HW222614   4.957   3.142   0.323
 7239SOL     OW22615   5.802   3.071   1.990
 7239SOL    HW122616   5.844   3.028   1.910
 7239SOL    HW222617   5.744   3.147   1.960
 7240SOL     OW22618   0.809   1.875   0.509
 7240SOL    HW122619   0.821   1.799   0.574
 7240SOL    HW222620   0.713   1.903   0.509
 7241SOL     OW22621   2.020   0.375   2.882
 7241SOL    HW122622   2.099   0.354   2.940
 7241SOL    HW222623   1.982   0.291   2.844
 7242SOL     OW22624   6.337   3.679   6.192
 7242SOL    HW122625   6.386   3.743   6.251
 7242SOL    HW222626   6.252   3.722   6.160
 7243SOL     OW22627   6.044   4.773   6.233
 7243SOL    HW122628   6.135   4.801   6.202
 7243SOL    HW222629   5.978   4.845   6.213
 7244SOL     OW22630   6.640   6.301   0.265
 7244SOL    HW122631   6.719   6.336   0.215
 7244SOL    HW222632   6.672   6.245   0.342
 7245SOL     OW22633   1.922   2.657   0.132
 7245SOL    HW122634   1.907   2.682   0.037
 7245SOL    HW222635   1.837   2.625   0.173
 7246SOL     OW22636   4.691   0.172   4.586
 7246SOL    HW122637   4.736   0.083   4.585
 7246SOL    HW222638   4.760   0.245   4.588
 7247SOL     OW22639   3.331   4.148   4.622
 7247SOL    HW122640   3.422   4.138   4.580
 7247SOL    HW222641   3.262   4.108   4.562
 7248SOL     OW22642   1.921   1.887   5.043
 7248SOL    HW122643   2.016   1.856   5.050
 7248SOL    HW222644   1.878   1.844   4.964
 7249SOL     OW22645   3.492   5.597   2.785
 7249SOL    HW122646   3.538   5.627   2.868
 7249SOL    HW222647   3.467   5.677   2.731
 7250SOL     OW22648   5.222   5.806   5.339
 7250SOL    HW122649   5.223   5.814   5.438
 7250SOL    HW222650   5.146   5.859   5.302
 7251SOL     OW22651   0.522   5.808   4.178
 7251SOL    HW122652   0.619   5.798   4.153
 7251SOL    HW222653   0.506   5.902   4.207
 7252SOL     OW22654   3.871   3.961   1.761
 7252SOL    HW122655   3.805   3.911   1.817
 7252SOL    HW222656   3.847   4.058   1.760
 7253SOL     OW22657   1.281   5.147   5.710
 7253SOL    HW122658   1.252   5.207   5.635
 7253SOL    HW222659   1.381   5.144   5.713
 7254SOL     OW22660   0.065   3.507   3.806
 7254SOL    HW122661   0.063   3.419   3.854
 7254SOL    HW222662   0.154   3.550   3.818
 7255SOL     OW22663   4.740   3.671   0.741
 7255SOL    HW122664   4.680   3.705   0.669
 7255SOL    HW222665   4.729   3.572   0.749
 7256SOL     OW22666   3.113   0.032   4.605
 7256SOL    HW122667   3.127   6.965   4.554
 7256SOL    HW222668   3.163   0.027   4.692
 7257SOL     OW22669   0.627   1.428   5.278
 7257SOL    HW122670   0.634   1.514   5.330
 7257SOL    HW222671   0.713   1.411   5.230
 7258SOL     OW22672   6.371   2.055   2.913
 7258SOL    HW122673   6.323   2.078   2.828
 7258SOL    HW222674   6.305   2.020   2.980
 7259SOL     OW22675   1.301   3.947   2.307
 7259SOL    HW122676   1.236   3.995   2.365
 7259SOL    HW222677   1.344   3.873   2.359
 7260SOL     OW22678   6.102   2.995   0.866
 7260SOL    HW122679   6.084   3.050   0.948
 7260SOL    HW222680   6.201   2.995   0.848
 7261SOL     OW22681   0.339   4.098   0.128
 7261SOL    HW122682   0.243   4.120   0.110
 7261SOL    HW222683   0.355   4.000   0.111
 7262SOL     OW22684   3.181   0.174   5.371
 7262SOL    HW122685   3.277   0.146   5.382
 7262SOL    HW222686   3.177   0.273   5.360
 7263SOL     OW22687   6.066   5.768   5.326
 7263SOL    HW122688   6.038   5.699   5.259
 7263SOL    HW222689   6.101   5.722   5.408
 7264SOL     OW22690   5.207   1.292   1.240
 7264SOL    HW122691   5.109   1.307   1.228
 7264SOL    HW222692   5.235   1.211   1.189
 7265SOL     OW22693   3.427   0.126   5.671
 7265SOL    HW122694   3.360   0.199   5.661
 7265SOL    HW222695   3.516   0.167   5.693
 7266SOL     OW22696   6.697   0.698   3.284
 7266SOL    HW122697   6.724   0.716   3.189
 7266SOL    HW222698   6.716   0.779   3.340
 7267SOL     OW22699   0.072   3.931   5.463
 7267SOL    HW122700   0.121   4.006   5.419
 7267SOL    HW222701   0.099   3.845   5.421
 7268SOL     OW22702   5.401   6.071   3.965
 7268SOL    HW122703   5.474   6.005   3.981
 7268SOL    HW222704   5.420   6.155   4.016
 7269SOL     OW22705   2.925   5.601   4.395
 7269SOL    HW122706   2.910   5.502   4.394
 7269SOL    HW222707   2.994   5.625   4.327
 7270SOL     OW22708   0.544   1.072   4.433
 7270SOL    HW122709   0.524   1.147   4.370
 7270SOL    HW222710   0.525   0.985   4.389
 7271SOL     OW22711   0.788   4.746   3.107
 7271SOL    HW122712   0.778   4.846   3.105
 7271SOL    HW222713   0.711   4.705   3.154
 7272SOL     OW22714   6.468   4.166   1.652
 7272SOL    HW122715   6.388   4.189   1.708
 7272SOL    HW222716   6.468   4.067   1.635
 7273SOL     OW22717   6.740   1.251   4.834
 7273SOL    HW122718   6.723   1.331   4.777
 7273SOL    HW222719   6.830   1.213   4.813
 7274SOL     OW22720   0.510   5.584   6.299
 7274SOL    HW122721   0.501   5.562   6.396
 7274SOL    HW222722   0.467   5.512   6.245
 7275SOL     OW22723   0.721   5.051   3.159
 7275SOL    HW122724   0.783   5.024   3.232
 7275SOL    HW222725   0.768   5.114   3.097
 7276SOL     OW22726   5.115   6.408   3.378
 7276SOL    HW122727   5.102   6.336   3.310
 7276SOL    HW222728   5.205   6.450   3.366
 7277SOL     OW22729   4.844   0.789   0.351
 7277SOL    HW122730   4.771   0.772   0.284
 7277SOL    HW222731   4.914   0.719   0.342
 7278SOL     OW22732   3.848   2.999   2.406
 7278SOL    HW122733   3.927   3.058   2.423
 7278SOL    HW222734   3.855   2.958   2.315
 7279SOL     OW22735   3.542   6.349   6.147
 7279SOL    HW122736   3.626   6.356   6.203
 7279SOL    HW222737   3.472   6.300   6.199
 7280SOL     OW22738   4.461   0.394   6.072
 7280SOL    HW122739   4.437   0.300   6.095
 7280SOL    HW222740   4.555   0.414   6.102
 7281SOL     OW22741   5.697   0.791   6.217
 7281SOL    HW122742   5.788   0.798   6.258
 7281SOL    HW222743   5.690   0.855   6.141
 7282SOL     OW22744   6.230   5.719   2.964
 7282SOL    HW122745   6.147   5.708   2.909
 7282SOL    HW222746   6.209   5.699   3.060
 7283SOL     OW22747   2.244   1.507   3.475
 7283SOL    HW122748   2.224   1.526   3.379
 7283SOL    HW222749   2.320   1.564   3.506
 7284SOL     OW22750   1.335   1.680   4.685
 7284SOL    HW122751   1.413   1.618   4.685
 7284SOL    HW222752   1.258   1.637   4.637
 7285SOL     OW22753   6.033   5.481   2.013
 7285SOL    HW122754   5.964   5.502   1.943
 7285SOL    HW222755   6.029   5.384   2.035
 7286SOL     OW22756   1.334   4.344   0.471
 7286SOL    HW122757   1.291   4.427   0.507
 7286SOL    HW222758   1.431   4.342   0.497
 7287SOL     OW22759   6.396   2.020   6.073
 7287SOL    HW122760   6.343   1.936   6.062
 7287SOL    HW222761   6.355   2.092   6.017
 7288SOL     OW22762   2.830   0.366   0.020
 7288SOL    HW122763   2.733   0.341   0.022
 7288SOL    HW222764   2.877   0.325   0.099
 7289SOL     OW22765   4.476   2.031   3.458
 7289SOL    HW122766   4.424   2.112   3.432
 7289SOL    HW222767   4.533   2.051   3.538
 7290SOL     OW22768   2.774   5.837   4.296
 7290SOL    HW122769   2.818   5.889   4.222
 7290SOL    HW222770   2.835   5.764   4.326
 7291SOL     OW22771   3.465   5.398   1.381
 7291SOL    HW122772   3.485   5.489   1.344
 7291SOL    HW222773   3.515   5.329   1.328
 7292SOL     OW22774   3.638   0.361   4.652
 7292SOL    HW122775   3.696   0.396   4.579
 7292SOL    HW222776   3.615   0.435   4.715
 7293SOL     OW22777   2.376   1.568   6.313
 7293SOL    HW122778   2.376   1.486   6.255
 7293SOL    HW222779   2.282   1.602   6.321
 7294SOL     OW22780   5.671   5.452   6.307
 7294SOL    HW122781   5.750   5.506   6.335
 7294SOL    HW222782   5.680   5.429   6.210
 7295SOL     OW22783   4.680   6.927   1.603
 7295SOL    HW122784   4.691   6.947   1.506
 7295SOL    HW222785   4.657   7.011   1.652
 7296SOL     OW22786   4.084   4.871   0.782
 7296SOL    HW122787   4.122   4.928   0.855
 7296SOL    HW222788   4.155   4.811   0.745
 7297SOL     OW22789   4.852   6.599   2.395
 7297SOL    HW122790   4.780   6.618   2.462
 7297SOL    HW222791   4.841   6.506   2.359
 7298SOL     OW22792   6.198   3.127   4.074
 7298SOL    HW122793   6.103   3.157   4.070
 7298SOL    HW222794   6.248   3.182   4.140
 7299SOL     OW22795   5.501   3.336   6.789
 7299SOL    HW122796   5.479   3.240   6.772
 7299SOL    HW222797   5.499   3.387   6.703
 7300SOL     OW22798   4.681   5.110   1.356
 7300SOL    HW122799   4.777   5.130   1.336
 7300SOL    HW222800   4.640   5.188   1.405
 7301SOL     OW22801   6.679   1.266   6.444
 7301SOL    HW122802   6.773   1.294   6.463
 7301SOL    HW222803   6.679   1.195   6.374
 7302SOL     OW22804   6.506   0.889   6.171
 7302SOL    HW122805   6.531   0.798   6.205
 7302SOL    HW222806   6.418   0.916   6.210
 7303SOL     OW22807   4.279   0.572   0.877
 7303SOL    HW122808   4.254   0.666   0.902
 7303SOL    HW222809   4.359   0.544   0.929
 7304SOL     OW22810   3.933   3.089   4.858
 7304SOL    HW122811   3.968   3.123   4.946
 7304SOL    HW222812   3.996   3.021   4.821
 7305SOL     OW22813   5.888   2.513   6.935
 7305SOL    HW122814   5.881   2.414   6.944
 7305SOL    HW222815   5.853   2.541   6.845
 7306SOL     OW22816   4.999   4.956   1.848
 7306SOL    HW122817   4.971   5.019   1.776
 7306SOL    HW222818   5.002   5.004   1.935
 7307SOL     OW22819   4.089   6.534   2.178
 7307SOL    HW122820   4.045   6.620   2.204
 7307SOL    HW222821   4.019   6.467   2.152
 7308SOL     OW22822   5.929   0.803   4.146
 7308SOL    HW122823   5.874   0.885   4.130
 7308SOL    HW222824   5.957   0.763   4.059
 7309SOL     OW22825   4.384   4.677   1.069
 7309SOL    HW122826   4.289   4.676   1.041
 7309SOL    HW222827   4.434   4.604   1.023
 7310SOL     OW22828   2.367   5.827   1.919
 7310SOL    HW122829   2.361   5.849   2.016
 7310SOL    HW222830   2.432   5.752   1.906
 7311SOL     OW22831   3.078   2.156   2.055
 7311SOL    HW122832   3.079   2.109   1.967
 7311SOL    HW222833   3.000   2.218   2.059
 7312SOL     OW22834   0.295   2.477   6.611
 7312SOL    HW122835   0.220   2.538   6.633
 7312SOL    HW222836   0.272   2.421   6.531
 7313SOL     OW22837   3.446   2.334   6.248
 7313SOL    HW122838   3.514   2.400   6.217
 7313SOL    HW222839   3.361   2.381   6.272
 7314SOL     OW22840   0.818   1.769   4.604
 7314SOL    HW122841   0.718   1.759   4.606
 7314SOL    HW222842   0.857   1.727   4.685
 7315SOL     OW22843   0.043   1.240   6.106
 7315SOL    HW122844   7.000   1.316   6.083
 7315SOL    HW222845   0.108   1.227   6.031
 7316SOL     OW22846   4.081   3.291   4.181
 7316SOL    HW122847   4.102   3.268   4.276
 7316SOL    HW222848   4.010   3.229   4.147
 7317SOL     OW22849   2.910   0.686   4.191
 7317SOL    HW122850   2.811   0.698   4.189
 7317SOL    HW222851   2.934   0.621   4.263
 7318SOL     OW22852   1.265   1.155   1.291
 7318SOL    HW122853   1.260   1.166   1.390
 7318SOL    HW222854   1.360   1.168   1.261
 7319SOL     OW22855   0.024   4.474   6.085
 7319SOL    HW122856   0.072   4.390   6.111
 7319SOL    HW222857   0.006   4.529   6.166
 7320SOL     OW22858   0.790   1.895   2.320
 7320SOL    HW122859   0.810   1.990   2.346
 7320SOL    HW222860   0.695   1.888   2.291
 7321SOL     OW22861   3.094   1.402   4.249
 7321SOL    HW122862   3.106   1.305   4.227
 7321SOL    HW222863   3.043   1.446   4.175
 7322SOL     OW22864   1.369   3.277   1.566
 7322SOL    HW122865   1.366   3.306   1.471
 7322SOL    HW222866   1.379   3.177   1.570
 7323SOL     OW22867   2.349   4.278   3.011
 7323SOL    HW122868   2.333   4.251   3.106
 7323SOL    HW222869   2.408   4.358   3.008
 7324SOL     OW22870   4.923   5.214   3.754
 7324SOL    HW122871   4.856   5.150   3.716
 7324SOL    HW222872   5.008   5.209   3.702
 7325SOL     OW22873   2.981   6.233   0.868
 7325SOL    HW122874   2.974   6.298   0.944
 7325SOL    HW222875   3.029   6.151   0.899
 7326SOL     OW22876   2.596   0.739   4.130
 7326SOL    HW122877   2.608   0.641   4.113
 7326SOL    HW222878   2.499   0.762   4.124
 7327SOL     OW22879   1.255   3.277   5.803
 7327SOL    HW122880   1.270   3.223   5.720
 7327SOL    HW222881   1.311   3.240   5.878
 7328SOL     OW22882   2.333   6.951   6.935
 7328SOL    HW122883   2.322   6.907   0.006
 7328SOL    HW222884   2.430   6.971   6.920
 7329SOL     OW22885   4.672   3.801   1.708
 7329SOL    HW122886   4.633   3.890   1.684
 7329SOL    HW222887   4.601   3.731   1.700
 7330SOL     OW22888   3.863   2.120   0.916
 7330SOL    HW122889   3.923   2.186   0.961
 7330SOL    HW222890   3.849   2.146   0.820
 7331SOL     OW22891   5.672   1.769   1.542
 7331SOL    HW122892   5.729   1.689   1.526
 7331SOL    HW222893   5.586   1.760   1.490
 7332SOL     OW22894   3.611   6.591   0.439
 7332SOL    HW122895   3.560   6.563   0.520
 7332SOL    HW222896   3.700   6.628   0.467
 7333SOL     OW22897   0.322   4.727   2.261
 7333SOL    HW122898   0.349   4.823   2.254
 7333SOL    HW222899   0.404   4.669   2.264
 7334SOL     OW22900   2.943   0.283   4.775
 7334SOL    HW122901   2.996   0.359   4.735
 7334SOL    HW222902   2.934   0.210   4.707
 7335SOL     OW22903   1.946   3.119   3.048
 7335SOL    HW122904   1.879   3.187   3.017
 7335SOL    HW222905   1.942   3.038   2.990
 7336SOL     OW22906   1.567   6.402   4.373
 7336SOL    HW122907   1.606   6.357   4.454
 7336SOL    HW222908   1.638   6.455   4.327
 7337SOL     OW22909   5.303   2.442   1.290
 7337SOL    HW122910   5.339   2.358   1.250
 7337SOL    HW222911   5.324   2.519   1.230
 7338SOL     OW22912   6.959   3.744   0.171
 7338SOL    HW122913   6.930   3.653   0.202
 7338SOL    HW222914   0.008   3.734   0.098
 7339SOL     OW22915   1.633   5.838   4.731
 7339SOL    HW122916   1.593   5.779   4.660
 7339SOL    HW222917   1.714   5.794   4.769
 7340SOL     OW22918   2.779   6.942   6.586
 7340SOL    HW122919   2.830   6.864   6.550
 7340SOL    HW222920   2.699   6.959   6.529
 7341SOL     OW22921   6.078   2.050   0.503
 7341SOL    HW122922   6.019   1.975   0.474
 7341SOL    HW222923   6.030   2.137   0.489
 7342SOL     OW22924   0.247   6.376   1.793
 7342SOL    HW122925   0.210   6.289   1.824
 7342SOL    HW222926   0.212   6.450   1.851
 7343SOL     OW22927   6.277   2.783   0.398
 7343SOL    HW122928   6.197   2.825   0.356
 7343SOL    HW222929   6.334   2.855   0.439
 7344SOL     OW22930   2.575   0.163   6.056
 7344SOL    HW122931   2.483   0.189   6.086
 7344SOL    HW222932   2.642   0.227   6.094
 7345SOL     OW22933   3.841   5.716   6.366
 7345SOL    HW122934   3.930   5.725   6.320
 7345SOL    HW222935   3.775   5.776   6.321
 7346SOL     OW22936   4.176   5.007   2.109
 7346SOL    HW122937   4.180   5.046   2.201
 7346SOL    HW222938   4.104   5.053   2.056
 7347SOL     OW22939   5.260   1.246   6.900
 7347SOL    HW122940   5.323   1.169   6.888
 7347SOL    HW222941   5.263   1.277   6.995
 7348SOL     OW22942   0.576   5.688   0.225
 7348SOL    HW122943   0.661   5.685   0.279
 7348SOL    HW222944   0.520   5.609   0.247
 7349SOL     OW22945   4.475   1.200   1.475
 7349SOL    HW122946   4.556   1.156   1.513
 7349SOL    HW222947   4.502   1.261   1.400
 7350SOL     OW22948   3.774   0.998   4.652
 7350SOL    HW122949   3.782   1.043   4.563
 7350SOL    HW222950   3.684   0.954   4.659
 7351SOL     OW22951   2.087   4.580   4.567
 7351SOL    HW122952   2.132   4.513   4.625
 7351SOL    HW222953   1.988   4.570   4.575
 7352SOL     OW22954   5.773   3.221   4.375
 7352SOL    HW122955   5.835   3.153   4.335
 7352SOL    HW222956   5.752   3.194   4.470
 7353SOL     OW22957   6.661   1.771   5.468
 7353SOL    HW122958   6.725   1.693   5.470
 7353SOL    HW222959   6.592   1.755   5.398
 7354SOL     OW22960   0.995   1.983   2.554
 7354SOL    HW122961   1.062   1.983   2.628
 7354SOL    HW222962   1.039   1.949   2.470
 7355SOL     OW22963   3.219   1.937   0.292
 7355SOL    HW122964   3.163   1.874   0.346
 7355SOL    HW222965   3.159   2.002   0.245
 7356SOL     OW22966   4.022   4.446   5.948
 7356SOL    HW122967   3.968   4.378   5.996
 7356SOL    HW222968   3.976   4.472   5.864
 7357SOL     OW22969   4.266   6.333   1.904
 7357SOL    HW122970   4.180   6.283   1.895
 7357SOL    HW222971   4.302   6.321   1.996
 7358SOL     OW22972   4.610   6.862   3.172
 7358SOL    HW122973   4.580   6.941   3.226
 7358SOL    HW222974   4.599   6.778   3.227
 7359SOL     OW22975   3.862   0.324   2.117
 7359SOL    HW122976   3.811   0.367   2.191
 7359SOL    HW222977   3.860   0.224   2.128
 7360SOL     OW22978   2.667   3.522   6.028
 7360SOL    HW122979   2.701   3.593   5.967
 7360SOL    HW222980   2.733   3.505   6.101
 7361SOL     OW22981   6.249   0.709   3.369
 7361SOL    HW122982   6.210   0.761   3.294
 7361SOL    HW222983   6.332   0.663   3.339
 7362SOL     OW22984   3.709   5.738   0.352
 7362SOL    HW122985   3.643   5.783   0.413
 7362SOL    HW222986   3.665   5.660   0.308
 7363SOL     OW22987   4.698   0.693   1.036
 7363SOL    HW122988   4.648   0.748   0.969
 7363SOL    HW222989   4.658   0.709   1.127
 7364SOL     OW22990   5.650   6.208   2.007
 7364SOL    HW122991   5.719   6.197   1.936
 7364SOL    HW222992   5.654   6.302   2.043
 7365SOL     OW22993   5.015   2.920   2.443
 7365SOL    HW122994   4.981   2.936   2.350
 7365SOL    HW222995   4.939   2.903   2.505
 7366SOL     OW22996   2.432   0.008   3.277
 7366SOL    HW122997   2.393   6.990   3.192
 7366SOL    HW222998   2.508   6.968   3.306
 7367SOL     OW22999   4.324   1.133   6.939
 7367SOL    HW123000   4.314   1.224   6.898
 7367SOL    HW223001   4.333   1.065   6.867
 7368SOL     OW23002   3.017   3.939   3.007
 7368SOL    HW123003   2.961   4.019   2.987
 7368SOL    HW223004   3.086   3.963   3.075
 7369SOL     OW23005   5.918   3.471   0.039
 7369SOL    HW123006   5.854   3.548   0.047
 7369SOL    HW223007   5.999   3.501   7.007
 7370SOL     OW23008   1.824   1.038   3.897
 7370SOL    HW123009   1.823   0.941   3.921
 7370SOL    HW223010   1.854   1.092   3.976
 7371SOL     OW23011   3.898   0.730   3.631
 7371SOL    HW123012   3.845   0.646   3.636
 7371SOL    HW223013   3.874   0.779   3.547
 7372SOL     OW23014   4.556   1.180   5.299
 7372SOL    HW123015   4.515   1.103   5.348
 7372SOL    HW223016   4.628   1.222   5.354
 7373SOL     OW23017   6.541   2.972   3.826
 7373SOL    HW123018   6.450   3.013   3.826
 7373SOL    HW223019   6.534   2.874   3.804
 7374SOL     OW23020   0.435   2.992   6.488
 7374SOL    HW123021   0.503   3.028   6.550
 7374SOL    HW223022   0.446   2.893   6.480
 7375SOL     OW23023   2.204   2.734   1.160
 7375SOL    HW123024   2.110   2.706   1.142
 7375SOL    HW223025   2.212   2.833   1.151
 7376SOL     OW23026   6.692   5.220   0.505
 7376SOL    HW123027   6.759   5.213   0.431
 7376SOL    HW223028   6.630   5.142   0.501
 7377SOL     OW23029   2.500   5.847   1.266
 7377SOL    HW123030   2.407   5.808   1.264
 7377SOL    HW223031   2.519   5.891   1.178
 7378SOL     OW23032   2.362   5.183   5.786
 7378SOL    HW123033   2.448   5.212   5.745
 7378SOL    HW223034   2.361   5.084   5.796
 7379SOL     OW23035   5.452   2.512   2.142
 7379SOL    HW123036   5.437   2.455   2.061
 7379SOL    HW223037   5.499   2.596   2.115
 7380SOL     OW23038   5.134   3.642   1.808
 7380SOL    HW123039   5.160   3.560   1.859
 7380SOL    HW223040   5.040   3.667   1.830
 7381SOL     OW23041   3.814   6.815   1.627
 7381SOL    HW123042   3.725   6.810   1.583
 7381SOL    HW223043   3.828   6.908   1.662
 7382SOL     OW23044   0.393   2.389   6.866
 7382SOL    HW123045   0.491   2.400   6.879
 7382SOL    HW223046   0.369   2.410   6.771
 7383SOL     OW23047   2.390   6.715   1.127
 7383SOL    HW123048   2.343   6.753   1.207
 7383SOL    HW223049   2.488   6.708   1.147
 7384SOL     OW23050   6.642   0.300   6.986
 7384SOL    HW123051   6.597   0.330   0.053
 7384SOL    HW223052   6.719   0.240   7.008
 7385SOL     OW23053   6.388   4.439   3.218
 7385SOL    HW123054   6.414   4.452   3.314
 7385SOL    HW223055   6.400   4.343   3.193
 7386SOL     OW23056   6.118   4.755   0.278
 7386SOL    HW123057   6.155   4.817   0.210
 7386SOL    HW223058   6.124   4.661   0.245
 7387SOL     OW23059   6.734   5.733   4.189
 7387SOL    HW123060   6.813   5.674   4.177
 7387SOL    HW223061   6.760   5.813   4.243
 7388SOL     OW23062   2.266   4.051   2.339
 7388SOL    HW123063   2.177   4.011   2.319
 7388SOL    HW223064   2.288   4.119   2.269
 7389SOL     OW23065   6.630   2.808   0.690
 7389SOL    HW123066   6.645   2.775   0.784
 7389SOL    HW223067   6.599   2.732   0.633
 7390SOL     OW23068   3.838   1.997   4.067
 7390SOL    HW123069   3.772   2.048   4.122
 7390SOL    HW223070   3.823   1.899   4.079
 7391SOL     OW23071   3.623   3.878   3.050
 7391SOL    HW123072   3.702   3.886   3.111
 7391SOL    HW223073   3.590   3.970   3.026
 7392SOL     OW23074   3.439   6.198   0.764
 7392SOL    HW123075   3.462   6.272   0.827
 7392SOL    HW223076   3.407   6.236   0.678
 7393SOL     OW23077   4.986   5.284   3.336
 7393SOL    HW123078   4.896   5.327   3.331
 7393SOL    HW223079   4.976   5.191   3.372
 7394SOL     OW23080   1.768   2.080   6.252
 7394SOL    HW123081   1.724   1.991   6.242
 7394SOL    HW223082   1.702   2.145   6.291
 7395SOL     OW23083   2.785   6.070   1.322
 7395SOL    HW123084   2.796   5.997   1.389
 7395SOL    HW223085   2.861   6.135   1.330
 7396SOL     OW23086   1.289   5.288   2.433
 7396SOL    HW123087   1.208   5.330   2.392
 7396SOL    HW223088   1.307   5.201   2.389
 7397SOL     OW23089   5.966   4.686   4.131
 7397SOL    HW123090   5.963   4.767   4.190
 7397SOL    HW223091   5.884   4.631   4.147
 7398SOL     OW23092   3.294   5.106   2.192
 7398SOL    HW123093   3.240   5.028   2.161
 7398SOL    HW223094   3.386   5.099   2.155
 7399SOL     OW23095   6.237   1.956   5.206
 7399SOL    HW123096   6.212   2.048   5.176
 7399SOL    HW223097   6.336   1.949   5.213
 7400SOL     OW23098   3.989   3.511   5.287
 7400SOL    HW123099   3.993   3.417   5.254
 7400SOL    HW223100   4.077   3.535   5.329
 7401SOL     OW23101   1.650   2.659   3.658
 7401SOL    HW123102   1.569   2.635   3.711
 7401SOL    HW223103   1.623   2.720   3.583
 7402SOL     OW23104   3.351   5.459   4.210
 7402SOL    HW123105   3.450   5.475   4.215
 7402SOL    HW223106   3.311   5.469   4.301
 7403SOL     OW23107   1.799   4.971   4.345
 7403SOL    HW123108   1.844   4.959   4.256
 7403SOL    HW223109   1.866   4.999   4.413
 7404SOL     OW23110   1.860   3.549   0.871
 7404SOL    HW123111   1.884   3.563   0.775
 7404SOL    HW223112   1.910   3.470   0.906
 7405SOL     OW23113   3.333   6.663   6.186
 7405SOL    HW123114   3.370   6.718   6.261
 7405SOL    HW223115   3.386   6.580   6.176
 7406SOL     OW23116   0.354   2.479   4.397
 7406SOL    HW123117   0.448   2.446   4.406
 7406SOL    HW223118   0.291   2.408   4.429
 7407SOL     OW23119   1.288   6.394   4.387
 7407SOL    HW123120   1.261   6.328   4.457
 7407SOL    HW223121   1.388   6.394   4.379
 7408SOL     OW23122   4.268   5.402   5.830
 7408SOL    HW123123   4.183   5.423   5.782
 7408SOL    HW223124   4.345   5.445   5.782
 7409SOL     OW23125   6.417   5.305   1.707
 7409SOL    HW123126   6.498   5.345   1.748
 7409SOL    HW223127   6.335   5.350   1.743
 7410SOL     OW23128   6.056   1.016   0.870
 7410SOL    HW123129   6.089   0.939   0.816
 7410SOL    HW223130   6.132   1.078   0.890
 7411SOL     OW23131   3.922   1.796   5.028
 7411SOL    HW123132   3.868   1.841   4.958
 7411SOL    HW223133   3.862   1.765   5.102
 7412SOL     OW23134   4.304   6.734   6.678
 7412SOL    HW123135   4.297   6.646   6.726
 7412SOL    HW223136   4.266   6.806   6.735
 7413SOL     OW23137   5.432   0.801   3.670
 7413SOL    HW123138   5.374   0.727   3.637
 7413SOL    HW223139   5.459   0.859   3.593
 7414SOL     OW23140   2.625   0.936   4.354
 7414SOL    HW123141   2.624   0.885   4.267
 7414SOL    HW223142   2.617   0.872   4.430
 7415SOL     OW23143   4.499   1.052   6.097
 7415SOL    HW123144   4.508   1.149   6.118
 7415SOL    HW223145   4.521   1.036   6.001
 7416SOL     OW23146   0.896   0.226   1.934
 7416SOL    HW123147   0.813   0.280   1.923
 7416SOL    HW223148   0.887   0.140   1.884
 7417SOL     OW23149   0.661   0.476   2.273
 7417SOL    HW123150   0.720   0.519   2.204
 7417SOL    HW223151   0.640   0.382   2.246
 7418SOL     OW23152   1.713   3.565   6.259
 7418SOL    HW123153   1.810   3.542   6.264
 7418SOL    HW223154   1.671   3.517   6.182
 7419SOL     OW23155   6.567   2.624   4.582
 7419SOL    HW123156   6.510   2.625   4.500
 7419SOL    HW223157   6.587   2.530   4.608
 7420SOL     OW23158   6.958   6.972   0.773
 7420SOL    HW123159   6.934   6.916   0.852
 7420SOL    HW223160   7.015   0.030   0.802
 7421SOL     OW23161   6.421   3.731   1.108
 7421SOL    HW123162   6.480   3.808   1.086
 7421SOL    HW223163   6.430   3.660   1.038
 7422SOL     OW23164   5.842   3.552   1.548
 7422SOL    HW123165   5.753   3.573   1.588
 7422SOL    HW223166   5.861   3.454   1.556
 7423SOL     OW23167   4.087   2.491   5.679
 7423SOL    HW123168   4.013   2.453   5.734
 7423SOL    HW223169   4.053   2.514   5.588
 7424SOL     OW23170   0.525   1.832   3.746
 7424SOL    HW123171   0.519   1.883   3.832
 7424SOL    HW223172   0.620   1.826   3.717
 7425SOL     OW23173   5.544   0.158   1.116
 7425SOL    HW123174   5.543   0.076   1.059
 7425SOL    HW223175   5.639   0.183   1.136
 7426SOL     OW23176   3.630   3.447   5.311
 7426SOL    HW123177   3.565   3.466   5.238
 7426SOL    HW223178   3.612   3.355   5.348
 7427SOL     OW23179   3.041   0.824   1.997
 7427SOL    HW123180   3.000   0.902   2.045
 7427SOL    HW223181   2.996   0.739   2.027
 7428SOL     OW23182   1.796   6.953   5.226
 7428SOL    HW123183   1.821   6.914   5.137
 7428SOL    HW223184   1.826   0.030   5.230
 7429SOL     OW23185   0.882   1.185   2.331
 7429SOL    HW123186   0.880   1.171   2.232
 7429SOL    HW223187   0.788   1.197   2.365
 7430SOL     OW23188   6.597   4.254   2.560
 7430SOL    HW123189   6.631   4.320   2.493
 7430SOL    HW223190   6.506   4.283   2.592
 7431SOL     OW23191   0.936   2.270   4.380
 7431SOL    HW123192   1.018   2.228   4.343
 7431SOL    HW223193   0.879   2.200   4.422
 7432SOL     OW23194   1.769   1.216   2.870
 7432SOL    HW123195   1.722   1.241   2.954
 7432SOL    HW223196   1.769   1.295   2.807
 7433SOL     OW23197   3.554   0.162   6.576
 7433SOL    HW123198   3.474   0.205   6.618
 7433SOL    HW223199   3.631   0.164   6.639
 7434SOL     OW23200   4.355   0.251   3.912
 7434SOL    HW123201   4.444   0.283   3.881
 7434SOL    HW223202   4.308   0.324   3.963
 7435SOL     OW23203   5.246   4.470   3.102
 7435SOL    HW123204   5.253   4.563   3.065
 7435SOL    HW223205   5.176   4.419   3.052
 7436SOL     OW23206   4.243   2.797   6.048
 7436SOL    HW123207   4.283   2.798   6.140
 7436SOL    HW223208   4.199   2.885   6.029
 7437SOL     OW23209   3.638   0.536   1.250
 7437SOL    HW123210   3.579   0.543   1.330
 7437SOL    HW223211   3.694   0.618   1.243
 7438SOL     OW23212   1.783   0.629   6.666
 7438SOL    HW123213   1.866   0.669   6.704
 7438SOL    HW223214   1.716   0.701   6.649
 7439SOL     OW23215   1.669   4.543   6.256
 7439SOL    HW123216   1.632   4.594   6.333
 7439SOL    HW223217   1.594   4.501   6.204
 7440SOL     OW23218   5.564   2.708   4.212
 7440SOL    HW123219   5.566   2.791   4.156
 7440SOL    HW223220   5.527   2.729   4.302
 7441SOL     OW23221   4.119   6.796   0.392
 7441SOL    HW123222   4.197   6.859   0.386
 7441SOL    HW223223   4.152   6.702   0.393
 7442SOL     OW23224   6.606   1.213   6.016
 7442SOL    HW123225   6.638   1.169   6.100
 7442SOL    HW223226   6.530   1.274   6.037
 7443SOL     OW23227   0.334   6.792   1.028
 7443SOL    HW123228   0.262   6.725   1.010
 7443SOL    HW223229   0.377   6.772   1.116
 7444SOL     OW23230   1.514   5.717   6.569
 7444SOL    HW123231   1.423   5.752   6.545
 7444SOL    HW223232   1.512   5.617   6.570
 7445SOL     OW23233   3.478   5.786   2.578
 7445SOL    HW123234   3.513   5.878   2.558
 7445SOL    HW223235   3.533   5.718   2.530
 7446SOL     OW23236   6.518   5.028   0.480
 7446SOL    HW123237   6.510   5.015   0.579
 7446SOL    HW223238   6.458   4.964   0.433
 7447SOL     OW23239   0.930   5.509   0.512
 7447SOL    HW123240   0.971   5.598   0.533
 7447SOL    HW223241   0.978   5.438   0.562
 7448SOL     OW23242   4.655   4.881   6.890
 7448SOL    HW123243   4.716   4.802   6.887
 7448SOL    HW223244   4.560   4.850   6.883
 7449SOL     OW23245   6.741   3.982   6.622
 7449SOL    HW123246   6.749   3.885   6.598
 7449SOL    HW223247   6.830   4.015   6.656
 7450SOL     OW23248   5.452   3.331   0.475
 7450SOL    HW123249   5.526   3.351   0.411
 7450SOL    HW223250   5.490   3.306   0.564
 7451SOL     OW23251   4.520   4.840   3.019
 7451SOL    HW123252   4.423   4.817   3.025
 7451SOL    HW223253   4.548   4.887   3.103
 7452SOL     OW23254   6.898   5.627   6.703
 7452SOL    HW123255   6.861   5.536   6.684
 7452SOL    HW223256   6.966   5.651   6.634
 7453SOL     OW23257   4.489   5.187   6.203
 7453SOL    HW123258   4.408   5.245   6.212
 7453SOL    HW223259   4.562   5.238   6.157
 7454SOL     OW23260   3.954   1.885   1.034
 7454SOL    HW123261   3.942   1.900   1.132
 7454SOL    HW223262   3.954   1.973   0.986
 7455SOL     OW23263   6.419   0.193   3.090
 7455SOL    HW123264   6.482   0.228   3.021
 7455SOL    HW223265   6.469   0.133   3.153
 7456SOL     OW23266   3.053   1.382   5.496
 7456SOL    HW123267   3.088   1.358   5.587
 7456SOL    HW223268   3.016   1.475   5.498
 7457SOL     OW23269   1.265   1.568   2.389
 7457SOL    HW123270   1.260   1.520   2.301
 7457SOL    HW223271   1.181   1.620   2.404
 7458SOL     OW23272   0.096   5.893   5.220
 7458SOL    HW123273   0.036   5.926   5.147
 7458SOL    HW223274   0.126   5.800   5.199
 7459SOL     OW23275   5.820   6.876   3.252
 7459SOL    HW123276   5.835   6.796   3.309
 7459SOL    HW223277   5.830   6.850   3.156
 7460SOL     OW23278   0.489   0.221   0.904
 7460SOL    HW123279   0.576   0.226   0.953
 7460SOL    HW223280   0.427   0.160   0.953
 7461SOL     OW23281   1.766   4.173   5.017
 7461SOL    HW123282   1.847   4.175   5.075
 7461SOL    HW223283   1.782   4.114   4.938
 7462SOL     OW23284   1.910   4.757   6.895
 7462SOL    HW123285   1.917   4.690   6.822
 7462SOL    HW223286   1.841   4.728   6.961
 7463SOL     OW23287   4.923   5.096   1.192
 7463SOL    HW123288   4.938   5.004   1.156
 7463SOL    HW223289   5.005   5.125   1.243
 7464SOL     OW23290   5.371   4.855   5.146
 7464SOL    HW123291   5.372   4.756   5.160
 7464SOL    HW223292   5.396   4.901   5.231
 7465SOL     OW23293   1.366   3.872   6.790
 7465SOL    HW123294   1.296   3.933   6.754
 7465SOL    HW223295   1.423   3.921   6.856
 7466SOL     OW23296   0.381   0.097   5.509
 7466SOL    HW123297   0.438   0.159   5.563
 7466SOL    HW223298   0.370   0.010   5.559
 7467SOL     OW23299   0.662   3.649   4.017
 7467SOL    HW123300   0.723   3.713   4.064
 7467SOL    HW223301   0.717   3.580   3.968
 7468SOL     OW23302   5.679   2.401   4.547
 7468SOL    HW123303   5.694   2.466   4.472
 7468SOL    HW223304   5.736   2.426   4.625
 7469SOL     OW23305   0.491   2.222   0.441
 7469SOL    HW123306   0.430   2.236   0.519
 7469SOL    HW223307   0.558   2.296   0.438
 7470SOL     OW23308   5.008   2.832   3.520
 7470SOL    HW123309   5.058   2.878   3.447
 7470SOL    HW223310   5.072   2.791   3.584
 7471SOL     OW23311   3.164   6.937   6.200
 7471SOL    HW123312   3.090   6.878   6.168
 7471SOL    HW223313   3.190   6.911   6.293
 7472SOL     OW23314   6.908   0.142   5.446
 7472SOL    HW123315   6.964   0.223   5.432
 7472SOL    HW223316   6.945   0.066   5.392
 7473SOL     OW23317   4.089   6.230   3.616
 7473SOL    HW123318   4.013   6.276   3.662
 7473SOL    HW223319   4.149   6.187   3.684
 7474SOL     OW23320   6.272   2.346   0.716
 7474SOL    HW123321   6.255   2.313   0.809
 7474SOL    HW223322   6.185   2.355   0.668
 7475SOL     OW23323   5.174   2.445   0.879
 7475SOL    HW123324   5.122   2.359   0.885
 7475SOL    HW223325   5.110   2.522   0.877
 7476SOL     OW23326   2.414   1.326   2.760
 7476SOL    HW123327   2.439   1.231   2.779
 7476SOL    HW223328   2.489   1.387   2.787
 7477SOL     OW23329   2.415   3.507   5.869
 7477SOL    HW123330   2.457   3.515   5.778
 7477SOL    HW223331   2.484   3.522   5.939
 7478SOL     OW23332   0.452   2.730   6.500
 7478SOL    HW123333   0.371   2.708   6.446
 7478SOL    HW223334   0.449   2.680   6.587
 7479SOL     OW23335   5.351   3.073   1.534
 7479SOL    HW123336   5.270   3.058   1.478
 7479SOL    HW223337   5.404   2.989   1.540
 7480SOL     OW23338   3.670   6.131   2.561
 7480SOL    HW123339   3.695   6.122   2.465
 7480SOL    HW223340   3.672   6.228   2.587
 7481SOL     OW23341   0.025   3.863   6.883
 7481SOL    HW123342   6.985   3.782   6.883
 7481SOL    HW223343   0.101   3.850   6.946
 7482SOL     OW23344   4.422   2.021   4.492
 7482SOL    HW123345   4.476   2.100   4.464
 7482SOL    HW223346   4.432   1.947   4.425
 7483SOL     OW23347   5.461   1.304   5.735
 7483SOL    HW123348   5.383   1.307   5.672
 7483SOL    HW223349   5.437   1.349   5.821
 7484SOL     OW23350   2.298   0.743   4.550
 7484SOL    HW123351   2.233   0.815   4.523
 7484SOL    HW223352   2.383   0.785   4.581
 7485SOL     OW23353   4.273   0.156   6.390
 7485SOL    HW123354   4.309   0.110   6.471
 7485SOL    HW223355   4.219   0.235   6.418
 7486SOL     OW23356   4.234   6.586   1.444
 7486SOL    HW123357   4.332   6.594   1.458
 7486SOL    HW223358   4.211   6.615   1.351
 7487SOL     OW23359   3.008   6.139   4.380
 7487SOL    HW123360   2.953   6.222   4.387
 7487SOL    HW223361   3.070   6.134   4.459
 7488SOL     OW23362   1.527   5.992   3.985
 7488SOL    HW123363   1.573   6.080   4.000
 7488SOL    HW223364   1.429   6.007   3.976
 7489SOL     OW23365   4.811   3.151   6.249
 7489SOL    HW123366   4.858   3.064   6.257
 7489SOL    HW223367   4.843   3.200   6.168
 7490SOL     OW23368   1.915   2.387   1.552
 7490SOL    HW123369   2.014   2.375   1.545
 7490SOL    HW223370   1.871   2.298   1.557
 7491SOL     OW23371   4.530   4.056   6.543
 7491SOL    HW123372   4.483   3.972   6.569
 7491SOL    HW223373   4.529   4.064   6.443
 7492SOL     OW23374   1.746   0.671   3.396
 7492SOL    HW123375   1.764   0.699   3.491
 7492SOL    HW223376   1.696   0.744   3.349
 7493SOL     OW23377   5.919   4.893   4.399
 7493SOL    HW123378   5.957   4.860   4.485
 7493SOL    HW223379   5.994   4.925   4.340
 7494SOL     OW23380   6.210   0.976   2.097
 7494SOL    HW123381   6.241   0.960   2.191
 7494SOL    HW223382   6.127   0.923   2.080
 7495SOL     OW23383   1.604   3.395   4.302
 7495SOL    HW123384   1.633   3.304   4.330
 7495SOL    HW223385   1.557   3.441   4.378
 7496SOL     OW23386   5.928   2.927   3.487
 7496SOL    HW123387   5.938   2.951   3.391
 7496SOL    HW223388   5.832   2.912   3.509
 7497SOL     OW23389   6.323   0.346   1.475
 7497SOL    HW123390   6.319   0.254   1.434
 7497SOL    HW223391   6.252   0.354   1.545
 7498SOL     OW23392   2.115   6.404   3.373
 7498SOL    HW123393   2.094   6.458   3.454
 7498SOL    HW223394   2.049   6.329   3.365
 7499SOL     OW23395   2.940   1.384   3.603
 7499SOL    HW123396   3.028   1.416   3.566
 7499SOL    HW223397   2.878   1.364   3.527
 7500SOL     OW23398   3.561   1.255   4.643
 7500SOL    HW123399   3.542   1.205   4.727
 7500SOL    HW223400   3.493   1.230   4.574
 7501SOL     OW23401   6.019   2.311   3.387
 7501SOL    HW123402   5.939   2.363   3.358
 7501SOL    HW223403   6.009   2.285   3.483
 7502SOL     OW23404   3.663   0.991   3.571
 7502SOL    HW123405   3.734   0.951   3.513
 7502SOL    HW223406   3.632   0.923   3.638
 7503SOL     OW23407   1.251   5.858   1.031
 7503SOL    HW123408   1.290   5.777   0.988
 7503SOL    HW223409   1.234   5.839   1.128
 7504SOL     OW23410   5.534   6.090   4.380
 7504SOL    HW123411   5.447   6.058   4.342
 7504SOL    HW223412   5.517   6.164   4.446
 7505SOL     OW23413   0.688   6.610   5.802
 7505SOL    HW123414   0.611   6.609   5.738
 7505SOL    HW223415   0.671   6.676   5.875
 7506SOL     OW23416   3.724   2.002   4.357
 7506SOL    HW123417   3.714   2.015   4.455
 7506SOL    HW223418   3.812   2.040   4.327
 7507SOL     OW23419   6.823   3.762   6.357
 7507SOL    HW123420   6.767   3.809   6.289
 7507SOL    HW223421   6.920   3.784   6.341
 7508SOL     OW23422   3.497   6.352   0.027
 7508SOL    HW123423   3.407   6.380   0.058
 7508SOL    HW223424   3.540   6.294   0.097
 7509SOL     OW23425   5.658   4.245   2.855
 7509SOL    HW123426   5.573   4.228   2.904
 7509SOL    HW223427   5.666   4.180   2.779
 7510SOL     OW23428   3.275   4.662   1.187
 7510SOL    HW123429   3.278   4.713   1.101
 7510SOL    HW223430   3.271   4.727   1.263
 7511SOL     OW23431   4.665   5.883   3.624
 7511SOL    HW123432   4.680   5.979   3.601
 7511SOL    HW223433   4.572   5.856   3.600
 7512SOL     OW23434   4.180   6.614   1.174
 7512SOL    HW123435   4.247   6.547   1.143
 7512SOL    HW223436   4.089   6.585   1.145
 7513SOL     OW23437   0.601   0.256   2.463
 7513SOL    HW123438   0.627   0.171   2.507
 7513SOL    HW223439   0.611   0.247   2.364
 7514SOL     OW23440   0.011   0.350   0.775
 7514SOL    HW123441   0.023   0.280   0.845
 7514SOL    HW223442   0.090   0.352   0.715
 7515SOL     OW23443   0.001   4.667   4.873
 7515SOL    HW123444   6.977   4.587   4.831
 7515SOL    HW223445   6.976   4.750   4.836
 7516SOL     OW23446   2.034   5.930   5.078
 7516SOL    HW123447   2.063   5.858   5.015
 7516SOL    HW223448   1.937   5.918   5.099
 7517SOL     OW23449   0.595   2.461   0.284
 7517SOL    HW123450   0.500   2.466   0.316
 7517SOL    HW223451   0.611   2.371   0.242
 7518SOL     OW23452   4.144   2.084   4.544
 7518SOL    HW123453   4.230   2.047   4.508
 7518SOL    HW223454   4.077   2.010   4.551
 7519SOL     OW23455   3.326   6.469   5.188
 7519SOL    HW123456   3.289   6.557   5.157
 7519SOL    HW223457   3.263   6.429   5.255
 7520SOL     OW23458   2.179   0.911   1.202
 7520SOL    HW123459   2.153   1.005   1.181
 7520SOL    HW223460   2.222   0.869   1.122
 7521SOL     OW23461   4.102   1.641   5.625
 7521SOL    HW123462   4.184   1.687   5.659
 7521SOL    HW223463   4.048   1.706   5.571
 7522SOL     OW23464   1.760   6.563   4.248
 7522SOL    HW123465   1.828   6.596   4.312
 7522SOL    HW223466   1.799   6.561   4.156
 7523SOL     OW23467   5.425   1.794   6.785
 7523SOL    HW123468   5.508   1.849   6.800
 7523SOL    HW223469   5.426   1.716   6.848
 7524SOL     OW23470   0.473   3.643   4.888
 7524SOL    HW123471   0.387   3.679   4.851
 7524SOL    HW223472   0.548   3.706   4.865
 7525SOL     OW23473   1.895   4.599   5.523
 7525SOL    HW123474   1.929   4.627   5.434
 7525SOL    HW223475   1.964   4.542   5.569
 7526SOL     OW23476   1.202   4.575   0.569
 7526SOL    HW123477   1.110   4.583   0.532
 7526SOL    HW223478   1.201   4.593   0.668
 7527SOL     OW23479   2.885   5.452   2.219
 7527SOL    HW123480   2.848   5.384   2.155
 7527SOL    HW223481   2.929   5.405   2.295
 7528SOL     OW23482   6.364   2.664   6.843
 7528SOL    HW123483   6.310   2.587   6.809
 7528SOL    HW223484   6.303   2.736   6.876
 7529SOL     OW23485   5.738   3.177   4.641
 7529SOL    HW123486   5.670   3.115   4.681
 7529SOL    HW223487   5.829   3.137   4.651
 7530SOL     OW23488   1.228   2.425   3.201
 7530SOL    HW123489   1.300   2.493   3.187
 7530SOL    HW223490   1.225   2.400   3.298
 7531SOL     OW23491   4.097   1.784   3.870
 7531SOL    HW123492   4.010   1.734   3.870
 7531SOL    HW223493   4.096   1.851   3.796
 7532SOL     OW23494   4.550   4.968   6.475
 7532SOL    HW123495   4.516   4.930   6.389
 7532SOL    HW223496   4.585   4.895   6.533
 7533SOL     OW23497   4.487   4.748   1.516
 7533SOL    HW123498   4.506   4.785   1.425
 7533SOL    HW223499   4.462   4.651   1.508
 7534SOL     OW23500   4.540   6.234   5.243
 7534SOL    HW123501   4.547   6.200   5.337
 7534SOL    HW223502   4.444   6.255   5.223
 7535SOL     OW23503   0.475   6.863   4.546
 7535SOL    HW123504   0.458   6.920   4.626
 7535SOL    HW223505   0.438   6.771   4.561
 7536SOL     OW23506   5.939   6.897   2.635
 7536SOL    HW123507   5.870   6.933   2.571
 7536SOL    HW223508   5.941   6.955   2.717
 7537SOL     OW23509   2.115   0.322   2.464
 7537SOL    HW123510   2.035   0.275   2.427
 7537SOL    HW223511   2.186   0.255   2.484
 7538SOL     OW23512   0.126   4.929   6.898
 7538SOL    HW123513   0.093   4.838   6.873
 7538SOL    HW223514   0.197   4.920   6.968
 7539SOL     OW23515   6.473   0.474   4.959
 7539SOL    HW123516   6.496   0.415   4.881
 7539SOL    HW223517   6.492   0.569   4.935
 7540SOL     OW23518   5.027   3.769   3.580
 7540SOL    HW123519   4.986   3.838   3.640
 7540SOL    HW223520   4.979   3.683   3.590
 7541SOL     OW23521   2.513   4.231   0.338
 7541SOL    HW123522   2.473   4.306   0.391
 7541SOL    HW223523   2.536   4.263   0.246
 7542SOL     OW23524   6.164   5.679   4.952
 7542SOL    HW123525   6.179   5.619   4.873
 7542SOL    HW223526   6.083   5.736   4.937
 7543SOL     OW23527   2.085   1.162   1.127
 7543SOL    HW123528   1.990   1.144   1.152
 7543SOL    HW223529   2.115   1.248   1.169
 7544SOL     OW23530   5.706   1.275   5.219
 7544SOL    HW123531   5.693   1.356   5.161
 7544SOL    HW223532   5.742   1.200   5.164
 7545SOL     OW23533   1.454   5.326   5.285
 7545SOL    HW123534   1.495   5.364   5.367
 7545SOL    HW223535   1.372   5.274   5.309
 7546SOL     OW23536   2.717   2.689   1.693
 7546SOL    HW123537   2.789   2.637   1.647
 7546SOL    HW223538   2.639   2.630   1.713
 7547SOL     OW23539   4.170   0.002   2.380
 7547SOL    HW123540   4.204   0.095   2.392
 7547SOL    HW223541   4.070   0.001   2.388
 7548SOL     OW23542   2.621   1.987   6.452
 7548SOL    HW123543   2.611   2.065   6.513
 7548SOL    HW223544   2.595   1.903   6.499
 7549SOL     OW23545   5.140   0.532   4.232
 7549SOL    HW123546   5.214   0.573   4.285
 7549SOL    HW223547   5.077   0.485   4.294
 7550SOL     OW23548   2.109   5.679   4.957
 7550SOL    HW123549   2.207   5.661   4.970
 7550SOL    HW223550   2.067   5.605   4.906
 7551SOL     OW23551   6.516   3.155   6.402
 7551SOL    HW123552   6.608   3.117   6.397
 7551SOL    HW223553   6.521   3.255   6.408
 7552SOL     OW23554   2.606   6.562   4.778
 7552SOL    HW123555   2.532   6.619   4.812
 7552SOL    HW223556   2.686   6.571   4.838
 7553SOL     OW23557   6.439   6.984   5.817
 7553SOL    HW123558   6.502   6.960   5.743
 7553SOL    HW223559   6.489   0.015   5.889
 7554SOL     OW23560   5.305   1.529   1.333
 7554SOL    HW123561   5.376   1.472   1.291
 7554SOL    HW223562   5.253   1.473   1.398
 7555SOL     OW23563   4.509   5.321   4.270
 7555SOL    HW123564   4.536   5.232   4.234
 7555SOL    HW223565   4.508   5.318   4.370
 7556SOL     OW23566   1.044   6.100   0.699
 7556SOL    HW123567   1.008   6.046   0.775
 7556SOL    HW223568   1.117   6.049   0.654
 7557SOL     OW23569   4.365   6.418   1.129
 7557SOL    HW123570   4.306   6.341   1.102
 7557SOL    HW223571   4.456   6.406   1.089
 7558SOL     OW23572   0.785   1.537   3.685
 7558SOL    HW123573   0.713   1.526   3.616
 7558SOL    HW223574   0.810   1.633   3.692
 7559SOL     OW23575   2.055   0.092   5.116
 7559SOL    HW123576   2.111   0.174   5.102
 7559SOL    HW223577   2.030   0.053   5.028
 7560SOL     OW23578   0.886   0.613   5.550
 7560SOL    HW123579   0.944   0.634   5.471
 7560SOL    HW223580   0.904   0.679   5.623
 7561SOL     OW23581   4.999   1.316   5.329
 7561SOL    HW123582   4.939   1.265   5.391
 7561SOL    HW223583   5.022   1.405   5.370
 7562SOL     OW23584   1.772   5.725   3.689
 7562SOL    HW123585   1.833   5.802   3.671
 7562SOL    HW223586   1.822   5.652   3.736
 7563SOL     OW23587   2.815   6.509   3.350
 7563SOL    HW123588   2.718   6.515   3.328
 7563SOL    HW223589   2.857   6.435   3.297
 7564SOL     OW23590   4.794   2.869   5.935
 7564SOL    HW123591   4.809   2.845   5.839
 7564SOL    HW223592   4.759   2.962   5.941
 7565SOL     OW23593   6.604   3.369   5.556
 7565SOL    HW123594   6.578   3.325   5.642
 7565SOL    HW223595   6.541   3.340   5.484
 7566SOL     OW23596   4.833   4.120   1.589
 7566SOL    HW123597   4.860   4.159   1.501
 7566SOL    HW223598   4.890   4.159   1.661
 7567SOL     OW23599   1.450   0.358   3.243
 7567SOL    HW123600   1.395   0.357   3.159
 7567SOL    HW223601   1.510   0.278   3.244
 7568SOL     OW23602   6.937   3.936   0.754
 7568SOL    HW123603   6.843   3.901   0.753
 7568SOL    HW223604   6.940   4.023   0.804
 7569SOL     OW23605   4.351   3.797   1.416
 7569SOL    HW123606   4.299   3.861   1.360
 7569SOL    HW223607   4.335   3.816   1.513
 7570SOL     OW23608   1.137   2.752   1.967
 7570SOL    HW123609   1.100   2.726   1.877
 7570SOL    HW223610   1.064   2.748   2.035
 7571SOL     OW23611   4.673   1.499   3.199
 7571SOL    HW123612   4.741   1.542   3.140
 7571SOL    HW223613   4.662   1.553   3.282
 7572SOL     OW23614   4.475   6.337   3.282
 7572SOL    HW123615   4.504   6.242   3.291
 7572SOL    HW223616   4.382   6.340   3.247
 7573SOL     OW23617   3.703   0.084   6.351
 7573SOL    HW123618   3.653   0.100   6.436
 7573SOL    HW223619   3.644   0.038   6.286
 7574SOL     OW23620   0.811   3.321   3.581
 7574SOL    HW123621   0.717   3.295   3.560
 7574SOL    HW223622   0.859   3.343   3.496
 7575SOL     OW23623   0.116   0.140   0.559
 7575SOL    HW123624   0.197   0.108   0.607
 7575SOL    HW223625   0.035   0.092   0.594
 7576SOL     OW23626   4.569   2.823   0.336
 7576SOL    HW123627   4.619   2.909   0.348
 7576SOL    HW223628   4.512   2.806   0.416
 7577SOL     OW23629   0.042   0.386   6.553
 7577SOL    HW123630   0.132   0.384   6.508
 7577SOL    HW223631   0.044   0.328   6.634
 7578SOL     OW23632   5.980   5.491   3.092
 7578SOL    HW123633   5.902   5.553   3.087
 7578SOL    HW223634   5.995   5.449   3.003
 7579SOL     OW23635   1.433   1.890   6.762
 7579SOL    HW123636   1.390   1.800   6.754
 7579SOL    HW223637   1.424   1.923   6.856
 7580SOL     OW23638   1.968   4.871   2.900
 7580SOL    HW123639   1.918   4.842   2.819
 7580SOL    HW223640   2.050   4.814   2.910
 7581SOL     OW23641   0.376   0.031   0.659
 7581SOL    HW123642   0.401   0.082   0.741
 7581SOL    HW223643   0.368   6.952   0.681
 7582SOL     OW23644   1.832   1.340   6.250
 7582SOL    HW123645   1.861   1.388   6.333
 7582SOL    HW223646   1.807   1.407   6.180
 7583SOL     OW23647   5.616   3.385   2.354
 7583SOL    HW123648   5.623   3.317   2.281
 7583SOL    HW223649   5.520   3.414   2.363
 7584SOL     OW23650   0.102   1.023   3.391
 7584SOL    HW123651   0.181   0.976   3.350
 7584SOL    HW223652   0.029   1.031   3.323
 7585SOL     OW23653   1.118   1.361   5.658
 7585SOL    HW123654   1.095   1.395   5.749
 7585SOL    HW223655   1.200   1.408   5.625
 7586SOL     OW23656   1.717   6.696   3.808
 7586SOL    HW123657   1.642   6.757   3.835
 7586SOL    HW223658   1.694   6.652   3.721
 7587SOL     OW23659   5.304   6.898   1.973
 7587SOL    HW123660   5.320   6.924   1.878
 7587SOL    HW223661   5.389   6.912   2.026
 7588SOL     OW23662   2.021   3.259   4.831
 7588SOL    HW123663   1.952   3.287   4.765
 7588SOL    HW223664   2.032   3.330   4.900
 7589SOL     OW23665   6.425   0.046   2.440
 7589SOL    HW123666   6.337   0.025   2.399
 7589SOL    HW223667   6.414   0.063   2.537
 7590SOL     OW23668   5.640   0.945   0.173
 7590SOL    HW123669   5.620   0.848   0.158
 7590SOL    HW223670   5.693   0.956   0.256
 7591SOL     OW23671   3.330   3.897   4.951
 7591SOL    HW123672   3.367   3.986   4.926
 7591SOL    HW223673   3.339   3.883   5.049
 7592SOL     OW23674   0.498   6.347   3.505
 7592SOL    HW123675   0.447   6.270   3.467
 7592SOL    HW223676   0.461   6.370   3.595
 7593SOL     OW23677   6.818   1.527   6.263
 7593SOL    HW123678   6.860   1.493   6.179
 7593SOL    HW223679   6.729   1.568   6.243
 7594SOL     OW23680   6.684   3.904   6.136
 7594SOL    HW123681   6.699   4.003   6.147
 7594SOL    HW223682   6.690   3.880   6.039
 7595SOL     OW23683   0.188   3.136   0.049
 7595SOL    HW123684   0.114   3.073   0.027
 7595SOL    HW223685   0.276   3.094   0.028
 7596SOL     OW23686   3.183   1.523   6.882
 7596SOL    HW123687   3.108   1.555   6.824
 7596SOL    HW223688   3.203   1.427   6.861
 7597SOL     OW23689   2.297   4.599   0.992
 7597SOL    HW123690   2.275   4.686   1.036
 7597SOL    HW223691   2.363   4.613   0.919
 7598SOL     OW23692   5.293   0.473   1.763
 7598SOL    HW123693   5.293   0.565   1.723
 7598SOL    HW223694   5.283   0.479   1.862
 7599SOL     OW23695   3.214   3.259   0.000
 7599SOL    HW123696   3.221   3.358   0.006
 7599SOL    HW223697   3.118   3.234   7.002
 7600SOL     OW23698   0.882   6.968   3.836
 7600SOL    HW123699   0.919   0.042   3.825
 7600SOL    HW223700   0.801   6.958   3.778
 7601SOL     OW23701   3.194   6.486   1.334
 7601SOL    HW123702   3.121   6.550   1.311
 7601SOL    HW223703   3.231   6.508   1.425
 7602SOL     OW23704   0.250   1.227   1.050
 7602SOL    HW123705   0.222   1.296   0.984
 7602SOL    HW223706   0.300   1.271   1.125
 7603SOL     OW23707   4.375   1.110   6.469
 7603SOL    HW123708   4.296   1.172   6.476
 7603SOL    HW223709   4.357   1.041   6.399
 7604SOL     OW23710   2.620   2.414   5.132
 7604SOL    HW123711   2.692   2.382   5.070
 7604SOL    HW223712   2.537   2.359   5.119
 7605SOL     OW23713   3.053   5.598   0.282
 7605SOL    HW123714   3.135   5.566   0.330
 7605SOL    HW223715   3.078   5.672   0.220
 7606SOL     OW23716   6.262   0.280   3.320
 7606SOL    HW123717   6.211   0.206   3.276
 7606SOL    HW223718   6.330   0.316   3.257
 7607SOL     OW23719   2.016   5.961   5.655
 7607SOL    HW123720   1.945   6.030   5.669
 7607SOL    HW223721   2.021   5.901   5.736
 7608SOL     OW23722   0.260   2.597   6.194
 7608SOL    HW123723   0.193   2.670   6.178
 7608SOL    HW223724   0.223   2.532   6.260
 7609SOL     OW23725   3.075   0.058   5.157
 7609SOL    HW123726   3.104   0.124   5.088
 7609SOL    HW223727   3.090   0.097   5.248
 7610SOL     OW23728   4.077   4.763   4.172
 7610SOL    HW123729   4.116   4.672   4.157
 7610SOL    HW223730   4.125   4.807   4.247
 7611SOL     OW23731   4.097   2.229   0.349
 7611SOL    HW123732   4.113   2.167   0.426
 7611SOL    HW223733   4.153   2.200   0.271
 7612SOL     OW23734   4.632   2.207   2.168
 7612SOL    HW123735   4.593   2.299   2.181
 7612SOL    HW223736   4.634   2.185   2.071
 7613SOL     OW23737   0.135   0.779   0.097
 7613SOL    HW123738   0.130   0.687   0.138
 7613SOL    HW223739   0.147   0.771   7.017
 7614SOL     OW23740   5.931   5.314   6.670
 7614SOL    HW123741   5.944   5.286   6.575
 7614SOL    HW223742   5.888   5.239   6.722
 7615SOL     OW23743   4.686   2.766   6.398
 7615SOL    HW123744   4.734   2.830   6.459
 7615SOL    HW223745   4.665   2.682   6.448
 7616SOL     OW23746   6.361   6.700   1.969
 7616SOL    HW123747   6.408   6.696   2.057
 7616SOL    HW223748   6.285   6.764   1.974
 7617SOL     OW23749   6.125   4.208   3.333
 7617SOL    HW123750   6.114   4.296   3.286
 7617SOL    HW223751   6.122   4.134   3.267
 7618SOL     OW23752   2.800   2.111   6.961
 7618SOL    HW123753   2.721   2.074   6.912
 7618SOL    HW223754   2.835   2.190   6.911
 7619SOL     OW23755   0.531   0.440   5.230
 7619SOL    HW123756   0.492   0.489   5.308
 7619SOL    HW223757   0.497   0.480   5.145
 7620SOL     OW23758   3.609   4.130   0.064
 7620SOL    HW123759   3.550   4.123   7.002
 7620SOL    HW223760   3.553   4.134   0.146
 7621SOL     OW23761   6.070   5.170   0.650
 7621SOL    HW123762   6.107   5.219   0.571
 7621SOL    HW223763   6.142   5.112   0.688
 7622SOL     OW23764   2.656   4.153   1.105
 7622SOL    HW123765   2.590   4.131   1.177
 7622SOL    HW223766   2.695   4.069   1.068
 7623SOL     OW23767   5.123   4.423   2.563
 7623SOL    HW123768   5.157   4.390   2.475
 7623SOL    HW223769   5.199   4.447   2.622
 7624SOL     OW23770   6.932   3.032   2.683
 7624SOL    HW123771   0.003   3.012   2.643
 7624SOL    HW223772   6.936   3.020   2.782
 7625SOL     OW23773   5.185   0.204   1.850
 7625SOL    HW123774   5.098   0.165   1.818
 7625SOL    HW223775   5.205   0.287   1.798
 7626SOL     OW23776   4.542   6.216   7.015
 7626SOL    HW123777   4.505   6.302   6.979
 7626SOL    HW223778   4.632   6.232   0.036
 7627SOL     OW23779   4.471   2.489   5.839
 7627SOL    HW123780   4.406   2.555   5.803
 7627SOL    HW223781   4.532   2.533   5.905
 7628SOL     OW23782   3.465   2.546   0.791
 7628SOL    HW123783   3.390   2.527   0.727
 7628SOL    HW223784   3.552   2.544   0.741
 7629SOL     OW23785   5.664   2.909   3.553
 7629SOL    HW123786   5.610   2.825   3.561
 7629SOL    HW223787   5.614   2.984   3.595
 7630SOL     OW23788   1.320   6.246   3.738
 7630SOL    HW123789   1.348   6.154   3.710
 7630SOL    HW223790   1.226   6.264   3.708
 7631SOL     OW23791   1.291   1.373   6.040
 7631SOL    HW123792   1.338   1.342   5.957
 7631SOL    HW223793   1.359   1.398   6.109
 7632SOL     OW23794   4.398   5.588   1.310
 7632SOL    HW123795   4.299   5.571   1.303
 7632SOL    HW223796   4.439   5.580   1.219
 7633SOL     OW23797   5.256   0.705   1.631
 7633SOL    HW123798   5.272   0.758   1.548
 7633SOL    HW223799   5.166   0.727   1.668
 7634SOL     OW23800   0.412   2.081   6.523
 7634SOL    HW123801   0.361   2.061   6.606
 7634SOL    HW223802   0.505   2.109   6.547
 7635SOL     OW23803   1.236   3.136   5.555
 7635SOL    HW123804   1.322   3.138   5.504
 7635SOL    HW223805   1.169   3.196   5.512
 7636SOL     OW23806   6.638   2.905   3.422
 7636SOL    HW123807   6.540   2.885   3.420
 7636SOL    HW223808   6.680   2.874   3.336
 7637SOL     OW23809   1.486   3.648   5.295
 7637SOL    HW123810   1.452   3.740   5.318
 7637SOL    HW223811   1.491   3.639   5.196
 7638SOL     OW23812   0.695   6.521   1.112
 7638SOL    HW123813   0.782   6.536   1.158
 7638SOL    HW223814   0.709   6.520   1.013
 7639SOL     OW23815   2.466   6.423   0.481
 7639SOL    HW123816   2.386   6.410   0.423
 7639SOL    HW223817   2.522   6.498   0.445
 7640SOL     OW23818   3.185   0.364   0.835
 7640SOL    HW123819   3.154   0.367   0.740
 7640SOL    HW223820   3.284   0.380   0.838
 7641SOL     OW23821   6.528   4.965   4.737
 7641SOL    HW123822   6.627   4.957   4.747
 7641SOL    HW223823   6.484   4.950   4.826
 7642SOL     OW23824   5.654   1.092   3.726
 7642SOL    HW123825   5.728   1.152   3.756
 7642SOL    HW223826   5.597   1.066   3.804
 7643SOL     OW23827   5.033   2.224   4.077
 7643SOL    HW123828   5.017   2.126   4.066
 7643SOL    HW223829   5.131   2.240   4.092
 7644SOL     OW23830   5.411   3.747   0.444
 7644SOL    HW123831   5.464   3.803   0.507
 7644SOL    HW223832   5.464   3.731   0.360
 7645SOL     OW23833   4.968   5.028   6.449
 7645SOL    HW123834   4.953   4.933   6.422
 7645SOL    HW223835   4.889   5.083   6.422
 7646SOL     OW23836   6.467   2.029   1.842
 7646SOL    HW123837   6.550   2.023   1.897
 7646SOL    HW223838   6.387   2.004   1.897
 7647SOL     OW23839   6.914   1.695   4.000
 7647SOL    HW123840   7.008   1.724   4.012
 7647SOL    HW223841   6.887   1.708   3.904
 7648SOL     OW23842   1.631   2.720   0.964
 7648SOL    HW123843   1.680   2.724   0.877
 7648SOL    HW223844   1.545   2.671   0.951
 7649SOL     OW23845   4.069   0.673   0.189
 7649SOL    HW123846   4.049   0.596   0.250
 7649SOL    HW223847   4.166   0.697   0.196
 7650SOL     OW23848   3.517   2.462   0.498
 7650SOL    HW123849   3.558   2.543   0.456
 7650SOL    HW223850   3.425   2.449   0.460
 7651SOL     OW23851   3.670   5.461   6.322
 7651SOL    HW123852   3.732   5.532   6.356
 7651SOL    HW223853   3.634   5.488   6.233
 7652SOL     OW23854   0.225   0.898   5.361
 7652SOL    HW123855   0.322   0.896   5.337
 7652SOL    HW223856   0.170   0.872   5.282
 7653SOL     OW23857   1.788   6.670   6.665
 7653SOL    HW123858   1.741   6.661   6.578
 7653SOL    HW223859   1.841   6.754   6.667
 7654SOL     OW23860   6.544   2.601   5.718
 7654SOL    HW123861   6.532   2.696   5.745
 7654SOL    HW223862   6.577   2.548   5.795
 7655SOL     OW23863   2.928   1.761   5.087
 7655SOL    HW123864   2.986   1.812   5.151
 7655SOL    HW223865   2.901   1.822   5.012
 7656SOL     OW23866   6.138   3.701   0.033
 7656SOL    HW123867   6.204   3.755   0.087
 7656SOL    HW223868   6.139   3.733   6.957
 7657SOL     OW23869   1.205   3.578   4.749
 7657SOL    HW123870   1.282   3.529   4.790
 7657SOL    HW223871   1.209   3.570   4.650
 7658SOL     OW23872   3.022   0.431   1.070
 7658SOL    HW123873   3.016   0.390   0.979
 7658SOL    HW223874   3.051   0.361   1.136
 7659SOL     OW23875   5.747   3.835   5.167
 7659SOL    HW123876   5.738   3.935   5.167
 7659SOL    HW223877   5.838   3.810   5.135
 7660SOL     OW23878   0.315   6.346   5.087
 7660SOL    HW123879   0.317   6.441   5.119
 7660SOL    HW223880   0.389   6.295   5.129
 7661SOL     OW23881   2.124   0.576   4.991
 7661SOL    HW123882   2.061   0.574   4.913
 7661SOL    HW223883   2.189   0.651   4.979
 7662SOL     OW23884   0.110   6.568   1.464
 7662SOL    HW123885   0.196   6.518   1.470
 7662SOL    HW223886   0.127   6.661   1.433
 7663SOL     OW23887   1.299   5.810   4.146
 7663SOL    HW123888   1.332   5.895   4.105
 7663SOL    HW223889   1.223   5.829   4.207
 7664SOL     OW23890   5.845   2.052   3.024
 7664SOL    HW123891   5.790   1.970   3.012
 7664SOL    HW223892   5.786   2.133   3.028
 7665SOL     OW23893   2.416   0.066   5.414
 7665SOL    HW123894   2.493   0.019   5.369
 7665SOL    HW223895   2.344   0.000   5.434
 7666SOL     OW23896   5.975   5.134   4.045
 7666SOL    HW123897   6.061   5.179   4.067
 7666SOL    HW223898   5.908   5.202   4.017
 7667SOL     OW23899   4.348   5.284   1.290
 7667SOL    HW123900   4.357   5.220   1.366
 7667SOL    HW223901   4.378   5.375   1.319
 7668SOL     OW23902   1.567   5.650   0.240
 7668SOL    HW123903   1.655   5.695   0.256
 7668SOL    HW223904   1.494   5.719   0.243
 7669SOL     OW23905   3.263   2.250   6.562
 7669SOL    HW123906   3.226   2.270   6.471
 7669SOL    HW223907   3.292   2.155   6.566
 7670SOL     OW23908   1.072   0.073   0.634
 7670SOL    HW123909   1.098   0.019   0.714
 7670SOL    HW223910   1.028   0.013   0.567
 7671SOL     OW23911   3.990   0.652   1.528
 7671SOL    HW123912   3.957   0.597   1.605
 7671SOL    HW223913   3.912   0.681   1.473
 7672SOL     OW23914   5.642   3.075   2.215
 7672SOL    HW123915   5.698   3.044   2.139
 7672SOL    HW223916   5.692   3.063   2.301
 7673SOL     OW23917   2.192   6.645   5.481
 7673SOL    HW123918   2.270   6.694   5.441
 7673SOL    HW223919   2.107   6.689   5.452
 7674SOL     OW23920   3.237   5.759   3.780
 7674SOL    HW123921   3.283   5.701   3.713
 7674SOL    HW223922   3.198   5.839   3.734
 7675SOL     OW23923   3.859   6.100   3.376
 7675SOL    HW123924   3.878   6.054   3.463
 7675SOL    HW223925   3.816   6.188   3.394
 7676SOL     OW23926   3.052   3.491   4.441
 7676SOL    HW123927   3.021   3.400   4.412
 7676SOL    HW223928   3.062   3.493   4.540
 7677SOL     OW23929   0.582   6.490   7.004
 7677SOL    HW123930   0.580   6.562   6.934
 7677SOL    HW223931   0.537   6.408   6.968
 7678SOL     OW23932   3.428   1.017   5.157
 7678SOL    HW123933   3.466   1.005   5.249
 7678SOL    HW223934   3.338   1.060   5.164
 7679SOL     OW23935   3.095   5.289   4.150
 7679SOL    HW123936   3.192   5.301   4.168
 7679SOL    HW223937   3.072   5.192   4.156
 7680SOL     OW23938   1.387   6.634   4.055
 7680SOL    HW123939   1.407   6.658   4.150
 7680SOL    HW223940   1.329   6.553   4.052
 7681SOL     OW23941   1.803   2.145   5.576
 7681SOL    HW123942   1.764   2.063   5.536
 7681SOL    HW223943   1.822   2.128   5.673
 7682SOL     OW23944   3.450   0.658   1.845
 7682SOL    HW123945   3.474   0.696   1.934
 7682SOL    HW223946   3.533   0.644   1.791
 7683SOL     OW23947   1.194   4.364   4.913
 7683SOL    HW123948   1.233   4.435   4.855
 7683SOL    HW223949   1.181   4.398   5.006
 7684SOL     OW23950   4.858   3.639   1.861
 7684SOL    HW123951   4.797   3.713   1.834
 7684SOL    HW223952   4.840   3.558   1.806
 7685SOL     OW23953   2.556   0.048   0.281
 7685SOL    HW123954   2.542   0.036   0.379
 7685SOL    HW223955   2.501   7.000   0.231
 7686SOL     OW23956   5.935   0.635   4.414
 7686SOL    HW123957   5.980   0.722   4.391
 7686SOL    HW223958   5.953   0.568   4.342
 7687SOL     OW23959   5.669   3.372   5.846
 7687SOL    HW123960   5.623   3.297   5.799
 7687SOL    HW223961   5.656   3.456   5.794
 7688SOL     OW23962   6.796   3.022   0.377
 7688SOL    HW123963   6.835   2.930   0.379
 7688SOL    HW223964   6.703   3.020   0.412
 7689SOL     OW23965   5.394   0.156   2.849
 7689SOL    HW123966   5.460   0.082   2.863
 7689SOL    HW223967   5.339   0.137   2.768
 7690SOL     OW23968   5.994   4.443   2.559
 7690SOL    HW123969   6.073   4.504   2.555
 7690SOL    HW223970   6.001   4.384   2.640
 7691SOL     OW23971   5.045   2.741   4.026
 7691SOL    HW123972   5.062   2.791   4.112
 7691SOL    HW223973   4.956   2.766   3.990
 7692SOL     OW23974   2.536   6.572   2.054
 7692SOL    HW123975   2.438   6.588   2.069
 7692SOL    HW223976   2.576   6.533   2.136
 7693SOL     OW23977   2.464   2.041   1.065
 7693SOL    HW123978   2.371   2.072   1.044
 7693SOL    HW223979   2.505   2.103   1.133
 7694SOL     OW23980   4.470   2.575   1.112
 7694SOL    HW123981   4.379   2.535   1.098
 7694SOL    HW223982   4.514   2.530   1.190
 7695SOL     OW23983   5.257   6.821   4.262
 7695SOL    HW123984   5.192   6.838   4.187
 7695SOL    HW223985   5.213   6.763   4.331
 7696SOL     OW23986   2.674   1.569   5.717
 7696SOL    HW123987   2.588   1.579   5.668
 7696SOL    HW223988   2.657   1.573   5.815
 7697SOL     OW23989   5.855   6.834   2.964
 7697SOL    HW123990   5.812   6.754   2.921
 7697SOL    HW223991   5.955   6.826   2.956
 7698SOL     OW23992   5.926   2.427   1.615
 7698SOL    HW123993   5.872   2.343   1.607
 7698SOL    HW223994   5.865   2.503   1.639
 7699SOL     OW23995   3.825   6.014   6.196
 7699SOL    HW123996   3.736   5.969   6.190
 7699SOL    HW223997   3.831   6.066   6.281
 7700SOL     OW23998   6.622   5.444   1.896
 7700SOL    HW123999   6.657   5.538   1.903
 7700SOL    HW224000   6.695   5.379   1.916
 7701SOL     OW24001   3.172   1.473   6.495
 7701SOL    HW124002   3.141   1.523   6.414
 7701SOL    HW224003   3.104   1.481   6.567
 7702SOL     OW24004   6.134   6.229   5.723
 7702SOL    HW124005   6.214   6.286   5.737
 7702SOL    HW224006   6.143   6.145   5.778
 7703SOL     OW24007   0.533   6.228   6.347
 7703SOL    HW124008   0.533   6.151   6.410
 7703SOL    HW224009   0.560   6.311   6.397
 7704SOL     OW24010   1.417   2.278   4.625
 7704SOL    HW124011   1.452   2.365   4.660
 7704SOL    HW224012   1.384   2.222   4.701
 7705SOL     OW24013   0.890   4.585   0.287
 7705SOL    HW124014   0.793   4.584   0.263
 7705SOL    HW224015   0.899   4.583   0.387
 7706SOL     OW24016   3.099   4.022   2.074
 7706SOL    HW124017   3.110   4.121   2.067
 7706SOL    HW224018   3.100   3.995   2.170
 7707SOL     OW24019   0.279   5.184   5.792
 7707SOL    HW124020   0.250   5.280   5.784
 7707SOL    HW224021   0.350   5.177   5.861
 7708SOL     OW24022   0.382   0.292   4.309
 7708SOL    HW124023   0.411   0.225   4.240
 7708SOL    HW224024   0.396   0.384   4.273
 7709SOL     OW24025   6.251   5.024   0.829
 7709SOL    HW124026   6.341   5.061   0.855
 7709SOL    HW224027   6.198   5.005   0.911
 7710SOL     OW24028   6.263   3.218   2.463
 7710SOL    HW124029   6.352   3.254   2.491
 7710SOL    HW224030   6.275   3.129   2.419
 7711SOL     OW24031   1.046   4.334   3.322
 7711SOL    HW124032   1.125   4.335   3.382
 7711SOL    HW224033   1.062   4.271   3.246
 7712SOL     OW24034   1.088   4.664   4.361
 7712SOL    HW124035   1.083   4.759   4.392
 7712SOL    HW224036   1.156   4.656   4.288
 7713SOL     OW24037   1.238   5.985   0.547
 7713SOL    HW124038   1.238   6.027   0.456
 7713SOL    HW224039   1.315   5.922   0.555
 7714SOL     OW24040   5.703   1.536   5.068
 7714SOL    HW124041   5.800   1.559   5.074
 7714SOL    HW224042   5.685   1.494   4.979
 7715SOL     OW24043   3.832   3.696   6.353
 7715SOL    HW124044   3.844   3.732   6.260
 7715SOL    HW224045   3.785   3.608   6.349
 7716SOL     OW24046   1.465   1.230   6.859
 7716SOL    HW124047   1.499   1.294   6.790
 7716SOL    HW224048   1.425   1.280   6.935
 7717SOL     OW24049   0.578   1.550   5.935
 7717SOL    HW124050   0.660   1.494   5.920
 7717SOL    HW224051   0.606   1.644   5.959
 7718SOL     OW24052   0.193   3.789   3.338
 7718SOL    HW124053   0.119   3.848   3.307
 7718SOL    HW224054   0.269   3.846   3.371
 7719SOL     OW24055   2.084   6.219   5.064
 7719SOL    HW124056   2.043   6.129   5.080
 7719SOL    HW224057   2.183   6.209   5.055
 7720SOL     OW24058   4.513   1.452   6.362
 7720SOL    HW124059   4.578   1.528   6.362
 7720SOL    HW224060   4.558   1.369   6.395
 7721SOL     OW24061   6.073   5.384   2.867
 7721SOL    HW124062   6.126   5.418   2.789
 7721SOL    HW224063   6.054   5.287   2.854
 7722SOL     OW24064   0.114   6.015   4.608
 7722SOL    HW124065   0.040   6.055   4.663
 7722SOL    HW224066   0.190   5.991   4.668
 7723SOL     OW24067   4.126   4.661   6.901
 7723SOL    HW124068   4.059   4.590   6.920
 7723SOL    HW224069   4.133   4.675   6.802
 7724SOL     OW24070   1.366   4.690   0.370
 7724SOL    HW124071   1.300   4.637   0.423
 7724SOL    HW224072   1.455   4.646   0.375
 7725SOL     OW24073   5.454   3.442   5.076
 7725SOL    HW124074   5.535   3.484   5.036
 7725SOL    HW224075   5.481   3.378   5.147
 7726SOL     OW24076   2.159   3.287   0.665
 7726SOL    HW124077   2.230   3.315   0.729
 7726SOL    HW224078   2.069   3.300   0.707
 7727SOL     OW24079   5.502   0.541   3.324
 7727SOL    HW124080   5.544   0.528   3.414
 7727SOL    HW224081   5.490   0.639   3.307
 7728SOL     OW24082   2.165   3.050   5.493
 7728SOL    HW124083   2.228   3.094   5.429
 7728SOL    HW224084   2.071   3.061   5.460
 7729SOL     OW24085   6.956   1.166   2.652
 7729SOL    HW124086   7.015   1.226   2.597
 7729SOL    HW224087   7.010   1.088   2.684
 7730SOL     OW24088   6.166   3.519   6.535
 7730SOL    HW124089   6.162   3.505   6.436
 7730SOL    HW224090   6.223   3.599   6.555
 7731SOL     OW24091   6.924   0.580   6.192
 7731SOL    HW124092   6.876   0.515   6.252
 7731SOL    HW224093   6.925   0.670   6.235
 7732SOL     OW24094   4.262   1.339   0.112
 7732SOL    HW124095   4.275   1.437   0.096
 7732SOL    HW224096   4.260   1.291   0.024
 7733SOL     OW24097   5.779   6.397   1.548
 7733SOL    HW124098   5.746   6.417   1.640
 7733SOL    HW224099   5.865   6.347   1.553
 7734SOL     OW24100   4.127   3.524   3.495
 7734SOL    HW124101   4.119   3.480   3.585
 7734SOL    HW224102   4.152   3.620   3.508
 7735SOL     OW24103   0.930   5.896   0.853
 7735SOL    HW124104   0.832   5.905   0.837
 7735SOL    HW224105   0.946   5.883   0.951
 7736SOL     OW24106   1.824   1.362   0.981
 7736SOL    HW124107   1.820   1.273   0.936
 7736SOL    HW224108   1.734   1.404   0.981
 7737SOL     OW24109   4.372   4.637   6.508
 7737SOL    HW124110   4.341   4.543   6.497
 7737SOL    HW224111   4.421   4.647   6.595
 7738SOL     OW24112   1.299   0.992   5.300
 7738SOL    HW124113   1.255   1.036   5.378
 7738SOL    HW224114   1.386   0.952   5.329
 7739SOL     OW24115   0.909   3.148   6.404
 7739SOL    HW124116   0.854   3.074   6.366
 7739SOL    HW224117   0.982   3.172   6.340
 7740SOL     OW24118   2.330   0.777   4.084
 7740SOL    HW124119   2.287   0.750   3.997
 7740SOL    HW224120   2.325   0.876   4.094
 7741SOL     OW24121   6.543   4.406   6.391
 7741SOL    HW124122   6.589   4.424   6.477
 7741SOL    HW224123   6.555   4.484   6.330
 7742SOL     OW24124   4.857   2.466   3.767
 7742SOL    HW124125   4.805   2.409   3.704
 7742SOL    HW224126   4.869   2.557   3.727
 7743SOL     OW24127   3.542   1.037   6.198
 7743SOL    HW124128   3.633   0.996   6.191
 7743SOL    HW224129   3.497   1.036   6.109
 7744SOL     OW24130   0.264   6.251   4.634
 7744SOL    HW124131   0.192   6.186   4.609
 7744SOL    HW224132   0.223   6.333   4.673
 7745SOL     OW24133   2.828   0.096   0.326
 7745SOL    HW124134   2.732   0.112   0.302
 7745SOL    HW224135   2.833   0.047   0.413
 7746SOL     OW24136   7.006   6.169   0.776
 7746SOL    HW124137   6.995   6.099   0.705
 7746SOL    HW224138   0.068   6.225   0.754
 7747SOL     OW24139   0.088   6.092   1.290
 7747SOL    HW124140   0.085   6.092   1.190
 7747SOL    HW224141   0.037   6.170   1.324
 7748SOL     OW24142   4.604   0.844   6.248
 7748SOL    HW124143   4.561   0.909   6.185
 7748SOL    HW224144   4.679   0.890   6.297
 7749SOL     OW24145   3.005   3.854   2.571
 7749SOL    HW124146   3.069   3.861   2.648
 7749SOL    HW224147   2.967   3.762   2.568
 7750SOL     OW24148   5.358   4.315   6.224
 7750SOL    HW124149   5.302   4.350   6.299
 7750SOL    HW224150   5.410   4.236   6.255
 7751SOL     OW24151   0.428   1.423   4.997
 7751SOL    HW124152   0.332   1.430   4.970
 7751SOL    HW224153   0.434   1.426   5.097
 7752SOL     OW24154   5.621   4.257   5.976
 7752SOL    HW124155   5.652   4.255   6.071
 7752SOL    HW224156   5.541   4.199   5.966
 7753SOL     OW24157   2.841   0.782   4.989
 7753SOL    HW124158   2.814   0.873   4.960
 7753SOL    HW224159   2.829   0.773   5.088
 7754SOL     OW24160   6.297   1.189   0.873
 7754SOL    HW124161   6.374   1.192   0.810
 7754SOL    HW224162   6.312   1.116   0.940
 7755SOL     OW24163   1.694   6.068   5.361
 7755SOL    HW124164   1.646   6.125   5.427
 7755SOL    HW224165   1.793   6.073   5.377
 7756SOL     OW24166   4.014   6.658   2.959
 7756SOL    HW124167   4.019   6.575   2.903
 7756SOL    HW224168   3.975   6.635   3.048
 7757SOL     OW24169   3.248   1.095   5.629
 7757SOL    HW124170   3.231   1.173   5.689
 7757SOL    HW224171   3.322   1.040   5.667
 7758SOL     OW24172   2.420   1.870   6.640
 7758SOL    HW124173   2.413   1.775   6.669
 7758SOL    HW224174   2.332   1.900   6.602
 7759SOL     OW24175   2.302   0.774   4.860
 7759SOL    HW124176   2.266   0.860   4.897
 7759SOL    HW224177   2.296   0.777   4.760
 7760SOL     OW24178   5.318   2.005   2.909
 7760SOL    HW124179   5.275   1.941   2.973
 7760SOL    HW224180   5.248   2.042   2.847
 7761SOL     OW24181   4.637   1.100   6.921
 7761SOL    HW124182   4.605   1.093   7.015
 7761SOL    HW224183   4.628   1.194   6.889
 7762SOL     OW24184   1.447   2.446   0.655
 7762SOL    HW124185   1.415   2.541   0.645
 7762SOL    HW224186   1.432   2.416   0.749
 7763SOL     OW24187   2.460   2.847   0.973
 7763SOL    HW124188   2.391   2.899   1.023
 7763SOL    HW224189   2.418   2.766   0.933
 7764SOL     OW24190   3.514   3.255   2.047
 7764SOL    HW124191   3.455   3.335   2.043
 7764SOL    HW224192   3.493   3.202   2.130
 7765SOL     OW24193   6.853   1.590   1.957
 7765SOL    HW124194   6.803   1.515   2.000
 7765SOL    HW224195   6.935   1.611   2.011
 7766SOL     OW24196   6.883   2.588   6.823
 7766SOL    HW124197   6.797   2.560   6.781
 7766SOL    HW224198   6.932   2.648   6.759
 7767SOL     OW24199   6.074   3.883   5.127
 7767SOL    HW124200   6.108   3.859   5.218
 7767SOL    HW224201   6.101   3.976   5.105
 7768SOL     OW24202   3.809   5.544   1.671
 7768SOL    HW124203   3.836   5.535   1.575
 7768SOL    HW224204   3.774   5.636   1.687
 7769SOL     OW24205   4.795   1.918   3.273
 7769SOL    HW124206   4.847   1.873   3.200
 7769SOL    HW224207   4.721   1.858   3.303
 7770SOL     OW24208   3.475   6.595   1.202
 7770SOL    HW124209   3.440   6.503   1.192
 7770SOL    HW224210   3.400   6.658   1.221
 7771SOL     OW24211   2.334   1.037   4.151
 7771SOL    HW124212   2.332   1.042   4.251
 7771SOL    HW224213   2.298   1.122   4.113
 7772SOL     OW24214   5.432   0.488   5.333
 7772SOL    HW124215   5.350   0.432   5.319
 7772SOL    HW224216   5.462   0.481   5.428
 7773SOL     OW24217   4.246   4.590   5.780
 7773SOL    HW124218   4.207   4.511   5.828
 7773SOL    HW224219   4.173   4.642   5.736
 7774SOL     OW24220   4.623   1.714   0.164
 7774SOL    HW124221   4.669   1.803   0.160
 7774SOL    HW224222   4.527   1.725   0.137
 7775SOL     OW24223   1.585   6.562   2.127
 7775SOL    HW124224   1.576   6.475   2.175
 7775SOL    HW224225   1.621   6.547   2.035
 7776SOL     OW24226   3.097   4.821   0.671
 7776SOL    HW124227   3.005   4.829   0.710
 7776SOL    HW224228   3.146   4.748   0.719
 7777SOL     OW24229   0.557   0.371   6.807
 7777SOL    HW124230   0.486   0.314   6.767
 7777SOL    HW224231   0.515   0.446   6.858
 7778SOL     OW24232   4.967   2.282   2.093
 7778SOL    HW124233   4.961   2.206   2.028
 7778SOL    HW224234   4.945   2.367   2.046
 7779SOL     OW24235   4.315   3.043   0.467
 7779SOL    HW124236   4.385   3.061   0.536
 7779SOL    HW224237   4.227   3.076   0.500
 7780SOL     OW24238   1.177   0.513   3.929
 7780SOL    HW124239   1.192   0.433   3.871
 7780SOL    HW224240   1.124   0.486   4.010
 7781SOL     OW24241   1.920   4.103   5.809
 7781SOL    HW124242   1.860   4.108   5.730
 7781SOL    HW224243   2.014   4.083   5.779
 7782SOL     OW24244   4.662   4.811   0.567
 7782SOL    HW124245   4.718   4.810   0.483
 7782SOL    HW224246   4.618   4.722   0.579
 7783SOL     OW24247   3.444   6.021   6.698
 7783SOL    HW124248   3.462   5.989   6.605
 7783SOL    HW224249   3.492   6.107   6.714
 7784SOL     OW24250   6.080   3.592   0.280
 7784SOL    HW124251   5.991   3.601   0.326
 7784SOL    HW224252   6.080   3.647   0.197
 7785SOL     OW24253   1.415   6.456   6.161
 7785SOL    HW124254   1.459   6.409   6.237
 7785SOL    HW224255   1.405   6.553   6.183
 7786SOL     OW24256   3.725   4.393   5.242
 7786SOL    HW124257   3.814   4.351   5.225
 7786SOL    HW224258   3.653   4.334   5.205
 7787SOL     OW24259   3.505   2.020   5.290
 7787SOL    HW124260   3.445   2.061   5.221
 7787SOL    HW224261   3.566   2.090   5.327
 7788SOL     OW24262   6.800   2.513   1.046
 7788SOL    HW124263   6.760   2.598   1.011
 7788SOL    HW224264   6.778   2.438   0.983
 7789SOL     OW24265   1.123   0.350   1.997
 7789SOL    HW124266   1.181   0.279   2.035
 7789SOL    HW224267   1.035   0.311   1.968
 7790SOL     OW24268   0.138   3.653   2.354
 7790SOL    HW124269   0.100   3.626   2.442
 7790SOL    HW224270   0.072   3.710   2.305
 7791SOL     OW24271   6.566   5.611   5.521
 7791SOL    HW124272   6.567   5.564   5.433
 7791SOL    HW224273   6.658   5.610   5.560
 7792SOL     OW24274   2.069   5.848   5.901
 7792SOL    HW124275   2.018   5.768   5.871
 7792SOL    HW224276   2.010   5.905   5.959
 7793SOL     OW24277   2.371   0.905   6.755
 7793SOL    HW124278   2.275   0.910   6.783
 7793SOL    HW224279   2.408   0.998   6.749
 7794SOL     OW24280   5.023   4.793   2.737
 7794SOL    HW124281   5.068   4.718   2.785
 7794SOL    HW224282   4.956   4.836   2.798
 7795SOL     OW24283   1.407   4.222   6.518
 7795SOL    HW124284   1.470   4.152   6.483
 7795SOL    HW224285   1.342   4.247   6.446
 7796SOL     OW24286   4.000   3.301   4.608
 7796SOL    HW124287   3.925   3.366   4.619
 7796SOL    HW224288   3.984   3.222   4.666
 7797SOL     OW24289   1.004   6.076   3.884
 7797SOL    HW124290   0.956   6.162   3.903
 7797SOL    HW224291   0.990   6.050   3.789
 7798SOL     OW24292   4.364   5.510   6.054
 7798SOL    HW124293   4.350   5.473   6.146
 7798SOL    HW224294   4.316   5.453   5.987
 7799SOL     OW24295   6.196   5.768   1.807
 7799SOL    HW124296   6.231   5.697   1.869
 7799SOL    HW224297   6.268   5.796   1.744
 7800SOL     OW24298   0.653   5.949   1.928
 7800SOL    HW124299   0.721   5.908   1.989
 7800SOL    HW224300   0.603   6.020   1.977
 7801SOL     OW24301   4.491   2.288   5.379
 7801SOL    HW124302   4.447   2.299   5.468
 7801SOL    HW224303   4.492   2.191   5.354
 7802SOL     OW24304   5.513   2.463   6.576
 7802SOL    HW124305   5.453   2.543   6.574
 7802SOL    HW224306   5.528   2.430   6.483
 7803SOL     OW24307   3.069   3.539   5.953
 7803SOL    HW124308   3.000   3.489   5.901
 7803SOL    HW224309   3.148   3.479   5.969
 7804SOL     OW24310   5.205   1.078   5.872
 7804SOL    HW124311   5.296   1.039   5.882
 7804SOL    HW224312   5.208   1.176   5.892
 7805SOL     OW24313   5.767   3.085   1.424
 7805SOL    HW124314   5.794   3.022   1.351
 7805SOL    HW224315   5.723   3.033   1.498
 7806SOL     OW24316   5.103   2.730   0.307
 7806SOL    HW124317   5.196   2.750   0.337
 7806SOL    HW224318   5.101   2.721   0.207
 7807SOL     OW24319   0.668   3.837   0.049
 7807SOL    HW124320   0.623   3.847   6.979
 7807SOL    HW224321   0.764   3.862   0.041
 7808SOL     OW24322   0.108   1.478   4.946
 7808SOL    HW124323   0.044   1.553   4.928
 7808SOL    HW224324   0.057   1.398   4.978
 7809SOL     OW24325   1.119   5.480   5.746
 7809SOL    HW124326   1.049   5.548   5.723
 7809SOL    HW224327   1.199   5.527   5.783
 7810SOL     OW24328   3.119   1.092   6.650
 7810SOL    HW124329   3.059   1.017   6.678
 7810SOL    HW224330   3.106   1.112   6.553
 7811SOL     OW24331   6.161   4.793   5.242
 7811SOL    HW124332   6.251   4.793   5.286
 7811SOL    HW224333   6.170   4.754   5.150
 7812SOL     OW24334   0.713   2.064   3.753
 7812SOL    HW124335   0.628   2.053   3.805
 7812SOL    HW224336   0.747   2.157   3.765
 7813SOL     OW24337   5.908   1.463   1.179
 7813SOL    HW124338   5.887   1.474   1.082
 7813SOL    HW224339   5.997   1.505   1.198
 7814SOL     OW24340   2.060   2.922   4.090
 7814SOL    HW124341   2.097   2.938   4.181
 7814SOL    HW224342   2.025   2.828   4.085
 7815SOL     OW24343   6.864   2.165   5.358
 7815SOL    HW124344   6.939   2.220   5.393
 7815SOL    HW224345   6.887   2.068   5.364
 7816SOL     OW24346   0.322   4.391   5.119
 7816SOL    HW124347   0.286   4.480   5.093
 7816SOL    HW224348   0.247   4.325   5.123
 7817SOL     OW24349   5.731   3.026   5.547
 7817SOL    HW124350   5.706   2.931   5.529
 7817SOL    HW224351   5.806   3.029   5.614
 7818SOL     OW24352   6.019   3.151   3.809
 7818SOL    HW124353   5.935   3.153   3.754
 7818SOL    HW224354   6.092   3.107   3.757
 7819SOL     OW24355   1.172   0.914   0.934
 7819SOL    HW124356   1.170   0.920   1.033
 7819SOL    HW224357   1.206   1.000   0.896
 7820SOL     OW24358   2.962   6.842   6.067
 7820SOL    HW124359   2.875   6.806   6.101
 7820SOL    HW224360   2.994   6.786   5.990
 7821SOL     OW24361   3.316   6.331   1.151
 7821SOL    HW124362   3.267   6.395   1.211
 7821SOL    HW224363   3.286   6.237   1.173
 7822SOL     OW24364   1.151   6.672   4.932
 7822SOL    HW124365   1.229   6.722   4.967
 7822SOL    HW224366   1.075   6.735   4.915
 7823SOL     OW24367   1.890   3.373   5.505
 7823SOL    HW124368   1.982   3.389   5.540
 7823SOL    HW224369   1.826   3.364   5.582
 7824SOL     OW24370   0.683   3.203   5.498
 7824SOL    HW124371   0.737   3.287   5.505
 7824SOL    HW224372   0.744   3.125   5.488
 7825SOL     OW24373   2.706   1.020   0.250
 7825SOL    HW124374   2.769   0.949   0.281
 7825SOL    HW224375   2.633   1.031   0.318
 7826SOL     OW24376   0.871   3.980   5.954
 7826SOL    HW124377   0.771   3.977   5.958
 7826SOL    HW224378   0.903   3.917   5.883
 7827SOL     OW24379   6.359   5.120   3.765
 7827SOL    HW124380   6.278   5.162   3.724
 7827SOL    HW224381   6.402   5.059   3.698
 7828SOL     OW24382   0.896   6.218   5.996
 7828SOL    HW124383   0.961   6.220   6.072
 7828SOL    HW224384   0.803   6.209   6.032
 7829SOL     OW24385   4.704   5.013   0.764
 7829SOL    HW124386   4.611   5.022   0.801
 7829SOL    HW224387   4.706   4.941   0.695
 7830SOL     OW24388   1.625   5.204   4.654
 7830SOL    HW124389   1.616   5.243   4.562
 7830SOL    HW224390   1.692   5.257   4.706
 7831SOL     OW24391   1.957   0.544   6.444
 7831SOL    HW124392   1.866   0.586   6.453
 7831SOL    HW224393   2.015   0.576   6.519
 7832SOL     OW24394   0.198   1.304   5.267
 7832SOL    HW124395   0.139   1.285   5.188
 7832SOL    HW224396   0.238   1.219   5.300
 7833SOL     OW24397   0.780   0.184   2.977
 7833SOL    HW124398   0.830   0.268   2.956
 7833SOL    HW224399   0.697   0.207   3.027
 7834SOL     OW24400   0.092   3.362   5.412
 7834SOL    HW124401   0.093   3.390   5.316
 7834SOL    HW224402   0.033   3.423   5.464
 7835SOL     OW24403   3.229   2.408   5.567
 7835SOL    HW124404   3.303   2.427   5.632
 7835SOL    HW224405   3.203   2.312   5.572
 7836SOL     OW24406   3.105   3.652   4.941
 7836SOL    HW124407   3.116   3.689   4.849
 7836SOL    HW224408   3.195   3.643   4.984
 7837SOL     OW24409   0.843   5.831   6.838
 7837SOL    HW124410   0.877   5.738   6.823
 7837SOL    HW224411   0.794   5.834   6.926
 7838SOL     OW24412   4.372   5.088   1.492
 7838SOL    HW124413   4.297   5.027   1.517
 7838SOL    HW224414   4.454   5.034   1.471
 7839SOL     OW24415   6.226   3.571   5.035
 7839SOL    HW124416   6.149   3.633   5.024
 7839SOL    HW224417   6.197   3.478   5.014
 7840SOL     OW24418   2.439   2.417   3.210
 7840SOL    HW124419   2.389   2.381   3.288
 7840SOL    HW224420   2.402   2.507   3.185
 7841SOL     OW24421   4.591   1.815   5.554
 7841SOL    HW124422   4.515   1.770   5.600
 7841SOL    HW224423   4.625   1.889   5.612
 7842SOL     OW24424   0.846   0.167   0.992
 7842SOL    HW124425   0.917   0.236   0.992
 7842SOL    HW224426   0.854   0.110   0.910
 7843SOL     OW24427   6.558   6.234   1.852
 7843SOL    HW124428   6.545   6.282   1.939
 7843SOL    HW224429   6.471   6.232   1.802
 7844SOL     OW24430   3.893   6.957   2.308
 7844SOL    HW124431   3.818   6.919   2.363
 7844SOL    HW224432   3.856   0.002   2.241
 7845SOL     OW24433   6.645   3.296   1.705
 7845SOL    HW124434   6.586   3.246   1.641
 7845SOL    HW224435   6.652   3.391   1.676
 7846SOL     OW24436   0.868   1.749   0.274
 7846SOL    HW124437   0.912   1.671   0.319
 7846SOL    HW224438   0.857   1.824   0.339
 7847SOL     OW24439   5.516   3.769   5.941
 7847SOL    HW124440   5.564   3.703   5.999
 7847SOL    HW224441   5.505   3.730   5.849
 7848SOL     OW24442   4.332   4.986   0.637
 7848SOL    HW124443   4.301   5.081   0.634
 7848SOL    HW224444   4.370   4.965   0.727
 7849SOL     OW24445   4.367   4.990   6.985
 7849SOL    HW124446   4.377   4.978   6.886
 7849SOL    HW224447   4.405   5.078   7.012
 7850SOL     OW24448   6.707   0.935   3.431
 7850SOL    HW124449   6.755   0.962   3.514
 7850SOL    HW224450   6.615   0.974   3.432
 7851SOL     OW24451   0.593   4.612   0.467
 7851SOL    HW124452   0.540   4.608   0.551
 7851SOL    HW224453   0.613   4.707   0.444
 7852SOL     OW24454   1.237   3.465   5.580
 7852SOL    HW124455   1.272   3.450   5.487
 7852SOL    HW224456   1.274   3.396   5.641
 7853SOL     OW24457   4.441   2.867   1.687
 7853SOL    HW124458   4.508   2.911   1.747
 7853SOL    HW224459   4.349   2.895   1.714
 7854SOL     OW24460   4.277   1.187   0.978
 7854SOL    HW124461   4.298   1.124   0.903
 7854SOL    HW224462   4.276   1.281   0.944
 7855SOL     OW24463   4.997   6.377   3.638
 7855SOL    HW124464   5.029   6.381   3.544
 7855SOL    HW224465   4.966   6.284   3.658
 7856SOL     OW24466   2.262   6.355   6.437
 7856SOL    HW124467   2.196   6.320   6.503
 7856SOL    HW224468   2.220   6.360   6.347
 7857SOL     OW24469   6.955   5.189   0.374
 7857SOL    HW124470   6.996   5.178   0.465
 7857SOL    HW224471   6.981   5.112   0.316
 7858SOL     OW24472   0.411   4.019   6.455
 7858SOL    HW124473   0.428   3.953   6.383
 7858SOL    HW224474   0.313   4.039   6.460
 7859SOL     OW24475   5.033   1.995   1.596
 7859SOL    HW124476   5.006   2.081   1.552
 7859SOL    HW224477   4.964   1.970   1.664
 7860SOL     OW24478   2.898   1.837   3.043
 7860SOL    HW124479   2.853   1.926   3.051
 7860SOL    HW224480   2.980   1.847   2.986
 7861SOL     OW24481   1.864   5.704   0.831
 7861SOL    HW124482   1.946   5.744   0.791
 7861SOL    HW224483   1.859   5.729   0.928
 7862SOL     OW24484   1.222   6.519   6.560
 7862SOL    HW124485   1.208   6.442   6.622
 7862SOL    HW224486   1.314   6.555   6.571
 7863SOL     OW24487   0.322   4.334   3.673
 7863SOL    HW124488   0.412   4.298   3.699
 7863SOL    HW224489   0.317   4.431   3.697
 7864SOL     OW24490   3.304   5.466   5.061
 7864SOL    HW124491   3.316   5.470   4.962
 7864SOL    HW224492   3.333   5.376   5.095
 7865SOL     OW24493   6.283   5.426   3.506
 7865SOL    HW124494   6.380   5.407   3.517
 7865SOL    HW224495   6.256   5.411   3.411
 7866SOL     OW24496   0.735   1.186   5.405
 7866SOL    HW124497   0.753   1.162   5.310
 7866SOL    HW224498   0.647   1.232   5.412
 7867SOL     OW24499   4.368   5.616   2.763
 7867SOL    HW124500   4.447   5.555   2.762
 7867SOL    HW224501   4.291   5.572   2.716
 7868SOL     OW24502   4.207   6.175   1.542
 7868SOL    HW124503   4.152   6.194   1.460
 7868SOL    HW224504   4.300   6.208   1.528
 7869SOL     OW24505   5.697   5.120   7.014
 7869SOL    HW124506   5.627   5.062   0.038
 7869SOL    HW224507   5.769   5.140   0.062
 7870SOL     OW24508   6.444   0.370   3.523
 7870SOL    HW124509   6.397   0.436   3.465
 7870SOL    HW224510   6.390   0.285   3.527
 7871SOL     OW24511   4.434   0.715   0.431
 7871SOL    HW124512   4.372   0.637   0.416
 7871SOL    HW224513   4.517   0.683   0.476
 7872SOL     OW24514   6.616   4.703   4.233
 7872SOL    HW124515   6.690   4.735   4.174
 7872SOL    HW224516   6.654   4.676   4.322
 7873SOL     OW24517   4.813   2.305   6.782
 7873SOL    HW124518   4.782   2.391   6.823
 7873SOL    HW224519   4.806   2.232   6.850
 7874SOL     OW24520   6.412   2.352   0.142
 7874SOL    HW124521   6.396   2.447   0.114
 7874SOL    HW224522   6.378   2.339   0.235
 7875SOL     OW24523   0.059   5.077   6.672
 7875SOL    HW124524   0.079   5.030   6.758
 7875SOL    HW224525   6.992   5.040   6.634
 7876SOL     OW24526   1.199   6.668   2.835
 7876SOL    HW124527   1.217   6.695   2.930
 7876SOL    HW224528   1.106   6.633   2.828
 7877SOL     OW24529   1.058   3.022   1.753
 7877SOL    HW124530   1.028   2.927   1.765
 7877SOL    HW224531   1.071   3.041   1.656
 7878SOL     OW24532   3.841   0.332   2.453
 7878SOL    HW124533   3.854   0.347   2.551
 7878SOL    HW224534   3.754   0.285   2.438
 7879SOL     OW24535   2.728   5.638   1.669
 7879SOL    HW124536   2.651   5.650   1.606
 7879SOL    HW224537   2.752   5.541   1.673
 7880SOL     OW24538   1.275   4.722   2.469
 7880SOL    HW124539   1.207   4.696   2.401
 7880SOL    HW224540   1.259   4.817   2.497
 7881SOL     OW24541   4.673   2.670   2.828
 7881SOL    HW124542   4.772   2.688   2.829
 7881SOL    HW224543   4.636   2.679   2.920
 7882SOL     OW24544   0.171   2.217   6.912
 7882SOL    HW124545   0.227   2.297   6.891
 7882SOL    HW224546   0.219   2.160   6.979
 7883SOL     OW24547   0.364   6.890   4.814
 7883SOL    HW124548   0.407   6.814   4.864
 7883SOL    HW224549   0.268   6.869   4.798
 7884SOL     OW24550   1.566   2.844   4.022
 7884SOL    HW124551   1.573   2.941   4.042
 7884SOL    HW224552   1.470   2.821   4.002
 7885SOL     OW24553   6.766   6.014   6.910
 7885SOL    HW124554   6.741   5.923   6.874
 7885SOL    HW224555   6.714   6.084   6.861
 7886SOL     OW24556   4.952   4.317   0.261
 7886SOL    HW124557   4.983   4.270   0.343
 7886SOL    HW224558   4.942   4.415   0.280
 7887SOL     OW24559   4.352   2.001   6.674
 7887SOL    HW124560   4.419   1.931   6.700
 7887SOL    HW224561   4.398   2.089   6.664
 7888SOL     OW24562   4.041   5.481   4.016
 7888SOL    HW124563   4.084   5.446   4.099
 7888SOL    HW224564   4.109   5.527   3.959
 7889SOL     OW24565   6.253   4.440   3.867
 7889SOL    HW124566   6.245   4.470   3.962
 7889SOL    HW224567   6.236   4.517   3.806
 7890SOL     OW24568   2.126   3.735   2.944
 7890SOL    HW124569   2.028   3.754   2.943
 7890SOL    HW224570   2.177   3.820   2.925
 7891SOL     OW24571   0.176   4.254   2.959
 7891SOL    HW124572   0.144   4.348   2.950
 7891SOL    HW224573   0.193   4.216   2.868
 7892SOL     OW24574   2.258   2.341   4.695
 7892SOL    HW124575   2.322   2.382   4.760
 7892SOL    HW224576   2.301   2.262   4.652
 7893SOL     OW24577   5.189   6.542   1.332
 7893SOL    HW124578   5.130   6.467   1.303
 7893SOL    HW224579   5.278   6.534   1.288
 7894SOL     OW24580   2.857   0.139   1.281
 7894SOL    HW124581   2.927   0.204   1.310
 7894SOL    HW224582   2.876   0.108   1.188
 7895SOL     OW24583   0.962   1.425   4.107
 7895SOL    HW124584   0.890   1.470   4.161
 7895SOL    HW224585   0.926   1.400   4.017
 7896SOL     OW24586   3.740   2.659   6.432
 7896SOL    HW124587   3.666   2.692   6.374
 7896SOL    HW224588   3.827   2.671   6.384
 7897SOL     OW24589   2.842   3.353   0.573
 7897SOL    HW124590   2.766   3.317   0.628
 7897SOL    HW224591   2.881   3.281   0.517
 7898SOL     OW24592   5.126   1.013   4.375
 7898SOL    HW124593   5.085   1.027   4.285
 7898SOL    HW224594   5.122   1.098   4.427
 7899SOL     OW24595   4.765   0.846   1.598
 7899SOL    HW124596   4.683   0.788   1.596
 7899SOL    HW224597   4.738   0.942   1.599
 7900SOL     OW24598   0.356   6.001   1.237
 7900SOL    HW124599   0.259   6.013   1.261
 7900SOL    HW224600   0.413   6.047   1.305
 7901SOL     OW24601   6.166   4.907   1.063
 7901SOL    HW124602   6.258   4.870   1.054
 7901SOL    HW224603   6.101   4.845   1.019
 7902SOL     OW24604   4.787   5.036   6.171
 7902SOL    HW124605   4.692   5.046   6.145
 7902SOL    HW224606   4.844   5.031   6.089
 7903SOL     OW24607   0.459   2.701   1.899
 7903SOL    HW124608   0.418   2.646   1.826
 7903SOL    HW224609   0.433   2.797   1.887
 7904SOL     OW24610   5.446   2.259   2.990
 7904SOL    HW124611   5.535   2.249   3.034
 7904SOL    HW224612   5.407   2.168   2.972
 7905SOL     OW24613   2.208   1.724   1.977
 7905SOL    HW124614   2.243   1.779   2.053
 7905SOL    HW224615   2.178   1.785   1.904
 7906SOL     OW24616   1.482   4.603   6.928
 7906SOL    HW124617   1.517   4.526   6.874
 7906SOL    HW224618   1.416   4.655   6.874
 7907SOL     OW24619   0.784   2.812   2.446
 7907SOL    HW124620   0.746   2.899   2.415
 7907SOL    HW224621   0.836   2.770   2.371
 7908SOL     OW24622   0.460   1.792   3.041
 7908SOL    HW124623   0.545   1.841   3.062
 7908SOL    HW224624   0.481   1.711   2.985
 7909SOL     OW24625   4.314   6.561   5.340
 7909SOL    HW124626   4.245   6.633   5.334
 7909SOL    HW224627   4.396   6.589   5.291
 7910SOL     OW24628   6.258   3.210   6.285
 7910SOL    HW124629   6.201   3.177   6.360
 7910SOL    HW224630   6.348   3.168   6.291
 7911SOL     OW24631   6.991   5.996   6.173
 7911SOL    HW124632   6.923   5.983   6.246
 7911SOL    HW224633   6.947   6.041   6.095
 7912SOL     OW24634   0.246   5.613   4.867
 7912SOL    HW124635   0.298   5.560   4.799
 7912SOL    HW224636   0.154   5.629   4.833
 7913SOL     OW24637   1.869   6.159   6.462
 7913SOL    HW124638   1.853   6.064   6.435
 7913SOL    HW224639   1.891   6.213   6.380
 7914SOL     OW24640   5.799   4.670   0.640
 7914SOL    HW124641   5.854   4.752   0.648
 7914SOL    HW224642   5.856   4.593   0.613
 7915SOL     OW24643   3.077   1.405   2.901
 7915SOL    HW124644   3.030   1.487   2.867
 7915SOL    HW224645   3.044   1.325   2.852
 7916SOL     OW24646   4.224   3.602   5.004
 7916SOL    HW124647   4.319   3.618   4.979
 7916SOL    HW224648   4.192   3.677   5.062
 7917SOL     OW24649   3.819   4.001   3.791
 7917SOL    HW124650   3.757   3.924   3.808
 7917SOL    HW224651   3.802   4.073   3.858
 7918SOL     OW24652   6.013   2.260   2.024
 7918SOL    HW124653   6.048   2.182   2.076
 7918SOL    HW224654   5.997   2.233   1.929
 7919SOL     OW24655   5.486   3.787   2.434
 7919SOL    HW124656   5.455   3.817   2.524
 7919SOL    HW224657   5.506   3.866   2.377
 7920SOL     OW24658   6.898   6.535   0.906
 7920SOL    HW124659   6.888   6.519   0.808
 7920SOL    HW224660   6.841   6.469   0.957
 7921SOL     OW24661   3.486   4.944   2.417
 7921SOL    HW124662   3.389   4.922   2.408
 7921SOL    HW224663   3.497   5.044   2.421
 7922SOL     OW24664   1.339   3.944   4.632
 7922SOL    HW124665   1.419   3.995   4.599
 7922SOL    HW224666   1.292   3.903   4.555
 7923SOL     OW24667   1.523   2.588   3.177
 7923SOL    HW124668   1.531   2.669   3.235
 7923SOL    HW224669   1.599   2.526   3.195
 7924SOL     OW24670   2.624   1.531   3.536
 7924SOL    HW124671   2.579   1.447   3.565
 7924SOL    HW224672   2.560   1.607   3.543
 7925SOL     OW24673   1.432   1.101   0.376
 7925SOL    HW124674   1.503   1.072   0.440
 7925SOL    HW224675   1.426   1.200   0.375
 7926SOL     OW24676   3.350   0.752   1.541
 7926SOL    HW124677   3.254   0.767   1.517
 7926SOL    HW224678   3.372   0.800   1.626
 7927SOL     OW24679   4.432   5.408   4.795
 7927SOL    HW124680   4.421   5.319   4.841
 7927SOL    HW224681   4.504   5.460   4.841
 7928SOL     OW24682   0.361   3.822   0.438
 7928SOL    HW124683   0.369   3.731   0.478
 7928SOL    HW224684   0.450   3.849   0.400
 7929SOL     OW24685   3.510   4.234   5.146
 7929SOL    HW124686   3.432   4.233   5.208
 7929SOL    HW224687   3.479   4.214   5.053
 7930SOL     OW24688   3.724   0.100   2.179
 7930SOL    HW124689   3.666   0.060   2.108
 7930SOL    HW224690   3.670   0.162   2.236
 7931SOL     OW24691   2.932   3.322   5.766
 7931SOL    HW124692   3.000   3.354   5.700
 7931SOL    HW224693   2.971   3.249   5.821
 7932SOL     OW24694   3.038   1.333   0.482
 7932SOL    HW124695   2.955   1.283   0.507
 7932SOL    HW224696   3.080   1.370   0.565
 7933SOL     OW24697   2.078   1.651   6.089
 7933SOL    HW124698   2.155   1.619   6.033
 7933SOL    HW224699   1.992   1.618   6.050
 7934SOL     OW24700   4.512   2.220   5.818
 7934SOL    HW124701   4.529   2.156   5.893
 7934SOL    HW224702   4.512   2.313   5.853
 7935SOL     OW24703   4.615   5.622   2.366
 7935SOL    HW124704   4.526   5.640   2.323
 7935SOL    HW224705   4.604   5.554   2.438
 7936SOL     OW24706   4.075   5.928   1.983
 7936SOL    HW124707   4.163   5.900   2.023
 7936SOL    HW224708   4.028   5.848   1.947
 7937SOL     OW24709   5.722   1.823   6.356
 7937SOL    HW124710   5.692   1.864   6.270
 7937SOL    HW224711   5.817   1.847   6.375
 7938SOL     OW24712   6.417   4.924   4.281
 7938SOL    HW124713   6.332   4.931   4.229
 7938SOL    HW224714   6.472   4.848   4.246
 7939SOL     OW24715   6.731   6.183   3.567
 7939SOL    HW124716   6.779   6.095   3.564
 7939SOL    HW224717   6.664   6.187   3.493
 7940SOL     OW24718   1.798   6.183   0.626
 7940SOL    HW124719   1.874   6.152   0.569
 7940SOL    HW224720   1.827   6.187   0.722
 7941SOL     OW24721   1.047   0.536   0.775
 7941SOL    HW124722   1.142   0.559   0.792
 7941SOL    HW224723   0.994   0.619   0.761
 7942SOL     OW24724   0.737   6.928   1.656
 7942SOL    HW124725   0.682   7.002   1.616
 7942SOL    HW224726   0.783   6.962   1.739
 7943SOL     OW24727   6.111   1.710   6.461
 7943SOL    HW124728   6.032   1.655   6.490
 7943SOL    HW224729   6.079   1.798   6.426
 7944SOL     OW24730   0.103   4.447   2.259
 7944SOL    HW124731   0.097   4.546   2.255
 7944SOL    HW224732   0.014   4.407   2.236
 7945SOL     OW24733   5.694   6.447   0.691
 7945SOL    HW124734   5.762   6.472   0.621
 7945SOL    HW224735   5.610   6.416   0.646
 7946SOL     OW24736   2.125   1.745   5.421
 7946SOL    HW124737   2.095   1.650   5.410
 7946SOL    HW224738   2.078   1.803   5.354
 7947SOL     OW24739   4.207   5.608   6.453
 7947SOL    HW124740   4.197   5.680   6.521
 7947SOL    HW224741   4.132   5.542   6.462
 7948SOL     OW24742   1.116   5.210   5.096
 7948SOL    HW124743   1.168   5.177   5.176
 7948SOL    HW224744   1.180   5.233   5.023
 7949SOL     OW24745   6.935   3.224   4.553
 7949SOL    HW124746   6.864   3.286   4.585
 7949SOL    HW224747   6.898   3.132   4.544
 7950SOL     OW24748   2.633   5.850   3.389
 7950SOL    HW124749   2.715   5.906   3.388
 7950SOL    HW224750   2.658   5.753   3.378
 7951SOL     OW24751   2.509   3.436   0.585
 7951SOL    HW124752   2.519   3.401   0.492
 7951SOL    HW224753   2.454   3.520   0.584
 7952SOL     OW24754   5.987   4.150   0.661
 7952SOL    HW124755   6.001   4.093   0.741
 7952SOL    HW224756   5.931   4.101   0.594
 7953SOL     OW24757   2.020   4.059   1.520
 7953SOL    HW124758   2.005   3.967   1.558
 7953SOL    HW224759   2.081   4.110   1.581
 7954SOL     OW24760   6.029   5.632   3.936
 7954SOL    HW124761   5.965   5.556   3.935
 7954SOL    HW224762   6.059   5.649   4.030
 7955SOL     OW24763   1.800   6.565   6.247
 7955SOL    HW124764   1.817   6.615   6.161
 7955SOL    HW224765   1.718   6.602   6.291
 7956SOL     OW24766   5.414   5.950   3.207
 7956SOL    HW124767   5.368   5.908   3.286
 7956SOL    HW224768   5.352   5.949   3.128
 7957SOL     OW24769   1.527   3.007   0.704
 7957SOL    HW124770   1.491   2.929   0.653
 7957SOL    HW224771   1.585   3.062   0.644
 7958SOL     OW24772   1.972   5.646   3.387
 7958SOL    HW124773   1.979   5.625   3.289
 7958SOL    HW224774   1.892   5.703   3.403
 7959SOL     OW24775   4.739   5.176   1.696
 7959SOL    HW124776   4.698   5.225   1.619
 7959SOL    HW224777   4.687   5.093   1.715
 7960SOL     OW24778   1.827   2.399   1.289
 7960SOL    HW124779   1.925   2.413   1.277
 7960SOL    HW224780   1.808   2.378   1.385
 7961SOL     OW24781   1.650   6.357   0.336
 7961SOL    HW124782   1.565   6.338   0.288
 7961SOL    HW224783   1.710   6.278   0.331
 7962SOL     OW24784   1.863   6.646   2.733
 7962SOL    HW124785   1.818   6.596   2.660
 7962SOL    HW224786   1.957   6.613   2.744
 7963SOL     OW24787   0.141   6.151   6.346
 7963SOL    HW124788   0.077   6.108   6.282
 7963SOL    HW224789   0.171   6.239   6.310
 7964SOL     OW24790   5.999   5.536   3.347
 7964SOL    HW124791   5.991   5.509   3.251
 7964SOL    HW224792   6.025   5.457   3.401
 7965SOL     OW24793   4.088   1.643   0.956
 7965SOL    HW124794   4.035   1.713   1.003
 7965SOL    HW224795   4.026   1.584   0.904
 7966SOL     OW24796   0.071   1.325   4.518
 7966SOL    HW124797   0.134   1.247   4.524
 7966SOL    HW224798   0.036   1.333   4.425
 7967SOL     OW24799   2.319   0.396   3.857
 7967SOL    HW124800   2.269   0.483   3.851
 7967SOL    HW224801   2.260   0.328   3.900
 7968SOL     OW24802   2.015   0.959   0.723
 7968SOL    HW124803   2.069   0.936   0.641
 7968SOL    HW224804   2.004   0.878   0.780
 7969SOL     OW24805   3.827   1.900   3.308
 7969SOL    HW124806   3.837   1.802   3.324
 7969SOL    HW224807   3.832   1.948   3.396
 7970SOL     OW24808   0.445   4.681   3.077
 7970SOL    HW124809   0.350   4.677   3.108
 7970SOL    HW224810   0.485   4.590   3.082
 7971SOL     OW24811   3.301   2.136   2.422
 7971SOL    HW124812   3.274   2.230   2.399
 7971SOL    HW224813   3.284   2.119   2.519
 7972SOL     OW24814   5.638   5.736   1.387
 7972SOL    HW124815   5.678   5.823   1.361
 7972SOL    HW224816   5.582   5.748   1.469
 7973SOL     OW24817   5.586   1.961   2.893
 7973SOL    HW124818   5.486   1.963   2.906
 7973SOL    HW224819   5.607   1.954   2.796
 7974SOL     OW24820   4.471   5.777   4.661
 7974SOL    HW124821   4.489   5.720   4.742
 7974SOL    HW224822   4.393   5.740   4.611
 7975SOL     OW24823   1.956   1.313   2.096
 7975SOL    HW124824   1.946   1.407   2.129
 7975SOL    HW224825   2.043   1.276   2.128
 7976SOL     OW24826   0.412   0.079   6.348
 7976SOL    HW124827   0.483   0.013   6.324
 7976SOL    HW224828   0.324   0.032   6.353
 7977SOL     OW24829   5.093   5.868   0.864
 7977SOL    HW124830   5.116   5.940   0.799
 7977SOL    HW224831   5.167   5.858   0.930
 7978SOL     OW24832   3.116   1.674   6.064
 7978SOL    HW124833   3.160   1.725   5.989
 7978SOL    HW224834   3.043   1.729   6.104
 7979SOL     OW24835   4.788   5.660   4.337
 7979SOL    HW124836   4.798   5.561   4.324
 7979SOL    HW224837   4.700   5.689   4.299
 7980SOL     OW24838   3.082   1.060   1.821
 7980SOL    HW124839   3.029   1.064   1.906
 7980SOL    HW224840   3.158   1.125   1.826
 7981SOL     OW24841   0.183   6.335   2.156
 7981SOL    HW124842   0.204   6.432   2.145
 7981SOL    HW224843   0.208   6.305   2.248
 7982SOL     OW24844   0.606   3.306   1.175
 7982SOL    HW124845   0.704   3.296   1.191
 7982SOL    HW224846   0.556   3.275   1.256
 7983SOL     OW24847   5.222   2.173   0.642
 7983SOL    HW124848   5.302   2.218   0.682
 7983SOL    HW224849   5.249   2.084   0.606
 7984SOL     OW24850   6.260   0.879   0.700
 7984SOL    HW124851   6.323   0.872   0.777
 7984SOL    HW224852   6.253   0.791   0.653
 7985SOL     OW24853   1.224   1.165   0.560
 7985SOL    HW124854   1.294   1.141   0.493
 7985SOL    HW224855   1.159   1.089   0.570
 7986SOL     OW24856   5.022   3.734   0.694
 7986SOL    HW124857   4.978   3.814   0.736
 7986SOL    HW224858   4.952   3.665   0.674
 7987SOL     OW24859   1.035   3.624   5.250
 7987SOL    HW124860   1.037   3.720   5.278
 7987SOL    HW224861   0.941   3.590   5.254
 7988SOL     OW24862   2.539   1.174   5.482
 7988SOL    HW124863   2.615   1.214   5.533
 7988SOL    HW224864   2.568   1.088   5.440
 7989SOL     OW24865   3.488   3.719   7.014
 7989SOL    HW124866   3.531   3.684   0.079
 7989SOL    HW224867   3.430   3.797   0.019
 7990SOL     OW24868   2.371   2.734   4.579
 7990SOL    HW124869   2.348   2.659   4.517
 7990SOL    HW224870   2.318   2.726   4.663
 7991SOL     OW24871   2.370   3.109   5.932
 7991SOL    HW124872   2.373   3.009   5.923
 7991SOL    HW224873   2.397   3.151   5.845
 7992SOL     OW24874   2.922   1.502   0.219
 7992SOL    HW124875   3.012   1.543   0.203
 7992SOL    HW224876   2.892   1.524   0.312
 7993SOL     OW24877   2.600   5.387   6.449
 7993SOL    HW124878   2.603   5.338   6.362
 7993SOL    HW224879   2.513   5.437   6.457
 7994SOL     OW24880   5.682   6.739   4.837
 7994SOL    HW124881   5.684   6.639   4.847
 7994SOL    HW224882   5.674   6.763   4.740
 7995SOL     OW24883   4.385   5.039   2.479
 7995SOL    HW124884   4.466   5.038   2.421
 7995SOL    HW224885   4.392   4.966   2.548
 7996SOL     OW24886   4.441   1.456   5.498
 7996SOL    HW124887   4.423   1.521   5.424
 7996SOL    HW224888   4.366   1.390   5.503
 7997SOL     OW24889   5.257   3.079   1.052
 7997SOL    HW124890   5.275   3.166   1.007
 7997SOL    HW224891   5.172   3.086   1.105
 7998SOL     OW24892   6.956   5.384   6.197
 7998SOL    HW124893   0.023   5.422   6.162
 7998SOL    HW224894   6.880   5.444   6.172
 7999SOL     OW24895   2.928   2.642   5.641
 7999SOL    HW124896   2.993   2.580   5.597
 7999SOL    HW224897   2.891   2.599   5.723
 8000SOL     OW24898   5.078   0.426   5.757
 8000SOL    HW124899   5.164   0.442   5.709
 8000SOL    HW224900   5.028   0.512   5.767
 8001SOL     OW24901   2.252   4.923   0.931
 8001SOL    HW124902   2.296   4.996   0.879
 8001SOL    HW224903   2.224   4.957   1.021
 8002SOL     OW24904   4.352   1.939   5.769
 8002SOL    HW124905   4.398   1.941   5.857
 8002SOL    HW224906   4.359   1.847   5.729
 8003SOL     OW24907   4.803   5.272   3.085
 8003SOL    HW124908   4.769   5.288   3.177
 8003SOL    HW224909   4.768   5.342   3.023
 8004SOL     OW24910   1.323   4.738   3.176
 8004SOL    HW124911   1.372   4.746   3.263
 8004SOL    HW224912   1.389   4.725   3.102
 8005SOL     OW24913   2.026   1.109   2.533
 8005SOL    HW124914   2.014   1.084   2.629
 8005SOL    HW224915   2.111   1.159   2.522
 8006SOL     OW24916   4.359   5.695   2.237
 8006SOL    HW124917   4.380   5.645   2.153
 8006SOL    HW224918   4.345   5.791   2.216
 8007SOL     OW24919   0.339   1.011   3.996
 8007SOL    HW124920   0.327   0.938   3.929
 8007SOL    HW224921   0.354   1.098   3.948
 8008SOL     OW24922   5.896   4.979   1.959
 8008SOL    HW124923   5.825   4.912   1.941
 8008SOL    HW224924   5.969   4.937   2.013
 8009SOL     OW24925   6.933   6.273   2.753
 8009SOL    HW124926   6.955   6.244   2.660
 8009SOL    HW224927   6.859   6.341   2.750
 8010SOL     OW24928   2.211   2.099   6.690
 8010SOL    HW124929   2.160   2.015   6.675
 8010SOL    HW224930   2.151   2.178   6.672
 8011SOL     OW24931   2.275   2.938   0.128
 8011SOL    HW124932   2.292   2.892   0.041
 8011SOL    HW224933   2.302   2.878   0.204
 8012SOL     OW24934   2.200   6.275   3.125
 8012SOL    HW124935   2.196   6.351   3.190
 8012SOL    HW224936   2.164   6.192   3.168
 8013SOL     OW24937   6.262   5.273   4.348
 8013SOL    HW124938   6.346   5.274   4.293
 8013SOL    HW224939   6.251   5.183   4.390
 8014SOL     OW24940   2.673   0.485   6.477
 8014SOL    HW124941   2.711   0.577   6.470
 8014SOL    HW224942   2.650   0.452   6.385
 8015SOL     OW24943   1.642   1.816   0.381
 8015SOL    HW124944   1.668   1.750   0.450
 8015SOL    HW224945   1.666   1.782   0.290
 8016SOL     OW24946   3.946   5.724   1.876
 8016SOL    HW124947   3.958   5.734   1.777
 8016SOL    HW224948   3.871   5.661   1.894
 8017SOL     OW24949   6.405   3.565   5.240
 8017SOL    HW124950   6.349   3.582   5.158
 8017SOL    HW224951   6.480   3.503   5.216
 8018SOL     OW24952   4.865   3.009   3.994
 8018SOL    HW124953   4.816   2.925   3.972
 8018SOL    HW224954   4.921   3.036   3.916
 8019SOL     OW24955   3.216   5.341   1.199
 8019SOL    HW124956   3.298   5.357   1.254
 8019SOL    HW224957   3.180   5.429   1.168
 8020SOL     OW24958   5.451   6.735   6.368
 8020SOL    HW124959   5.538   6.750   6.414
 8020SOL    HW224960   5.441   6.638   6.346
 8021SOL     OW24961   6.564   0.985   1.424
 8021SOL    HW124962   6.482   1.038   1.446
 8021SOL    HW224963   6.541   0.888   1.420
 8022SOL     OW24964   5.220   5.133   3.997
 8022SOL    HW124965   5.178   5.080   4.071
 8022SOL    HW224966   5.191   5.228   4.004
 8023SOL     OW24967   6.737   5.641   3.804
 8023SOL    HW124968   6.808   5.606   3.743
 8023SOL    HW224969   6.714   5.734   3.777
 8024SOL     OW24970   4.302   5.571   3.897
 8024SOL    HW124971   4.354   5.619   3.968
 8024SOL    HW224972   4.351   5.487   3.871
 8025SOL     OW24973   2.934   5.927   0.426
 8025SOL    HW124974   3.029   5.913   0.453
 8025SOL    HW224975   2.921   6.022   0.398
 8026SOL     OW24976   2.613   2.001   6.813
 8026SOL    HW124977   2.546   1.951   6.759
 8026SOL    HW224978   2.667   2.060   6.754
 8027SOL     OW24979   4.565   3.078   5.746
 8027SOL    HW124980   4.585   3.066   5.844
 8027SOL    HW224981   4.574   2.990   5.699
 8028SOL     OW24982   6.269   5.514   0.970
 8028SOL    HW124983   6.244   5.607   0.997
 8028SOL    HW224984   6.191   5.470   0.926
 8029SOL     OW24985   3.448   4.209   5.906
 8029SOL    HW124986   3.463   4.260   5.821
 8029SOL    HW224987   3.445   4.111   5.886
 8030SOL     OW24988   6.938   3.636   1.590
 8030SOL    HW124989   6.975   3.553   1.547
 8030SOL    HW224990   7.007   3.708   1.588
 8031SOL     OW24991   3.936   6.520   0.615
 8031SOL    HW124992   3.891   6.544   0.701
 8031SOL    HW224993   4.035   6.534   0.624
 8032SOL     OW24994   4.568   3.455   5.573
 8032SOL    HW124995   4.659   3.424   5.601
 8032SOL    HW224996   4.571   3.554   5.556
 8033SOL     OW24997   6.763   0.759   1.922
 8033SOL    HW124998   6.684   0.761   1.860
 8033SOL    HW224999   6.802   0.667   1.921
 8034SOL     OW25000   6.562   2.099   5.765
 8034SOL    HW125001   6.492   2.170   5.762
 8034SOL    HW225002   6.615   2.108   5.849
 8035SOL     OW25003   5.222   5.837   5.643
 8035SOL    HW125004   5.286   5.775   5.690
 8035SOL    HW225005   5.204   5.916   5.701
 8036SOL     OW25006   1.159   4.031   1.691
 8036SOL    HW125007   1.200   3.975   1.619
 8036SOL    HW225008   1.139   3.973   1.770
 8037SOL     OW25009   2.382   2.984   1.709
 8037SOL    HW125010   2.325   2.959   1.787
 8037SOL    HW225011   2.356   3.075   1.676
 8038SOL     OW25012   5.693   1.096   4.364
 8038SOL    HW125013   5.676   1.052   4.276
 8038SOL    HW225014   5.657   1.038   4.437
 8039SOL     OW25015   2.487   5.629   3.194
 8039SOL    HW125016   2.486   5.729   3.191
 8039SOL    HW225017   2.416   5.597   3.256
 8040SOL     OW25018   5.844   6.284   6.410
 8040SOL    HW125019   5.918   6.248   6.353
 8040SOL    HW225020   5.851   6.247   6.502
 8041SOL     OW25021   3.418   2.762   0.949
 8041SOL    HW125022   3.438   2.675   0.903
 8041SOL    HW225023   3.498   2.789   1.003
 8042SOL     OW25024   1.646   5.010   6.708
 8042SOL    HW125025   1.568   5.013   6.771
 8042SOL    HW225026   1.728   5.042   6.755
 8043SOL     OW25027   3.444   0.607   0.889
 8043SOL    HW125028   3.536   0.639   0.912
 8043SOL    HW225029   3.393   0.589   0.973
 8044SOL     OW25030   3.109   2.935   1.925
 8044SOL    HW125031   3.095   2.852   1.872
 8044SOL    HW225032   3.050   3.008   1.890
 8045SOL     OW25033   5.731   2.869   4.039
 8045SOL    HW125034   5.798   2.917   4.097
 8045SOL    HW225035   5.778   2.797   3.988
 8046SOL     OW25036   6.532   5.077   4.996
 8046SOL    HW125037   6.438   5.092   5.026
 8046SOL    HW225038   6.596   5.107   5.067
 8047SOL     OW25039   2.355   0.205   4.352
 8047SOL    HW125040   2.385   0.161   4.437
 8047SOL    HW225041   2.380   0.302   4.354
 8048SOL     OW25042   5.223   0.310   5.287
 8048SOL    HW125043   5.165   0.367   5.346
 8048SOL    HW225044   5.240   0.358   5.201
 8049SOL     OW25045   2.124   0.068   6.835
 8049SOL    HW125046   2.199   0.028   6.888
 8049SOL    HW225047   2.158   0.145   6.782
 8050SOL     OW25048   0.263   3.407   1.813
 8050SOL    HW125049   0.300   3.399   1.906
 8050SOL    HW225050   0.335   3.432   1.750
 8051SOL     OW25051   2.590   2.036   4.033
 8051SOL    HW125052   2.639   2.064   4.116
 8051SOL    HW225053   2.524   1.964   4.056
 8052SOL     OW25054   4.114   1.573   2.680
 8052SOL    HW125055   4.068   1.499   2.631
 8052SOL    HW225056   4.212   1.557   2.681
 8053SOL     OW25057   4.502   3.565   1.674
 8053SOL    HW125058   4.491   3.488   1.610
 8053SOL    HW225059   4.427   3.565   1.739
 8054SOL     OW25060   4.588   5.934   4.461
 8054SOL    HW125061   4.545   5.908   4.547
 8054SOL    HW225062   4.543   5.886   4.386
 8055SOL     OW25063   1.535   0.126   5.142
 8055SOL    HW125064   1.470   0.198   5.121
 8055SOL    HW225065   1.625   0.166   5.159
 8056SOL     OW25066   4.589   1.139   2.755
 8056SOL    HW125067   4.628   1.172   2.670
 8056SOL    HW225068   4.622   1.046   2.773
 8057SOL     OW25069   3.467   6.702   3.885
 8057SOL    HW125070   3.466   6.730   3.789
 8057SOL    HW225071   3.511   6.774   3.940
 8058SOL     OW25072   1.813   0.187   2.849
 8058SOL    HW125073   1.748   0.113   2.834
 8058SOL    HW225074   1.814   0.213   2.946
 8059SOL     OW25075   1.423   1.483   4.093
 8059SOL    HW125076   1.486   1.528   4.030
 8059SOL    HW225077   1.329   1.499   4.063
 8060SOL     OW25078   0.448   2.612   5.211
 8060SOL    HW125079   0.495   2.699   5.196
 8060SOL    HW225080   0.409   2.611   5.302
 8061SOL     OW25081   5.846   6.657   3.401
 8061SOL    HW125082   5.798   6.573   3.374
 8061SOL    HW225083   5.944   6.646   3.383
 8062SOL     OW25084   1.808   2.135   1.508
 8062SOL    HW125085   1.760   2.132   1.420
 8062SOL    HW225086   1.864   2.052   1.518
 8063SOL     OW25087   2.404   2.785   5.887
 8063SOL    HW125088   2.372   2.818   5.799
 8063SOL    HW225089   2.332   2.729   5.929
 8064SOL     OW25090   5.826   2.254   5.428
 8064SOL    HW125091   5.788   2.279   5.517
 8064SOL    HW225092   5.814   2.330   5.364
 8065SOL     OW25093   4.533   0.162   6.283
 8065SOL    HW125094   4.574   0.228   6.347
 8065SOL    HW225095   4.434   0.161   6.297
 8066SOL     OW25096   1.626   0.321   1.551
 8066SOL    HW125097   1.653   0.399   1.608
 8066SOL    HW225098   1.697   0.251   1.555
 8067SOL     OW25099   4.489   2.049   2.681
 8067SOL    HW125100   4.496   2.009   2.589
 8067SOL    HW225101   4.419   2.121   2.681
 8068SOL     OW25102   0.098   4.364   4.057
 8068SOL    HW125103   0.046   4.376   3.972
 8068SOL    HW225104   0.059   4.422   4.128
 8069SOL     OW25105   0.459   6.064   2.277
 8069SOL    HW125106   0.478   6.091   2.182
 8069SOL    HW225107   0.413   6.139   2.325
 8070SOL     OW25108   3.857   0.402   2.720
 8070SOL    HW125109   3.912   0.452   2.787
 8070SOL    HW225110   3.761   0.404   2.748
 8071SOL     OW25111   5.318   4.813   0.034
 8071SOL    HW125112   5.274   4.889   7.005
 8071SOL    HW225113   5.375   4.848   0.108
 8072SOL     OW25114   4.023   0.398   3.829
 8072SOL    HW125115   4.064   0.309   3.847
 8072SOL    HW225116   3.936   0.387   3.782
 8073SOL     OW25117   5.188   0.100   6.316
 8073SOL    HW125118   5.213   0.013   6.273
 8073SOL    HW225119   5.107   0.086   6.374
 8074SOL     OW25120   3.141   4.084   0.267
 8074SOL    HW125121   3.048   4.081   0.232
 8074SOL    HW225122   3.178   4.177   0.256
 8075SOL     OW25123   6.524   1.555   4.296
 8075SOL    HW125124   6.439   1.588   4.255
 8075SOL    HW225125   6.597   1.556   4.227
 8076SOL     OW25126   4.699   3.235   6.665
 8076SOL    HW125127   4.678   3.140   6.686
 8076SOL    HW225128   4.615   3.284   6.643
 8077SOL     OW25129   1.246   0.844   0.022
 8077SOL    HW125130   1.252   0.836   0.121
 8077SOL    HW225131   1.300   0.771   6.998
 8078SOL     OW25132   5.851   3.754   1.226
 8078SOL    HW125133   5.914   3.755   1.303
 8078SOL    HW225134   5.770   3.807   1.248
 8079SOL     OW25135   1.472   2.872   0.455
 8079SOL    HW125136   1.570   2.885   0.474
 8079SOL    HW225137   1.459   2.848   0.359
 8080SOL     OW25138   3.706   4.840   0.331
 8080SOL    HW125139   3.726   4.938   0.331
 8080SOL    HW225140   3.774   4.792   0.387
 8081SOL     OW25141   5.455   2.475   4.154
 8081SOL    HW125142   5.466   2.437   4.246
 8081SOL    HW225143   5.502   2.563   4.148
 8082SOL     OW25144   6.868   3.553   4.836
 8082SOL    HW125145   6.945   3.510   4.884
 8082SOL    HW225146   6.789   3.559   4.897
 8083SOL     OW25147   5.914   1.841   4.915
 8083SOL    HW125148   5.981   1.906   4.879
 8083SOL    HW225149   5.957   1.782   4.983
 8084SOL     OW25150   5.941   0.072   7.008
 8084SOL    HW125151   5.855   0.121   0.008
 8084SOL    HW225152   5.941   7.004   0.041
 8085SOL     OW25153   4.699   2.152   1.416
 8085SOL    HW125154   4.759   2.145   1.496
 8085SOL    HW225155   4.653   2.065   1.401
 8086SOL     OW25156   3.102   5.157   6.295
 8086SOL    HW125157   3.199   5.141   6.278
 8086SOL    HW225158   3.087   5.174   6.392
 8087SOL     OW25159   2.198   4.019   0.561
 8087SOL    HW125160   2.142   3.937   0.555
 8087SOL    HW225161   2.262   4.021   0.484
 8088SOL     OW25162   4.570   0.614   3.159
 8088SOL    HW125163   4.498   0.605   3.091
 8088SOL    HW225164   4.640   0.545   3.143
 8089SOL     OW25165   6.849   2.762   0.399
 8089SOL    HW125166   6.836   2.712   0.313
 8089SOL    HW225167   6.902   2.705   0.462
 8090SOL     OW25168   4.625   1.403   5.140
 8090SOL    HW125169   4.573   1.318   5.138
 8090SOL    HW225170   4.689   1.401   5.217
 8091SOL     OW25171   1.978   3.609   5.332
 8091SOL    HW125172   1.914   3.615   5.408
 8091SOL    HW225173   1.930   3.577   5.251
 8092SOL     OW25174   6.315   1.863   4.017
 8092SOL    HW125175   6.294   1.798   4.091
 8092SOL    HW225176   6.395   1.917   4.043
 8093SOL     OW25177   6.059   5.340   0.896
 8093SOL    HW125178   5.959   5.337   0.901
 8093SOL    HW225179   6.089   5.296   0.811
 8094SOL     OW25180   0.487   3.115   3.962
 8094SOL    HW125181   0.502   3.135   3.865
 8094SOL    HW225182   0.570   3.076   4.001
 8095SOL     OW25183   6.550   3.315   5.278
 8095SOL    HW125184   6.648   3.332   5.282
 8095SOL    HW225185   6.533   3.217   5.274
 8096SOL     OW25186   4.421   0.353   0.152
 8096SOL    HW125187   4.376   0.309   0.074
 8096SOL    HW225188   4.368   0.335   0.235
 8097SOL     OW25189   4.583   2.021   3.700
 8097SOL    HW125190   4.497   1.989   3.739
 8097SOL    HW225191   4.658   1.960   3.728
 8098SOL     OW25192   2.039   2.153   3.991
 8098SOL    HW125193   1.942   2.141   3.972
 8098SOL    HW225194   2.057   2.249   4.014
 8099SOL     OW25195   3.706   6.678   4.258
 8099SOL    HW125196   3.721   6.606   4.326
 8099SOL    HW225197   3.781   6.677   4.192
 8100SOL     OW25198   6.659   6.368   1.420
 8100SOL    HW125199   6.603   6.449   1.436
 8100SOL    HW225200   6.636   6.298   1.488
 8101SOL     OW25201   0.658   4.895   2.061
 8101SOL    HW125202   0.667   4.972   1.998
 8101SOL    HW225203   0.743   4.885   2.113
 8102SOL     OW25204   6.630   0.087   5.102
 8102SOL    HW125205   6.714   0.139   5.088
 8102SOL    HW225206   6.649   7.007   5.091
 8103SOL     OW25207   2.502   2.432   2.340
 8103SOL    HW125208   2.583   2.376   2.321
 8103SOL    HW225209   2.525   2.529   2.330
 8104SOL     OW25210   2.648   7.007   5.867
 8104SOL    HW125211   2.625   0.052   5.942
 8104SOL    HW225212   2.618   0.028   5.780
 8105SOL     OW25213   2.425   2.230   2.744
 8105SOL    HW125214   2.379   2.227   2.833
 8105SOL    HW225215   2.472   2.318   2.734
 8106SOL     OW25216   0.367   3.923   5.799
 8106SOL    HW125217   0.310   3.982   5.856
 8106SOL    HW225218   0.335   3.829   5.807
 8107SOL     OW25219   1.124   5.079   0.170
 8107SOL    HW125220   1.211   5.054   0.212
 8107SOL    HW225221   1.074   4.997   0.144
 8108SOL     OW25222   2.253   2.389   6.314
 8108SOL    HW125223   2.290   2.348   6.231
 8108SOL    HW225224   2.238   2.319   6.383
 8109SOL     OW25225   0.472   5.867   5.535
 8109SOL    HW125226   0.522   5.805   5.475
 8109SOL    HW225227   0.534   5.936   5.572
 8110SOL     OW25228   1.333   5.038   0.332
 8110SOL    HW125229   1.266   4.972   0.364
 8110SOL    HW225230   1.425   5.006   0.356
 8111SOL     OW25231   3.417   6.168   4.090
 8111SOL    HW125232   3.410   6.262   4.124
 8111SOL    HW225233   3.375   6.106   4.156
 8112SOL     OW25234   4.263   1.578   4.450
 8112SOL    HW125235   4.355   1.605   4.422
 8112SOL    HW225236   4.235   1.496   4.399
 8113SOL     OW25237   2.947   2.298   5.758
 8113SOL    HW125238   2.897   2.242   5.692
 8113SOL    HW225239   2.888   2.318   5.836
 8114SOL     OW25240   3.119   3.873   1.150
 8114SOL    HW125241   3.045   3.872   1.082
 8114SOL    HW225242   3.156   3.781   1.160
 8115SOL     OW25243   3.979   2.934   1.286
 8115SOL    HW125244   3.970   3.026   1.323
 8115SOL    HW225245   4.071   2.899   1.302
 8116SOL     OW25246   5.771   1.810   5.831
 8116SOL    HW125247   5.751   1.755   5.750
 8116SOL    HW225248   5.851   1.772   5.878
 8117SOL     OW25249   2.927   2.909   5.342
 8117SOL    HW125250   2.910   2.811   5.327
 8117SOL    HW225251   2.845   2.960   5.317
 8118SOL     OW25252   0.982   1.873   4.056
 8118SOL    HW125253   0.991   1.842   4.151
 8118SOL    HW225254   0.896   1.839   4.018
 8119SOL     OW25255   1.645   6.975   2.471
 8119SOL    HW125256   1.633   6.934   2.561
 8119SOL    HW225257   1.601   6.918   2.402
 8120SOL     OW25258   4.797   3.906   2.434
 8120SOL    HW125259   4.699   3.889   2.420
 8120SOL    HW225260   4.844   3.820   2.452
 8121SOL     OW25261   0.164   5.996   3.527
 8121SOL    HW125262   0.160   6.051   3.444
 8121SOL    HW225263   0.255   6.003   3.568
 8122SOL     OW25264   0.212   5.036   1.916
 8122SOL    HW125265   0.170   5.086   1.992
 8122SOL    HW225266   0.295   4.991   1.948
 8123SOL     OW25267   1.562   5.250   6.118
 8123SOL    HW125268   1.590   5.328   6.174
 8123SOL    HW225269   1.465   5.232   6.131
 8124SOL     OW25270   1.904   5.959   2.401
 8124SOL    HW125271   1.891   6.036   2.464
 8124SOL    HW225272   1.816   5.934   2.360
 8125SOL     OW25273   5.191   5.161   3.670
 8125SOL    HW125274   5.166   5.067   3.691
 8125SOL    HW225275   5.272   5.187   3.724
 8126SOL     OW25276   0.402   4.699   1.703
 8126SOL    HW125277   0.321   4.644   1.726
 8126SOL    HW225278   0.373   4.784   1.659
 8127SOL     OW25279   4.027   5.286   1.118
 8127SOL    HW125280   4.094   5.292   1.191
 8127SOL    HW225281   4.023   5.373   1.069
 8128SOL     OW25282   3.905   2.048   5.160
 8128SOL    HW125283   3.854   2.073   5.243
 8128SOL    HW225284   3.908   1.949   5.151
 8129SOL     OW25285   4.462   5.378   6.745
 8129SOL    HW125286   4.503   5.350   6.658
 8129SOL    HW225287   4.367   5.347   6.749
 8130SOL     OW25288   0.427   0.482   6.292
 8130SOL    HW125289   0.504   0.457   6.233
 8130SOL    HW225290   0.357   0.527   6.237
 8131SOL     OW25291   2.387   1.713   1.562
 8131SOL    HW125292   2.386   1.812   1.547
 8131SOL    HW225293   2.293   1.680   1.572
 8132SOL     OW25294   5.790   4.530   3.499
 8132SOL    HW125295   5.813   4.596   3.571
 8132SOL    HW225296   5.740   4.577   3.426
 8133SOL     OW25297   0.406   5.406   2.692
 8133SOL    HW125298   0.417   5.376   2.597
 8133SOL    HW225299   0.470   5.480   2.712
 8134SOL     OW25300   3.349   3.407   1.552
 8134SOL    HW125301   3.260   3.400   1.597
 8134SOL    HW225302   3.421   3.386   1.617
 8135SOL     OW25303   3.986   6.354   2.536
 8135SOL    HW125304   4.052   6.394   2.472
 8135SOL    HW225305   4.005   6.256   2.545
 8136SOL     OW25306   2.875   5.769   1.838
 8136SOL    HW125307   2.814   5.727   1.771
 8136SOL    HW225308   2.827   5.782   1.925
 8137SOL     OW25309   3.453   4.400   5.404
 8137SOL    HW125310   3.357   4.426   5.406
 8137SOL    HW225311   3.509   4.480   5.382
 8138SOL     OW25312   3.847   0.884   3.410
 8138SOL    HW125313   3.849   0.822   3.331
 8138SOL    HW225314   3.938   0.922   3.426
 8139SOL     OW25315   1.903   3.041   5.883
 8139SOL    HW125316   1.809   3.055   5.852
 8139SOL    HW225317   1.951   2.982   5.818
 8140SOL     OW25318   5.388   1.790   1.285
 8140SOL    HW125319   5.346   1.701   1.302
 8140SOL    HW225320   5.487   1.778   1.270
 8141SOL     OW25321   5.936   1.876   5.350
 8141SOL    HW125322   6.028   1.838   5.355
 8141SOL    HW225323   5.914   1.922   5.436
 8142SOL     OW25324   3.763   5.778   0.653
 8142SOL    HW125325   3.667   5.762   0.677
 8142SOL    HW225326   3.772   5.782   0.554
 8143SOL     OW25327   5.881   5.279   0.142
 8143SOL    HW125328   5.898   5.324   0.229
 8143SOL    HW225329   5.812   5.331   0.091
 8144SOL     OW25330   2.053   5.678   6.237
 8144SOL    HW125331   2.058   5.674   6.337
 8144SOL    HW225332   2.138   5.715   6.201
 8145SOL     OW25333   5.025   5.343   5.403
 8145SOL    HW125334   5.068   5.379   5.320
 8145SOL    HW225335   5.026   5.413   5.474
 8146SOL     OW25336   6.771   6.187   5.016
 8146SOL    HW125337   6.700   6.158   4.952
 8146SOL    HW225338   6.743   6.272   5.060
 8147SOL     OW25339   2.309   6.846   4.557
 8147SOL    HW125340   2.249   6.885   4.487
 8147SOL    HW225341   2.384   6.797   4.512
 8148SOL     OW25342   5.645   4.657   0.883
 8148SOL    HW125343   5.671   4.645   0.787
 8148SOL    HW225344   5.667   4.750   0.912
 8149SOL     OW25345   1.616   6.610   5.089
 8149SOL    HW125346   1.610   6.525   5.140
 8149SOL    HW225347   1.593   6.687   5.149
 8150SOL     OW25348   0.165   4.586   0.387
 8150SOL    HW125349   0.178   4.675   0.430
 8150SOL    HW225350   0.237   4.523   0.417
 8151SOL     OW25351   6.423   4.125   2.117
 8151SOL    HW125352   6.490   4.109   2.189
 8151SOL    HW225353   6.365   4.045   2.106
 8152SOL     OW25354   5.031   1.964   4.128
 8152SOL    HW125355   4.976   1.885   4.103
 8152SOL    HW225356   5.073   1.949   4.218
 8153SOL     OW25357   0.389   1.900   0.705
 8153SOL    HW125358   0.443   1.817   0.702
 8153SOL    HW225359   0.416   1.956   0.783
 8154SOL     OW25360   7.011   0.188   4.130
 8154SOL    HW125361   0.002   0.286   4.150
 8154SOL    HW225362   0.062   0.162   4.063
 8155SOL     OW25363   1.112   4.830   4.770
 8155SOL    HW125364   1.021   4.863   4.744
 8155SOL    HW225365   1.182   4.885   4.725
 8156SOL     OW25366   1.292   3.809   0.729
 8156SOL    HW125367   1.324   3.801   0.635
 8156SOL    HW225368   1.216   3.873   0.733
 8157SOL     OW25369   6.427   4.715   5.302
 8157SOL    HW125370   6.494   4.760   5.244
 8157SOL    HW225371   6.474   4.646   5.359
 8158SOL     OW25372   6.307   5.144   6.051
 8158SOL    HW125373   6.276   5.123   5.958
 8158SOL    HW225374   6.288   5.240   6.071
 8159SOL     OW25375   2.044   6.463   5.208
 8159SOL    HW125376   2.083   6.378   5.172
 8159SOL    HW225377   1.956   6.443   5.251
 8160SOL     OW25378   5.178   2.853   2.933
 8160SOL    HW125379   5.135   2.918   2.997
 8160SOL    HW225380   5.277   2.861   2.939
 8161SOL     OW25381   0.216   2.316   1.072
 8161SOL    HW125382   0.129   2.338   1.116
 8161SOL    HW225383   0.287   2.306   1.141
 8162SOL     OW25384   0.099   6.221   5.152
 8162SOL    HW125385   0.180   6.278   5.139
 8162SOL    HW225386   0.100   6.146   5.087
 8163SOL     OW25387   3.718   5.032   5.745
 8163SOL    HW125388   3.754   5.041   5.652
 8163SOL    HW225389   3.636   5.088   5.754
 8164SOL     OW25390   5.739   2.255   0.095
 8164SOL    HW125391   5.648   2.243   0.133
 8164SOL    HW225392   5.807   2.221   0.159
 8165SOL     OW25393   0.947   2.781   5.906
 8165SOL    HW125394   0.897   2.721   5.968
 8165SOL    HW225395   0.893   2.794   5.822
 8166SOL     OW25396   3.270   2.078   4.406
 8166SOL    HW125397   3.189   2.137   4.399
 8166SOL    HW225398   3.241   1.985   4.427
 8167SOL     OW25399   1.714   2.536   2.445
 8167SOL    HW125400   1.648   2.508   2.374
 8167SOL    HW225401   1.736   2.457   2.502
 8168SOL     OW25402   1.160   6.056   3.025
 8168SOL    HW125403   1.221   6.071   3.103
 8168SOL    HW225404   1.212   6.068   2.940
 8169SOL     OW25405   5.156   4.765   6.750
 8169SOL    HW125406   5.171   4.827   6.673
 8169SOL    HW225407   5.242   4.752   6.799
 8170SOL     OW25408   6.970   4.785   3.419
 8170SOL    HW125409   6.912   4.704   3.425
 8170SOL    HW225410   0.031   4.774   3.480
 8171SOL     OW25411   1.856   1.667   1.855
 8171SOL    HW125412   1.873   1.622   1.768
 8171SOL    HW225413   1.831   1.763   1.839
 8172SOL     OW25414   1.568   5.171   0.449
 8172SOL    HW125415   1.480   5.188   0.494
 8172SOL    HW225416   1.571   5.076   0.417
 8173SOL     OW25417   5.762   0.212   1.420
 8173SOL    HW125418   5.829   0.284   1.403
 8173SOL    HW225419   5.802   0.123   1.395
 8174SOL     OW25420   2.524   6.666   4.209
 8174SOL    HW125421   2.608   6.616   4.189
 8174SOL    HW225422   2.518   6.747   4.151
 8175SOL     OW25423   0.937   2.213   6.267
 8175SOL    HW125424   1.013   2.266   6.229
 8175SOL    HW225425   0.852   2.262   6.251
 8176SOL     OW25426   3.051   4.455   0.264
 8176SOL    HW125427   3.065   4.515   0.343
 8176SOL    HW225428   2.957   4.420   0.266
 8177SOL     OW25429   3.310   1.021   2.497
 8177SOL    HW125430   3.269   1.041   2.408
 8177SOL    HW225431   3.409   1.029   2.491
 8178SOL     OW25432   2.476   6.425   1.161
 8178SOL    HW125433   2.512   6.448   1.070
 8178SOL    HW225434   2.429   6.505   1.199
 8179SOL     OW25435   6.186   6.836   4.157
 8179SOL    HW125436   6.158   6.759   4.214
 8179SOL    HW225437   6.104   6.878   4.116
 8180SOL     OW25438   4.739   5.840   1.186
 8180SOL    HW125439   4.808   5.778   1.149
 8180SOL    HW225440   4.687   5.881   1.111
 8181SOL     OW25441   6.554   0.681   6.348
 8181SOL    HW125442   6.612   0.730   6.413
 8181SOL    HW225443   6.462   0.669   6.387
 8182SOL     OW25444   3.661   3.595   3.222
 8182SOL    HW125445   3.690   3.571   3.130
 8182SOL    HW225446   3.561   3.602   3.226
 8183SOL     OW25447   0.308   0.246   5.241
 8183SOL    HW125448   0.295   0.197   5.327
 8183SOL    HW225449   0.406   0.260   5.225
 8184SOL     OW25450   0.278   5.903   4.799
 8184SOL    HW125451   0.283   5.805   4.818
 8184SOL    HW225452   0.310   5.955   4.879
 8185SOL     OW25453   0.136   6.382   4.815
 8185SOL    HW125454   0.070   6.306   4.810
 8185SOL    HW225455   0.191   6.373   4.898
 8186SOL     OW25456   1.507   5.812   6.987
 8186SOL    HW125457   1.477   5.833   0.062
 8186SOL    HW225458   1.542   5.895   6.944
 8187SOL     OW25459   1.544   6.036   4.477
 8187SOL    HW125460   1.596   6.044   4.561
 8187SOL    HW225461   1.459   5.985   4.495
 8188SOL     OW25462   1.625   2.978   2.801
 8188SOL    HW125463   1.647   2.882   2.783
 8188SOL    HW225464   1.702   3.036   2.773
 8189SOL     OW25465   6.875   5.521   4.014
 8189SOL    HW125466   6.822   5.580   3.953
 8189SOL    HW225467   6.957   5.569   4.044
 8190SOL     OW25468   5.572   3.885   2.907
 8190SOL    HW125469   5.542   3.837   2.990
 8190SOL    HW225470   5.566   3.822   2.829
 8191SOL     OW25471   5.222   5.075   0.799
 8191SOL    HW125472   5.164   5.128   0.861
 8191SOL    HW225473   5.173   5.056   0.714
 8192SOL     OW25474   6.936   5.716   2.463
 8192SOL    HW125475   6.849   5.752   2.431
 8192SOL    HW225476   6.963   5.763   2.547
 8193SOL     OW25477   0.978   5.126   4.664
 8193SOL    HW125478   0.904   5.148   4.727
 8193SOL    HW225479   0.947   5.139   4.570
 8194SOL     OW25480   5.348   0.015   2.337
 8194SOL    HW125481   5.398   6.948   2.355
 8194SOL    HW225482   5.361   0.078   2.413
 8195SOL     OW25483   6.557   6.765   3.283
 8195SOL    HW125484   6.557   6.669   3.310
 8195SOL    HW225485   6.626   6.780   3.212
 8196SOL     OW25486   4.846   6.916   2.828
 8196SOL    HW125487   4.880   6.995   2.776
 8196SOL    HW225488   4.876   6.924   2.923
 8197SOL     OW25489   4.026   1.154   3.080
 8197SOL    HW125490   3.966   1.074   3.080
 8197SOL    HW225491   4.056   1.174   3.173
 8198SOL     OW25492   2.174   5.546   0.019
 8198SOL    HW125493   2.181   5.583   0.112
 8198SOL    HW225494   2.078   5.542   7.010
 8199SOL     OW25495   6.039   2.901   0.303
 8199SOL    HW125496   6.087   2.978   0.345
 8199SOL    HW225497   5.950   2.890   0.347
 8200SOL     OW25498   5.917   4.611   0.006
 8200SOL    HW125499   5.874   4.696   0.037
 8200SOL    HW225500   5.934   4.551   0.084
 8201SOL     OW25501   5.467   1.235   5.415
 8201SOL    HW125502   5.547   1.281   5.377
 8201SOL    HW225503   5.431   1.290   5.491
 8202SOL     OW25504   0.351   5.648   2.060
 8202SOL    HW125505   0.372   5.669   2.156
 8202SOL    HW225506   0.413   5.576   2.028
 8203SOL     OW25507   1.158   2.869   0.265
 8203SOL    HW125508   1.174   2.950   0.208
 8203SOL    HW225509   1.230   2.802   0.249
 8204SOL     OW25510   1.866   3.822   0.493
 8204SOL    HW125511   1.854   3.834   0.395
 8204SOL    HW225512   1.956   3.781   0.511
 8205SOL     OW25513   6.990   4.030   6.261
 8205SOL    HW125514   6.935   4.112   6.246
 8205SOL    HW225515   0.009   3.999   6.174
 8206SOL     OW25516   3.307   1.135   0.865
 8206SOL    HW125517   3.297   1.040   0.896
 8206SOL    HW225518   3.225   1.187   0.890
 8207SOL     OW25519   4.119   3.519   4.009
 8207SOL    HW125520   4.141   3.595   4.069
 8207SOL    HW225521   4.099   3.437   4.063
 8208SOL     OW25522   3.278   0.302   5.943
 8208SOL    HW125523   3.306   0.282   5.849
 8208SOL    HW225524   3.245   0.219   5.987
 8209SOL     OW25525   5.888   2.240   3.625
 8209SOL    HW125526   5.792   2.267   3.627
 8209SOL    HW225527   5.921   2.230   3.719
 8210SOL     OW25528   1.494   1.951   6.261
 8210SOL    HW125529   1.505   1.952   6.161
 8210SOL    HW225530   1.424   2.018   6.287
 8211SOL     OW25531   3.664   4.752   1.430
 8211SOL    HW125532   3.589   4.767   1.366
 8211SOL    HW225533   3.690   4.656   1.429
 8212SOL     OW25534   1.858   3.592   2.915
 8212SOL    HW125535   1.934   3.586   2.980
 8212SOL    HW225536   1.776   3.552   2.956
 8213SOL     OW25537   6.538   4.669   0.776
 8213SOL    HW125538   6.628   4.688   0.736
 8213SOL    HW225539   6.530   4.571   0.794
 8214SOL     OW25540   4.898   3.085   3.716
 8214SOL    HW125541   4.827   3.028   3.674
 8214SOL    HW225542   4.971   3.101   3.650
 8215SOL     OW25543   3.577   4.878   1.679
 8215SOL    HW125544   3.580   4.806   1.748
 8215SOL    HW225545   3.591   4.839   1.588
 8216SOL     OW25546   5.496   2.977   4.368
 8216SOL    HW125547   5.422   3.028   4.412
 8216SOL    HW225548   5.536   3.032   4.295
 8217SOL     OW25549   2.291   6.070   0.227
 8217SOL    HW125550   2.317   6.011   0.303
 8217SOL    HW225551   2.262   6.014   0.150
 8218SOL     OW25552   4.845   1.963   0.126
 8218SOL    HW125553   4.752   1.994   0.149
 8218SOL    HW225554   4.887   1.924   0.208
 8219SOL     OW25555   5.189   2.678   0.042
 8219SOL    HW125556   5.190   2.613   6.984
 8219SOL    HW225557   5.277   2.725   0.046
 8220SOL     OW25558   3.921   3.629   1.576
 8220SOL    HW125559   3.970   3.548   1.544
 8220SOL    HW225560   3.824   3.620   1.554
 8221SOL     OW25561   5.453   3.891   3.634
 8221SOL    HW125562   5.539   3.859   3.593
 8221SOL    HW225563   5.397   3.812   3.659
 8222SOL     OW25564   5.955   0.960   2.872
 8222SOL    HW125565   5.929   0.920   2.784
 8222SOL    HW225566   5.930   1.057   2.873
 8223SOL     OW25567   0.911   3.964   0.103
 8223SOL    HW125568   0.955   4.050   0.077
 8223SOL    HW225569   0.968   3.887   0.074
 8224SOL     OW25570   0.764   3.720   2.486
 8224SOL    HW125571   0.735   3.804   2.532
 8224SOL    HW225572   0.683   3.671   2.453
 8225SOL     OW25573   4.971   0.806   0.891
 8225SOL    HW125574   4.955   0.727   0.951
 8225SOL    HW225575   4.934   0.888   0.933
 8226SOL     OW25576   3.880   0.581   6.661
 8226SOL    HW125577   3.815   0.572   6.736
 8226SOL    HW225578   3.845   0.535   6.580
 8227SOL     OW25579   5.871   4.051   3.336
 8227SOL    HW125580   5.867   4.150   3.320
 8227SOL    HW225581   5.787   4.009   3.303
 8228SOL     OW25582   0.337   1.590   3.578
 8228SOL    HW125583   0.294   1.673   3.613
 8228SOL    HW225584   0.268   1.530   3.538
 8229SOL     OW25585   5.497   5.459   6.754
 8229SOL    HW125586   5.416   5.453   6.696
 8229SOL    HW225587   5.472   5.495   6.844
 8230SOL     OW25588   5.104   0.136   3.545
 8230SOL    HW125589   5.106   0.036   3.550
 8230SOL    HW225590   5.189   0.169   3.504
 8231SOL     OW25591   3.847   5.787   1.296
 8231SOL    HW125592   3.946   5.804   1.286
 8231SOL    HW225593   3.797   5.868   1.265
 8232SOL     OW25594   2.502   1.433   0.319
 8232SOL    HW125595   2.570   1.365   0.294
 8232SOL    HW225596   2.432   1.390   0.377
 8233SOL     OW25597   0.905   5.744   5.681
 8233SOL    HW125598   0.898   5.648   5.655
 8233SOL    HW225599   0.856   5.759   5.767
 8234SOL     OW25600   2.031   3.529   6.871
 8234SOL    HW125601   1.963   3.456   6.874
 8234SOL    HW225602   2.021   3.580   6.785
 8235SOL     OW25603   4.455   2.783   6.607
 8235SOL    HW125604   4.395   2.774   6.687
 8235SOL    HW225605   4.515   2.704   6.602
 8236SOL     OW25606   6.302   2.094   1.633
 8236SOL    HW125607   6.363   2.095   1.713
 8236SOL    HW225608   6.211   2.125   1.661
 8237SOL     OW25609   3.661   6.065   5.460
 8237SOL    HW125610   3.648   6.138   5.526
 8237SOL    HW225611   3.745   6.015   5.482
 8238SOL     OW25612   0.725   0.948   6.136
 8238SOL    HW125613   0.709   0.958   6.234
 8238SOL    HW225614   0.702   1.034   6.089
 8239SOL     OW25615   5.187   1.414   6.692
 8239SOL    HW125616   5.126   1.367   6.628
 8239SOL    HW225617   5.210   1.353   6.767
 8240SOL     OW25618   3.651   3.185   2.817
 8240SOL    HW125619   3.716   3.109   2.817
 8240SOL    HW225620   3.575   3.164   2.755
 8241SOL     OW25621   4.667   6.166   1.063
 8241SOL    HW125622   4.600   6.218   1.010
 8241SOL    HW225623   4.746   6.145   1.005
 8242SOL     OW25624   1.411   4.457   5.329
 8242SOL    HW125625   1.503   4.448   5.368
 8242SOL    HW225626   1.417   4.453   5.229
 8243SOL     OW25627   0.528   3.392   4.820
 8243SOL    HW125628   0.507   3.488   4.841
 8243SOL    HW225629   0.470   3.333   4.875
 8244SOL     OW25630   3.090   5.532   5.199
 8244SOL    HW125631   3.173   5.523   5.143
 8244SOL    HW225632   3.016   5.481   5.156
 8245SOL     OW25633   4.579   4.109   0.863
 8245SOL    HW125634   4.562   4.022   0.909
 8245SOL    HW225635   4.550   4.185   0.922
 8246SOL     OW25636   5.233   3.023   4.891
 8246SOL    HW125637   5.222   3.122   4.890
 8246SOL    HW225638   5.262   2.994   4.983
 8247SOL     OW25639   1.358   6.246   6.942
 8247SOL    HW125640   1.295   6.324   6.934
 8247SOL    HW225641   1.425   6.251   6.868
 8248SOL     OW25642   0.023   4.383   3.518
 8248SOL    HW125643   0.122   4.396   3.517
 8248SOL    HW225644   7.008   4.375   3.423
 8249SOL     OW25645   0.858   5.276   3.012
 8249SOL    HW125646   0.893   5.345   3.075
 8249SOL    HW225647   0.803   5.321   2.942
 8250SOL     OW25648   2.953   3.220   2.748
 8250SOL    HW125649   2.961   3.315   2.778
 8250SOL    HW225650   2.894   3.216   2.667
 8251SOL     OW25651   5.664   0.898   4.592
 8251SOL    HW125652   5.648   0.809   4.549
 8251SOL    HW225653   5.580   0.930   4.636
 8252SOL     OW25654   0.897   4.158   4.091
 8252SOL    HW125655   0.945   4.195   4.011
 8252SOL    HW225656   0.951   4.175   4.173
 8253SOL     OW25657   3.203   3.096   5.913
 8253SOL    HW125658   3.277   3.060   5.856
 8253SOL    HW225659   3.116   3.058   5.883
 8254SOL     OW25660   5.122   5.215   2.767
 8254SOL    HW125661   5.163   5.306   2.758
 8254SOL    HW225662   5.049   5.219   2.835
 8255SOL     OW25663   3.754   4.950   3.551
 8255SOL    HW125664   3.713   4.974   3.464
 8255SOL    HW225665   3.699   4.989   3.626
 8256SOL     OW25666   5.066   2.282   3.165
 8256SOL    HW125667   5.061   2.229   3.081
 8256SOL    HW225668   4.996   2.354   3.164
 8257SOL     OW25669   6.263   4.229   4.240
 8257SOL    HW125670   6.316   4.196   4.162
 8257SOL    HW225671   6.307   4.200   4.325
 8258SOL     OW25672   5.291   2.136   6.974
 8258SOL    HW125673   5.380   2.152   6.933
 8258SOL    HW225674   5.298   2.063   0.024
 8259SOL     OW25675   4.901   0.560   0.651
 8259SOL    HW125676   4.962   0.622   0.700
 8259SOL    HW225677   4.951   0.515   0.577
 8260SOL     OW25678   3.198   5.688   6.622
 8260SOL    HW125679   3.183   5.785   6.602
 8260SOL    HW225680   3.241   5.645   6.544
 8261SOL     OW25681   5.077   1.422   1.533
 8261SOL    HW125682   5.109   1.374   1.614
 8261SOL    HW225683   4.992   1.471   1.554
 8262SOL     OW25684   6.520   2.800   1.510
 8262SOL    HW125685   6.582   2.824   1.585
 8262SOL    HW225686   6.487   2.707   1.522
 8263SOL     OW25687   5.851   1.526   0.403
 8263SOL    HW125688   5.939   1.574   0.400
 8263SOL    HW225689   5.816   1.525   0.497
 8264SOL     OW25690   1.107   4.186   1.347
 8264SOL    HW125691   1.159   4.110   1.307
 8264SOL    HW225692   1.153   4.217   1.430
 8265SOL     OW25693   1.850   0.511   2.566
 8265SOL    HW125694   1.771   0.550   2.517
 8265SOL    HW225695   1.913   0.585   2.589
 8266SOL     OW25696   2.986   0.776   2.578
 8266SOL    HW125697   2.957   0.691   2.623
 8266SOL    HW225698   3.044   0.828   2.640
 8267SOL     OW25699   7.010   3.625   1.100
 8267SOL    HW125700   6.925   3.612   1.152
 8267SOL    HW225701   6.991   3.684   1.021
 8268SOL     OW25702   2.546   4.606   6.942
 8268SOL    HW125703   2.630   4.552   6.932
 8268SOL    HW225704   2.486   4.591   6.863
 8269SOL     OW25705   5.676   2.238   6.841
 8269SOL    HW125706   5.596   2.298   6.846
 8269SOL    HW225707   5.723   2.237   6.929
 8270SOL     OW25708   2.290   6.247   4.428
 8270SOL    HW125709   2.231   6.184   4.479
 8270SOL    HW225710   2.264   6.247   4.332
 8271SOL     OW25711   0.524   2.422   2.669
 8271SOL    HW125712   0.447   2.476   2.634
 8271SOL    HW225713   0.604   2.435   2.610
 8272SOL     OW25714   3.391   1.279   3.990
 8272SOL    HW125715   3.424   1.373   4.002
 8272SOL    HW225716   3.397   1.231   4.077
 8273SOL     OW25717   1.735   6.442   1.930
 8273SOL    HW125718   1.814   6.456   1.990
 8273SOL    HW225719   1.724   6.345   1.911
 8274SOL     OW25720   5.267   3.726   3.720
 8274SOL    HW125721   5.278   3.627   3.722
 8274SOL    HW225722   5.196   3.751   3.654
 8275SOL     OW25723   6.063   2.472   0.145
 8275SOL    HW125724   6.153   2.515   0.153
 8275SOL    HW225725   6.026   2.489   0.054
 8276SOL     OW25726   0.767   2.139   2.921
 8276SOL    HW125727   0.864   2.151   2.901
 8276SOL    HW225728   0.745   2.042   2.919
 8277SOL     OW25729   0.081   1.271   0.344
 8277SOL    HW125730   0.140   1.314   0.276
 8277SOL    HW225731   0.130   1.196   0.388
 8278SOL     OW25732   1.135   2.584   0.477
 8278SOL    HW125733   1.218   2.633   0.502
 8278SOL    HW225734   1.055   2.642   0.494
 8279SOL     OW25735   0.151   5.815   4.006
 8279SOL    HW125736   0.219   5.866   3.953
 8279SOL    HW225737   0.171   5.717   3.999
 8280SOL     OW25738   3.086   2.571   6.098
 8280SOL    HW125739   3.145   2.514   6.040
 8280SOL    HW225740   3.063   2.656   6.051
 8281SOL     OW25741   3.899   5.072   2.404
 8281SOL    HW125742   3.993   5.075   2.370
 8281SOL    HW225743   3.876   4.978   2.430
 8282SOL     OW25744   5.955   2.891   6.173
 8282SOL    HW125745   5.919   2.956   6.240
 8282SOL    HW225746   6.027   2.836   6.215
 8283SOL     OW25747   2.155   2.930   6.399
 8283SOL    HW125748   2.208   3.014   6.400
 8283SOL    HW225749   2.155   2.892   6.306
 8284SOL     OW25750   6.503   4.617   1.518
 8284SOL    HW125751   6.597   4.650   1.530
 8284SOL    HW225752   6.443   4.695   1.500
 8285SOL     OW25753   3.418   2.870   3.571
 8285SOL    HW125754   3.407   2.777   3.608
 8285SOL    HW225755   3.495   2.872   3.508
 8286SOL     OW25756   0.447   3.021   6.973
 8286SOL    HW125757   0.466   2.956   6.900
 8286SOL    HW225758   0.523   3.021   0.020
 8287SOL     OW25759   1.624   6.924   4.159
 8287SOL    HW125760   1.704   6.873   4.125
 8287SOL    HW225761   1.650   7.018   4.179
 8288SOL     OW25762   3.035   1.555   3.183
 8288SOL    HW125763   2.951   1.598   3.216
 8288SOL    HW225764   3.022   1.456   3.175
 8289SOL     OW25765   0.602   6.826   0.167
 8289SOL    HW125766   0.503   6.833   0.156
 8289SOL    HW225767   0.647   6.896   0.111
 8290SOL     OW25768   6.269   2.015   0.733
 8290SOL    HW125769   6.243   2.048   0.642
 8290SOL    HW225770   6.245   2.084   0.802
 8291SOL     OW25771   4.013   0.322   0.846
 8291SOL    HW125772   3.998   0.250   0.914
 8291SOL    HW225773   4.070   0.287   0.772
 8292SOL     OW25774   2.666   0.770   5.980
 8292SOL    HW125775   2.605   0.775   5.900
 8292SOL    HW225776   2.761   0.763   5.949
 8293SOL     OW25777   5.982   5.431   5.368
 8293SOL    HW125778   6.016   5.337   5.364
 8293SOL    HW225779   6.011   5.480   5.286
 8294SOL     OW25780   6.126   2.758   0.082
 8294SOL    HW125781   6.095   2.802   0.166
 8294SOL    HW225782   6.072   2.790   0.004
 8295SOL     OW25783   5.248   2.625   6.691
 8295SOL    HW125784   5.266   2.673   6.605
 8295SOL    HW225785   5.235   2.528   6.672
 8296SOL     OW25786   6.990   4.991   5.285
 8296SOL    HW125787   0.060   4.945   5.284
 8296SOL    HW225788   6.990   5.063   5.354
 8297SOL     OW25789   1.191   3.708   3.991
 8297SOL    HW125790   1.146   3.778   3.936
 8297SOL    HW225791   1.233   3.640   3.930
 8298SOL     OW25792   4.833   1.905   1.820
 8298SOL    HW125793   4.902   1.860   1.877
 8298SOL    HW225794   4.753   1.926   1.875
 8299SOL     OW25795   5.489   1.884   1.929
 8299SOL    HW125796   5.580   1.858   1.899
 8299SOL    HW225797   5.466   1.974   1.892
 8300SOL     OW25798   1.695   5.508   3.104
 8300SOL    HW125799   1.658   5.500   3.197
 8300SOL    HW225800   1.620   5.518   3.039
 8301SOL     OW25801   2.712   1.598   5.997
 8301SOL    HW125802   2.725   1.689   5.956
 8301SOL    HW225803   2.630   1.599   6.055
 8302SOL     OW25804   5.910   5.755   5.714
 8302SOL    HW125805   6.007   5.767   5.733
 8302SOL    HW225806   5.863   5.728   5.798
 8303SOL     OW25807   0.300   6.928   6.914
 8303SOL    HW125808   0.398   6.933   6.895
 8303SOL    HW225809   0.248   6.955   6.832
 8304SOL     OW25810   0.096   3.087   0.604
 8304SOL    HW125811   0.078   3.086   0.506
 8304SOL    HW225812   0.149   3.006   0.629
 8305SOL     OW25813   3.015   4.973   2.800
 8305SOL    HW125814   2.930   4.952   2.753
 8305SOL    HW225815   3.010   4.939   2.894
 8306SOL     OW25816   2.123   2.677   3.903
 8306SOL    HW125817   2.187   2.752   3.887
 8306SOL    HW225818   2.031   2.704   3.872
 8307SOL     OW25819   3.812   6.274   0.881
 8307SOL    HW125820   3.771   6.286   0.790
 8307SOL    HW225821   3.743   6.238   0.944
 8308SOL     OW25822   2.808   0.840   2.181
 8308SOL    HW125823   2.811   0.865   2.278
 8308SOL    HW225824   2.858   0.755   2.168
 8309SOL     OW25825   5.660   6.461   2.154
 8309SOL    HW125826   5.579   6.438   2.100
 8309SOL    HW225827   5.697   6.548   2.122
 8310SOL     OW25828   5.982   4.771   6.766
 8310SOL    HW125829   5.939   4.785   6.855
 8310SOL    HW225830   5.943   4.691   6.721
 8311SOL     OW25831   6.636   0.201   6.415
 8311SOL    HW125832   6.716   0.260   6.428
 8311SOL    HW225833   6.623   0.145   6.497
 8312SOL     OW25834   4.810   6.319   1.713
 8312SOL    HW125835   4.833   6.416   1.706
 8312SOL    HW225836   4.723   6.301   1.666
 8313SOL     OW25837   3.780   1.595   2.691
 8313SOL    HW125838   3.836   1.611   2.772
 8313SOL    HW225839   3.723   1.515   2.706
 8314SOL     OW25840   0.176   7.014   3.884
 8314SOL    HW125841   0.125   6.943   3.932
 8314SOL    HW225842   0.238   6.971   3.818
 8315SOL     OW25843   4.829   4.640   6.955
 8315SOL    HW125844   4.778   4.557   6.977
 8315SOL    HW225845   4.915   4.640   7.006
 8316SOL     OW25846   2.984   5.490   6.845
 8316SOL    HW125847   2.941   5.399   6.850
 8316SOL    HW225848   2.927   5.550   6.790
 8317SOL     OW25849   2.515   4.913   1.523
 8317SOL    HW125850   2.528   4.829   1.576
 8317SOL    HW225851   2.498   4.890   1.428
 8318SOL     OW25852   3.159   1.356   5.746
 8318SOL    HW125853   3.237   1.416   5.761
 8318SOL    HW225854   3.077   1.395   5.789
 8319SOL     OW25855   2.458   0.712   5.290
 8319SOL    HW125856   2.431   0.640   5.355
 8319SOL    HW225857   2.488   0.670   5.205
 8320SOL     OW25858   3.604   5.262   1.194
 8320SOL    HW125859   3.673   5.199   1.229
 8320SOL    HW225860   3.568   5.226   1.107
 8321SOL     OW25861   6.643   0.804   1.108
 8321SOL    HW125862   6.708   0.850   1.170
 8321SOL    HW225863   6.550   0.836   1.128
 8322SOL     OW25864   5.175   6.406   0.707
 8322SOL    HW125865   5.087   6.361   0.722
 8322SOL    HW225866   5.224   6.415   0.794
 8323SOL     OW25867   1.480   0.544   1.943
 8323SOL    HW125868   1.456   0.641   1.947
 8323SOL    HW225869   1.579   0.535   1.948
 8324SOL     OW25870   6.933   0.754   2.605
 8324SOL    HW125871   6.835   0.740   2.612
 8324SOL    HW225872   6.960   0.753   2.508
 8325SOL     OW25873   3.776   4.050   4.763
 8325SOL    HW125874   3.832   4.070   4.843
 8325SOL    HW225875   3.834   4.048   4.681
 8326SOL     OW25876   4.146   3.246   6.297
 8326SOL    HW125877   4.061   3.240   6.243
 8326SOL    HW225878   4.132   3.201   6.385
 8327SOL     OW25879   4.783   2.176   6.109
 8327SOL    HW125880   4.713   2.239   6.142
 8327SOL    HW225881   4.864   2.181   6.167
 8328SOL     OW25882   2.270   2.487   3.718
 8328SOL    HW125883   2.247   2.552   3.790
 8328SOL    HW225884   2.369   2.481   3.709
 8329SOL     OW25885   0.660   2.904   4.757
 8329SOL    HW125886   0.677   2.813   4.719
 8329SOL    HW225887   0.696   2.908   4.851
 8330SOL     OW25888   2.156   0.031   0.553
 8330SOL    HW125889   2.167   0.085   0.636
 8330SOL    HW225890   2.179   6.954   0.571
 8331SOL     OW25891   2.666   6.963   1.065
 8331SOL    HW125892   2.647   0.019   1.129
 8331SOL    HW225893   2.626   6.878   1.101
 8332SOL     OW25894   4.353   6.155   3.536
 8332SOL    HW125895   4.306   6.243   3.533
 8332SOL    HW225896   4.450   6.170   3.559
 8333SOL     OW25897   1.700   4.976   5.377
 8333SOL    HW125898   1.603   4.962   5.395
 8333SOL    HW225899   1.750   4.974   5.464
 8334SOL     OW25900   6.642   0.040   3.544
 8334SOL    HW125901   6.613   6.971   3.585
 8334SOL    HW225902   6.710   0.083   3.603
 8335SOL     OW25903   6.324   6.252   5.150
 8335SOL    HW125904   6.245   6.299   5.111
 8335SOL    HW225905   6.316   6.250   5.250
 8336SOL     OW25906   1.159   1.874   2.769
 8336SOL    HW125907   1.225   1.948   2.759
 8336SOL    HW225908   1.130   1.867   2.865
 8337SOL     OW25909   6.301   6.475   2.256
 8337SOL    HW125910   6.209   6.463   2.220
 8337SOL    HW225911   6.368   6.449   2.186
 8338SOL     OW25912   2.130   5.464   0.724
 8338SOL    HW125913   2.139   5.510   0.813
 8338SOL    HW225914   2.214   5.414   0.704
 8339SOL     OW25915   4.861   0.990   2.972
 8339SOL    HW125916   4.797   1.065   2.991
 8339SOL    HW225917   4.935   0.992   3.040
 8340SOL     OW25918   4.851   3.870   1.484
 8340SOL    HW125919   4.837   3.953   1.538
 8340SOL    HW225920   4.810   3.792   1.532
 8341SOL     OW25921   2.324   0.105   0.782
 8341SOL    HW125922   2.350   0.167   0.709
 8341SOL    HW225923   2.399   0.040   0.799
 8342SOL     OW25924   5.349   6.893   1.200
 8342SOL    HW125925   5.327   6.987   1.177
 8342SOL    HW225926   5.287   6.861   1.272
 8343SOL     OW25927   0.041   4.703   5.352
 8343SOL    HW125928   6.984   4.712   5.286
 8343SOL    HW225929   0.120   4.754   5.319
 8344SOL     OW25930   3.813   0.075   5.098
 8344SOL    HW125931   3.780   7.002   5.072
 8344SOL    HW225932   3.805   0.137   5.020
 8345SOL     OW25933   6.261   1.417   3.270
 8345SOL    HW125934   6.269   1.422   3.170
 8345SOL    HW225935   6.166   1.394   3.293
 8346SOL     OW25936   4.184   5.161   2.359
 8346SOL    HW125937   4.183   5.255   2.394
 8346SOL    HW225938   4.247   5.106   2.413
 8347SOL     OW25939   3.335   5.258   4.737
 8347SOL    HW125940   3.337   5.176   4.680
 8347SOL    HW225941   3.425   5.272   4.778
 8348SOL     OW25942   2.364   0.300   0.559
 8348SOL    HW125943   2.343   0.307   0.461
 8348SOL    HW225944   2.335   0.384   0.605
 8349SOL     OW25945   6.003   4.839   2.179
 8349SOL    HW125946   6.053   4.898   2.242
 8349SOL    HW225947   5.910   4.873   2.167
 8350SOL     OW25948   6.430   0.956   5.139
 8350SOL    HW125949   6.478   1.026   5.086
 8350SOL    HW225950   6.360   0.913   5.083
 8351SOL     OW25951   3.172   6.651   2.467
 8351SOL    HW125952   3.173   6.553   2.451
 8351SOL    HW225953   3.197   6.670   2.562
 8352SOL     OW25954   6.448   6.091   1.428
 8352SOL    HW125955   6.444   6.156   1.352
 8352SOL    HW225956   6.522   6.118   1.491
 8353SOL     OW25957   1.832   3.690   2.263
 8353SOL    HW125958   1.846   3.610   2.321
 8353SOL    HW225959   1.803   3.662   2.172
 8354SOL     OW25960   3.115   0.722   0.635
 8354SOL    HW125961   3.109   0.708   0.734
 8354SOL    HW225962   3.211   0.741   0.611
 8355SOL     OW25963   3.067   1.696   0.837
 8355SOL    HW125964   3.035   1.650   0.920
 8355SOL    HW225965   2.994   1.754   0.800
 8356SOL     OW25966   2.922   5.202   6.999
 8356SOL    HW125967   2.936   5.279   0.043
 8356SOL    HW225968   2.959   5.119   0.022
 8357SOL     OW25969   4.248   5.914   3.055
 8357SOL    HW125970   4.183   5.989   3.072
 8357SOL    HW225971   4.201   5.826   3.063
 8358SOL     OW25972   3.262   1.840   4.923
 8358SOL    HW125973   3.268   1.776   5.000
 8358SOL    HW225974   3.207   1.800   4.850
 8359SOL     OW25975   3.543   5.028   4.211
 8359SOL    HW125976   3.542   5.023   4.311
 8359SOL    HW225977   3.455   4.998   4.175
 8360SOL     OW25978   4.467   0.754   3.372
 8360SOL    HW125979   4.487   0.852   3.377
 8360SOL    HW225980   4.509   0.715   3.290
 8361SOL     OW25981   1.303   0.421   3.010
 8361SOL    HW125982   1.361   0.430   2.929
 8361SOL    HW225983   1.251   0.505   3.024
 8362SOL     OW25984   2.719   3.125   0.666
 8362SOL    HW125985   2.790   3.122   0.736
 8362SOL    HW225986   2.629   3.114   0.709
 8363SOL     OW25987   0.703   3.483   1.568
 8363SOL    HW125988   0.737   3.573   1.542
 8363SOL    HW225989   0.773   3.435   1.621
 8364SOL     OW25990   6.724   4.925   5.402
 8364SOL    HW125991   6.809   4.927   5.350
 8364SOL    HW225992   6.685   5.017   5.407
 8365SOL     OW25993   1.405   3.612   5.780
 8365SOL    HW125994   1.369   3.668   5.855
 8365SOL    HW225995   1.329   3.562   5.737
 8366SOL     OW25996   2.782   0.039   2.047
 8366SOL    HW125997   2.728   0.122   2.037
 8366SOL    HW225998   2.738   6.997   2.113
 8367SOL     OW25999   5.082   5.618   3.614
 8367SOL    HW126000   4.999   5.601   3.668
 8367SOL    HW226001   5.104   5.537   3.560
 8368SOL     OW26002   3.314   5.776   6.319
 8368SOL    HW126003   3.259   5.775   6.235
 8368SOL    HW226004   3.335   5.682   6.347
 8369SOL     OW26005   2.368   1.367   0.949
 8369SOL    HW126006   2.304   1.428   0.996
 8369SOL    HW226007   2.317   1.291   0.907
 8370SOL     OW26008   2.008   1.405   0.558
 8370SOL    HW126009   2.076   1.413   0.631
 8370SOL    HW226010   1.948   1.327   0.577
 8371SOL     OW26011   1.452   2.280   0.289
 8371SOL    HW126012   1.477   2.264   0.384
 8371SOL    HW226013   1.361   2.243   0.271
 8372SOL     OW26014   6.172   0.756   0.336
 8372SOL    HW126015   6.114   0.675   0.344
 8372SOL    HW226016   6.118   0.837   0.356
 8373SOL     OW26017   1.516   6.692   4.271
 8373SOL    HW126018   1.593   6.640   4.234
 8373SOL    HW226019   1.535   6.790   4.264
 8374SOL     OW26020   6.832   1.329   5.885
 8374SOL    HW126021   6.876   1.276   5.812
 8374SOL    HW226022   6.760   1.273   5.927
 8375SOL     OW26023   4.211   0.865   6.522
 8375SOL    HW126024   4.295   0.891   6.570
 8375SOL    HW226025   4.181   0.775   6.552
 8376SOL     OW26026   4.188   0.852   3.995
 8376SOL    HW126027   4.266   0.837   4.056
 8376SOL    HW226028   4.176   0.772   3.937
 8377SOL     OW26029   5.423   5.116   0.999
 8377SOL    HW126030   5.346   5.129   0.936
 8377SOL    HW226031   5.393   5.063   1.077
 8378SOL     OW26032   4.783   2.727   3.649
 8378SOL    HW126033   4.740   2.698   3.563
 8378SOL    HW226034   4.872   2.768   3.630
 8379SOL     OW26035   5.460   2.959   2.554
 8379SOL    HW126036   5.392   3.003   2.613
 8379SOL    HW226037   5.436   2.974   2.458
 8380SOL     OW26038   5.837   1.592   3.804
 8380SOL    HW126039   5.757   1.645   3.775
 8380SOL    HW226040   5.919   1.627   3.758
 8381SOL     OW26041   1.844   5.348   4.292
 8381SOL    HW126042   1.858   5.436   4.338
 8381SOL    HW226043   1.821   5.278   4.360
 8382SOL     OW26044   0.723   4.633   2.408
 8382SOL    HW126045   0.706   4.562   2.476
 8382SOL    HW226046   0.661   4.620   2.330
 8383SOL     OW26047   3.442   1.561   5.501
 8383SOL    HW126048   3.524   1.560   5.444
 8383SOL    HW226049   3.415   1.656   5.518
 8384SOL     OW26050   0.674   6.911   1.293
 8384SOL    HW126051   0.675   6.888   1.196
 8384SOL    HW226052   0.758   6.959   1.317
 8385SOL     OW26053   4.394   1.640   1.249
 8385SOL    HW126054   4.304   1.596   1.250
 8385SOL    HW226055   4.447   1.604   1.172
 8386SOL     OW26056   0.422   3.083   1.960
 8386SOL    HW126057   0.392   3.172   1.992
 8386SOL    HW226058   0.409   3.077   1.861
 8387SOL     OW26059   0.475   1.959   1.739
 8387SOL    HW126060   0.536   1.980   1.816
 8387SOL    HW226061   0.410   2.034   1.727
 8388SOL     OW26062   1.321   6.894   2.744
 8388SOL    HW126063   1.283   6.808   2.779
 8388SOL    HW226064   1.408   6.876   2.699
 8389SOL     OW26065   6.239   3.184   3.518
 8389SOL    HW126066   6.253   3.088   3.543
 8389SOL    HW226067   6.160   3.192   3.458
 8390SOL     OW26068   6.337   1.921   6.818
 8390SOL    HW126069   6.321   1.988   6.891
 8390SOL    HW226070   6.402   1.958   6.752
 8391SOL     OW26071   6.312   0.334   1.079
 8391SOL    HW126072   6.358   0.253   1.115
 8391SOL    HW226073   6.317   0.334   0.979
 8392SOL     OW26074   3.709   2.903   4.897
 8392SOL    HW126075   3.626   2.849   4.911
 8392SOL    HW226076   3.687   2.986   4.846
 8393SOL     OW26077   5.632   6.961   0.981
 8393SOL    HW126078   5.705   6.898   1.006
 8393SOL    HW226079   5.670   0.023   0.936
 8394SOL     OW26080   5.875   2.740   2.852
 8394SOL    HW126081   5.780   2.719   2.875
 8394SOL    HW226082   5.932   2.731   2.934
 8395SOL     OW26083   1.994   0.833   5.085
 8395SOL    HW126084   2.019   0.739   5.065
 8395SOL    HW226085   1.950   0.838   5.175
 8396SOL     OW26086   4.905   5.390   4.267
 8396SOL    HW126087   4.956   5.376   4.182
 8396SOL    HW226088   4.848   5.311   4.285
 8397SOL     OW26089   5.952   6.565   2.753
 8397SOL    HW126090   5.886   6.542   2.683
 8397SOL    HW226091   5.960   6.664   2.761
 8398SOL     OW26092   5.861   1.593   6.424
 8398SOL    HW126093   5.827   1.555   6.510
 8398SOL    HW226094   5.791   1.651   6.383
 8399SOL     OW26095   0.455   4.376   2.417
 8399SOL    HW126096   0.358   4.397   2.425
 8399SOL    HW226097   0.468   4.305   2.347
 8400SOL     OW26098   1.038   0.922   4.567
 8400SOL    HW126099   1.118   0.887   4.617
 8400SOL    HW226100   1.059   1.013   4.531
 8401SOL     OW26101   1.772   0.428   5.883
 8401SOL    HW126102   1.753   0.519   5.922
 8401SOL    HW226103   1.870   0.410   5.886
 8402SOL     OW26104   2.862   0.464   5.992
 8402SOL    HW126105   2.849   0.415   5.906
 8402SOL    HW226106   2.865   0.562   5.974
 8403SOL     OW26107   5.888   5.202   5.749
 8403SOL    HW126108   5.820   5.136   5.781
 8403SOL    HW226109   5.843   5.269   5.689
 8404SOL     OW26110   1.428   1.383   0.363
 8404SOL    HW126111   1.360   1.451   0.390
 8404SOL    HW226112   1.519   1.424   0.366
 8405SOL     OW26113   3.633   6.792   5.784
 8405SOL    HW126114   3.665   6.753   5.697
 8405SOL    HW226115   3.705   6.850   5.823
 8406SOL     OW26116   6.254   0.894   5.975
 8406SOL    HW126117   6.337   0.936   5.938
 8406SOL    HW226118   6.253   0.903   6.074
 8407SOL     OW26119   4.890   0.911   4.968
 8407SOL    HW126120   4.790   0.906   4.964
 8407SOL    HW226121   4.929   0.821   4.948
 8408SOL     OW26122   3.902   2.220   1.474
 8408SOL    HW126123   3.974   2.163   1.436
 8408SOL    HW226124   3.924   2.242   1.569
 8409SOL     OW26125   4.295   2.489   1.857
 8409SOL    HW126126   4.380   2.540   1.871
 8409SOL    HW226127   4.276   2.481   1.760
 8410SOL     OW26128   0.129   1.766   1.472
 8410SOL    HW126129   0.089   1.854   1.447
 8410SOL    HW226130   0.130   1.706   1.392
 8411SOL     OW26131   0.931   5.853   1.139
 8411SOL    HW126132   0.903   5.774   1.193
 8411SOL    HW226133   1.029   5.869   1.153
 8412SOL     OW26134   2.790   2.250   0.320
 8412SOL    HW126135   2.829   2.323   0.263
 8412SOL    HW226136   2.715   2.206   0.272
 8413SOL     OW26137   3.828   5.728   4.809
 8413SOL    HW126138   3.808   5.824   4.789
 8413SOL    HW226139   3.763   5.670   4.759
 8414SOL     OW26140   2.116   0.094   0.965
 8414SOL    HW126141   2.196   0.104   0.906
 8414SOL    HW226142   2.091   0.183   1.003
 8415SOL     OW26143   3.631   1.678   6.196
 8415SOL    HW126144   3.632   1.600   6.259
 8415SOL    HW226145   3.595   1.759   6.243
 8416SOL     OW26146   0.447   2.140   4.995
 8416SOL    HW126147   0.508   2.063   4.973
 8416SOL    HW226148   0.397   2.167   4.913
 8417SOL     OW26149   1.986   3.616   6.291
 8417SOL    HW126150   2.051   3.553   6.249
 8417SOL    HW226151   1.971   3.591   6.387
 8418SOL     OW26152   6.679   6.125   2.473
 8418SOL    HW126153   6.694   6.212   2.426
 8418SOL    HW226154   6.611   6.138   2.546
 8419SOL     OW26155   3.385   1.647   4.471
 8419SOL    HW126156   3.439   1.645   4.555
 8419SOL    HW226157   3.434   1.599   4.398
 8420SOL     OW26158   3.930   1.232   2.166
 8420SOL    HW126159   3.942   1.326   2.199
 8420SOL    HW226160   3.841   1.225   2.119
 8421SOL     OW26161   4.960   0.178   6.567
 8421SOL    HW126162   4.888   0.245   6.588
 8421SOL    HW226163   4.920   0.100   6.519
 8422SOL     OW26164   5.181   1.961   4.403
 8422SOL    HW126165   5.257   1.970   4.468
 8422SOL    HW226166   5.138   2.050   4.389
 8423SOL     OW26167   6.366   5.876   0.073
 8423SOL    HW126168   6.460   5.910   0.083
 8423SOL    HW226169   6.358   5.786   0.116
 8424SOL     OW26170   2.995   0.034   5.501
 8424SOL    HW126171   3.011   0.016   5.598
 8424SOL    HW226172   3.055   0.107   5.470
 8425SOL     OW26173   3.857   3.299   2.247
 8425SOL    HW126174   3.849   3.269   2.342
 8425SOL    HW226175   3.919   3.237   2.199
 8426SOL     OW26176   3.696   2.892   1.683
 8426SOL    HW126177   3.697   2.981   1.638
 8426SOL    HW226178   3.684   2.904   1.782
 8427SOL     OW26179   4.051   3.280   2.713
 8427SOL    HW126180   3.966   3.262   2.763
 8427SOL    HW226181   4.064   3.379   2.704
 8428SOL     OW26182   5.614   0.337   1.717
 8428SOL    HW126183   5.635   0.420   1.665
 8428SOL    HW226184   5.555   0.277   1.663
 8429SOL     OW26185   3.252   6.070   5.533
 8429SOL    HW126186   3.195   6.035   5.459
 8429SOL    HW226187   3.240   6.169   5.541
 8430SOL     OW26188   5.493   6.813   5.294
 8430SOL    HW126189   5.472   6.842   5.200
 8430SOL    HW226190   5.408   6.790   5.341
 8431SOL     OW26191   2.504   3.302   6.338
 8431SOL    HW126192   2.569   3.280   6.411
 8431SOL    HW226193   2.540   3.267   6.251
 8432SOL     OW26194   6.678   5.310   5.544
 8432SOL    HW126195   6.723   5.242   5.602
 8432SOL    HW226196   6.746   5.365   5.496
 8433SOL     OW26197   4.940   1.858   1.141
 8433SOL    HW126198   4.963   1.762   1.154
 8433SOL    HW226199   4.843   1.866   1.115
 8434SOL     OW26200   2.617   6.205   4.615
 8434SOL    HW126201   2.656   6.209   4.707
 8434SOL    HW226202   2.635   6.115   4.575
 8435SOL     OW26203   6.562   1.726   3.061
 8435SOL    HW126204   6.596   1.634   3.042
 8435SOL    HW226205   6.518   1.763   2.980
 8436SOL     OW26206   1.931   5.170   2.961
 8436SOL    HW126207   1.954   5.073   2.951
 8436SOL    HW226208   1.987   5.224   2.899
 8437SOL     OW26209   1.738   5.903   0.565
 8437SOL    HW126210   1.748   5.998   0.533
 8437SOL    HW226211   1.726   5.902   0.664
 8438SOL     OW26212   0.888   4.216   2.463
 8438SOL    HW126213   0.883   4.150   2.537
 8438SOL    HW226214   0.921   4.304   2.499
 8439SOL     OW26215   5.941   4.144   2.524
 8439SOL    HW126216   5.928   4.045   2.527
 8439SOL    HW226217   5.915   4.185   2.611
 8440SOL     OW26218   1.511   1.895   2.169
 8440SOL    HW126219   1.442   1.966   2.185
 8440SOL    HW226220   1.516   1.835   2.249
 8441SOL     OW26221   0.026   2.840   6.399
 8441SOL    HW126222   0.077   2.924   6.418
 8441SOL    HW226223   0.033   2.818   6.302
 8442SOL     OW26224   3.796   2.660   6.709
 8442SOL    HW126225   3.826   2.755   6.697
 8442SOL    HW226226   3.740   2.633   6.631
 8443SOL     OW26227   2.217   4.064   2.883
 8443SOL    HW126228   2.276   4.126   2.934
 8443SOL    HW226229   2.225   4.083   2.785
 8444SOL     OW26230   5.325   5.237   5.041
 8444SOL    HW126231   5.252   5.210   5.103
 8444SOL    HW226232   5.412   5.238   5.089
 8445SOL     OW26233   4.251   6.473   6.250
 8445SOL    HW126234   4.175   6.415   6.220
 8445SOL    HW226235   4.312   6.420   6.309
 8446SOL     OW26236   6.678   5.892   4.437
 8446SOL    HW126237   6.621   5.811   4.446
 8446SOL    HW226238   6.632   5.970   4.480
 8447SOL     OW26239   3.191   1.818   4.413
 8447SOL    HW126240   3.272   1.762   4.428
 8447SOL    HW226241   3.153   1.797   4.323
 8448SOL     OW26242   3.332   6.676   2.723
 8448SOL    HW126243   3.392   6.738   2.773
 8448SOL    HW226244   3.374   6.586   2.717
 8449SOL     OW26245   1.337   2.580   4.203
 8449SOL    HW126246   1.318   2.544   4.112
 8449SOL    HW226247   1.293   2.670   4.212
 8450SOL     OW26248   6.698   1.048   0.711
 8450SOL    HW126249   6.787   1.082   0.683
 8450SOL    HW226250   6.669   0.974   0.650
 8451SOL     OW26251   4.160   2.521   0.713
 8451SOL    HW126252   4.085   2.487   0.769
 8451SOL    HW226253   4.214   2.443   0.678
 8452SOL     OW26254   5.201   0.700   5.766
 8452SOL    HW126255   5.271   0.725   5.698
 8452SOL    HW226256   5.237   0.628   5.825
 8453SOL     OW26257   0.254   0.612   0.342
 8453SOL    HW126258   0.284   0.551   0.416
 8453SOL    HW226259   0.328   0.674   0.318
 8454SOL     OW26260   6.113   5.963   6.956
 8454SOL    HW126261   6.192   5.908   6.985
 8454SOL    HW226262   6.144   6.054   6.929
 8455SOL     OW26263   6.140   0.879   3.184
 8455SOL    HW126264   6.209   0.941   3.147
 8455SOL    HW226265   6.113   0.814   3.113
 8456SOL     OW26266   6.890   0.773   2.290
 8456SOL    HW126267   6.964   0.786   2.225
 8456SOL    HW226268   6.854   0.680   2.281
 8457SOL     OW26269   6.275   6.908   4.990
 8457SOL    HW126270   6.345   6.836   4.982
 8457SOL    HW226271   6.317   6.996   4.970
 8458SOL     OW26272   1.139   6.645   0.158
 8458SOL    HW126273   1.165   6.629   0.253
 8458SOL    HW226274   1.042   6.668   0.153
 8459SOL     OW26275   0.524   5.922   2.994
 8459SOL    HW126276   0.571   5.957   3.075
 8459SOL    HW226277   0.480   5.997   2.946
 8460SOL     OW26278   3.898   3.010   3.579
 8460SOL    HW126279   3.960   2.932   3.591
 8460SOL    HW226280   3.883   3.054   3.667
 8461SOL     OW26281   6.357   3.425   3.621
 8461SOL    HW126282   6.279   3.458   3.674
 8461SOL    HW226283   6.337   3.333   3.586
 8462SOL     OW26284   2.536   2.536   1.811
 8462SOL    HW126285   2.576   2.493   1.892
 8462SOL    HW226286   2.437   2.539   1.820
 8463SOL     OW26287   6.636   0.239   1.680
 8463SOL    HW126288   6.691   0.280   1.608
 8463SOL    HW226289   6.654   0.286   1.767
 8464SOL     OW26290   6.824   0.910   4.511
 8464SOL    HW126291   6.798   0.823   4.555
 8464SOL    HW226292   6.742   0.961   4.488
 8465SOL     OW26293   2.210   1.108   0.864
 8465SOL    HW126294   2.166   1.121   0.953
 8465SOL    HW226295   2.145   1.066   0.800
 8466SOL     OW26296   0.821   6.818   4.238
 8466SOL    HW126297   0.754   6.754   4.198
 8466SOL    HW226298   0.910   6.803   4.196
 8467SOL     OW26299   4.344   5.707   1.003
 8467SOL    HW126300   4.335   5.776   0.930
 8467SOL    HW226301   4.260   5.653   1.008
 8468SOL     OW26302   4.072   2.813   0.136
 8468SOL    HW126303   4.076   2.779   0.230
 8468SOL    HW226304   4.165   2.819   0.099
 8469SOL     OW26305   4.863   2.102   5.457
 8469SOL    HW126306   4.776   2.087   5.504
 8469SOL    HW226307   4.885   2.021   5.403
 8470SOL     OW26308   1.983   2.979   0.094
 8470SOL    HW126309   1.926   2.899   0.113
 8470SOL    HW226310   2.079   2.957   0.113
 8471SOL     OW26311   4.016   1.495   5.136
 8471SOL    HW126312   4.027   1.570   5.071
 8471SOL    HW226313   3.976   1.529   5.221
 8472SOL     OW26314   1.274   6.356   3.043
 8472SOL    HW126315   1.185   6.361   3.087
 8472SOL    HW226316   1.345   6.343   3.112
 8473SOL     OW26317   6.686   5.771   6.823
 8473SOL    HW126318   6.763   5.729   6.775
 8473SOL    HW226319   6.606   5.774   6.763
 8474SOL     OW26320   4.262   5.863   0.274
 8474SOL    HW126321   4.265   5.766   0.296
 8474SOL    HW226322   4.225   5.875   0.182
 8475SOL     OW26323   4.864   1.631   2.756
 8475SOL    HW126324   4.803   1.559   2.723
 8475SOL    HW226325   4.946   1.633   2.699
 8476SOL     OW26326   4.671   0.213   3.090
 8476SOL    HW126327   4.627   0.270   3.021
 8476SOL    HW226328   4.725   0.272   3.152
 8477SOL     OW26329   3.192   0.380   3.331
 8477SOL    HW126330   3.282   0.371   3.290
 8477SOL    HW226331   3.191   0.459   3.393
 8478SOL     OW26332   1.435   0.511   5.993
 8478SOL    HW126333   1.367   0.526   5.921
 8478SOL    HW226334   1.512   0.574   5.980
 8479SOL     OW26335   5.270   0.722   2.190
 8479SOL    HW126336   5.270   0.650   2.119
 8479SOL    HW226337   5.363   0.734   2.225
 8480SOL     OW26338   1.643   0.983   1.858
 8480SOL    HW126339   1.739   1.012   1.858
 8480SOL    HW226340   1.630   0.912   1.927
 8481SOL     OW26341   3.926   0.063   5.655
 8481SOL    HW126342   4.024   0.083   5.658
 8481SOL    HW226343   3.897   0.024   5.743
 8482SOL     OW26344   6.923   0.654   1.352
 8482SOL    HW126345   7.011   0.642   1.398
 8482SOL    HW226346   6.916   0.748   1.318
 8483SOL     OW26347   5.128   6.334   1.887
 8483SOL    HW126348   5.141   6.433   1.879
 8483SOL    HW226349   5.195   6.297   1.952
 8484SOL     OW26350   6.701   4.690   5.538
 8484SOL    HW126351   6.737   4.763   5.480
 8484SOL    HW226352   6.604   4.708   5.557
 8485SOL     OW26353   2.264   3.208   6.363
 8485SOL    HW126354   2.356   3.244   6.350
 8485SOL    HW226355   2.197   3.271   6.324
 8486SOL     OW26356   4.416   0.777   2.516
 8486SOL    HW126357   4.430   0.696   2.574
 8486SOL    HW226358   4.426   0.860   2.571
 8487SOL     OW26359   4.317   0.398   0.690
 8487SOL    HW126360   4.279   0.417   0.599
 8487SOL    HW226361   4.279   0.463   0.756
 8488SOL     OW26362   6.932   3.564   5.487
 8488SOL    HW126363   6.885   3.616   5.416
 8488SOL    HW226364   6.899   3.592   5.577
 8489SOL     OW26365   3.221   6.880   3.474
 8489SOL    HW126366   3.205   6.978   3.459
 8489SOL    HW226367   3.135   6.836   3.499
 8490SOL     OW26368   3.935   4.953   2.784
 8490SOL    HW126369   4.020   4.908   2.758
 8490SOL    HW226370   3.867   4.938   2.712
 8491SOL     OW26371   0.865   0.565   1.503
 8491SOL    HW126372   0.795   0.550   1.433
 8491SOL    HW226373   0.918   0.646   1.480
 8492SOL     OW26374   5.789   3.994   4.847
 8492SOL    HW126375   5.795   4.011   4.749
 8492SOL    HW226376   5.694   3.985   4.874
 8493SOL     OW26377   3.661   3.129   0.715
 8493SOL    HW126378   3.574   3.082   0.733
 8493SOL    HW226379   3.653   3.180   0.630
 8494SOL     OW26380   3.422   6.433   6.509
 8494SOL    HW126381   3.386   6.375   6.436
 8494SOL    HW226382   3.363   6.425   6.590
 8495SOL     OW26383   0.705   2.771   6.383
 8495SOL    HW126384   0.622   2.725   6.414
 8495SOL    HW226385   0.783   2.709   6.392
 8496SOL     OW26386   1.229   2.355   3.777
 8496SOL    HW126387   1.190   2.387   3.863
 8496SOL    HW226388   1.248   2.257   3.783
 8497SOL     OW26389   5.623   3.929   3.841
 8497SOL    HW126390   5.557   3.936   3.767
 8497SOL    HW226391   5.693   4.001   3.831
 8498SOL     OW26392   6.601   0.684   1.378
 8498SOL    HW126393   6.692   0.700   1.415
 8498SOL    HW226394   6.607   0.670   1.280
 8499SOL     OW26395   0.070   4.281   0.381
 8499SOL    HW126396   7.017   4.232   0.431
 8499SOL    HW226397   0.063   4.379   0.401
 8500SOL     OW26398   2.134   0.624   5.321
 8500SOL    HW126399   2.207   0.595   5.383
 8500SOL    HW226400   2.159   0.601   5.227
 8501SOL     OW26401   2.863   3.809   6.400
 8501SOL    HW126402   2.884   3.788   6.305
 8501SOL    HW226403   2.879   3.728   6.457
 8502SOL     OW26404   0.812   6.542   1.538
 8502SOL    HW126405   0.799   6.467   1.603
 8502SOL    HW226406   0.729   6.596   1.532
 8503SOL     OW26407   4.010   5.306   3.285
 8503SOL    HW126408   3.972   5.391   3.251
 8503SOL    HW226409   3.942   5.233   3.274
 8504SOL     OW26410   1.811   4.903   3.360
 8504SOL    HW126411   1.883   4.918   3.427
 8504SOL    HW226412   1.804   4.983   3.300
 8505SOL     OW26413   4.280   1.877   3.086
 8505SOL    HW126414   4.320   1.956   3.039
 8505SOL    HW226415   4.181   1.880   3.078
 8506SOL     OW26416   0.570   5.409   6.914
 8506SOL    HW126417   0.533   5.341   6.851
 8506SOL    HW226418   0.563   5.500   6.872
 8507SOL     OW26419   1.722   0.461   4.212
 8507SOL    HW126420   1.813   0.495   4.234
 8507SOL    HW226421   1.681   0.518   4.141
 8508SOL     OW26422   0.511   3.528   5.655
 8508SOL    HW126423   0.556   3.582   5.584
 8508SOL    HW226424   0.418   3.505   5.626
 8509SOL     OW26425   6.389   2.210   4.788
 8509SOL    HW126426   6.418   2.196   4.882
 8509SOL    HW226427   6.465   2.248   4.735
 8510SOL     OW26428   5.206   0.066   2.661
 8510SOL    HW126429   5.213   6.987   2.681
 8510SOL    HW226430   5.109   0.091   2.655
 8511SOL     OW26431   6.526   5.560   1.583
 8511SOL    HW126432   6.596   5.501   1.624
 8511SOL    HW226433   6.550   5.580   1.488
 8512SOL     OW26434   4.006   2.708   0.934
 8512SOL    HW126435   4.005   2.777   1.006
 8512SOL    HW226436   3.914   2.698   0.896
 8513SOL     OW26437   0.600   3.123   0.765
 8513SOL    HW126438   0.510   3.153   0.733
 8513SOL    HW226439   0.660   3.202   0.776
 8514SOL     OW26440   2.227   3.071   4.808
 8514SOL    HW126441   2.144   3.124   4.824
 8514SOL    HW226442   2.283   3.070   4.892
 8515SOL     OW26443   3.100   1.287   0.078
 8515SOL    HW126444   3.033   1.332   0.019
 8515SOL    HW226445   3.156   1.225   0.023
 8516SOL     OW26446   6.684   3.515   5.050
 8516SOL    HW126447   6.592   3.525   5.011
 8516SOL    HW226448   6.696   3.422   5.084
 8517SOL     OW26449   1.502   1.847   5.669
 8517SOL    HW126450   1.505   1.758   5.715
 8517SOL    HW226451   1.409   1.883   5.674
 8518SOL     OW26452   5.561   4.934   0.137
 8518SOL    HW126453   5.564   4.844   0.094
 8518SOL    HW226454   5.586   4.925   0.233
 8519SOL     OW26455   0.762   3.755   0.723
 8519SOL    HW126456   0.740   3.691   0.650
 8519SOL    HW226457   0.804   3.837   0.684
 8520SOL     OW26458   3.368   3.668   6.170
 8520SOL    HW126459   3.329   3.760   6.169
 8520SOL    HW226460   3.454   3.667   6.119
 8521SOL     OW26461   2.087   6.883   4.391
 8521SOL    HW126462   2.096   6.891   4.292
 8521SOL    HW226463   2.044   6.796   4.414
 8522SOL     OW26464   0.436   0.534   0.000
 8522SOL    HW126465   0.466   0.500   0.089
 8522SOL    HW226466   0.339   0.513   7.006
 8523SOL     OW26467   4.080   2.009   1.408
 8523SOL    HW126468   4.011   1.936   1.410
 8523SOL    HW226469   4.132   2.003   1.323
 8524SOL     OW26470   2.639   6.146   5.300
 8524SOL    HW126471   2.677   6.237   5.286
 8524SOL    HW226472   2.553   6.153   5.351
 8525SOL     OW26473   6.405   2.774   2.991
 8525SOL    HW126474   6.372   2.719   3.068
 8525SOL    HW226475   6.365   2.741   2.906
 8526SOL     OW26476   0.626   4.502   6.732
 8526SOL    HW126477   0.581   4.414   6.715
 8526SOL    HW226478   0.593   4.569   6.665
 8527SOL     OW26479   2.563   0.956   6.150
 8527SOL    HW126480   2.610   0.884   6.098
 8527SOL    HW226481   2.574   1.043   6.102
 8528SOL     OW26482   5.778   0.233   0.406
 8528SOL    HW126483   5.693   0.192   0.372
 8528SOL    HW226484   5.762   0.272   0.496
 8529SOL     OW26485   1.140   6.259   6.635
 8529SOL    HW126486   1.052   6.291   6.600
 8529SOL    HW226487   1.133   6.163   6.662
 8530SOL     OW26488   3.918   3.956   3.027
 8530SOL    HW126489   3.917   3.920   2.933
 8530SOL    HW226490   3.998   3.920   3.075
 8531SOL     OW26491   6.803   5.684   3.118
 8531SOL    HW126492   6.716   5.665   3.163
 8531SOL    HW226493   6.797   5.663   3.021
 8532SOL     OW26494   3.488   5.208   0.242
 8532SOL    HW126495   3.472   5.179   0.148
 8532SOL    HW226496   3.412   5.177   0.300
 8533SOL     OW26497   2.726   5.798   5.149
 8533SOL    HW126498   2.698   5.861   5.076
 8533SOL    HW226499   2.745   5.850   5.232
 8534SOL     OW26500   1.771   3.605   2.011
 8534SOL    HW126501   1.756   3.616   1.913
 8534SOL    HW226502   1.747   3.511   2.038
 8535SOL     OW26503   6.491   0.005   2.109
 8535SOL    HW126504   6.463   6.931   2.082
 8535SOL    HW226505   6.412   0.066   2.104
 8536SOL     OW26506   1.725   1.159   3.671
 8536SOL    HW126507   1.743   1.118   3.581
 8536SOL    HW226508   1.779   1.111   3.740
 8537SOL     OW26509   5.846   1.205   2.883
 8537SOL    HW126510   5.815   1.207   2.978
 8537SOL    HW226511   5.876   1.296   2.856
 8538SOL     OW26512   0.703   2.454   6.506
 8538SOL    HW126513   0.773   2.524   6.518
 8538SOL    HW226514   0.659   2.435   6.594
 8539SOL     OW26515   5.247   3.251   2.237
 8539SOL    HW126516   5.304   3.333   2.227
 8539SOL    HW226517   5.153   3.274   2.215
 8540SOL     OW26518   4.182   0.051   0.971
 8540SOL    HW126519   4.199   6.988   1.028
 8540SOL    HW226520   4.089   0.084   0.988
 8541SOL     OW26521   1.411   3.069   3.418
 8541SOL    HW126522   1.448   3.127   3.491
 8541SOL    HW226523   1.344   3.005   3.457
 8542SOL     OW26524   2.888   4.615   6.427
 8542SOL    HW126525   2.953   4.657   6.491
 8542SOL    HW226526   2.802   4.598   6.475
 8543SOL     OW26527   3.957   2.517   6.885
 8543SOL    HW126528   3.893   2.550   6.816
 8543SOL    HW226529   3.917   2.529   6.976
 8544SOL     OW26530   5.657   1.675   4.202
 8544SOL    HW126531   5.656   1.757   4.144
 8544SOL    HW226532   5.674   1.702   4.297
 8545SOL     OW26533   4.128   6.778   5.389
 8545SOL    HW126534   4.170   6.848   5.331
 8545SOL    HW226535   4.030   6.772   5.367
 8546SOL     OW26536   4.235   2.519   6.914
 8546SOL    HW126537   4.143   2.509   6.876
 8546SOL    HW226538   4.231   2.509   7.013
 8547SOL     OW26539   1.716   4.557   2.289
 8547SOL    HW126540   1.653   4.623   2.329
 8547SOL    HW226541   1.732   4.580   2.193
 8548SOL     OW26542   6.005   2.518   5.523
 8548SOL    HW126543   6.010   2.424   5.489
 8548SOL    HW226544   6.049   2.523   5.613
 8549SOL     OW26545   5.247   2.902   5.142
 8549SOL    HW126546   5.152   2.873   5.153
 8549SOL    HW226547   5.305   2.822   5.130
 8550SOL     OW26548   1.675   4.341   5.511
 8550SOL    HW126549   1.645   4.387   5.595
 8550SOL    HW226550   1.759   4.290   5.530
 8551SOL     OW26551   2.016   4.656   1.162
 8551SOL    HW126552   2.088   4.726   1.167
 8551SOL    HW226553   2.030   4.589   1.235
 8552SOL     OW26554   3.107   6.793   4.483
 8552SOL    HW126555   3.139   6.748   4.566
 8552SOL    HW226556   3.163   6.765   4.406
 8553SOL     OW26557   6.291   5.570   0.203
 8553SOL    HW126558   6.354   5.540   0.274
 8553SOL    HW226559   6.209   5.609   0.244
 8554SOL     OW26560   5.825   3.718   0.389
 8554SOL    HW126561   5.803   3.720   0.291
 8554SOL    HW226562   5.769   3.648   0.434
 8555SOL     OW26563   1.903   6.311   4.429
 8555SOL    HW126564   1.943   6.249   4.361
 8555SOL    HW226565   1.971   6.379   4.455
 8556SOL     OW26566   5.533   0.115   4.989
 8556SOL    HW126567   5.540   0.097   4.891
 8556SOL    HW226568   5.602   0.182   5.016
 8557SOL     OW26569   6.339   1.545   0.861
 8557SOL    HW126570   6.274   1.478   0.897
 8557SOL    HW226571   6.322   1.634   0.904
 8558SOL     OW26572   1.756   4.431   2.787
 8558SOL    HW126573   1.833   4.372   2.759
 8558SOL    HW226574   1.779   4.527   2.769
 8559SOL     OW26575   0.692   1.325   4.857
 8559SOL    HW126576   0.641   1.299   4.775
 8559SOL    HW226577   0.671   1.420   4.881
 8560SOL     OW26578   6.616   2.682   6.725
 8560SOL    HW126579   6.526   2.694   6.766
 8560SOL    HW226580   6.620   2.593   6.679
 8561SOL     OW26581   4.974   5.976   6.310
 8561SOL    HW126582   4.906   6.033   6.265
 8561SOL    HW226583   5.012   5.911   6.244
 8562SOL     OW26584   3.835   0.665   4.485
 8562SOL    HW126585   3.747   0.708   4.502
 8562SOL    HW226586   3.857   0.670   4.387
 8563SOL     OW26587   2.769   2.952   6.474
 8563SOL    HW126588   2.835   2.891   6.432
 8563SOL    HW226589   2.677   2.913   6.466
 8564SOL     OW26590   0.661   5.540   3.360
 8564SOL    HW126591   0.590   5.562   3.294
 8564SOL    HW226592   0.637   5.579   3.449
 8565SOL     OW26593   3.462   0.869   1.096
 8565SOL    HW126594   3.491   0.797   1.160
 8565SOL    HW226595   3.392   0.833   1.035
 8566SOL     OW26596   1.530   4.065   4.249
 8566SOL    HW126597   1.491   3.986   4.201
 8566SOL    HW226598   1.541   4.141   4.185
 8567SOL     OW26599   5.401   6.464   6.289
 8567SOL    HW126600   5.414   6.431   6.195
 8567SOL    HW226601   5.438   6.398   6.353
 8568SOL     OW26602   5.494   6.902   0.510
 8568SOL    HW126603   5.494   6.881   0.608
 8568SOL    HW226604   5.463   6.822   0.459
 8569SOL     OW26605   2.885   0.551   5.408
 8569SOL    HW126606   2.870   0.622   5.340
 8569SOL    HW226607   2.826   0.472   5.388
 8570SOL     OW26608   6.628   3.398   6.668
 8570SOL    HW126609   6.651   3.310   6.709
 8570SOL    HW226610   6.529   3.413   6.673
 8571SOL     OW26611   6.641   4.617   5.898
 8571SOL    HW126612   6.561   4.656   5.941
 8571SOL    HW226613   6.719   4.680   5.907
 8572SOL     OW26614   3.029   4.927   6.470
 8572SOL    HW126615   3.049   5.021   6.499
 8572SOL    HW226616   3.030   4.867   6.550
 8573SOL     OW26617   3.723   6.051   4.347
 8573SOL    HW126618   3.707   5.987   4.272
 8573SOL    HW226619   3.794   6.116   4.319
 8574SOL     OW26620   1.067   3.988   4.325
 8574SOL    HW126621   1.129   3.918   4.361
 8574SOL    HW226622   1.096   4.078   4.356
 8575SOL     OW26623   2.852   3.462   6.222
 8575SOL    HW126624   2.868   3.507   6.310
 8575SOL    HW226625   2.849   3.363   6.234
 8576SOL     OW26626   2.291   0.512   0.693
 8576SOL    HW126627   2.278   0.611   0.686
 8576SOL    HW226628   2.207   0.470   0.726
 8577SOL     OW26629   6.226   5.731   4.613
 8577SOL    HW126630   6.149   5.667   4.609
 8577SOL    HW226631   6.312   5.681   4.597
 8578SOL     OW26632   4.506   0.958   4.148
 8578SOL    HW126633   4.577   0.915   4.203
 8578SOL    HW226634   4.418   0.950   4.195
 8579SOL     OW26635   0.632   4.438   2.588
 8579SOL    HW126636   0.642   4.369   2.660
 8579SOL    HW226637   0.565   4.407   2.521
 8580SOL     OW26638   2.385   5.511   6.006
 8580SOL    HW126639   2.340   5.427   6.036
 8580SOL    HW226640   2.404   5.504   5.908
 8581SOL     OW26641   3.604   3.623   0.214
 8581SOL    HW126642   3.548   3.549   0.250
 8581SOL    HW226643   3.624   3.688   0.288
 8582SOL     OW26644   3.831   4.837   7.000
 8582SOL    HW126645   3.782   4.776   0.044
 8582SOL    HW226646   3.924   4.852   0.016
 8583SOL     OW26647   5.305   0.095   4.720
 8583SOL    HW126648   5.295   0.022   4.653
 8583SOL    HW226649   5.309   0.183   4.672
 8584SOL     OW26650   0.477   5.818   6.143
 8584SOL    HW126651   0.545   5.880   6.181
 8584SOL    HW226652   0.500   5.724   6.169
 8585SOL     OW26653   1.455   1.362   0.691
 8585SOL    HW126654   1.369   1.409   0.671
 8585SOL    HW226655   1.531   1.409   0.645
 8586SOL     OW26656   3.663   5.092   3.758
 8586SOL    HW126657   3.580   5.144   3.775
 8586SOL    HW226658   3.667   5.014   3.820
 8587SOL     OW26659   6.412   1.596   1.407
 8587SOL    HW126660   6.395   1.548   1.493
 8587SOL    HW226661   6.427   1.693   1.425
 8588SOL     OW26662   3.875   3.012   6.459
 8588SOL    HW126663   3.890   2.932   6.401
 8588SOL    HW226664   3.818   2.986   6.537
 8589SOL     OW26665   2.682   1.782   3.795
 8589SOL    HW126666   2.682   1.880   3.775
 8589SOL    HW226667   2.732   1.733   3.724
 8590SOL     OW26668   5.422   4.202   5.334
 8590SOL    HW126669   5.328   4.169   5.328
 8590SOL    HW226670   5.462   4.173   5.421
 8591SOL     OW26671   0.598   2.888   0.556
 8591SOL    HW126672   0.625   2.963   0.616
 8591SOL    HW226673   0.521   2.838   0.596
 8592SOL     OW26674   6.497   6.322   6.863
 8592SOL    HW126675   6.513   6.420   6.857
 8592SOL    HW226676   6.504   6.282   6.772
 8593SOL     OW26677   0.555   5.047   3.457
 8593SOL    HW126678   0.518   5.014   3.370
 8593SOL    HW226679   0.506   5.002   3.532
 8594SOL     OW26680   4.126   3.522   2.619
 8594SOL    HW126681   4.217   3.557   2.643
 8594SOL    HW226682   4.130   3.480   2.529
 8595SOL     OW26683   1.566   3.033   1.866
 8595SOL    HW126684   1.508   3.006   1.789
 8595SOL    HW226685   1.661   3.043   1.834
 8596SOL     OW26686   6.710   4.030   2.687
 8596SOL    HW126687   6.731   4.022   2.784
 8596SOL    HW226688   6.656   4.113   2.671
 8597SOL     OW26689   2.180   1.563   1.039
 8597SOL    HW126690   2.229   1.650   1.031
 8597SOL    HW226691   2.082   1.579   1.030
 8598SOL     OW26692   6.087   2.688   1.869
 8598SOL    HW126693   6.130   2.608   1.827
 8598SOL    HW226694   6.158   2.754   1.896
 8599SOL     OW26695   0.855   2.151   0.939
 8599SOL    HW126696   0.876   2.086   0.866
 8599SOL    HW226697   0.940   2.179   0.984
 8600SOL     OW26698   6.939   2.465   6.073
 8600SOL    HW126699   7.004   2.398   6.038
 8600SOL    HW226700   6.987   2.532   6.129
 8601SOL     OW26701   0.815   0.549   5.091
 8601SOL    HW126702   0.729   0.531   5.043
 8601SOL    HW226703   0.889   0.496   5.048
 8602SOL     OW26704   1.022   6.313   2.450
 8602SOL    HW126705   0.986   6.310   2.543
 8602SOL    HW226706   1.061   6.224   2.426
 8603SOL     OW26707   5.002   3.603   2.087
 8603SOL    HW126708   4.969   3.570   1.998
 8603SOL    HW226709   4.947   3.681   2.116
 8604SOL     OW26710   6.028   1.685   3.599
 8604SOL    HW126711   6.106   1.689   3.661
 8604SOL    HW226712   6.059   1.698   3.505
 8605SOL     OW26713   2.739   5.362   1.726
 8605SOL    HW126714   2.821   5.319   1.764
 8605SOL    HW226715   2.692   5.297   1.666
 8606SOL     OW26716   3.959   5.235   4.358
 8606SOL    HW126717   3.891   5.210   4.290
 8606SOL    HW226718   3.953   5.172   4.436
 8607SOL     OW26719   2.848   6.174   0.187
 8607SOL    HW126720   2.760   6.221   0.187
 8607SOL    HW226721   2.833   6.076   0.199
 8608SOL     OW26722   5.720   6.567   2.531
 8608SOL    HW126723   5.653   6.560   2.457
 8608SOL    HW226724   5.803   6.610   2.497
 8609SOL     OW26725   5.852   0.291   5.734
 8609SOL    HW126726   5.864   0.362   5.803
 8609SOL    HW226727   5.827   0.333   5.647
 8610SOL     OW26728   6.513   6.471   5.119
 8610SOL    HW126729   6.583   6.478   5.189
 8610SOL    HW226730   6.463   6.385   5.130
 8611SOL     OW26731   1.711   2.011   2.586
 8611SOL    HW126732   1.754   1.976   2.670
 8611SOL    HW226733   1.778   2.013   2.512
 8612SOL     OW26734   5.244   3.097   4.454
 8612SOL    HW126735   5.277   3.186   4.486
 8612SOL    HW226736   5.147   3.088   4.476
 8613SOL     OW26737   1.266   0.387   0.517
 8613SOL    HW126738   1.281   0.466   0.458
 8613SOL    HW226739   1.240   0.308   0.461
 8614SOL     OW26740   1.574   3.156   3.205
 8614SOL    HW126741   1.670   3.182   3.220
 8614SOL    HW226742   1.535   3.124   3.292
 8615SOL     OW26743   5.019   1.846   6.123
 8615SOL    HW126744   4.973   1.758   6.112
 8615SOL    HW226745   5.022   1.870   6.220
 8616SOL     OW26746   1.210   3.298   0.695
 8616SOL    HW126747   1.183   3.385   0.736
 8616SOL    HW226748   1.291   3.263   0.740
 8617SOL     OW26749   6.386   3.124   0.635
 8617SOL    HW126750   6.398   3.211   0.682
 8617SOL    HW226751   6.359   3.054   0.701
 8618SOL     OW26752   3.365   1.447   2.810
 8618SOL    HW126753   3.374   1.543   2.837
 8618SOL    HW226754   3.287   1.406   2.858
 8619SOL     OW26755   3.602   6.596   0.750
 8619SOL    HW126756   3.685   6.630   0.795
 8619SOL    HW226757   3.619   6.506   0.710
 8620SOL     OW26758   6.134   6.052   4.049
 8620SOL    HW126759   6.045   6.006   4.051
 8620SOL    HW226760   6.185   6.028   4.132
 8621SOL     OW26761   4.970   1.088   3.458
 8621SOL    HW126762   5.025   1.161   3.497
 8621SOL    HW226763   4.878   1.122   3.438
 8622SOL     OW26764   5.255   4.927   6.242
 8622SOL    HW126765   5.297   5.015   6.265
 8622SOL    HW226766   5.205   4.936   6.155
 8623SOL     OW26767   5.769   2.049   3.793
 8623SOL    HW126768   5.755   2.077   3.698
 8623SOL    HW226769   5.829   1.969   3.796
 8624SOL     OW26770   6.146   2.867   3.632
 8624SOL    HW126771   6.058   2.883   3.587
 8624SOL    HW226772   6.217   2.855   3.563
 8625SOL     OW26773   3.652   1.261   6.488
 8625SOL    HW126774   3.591   1.338   6.505
 8625SOL    HW226775   3.653   1.240   6.390
 8626SOL     OW26776   3.206   3.767   1.771
 8626SOL    HW126777   3.205   3.667   1.767
 8626SOL    HW226778   3.151   3.804   1.697
 8627SOL     OW26779   3.097   0.276   6.681
 8627SOL    HW126780   3.101   0.283   6.781
 8627SOL    HW226781   3.184   0.303   6.642
 8628SOL     OW26782   6.337   1.128   1.523
 8628SOL    HW126783   6.267   1.066   1.557
 8628SOL    HW226784   6.296   1.192   1.458
 8629SOL     OW26785   1.331   6.110   3.266
 8629SOL    HW126786   1.405   6.101   3.199
 8629SOL    HW226787   1.335   6.034   3.331
 8630SOL     OW26788   4.945   4.833   4.278
 8630SOL    HW126789   4.960   4.931   4.278
 8630SOL    HW226790   4.926   4.802   4.185
 8631SOL     OW26791   4.083   6.981   3.427
 8631SOL    HW126792   4.168   6.929   3.421
 8631SOL    HW226793   4.033   6.953   3.509
 8632SOL     OW26794   3.270   0.763   3.260
 8632SOL    HW126795   3.261   0.722   3.351
 8632SOL    HW226796   3.277   0.691   3.192
 8633SOL     OW26797   6.473   6.471   2.743
 8633SOL    HW126798   6.481   6.528   2.825
 8633SOL    HW226799   6.382   6.483   2.703
 8634SOL     OW26800   6.316   6.205   1.714
 8634SOL    HW126801   6.284   6.282   1.769
 8634SOL    HW226802   6.293   6.220   1.618
 8635SOL     OW26803   6.148   3.890   6.130
 8635SOL    HW126804   6.050   3.881   6.145
 8635SOL    HW226805   6.179   3.979   6.164
 8636SOL     OW26806   5.713   4.820   1.105
 8636SOL    HW126807   5.803   4.779   1.088
 8636SOL    HW226808   5.721   4.919   1.106
 8637SOL     OW26809   0.796   0.592   2.068
 8637SOL    HW126810   0.798   0.692   2.063
 8637SOL    HW226811   0.839   0.553   1.986
 8638SOL     OW26812   6.067   4.362   1.140
 8638SOL    HW126813   5.970   4.339   1.130
 8638SOL    HW226814   6.091   4.363   1.237
 8639SOL     OW26815   5.983   2.584   3.068
 8639SOL    HW126816   6.036   2.552   3.147
 8639SOL    HW226817   6.016   2.540   2.985
 8640SOL     OW26818   4.900   6.058   1.522
 8640SOL    HW126819   4.880   6.078   1.426
 8640SOL    HW226820   4.815   6.035   1.570
 8641SOL     OW26821   5.256   4.617   3.883
 8641SOL    HW126822   5.296   4.707   3.871
 8641SOL    HW226823   5.266   4.588   3.978
 8642SOL     OW26824   4.515   1.420   0.841
 8642SOL    HW126825   4.417   1.408   0.825
 8642SOL    HW226826   4.553   1.336   0.879
 8643SOL     OW26827   4.699   6.963   7.000
 8643SOL    HW126828   4.750   7.001   6.924
 8643SOL    HW226829   4.675   0.017   0.046
 8644SOL     OW26830   6.320   3.028   5.562
 8644SOL    HW126831   6.403   2.976   5.543
 8644SOL    HW226832   6.318   3.054   5.659
 8645SOL     OW26833   6.557   3.688   1.851
 8645SOL    HW126834   6.656   3.706   1.850
 8645SOL    HW226835   6.541   3.591   1.867
 8646SOL     OW26836   4.673   6.290   0.576
 8646SOL    HW126837   4.653   6.382   0.611
 8646SOL    HW226838   4.630   6.279   0.486
 8647SOL     OW26839   5.015   5.102   2.103
 8647SOL    HW126840   5.096   5.148   2.138
 8647SOL    HW226841   4.939   5.167   2.098
 8648SOL     OW26842   6.263   0.585   4.219
 8648SOL    HW126843   6.316   0.511   4.178
 8648SOL    HW226844   6.170   0.554   4.237
 8649SOL     OW26845   6.532   3.816   5.730
 8649SOL    HW126846   6.599   3.834   5.802
 8649SOL    HW226847   6.460   3.756   5.764
 8650SOL     OW26848   0.595   5.694   1.521
 8650SOL    HW126849   0.647   5.609   1.531
 8650SOL    HW226850   0.560   5.700   1.427
 8651SOL     OW26851   4.280   3.523   1.375
 8651SOL    HW126852   4.220   3.511   1.454
 8651SOL    HW226853   4.314   3.617   1.373
 8652SOL     OW26854   0.634   2.505   4.469
 8652SOL    HW126855   0.667   2.580   4.412
 8652SOL    HW226856   0.638   2.420   4.417
 8653SOL     OW26857   5.159   3.063   6.488
 8653SOL    HW126858   5.140   3.053   6.390
 8653SOL    HW226859   5.218   3.142   6.502
 8654SOL     OW26860   1.470   4.783   1.567
 8654SOL    HW126861   1.479   4.866   1.623
 8654SOL    HW226862   1.463   4.704   1.628
 8655SOL     OW26863   5.543   6.129   3.022
 8655SOL    HW126864   5.598   6.202   3.061
 8655SOL    HW226865   5.499   6.077   3.095
 8656SOL     OW26866   6.543   2.326   1.774
 8656SOL    HW126867   6.623   2.363   1.726
 8656SOL    HW226868   6.555   2.227   1.787
 8657SOL     OW26869   2.682   5.100   0.500
 8657SOL    HW126870   2.712   5.079   0.593
 8657SOL    HW226871   2.761   5.103   0.439
 8658SOL     OW26872   1.144   5.871   5.698
 8658SOL    HW126873   1.116   5.930   5.774
 8658SOL    HW226874   1.064   5.825   5.660
 8659SOL     OW26875   3.881   6.946   4.595
 8659SOL    HW126876   3.929   6.877   4.541
 8659SOL    HW226877   3.940   0.007   4.606
 8660SOL     OW26878   4.965   4.552   0.393
 8660SOL    HW126879   4.973   4.548   0.493
 8660SOL    HW226880   4.908   4.629   0.367
 8661SOL     OW26881   6.619   2.980   1.968
 8661SOL    HW126882   6.651   3.075   1.978
 8661SOL    HW226883   6.559   2.957   2.044
 8662SOL     OW26884   0.266   1.120   0.047
 8662SOL    HW126885   0.191   1.061   0.018
 8662SOL    HW226886   0.346   1.103   7.008
 8663SOL     OW26887   2.522   5.731   0.953
 8663SOL    HW126888   2.436   5.759   0.912
 8663SOL    HW226889   2.597   5.785   0.914
 8664SOL     OW26890   4.726   4.423   1.329
 8664SOL    HW126891   4.651   4.408   1.394
 8664SOL    HW226892   4.689   4.465   1.246
 8665SOL     OW26893   5.212   5.212   4.585
 8665SOL    HW126894   5.254   5.271   4.654
 8665SOL    HW226895   5.170   5.268   4.514
 8666SOL     OW26896   6.817   4.584   4.416
 8666SOL    HW126897   6.813   4.485   4.432
 8666SOL    HW226898   6.787   4.632   4.498
 8667SOL     OW26899   5.356   2.393   3.309
 8667SOL    HW126900   5.327   2.392   3.214
 8667SOL    HW226901   5.298   2.455   3.361
 8668SOL     OW26902   3.434   0.787   5.367
 8668SOL    HW126903   3.516   0.770   5.422
 8668SOL    HW226904   3.356   0.740   5.407
 8669SOL     OW26905   3.385   6.742   6.420
 8669SOL    HW126906   3.389   6.648   6.455
 8669SOL    HW226907   3.350   6.802   6.492
 8670SOL     OW26908   4.379   4.569   2.421
 8670SOL    HW126909   4.464   4.616   2.399
 8670SOL    HW226910   4.303   4.633   2.416
 8671SOL     OW26911   5.841   5.789   1.945
 8671SOL    HW126912   5.855   5.724   1.869
 8671SOL    HW226913   5.871   5.747   2.030
 8672SOL     OW26914   3.753   4.960   4.493
 8672SOL    HW126915   3.794   4.908   4.418
 8672SOL    HW226916   3.810   4.952   4.574
 8673SOL     OW26917   4.943   2.085   6.670
 8673SOL    HW126918   4.965   2.182   6.660
 8673SOL    HW226919   4.963   2.056   6.763
 8674SOL     OW26920   0.802   6.858   2.676
 8674SOL    HW126921   0.842   6.817   2.595
 8674SOL    HW226922   0.807   6.958   2.669
 8675SOL     OW26923   2.355   1.707   2.395
 8675SOL    HW126924   2.431   1.657   2.435
 8675SOL    HW226925   2.369   1.805   2.409
 8676SOL     OW26926   4.865   1.346   3.856
 8676SOL    HW126927   4.775   1.387   3.845
 8676SOL    HW226928   4.885   1.333   3.953
 8677SOL     OW26929   1.974   3.716   5.743
 8677SOL    HW126930   2.006   3.622   5.746
 8677SOL    HW226931   1.958   3.749   5.836
 8678SOL     OW26932   1.014   0.280   6.130
 8678SOL    HW126933   1.006   0.375   6.160
 8678SOL    HW226934   1.021   0.220   6.210
 8679SOL     OW26935   6.005   2.031   4.509
 8679SOL    HW126936   5.938   2.019   4.436
 8679SOL    HW226937   5.965   2.087   4.582
 8680SOL     OW26938   0.883   3.056   6.923
 8680SOL    HW126939   0.944   3.122   6.880
 8680SOL    HW226940   0.857   3.089   7.014
 8681SOL     OW26941   4.251   4.063   1.351
 8681SOL    HW126942   4.327   4.128   1.349
 8681SOL    HW226943   4.199   4.075   1.435
 8682SOL     OW26944   1.393   5.947   2.846
 8682SOL    HW126945   1.383   6.017   2.775
 8682SOL    HW226946   1.428   5.863   2.805
 8683SOL     OW26947   4.772   3.450   0.004
 8683SOL    HW126948   4.866   3.455   0.038
 8683SOL    HW226949   4.754   3.357   6.990
 8684SOL     OW26950   6.491   2.532   3.563
 8684SOL    HW126951   6.510   2.572   3.474
 8684SOL    HW226952   6.403   2.566   3.597
 8685SOL     OW26953   0.230   1.984   5.628
 8685SOL    HW126954   0.296   1.947   5.563
 8685SOL    HW226955   0.142   1.937   5.616
 8686SOL     OW26956   6.298   1.163   4.065
 8686SOL    HW126957   6.318   1.102   4.142
 8686SOL    HW226958   6.245   1.113   3.996
 8687SOL     OW26959   3.655   1.023   2.761
 8687SOL    HW126960   3.621   1.080   2.836
 8687SOL    HW226961   3.677   0.932   2.796
 8688SOL     OW26962   0.767   6.543   2.385
 8688SOL    HW126963   0.802   6.470   2.327
 8688SOL    HW226964   0.842   6.580   2.440
 8689SOL     OW26965   5.071   4.182   1.705
 8689SOL    HW126966   5.131   4.172   1.784
 8689SOL    HW226967   5.122   4.222   1.629
 8690SOL     OW26968   1.630   0.829   2.109
 8690SOL    HW126969   1.690   0.752   2.129
 8690SOL    HW226970   1.629   0.892   2.187
 8691SOL     OW26971   5.985   1.358   0.236
 8691SOL    HW126972   5.932   1.406   0.307
 8691SOL    HW226973   5.923   1.301   0.182
 8692SOL     OW26974   1.509   1.402   3.632
 8692SOL    HW126975   1.424   1.380   3.679
 8692SOL    HW226976   1.577   1.332   3.651
 8693SOL     OW26977   5.377   2.202   6.393
 8693SOL    HW126978   5.395   2.296   6.362
 8693SOL    HW226979   5.319   2.156   6.325
 8694SOL     OW26980   4.111   0.073   6.704
 8694SOL    HW126981   4.029   0.032   6.663
 8694SOL    HW226982   4.091   0.167   6.731
 8695SOL     OW26983   4.337   4.204   5.373
 8695SOL    HW126984   4.299   4.275   5.315
 8695SOL    HW226985   4.432   4.186   5.345
 8696SOL     OW26986   2.120   5.477   0.445
 8696SOL    HW126987   2.037   5.512   0.401
 8696SOL    HW226988   2.110   5.485   0.544
 8697SOL     OW26989   5.163   5.075   6.631
 8697SOL    HW126990   5.077   5.078   6.580
 8697SOL    HW226991   5.225   5.009   6.589
 8698SOL     OW26992   5.654   5.498   4.996
 8698SOL    HW126993   5.712   5.516   4.916
 8698SOL    HW226994   5.566   5.543   4.985
 8699SOL     OW26995   1.933   1.227   4.081
 8699SOL    HW126996   2.003   1.223   4.152
 8699SOL    HW226997   1.900   1.321   4.072
 8700SOL     OW26998   2.417   1.892   6.163
 8700SOL    HW126999   2.475   1.957   6.114
 8700SOL    HW227000   2.347   1.942   6.215
 8701SOL     OW27001   1.182   0.915   3.345
 8701SOL    HW127002   1.180   1.009   3.312
 8701SOL    HW227003   1.265   0.900   3.398
 8702SOL     OW27004   4.823   6.712   6.633
 8702SOL    HW127005   4.896   6.720   6.565
 8702SOL    HW227006   4.852   6.652   6.707
 8703SOL     OW27007   1.184   4.594   1.607
 8703SOL    HW127008   1.107   4.539   1.638
 8703SOL    HW227009   1.158   4.646   1.526
 8704SOL     OW27010   1.094   4.598   2.270
 8704SOL    HW127011   1.132   4.625   2.181
 8704SOL    HW227012   1.121   4.504   2.291
 8705SOL     OW27013   4.629   6.102   4.217
 8705SOL    HW127014   4.625   6.049   4.301
 8705SOL    HW227015   4.558   6.172   4.218
 8706SOL     OW27016   4.832   0.643   6.193
 8706SOL    HW127017   4.804   0.552   6.163
 8706SOL    HW227018   4.755   0.689   6.238
 8707SOL     OW27019   4.314   1.853   6.067
 8707SOL    HW127020   4.265   1.820   6.148
 8707SOL    HW227021   4.393   1.907   6.097
 8708SOL     OW27022   4.102   1.502   1.247
 8708SOL    HW127023   4.072   1.555   1.168
 8708SOL    HW227024   4.048   1.530   1.327
 8709SOL     OW27025   5.153   3.644   6.928
 8709SOL    HW127026   5.123   3.553   6.958
 8709SOL    HW227027   5.167   3.703   7.007
 8710SOL     OW27028   6.507   3.546   4.235
 8710SOL    HW127029   6.475   3.538   4.141
 8710SOL    HW227030   6.603   3.519   4.241
 8711SOL     OW27031   1.571   1.349   4.270
 8711SOL    HW127032   1.546   1.252   4.260
 8711SOL    HW227033   1.519   1.403   4.204
 8712SOL     OW27034   3.358   0.346   6.675
 8712SOL    HW127035   3.378   0.420   6.739
 8712SOL    HW227036   3.393   0.371   6.584
 8713SOL     OW27037   6.118   4.468   3.231
 8713SOL    HW127038   6.086   4.528   3.158
 8713SOL    HW227039   6.218   4.465   3.230
 8714SOL     OW27040   1.990   1.519   3.632
 8714SOL    HW127041   2.051   1.513   3.553
 8714SOL    HW227042   1.962   1.614   3.645
 8715SOL     OW27043   5.545   0.711   2.312
 8715SOL    HW127044   5.630   0.759   2.292
 8715SOL    HW227045   5.557   0.613   2.297
 8716SOL     OW27046   0.566   0.845   2.630
 8716SOL    HW127047   0.550   0.769   2.567
 8716SOL    HW227048   0.512   0.923   2.602
 8717SOL     OW27049   4.509   3.895   1.043
 8717SOL    HW127050   4.528   3.806   1.002
 8717SOL    HW227051   4.564   3.905   1.127
 8718SOL     OW27052   6.949   2.776   5.768
 8718SOL    HW127053   6.926   2.679   5.769
 8718SOL    HW227054   0.030   2.787   5.780
 8719SOL     OW27055   6.476   1.012   5.865
 8719SOL    HW127056   6.505   1.073   5.938
 8719SOL    HW227057   6.526   0.925   5.871
 8720SOL     OW27058   4.950   3.113   5.155
 8720SOL    HW127059   5.019   3.175   5.119
 8720SOL    HW227060   4.926   3.045   5.085
 8721SOL     OW27061   6.816   0.723   5.140
 8721SOL    HW127062   6.840   0.630   5.166
 8721SOL    HW227063   6.727   0.747   5.179
 8722SOL     OW27064   3.160   2.512   0.757
 8722SOL    HW127065   3.098   2.522   0.835
 8722SOL    HW227066   3.106   2.496   0.674
 8723SOL     OW27067   0.461   6.124   0.486
 8723SOL    HW127068   0.447   6.223   0.481
 8723SOL    HW227069   0.546   6.105   0.536
 8724SOL     OW27070   4.837   5.558   6.616
 8724SOL    HW127071   4.876   5.466   6.601
 8724SOL    HW227072   4.767   5.576   6.546
 8725SOL     OW27073   2.785   6.551   0.956
 8725SOL    HW127074   2.847   6.492   1.008
 8725SOL    HW227075   2.699   6.502   0.941
 8726SOL     OW27076   0.131   0.438   1.128
 8726SOL    HW127077   0.093   0.530   1.134
 8726SOL    HW227078   0.057   0.371   1.132
 8727SOL     OW27079   5.438   6.476   1.257
 8727SOL    HW127080   5.504   6.406   1.284
 8727SOL    HW227081   5.471   6.524   1.176
 8728SOL     OW27082   2.464   5.743   5.396
 8728SOL    HW127083   2.468   5.661   5.340
 8728SOL    HW227084   2.379   5.793   5.376
 8729SOL     OW27085   4.500   5.754   4.270
 8729SOL    HW127086   4.441   5.674   4.271
 8729SOL    HW227087   4.474   5.814   4.194
 8730SOL     OW27088   6.499   6.144   0.963
 8730SOL    HW127089   6.467   6.055   0.931
 8730SOL    HW227090   6.585   6.167   0.916
 8731SOL     OW27091   0.582   1.989   2.676
 8731SOL    HW127092   0.669   1.960   2.715
 8731SOL    HW227093   0.510   1.925   2.703
 8732SOL     OW27094   6.775   6.155   2.008
 8732SOL    HW127095   6.844   6.166   1.937
 8732SOL    HW227096   6.687   6.135   1.966
 8733SOL     OW27097   6.999   0.529   0.584
 8733SOL    HW127098   7.002   0.486   0.673
 8733SOL    HW227099   7.003   0.459   0.512
 8734SOL     OW27100   6.598   6.530   0.883
 8734SOL    HW127101   6.547   6.586   0.949
 8734SOL    HW227102   6.610   6.581   0.798
 8735SOL     OW27103   0.977   2.996   6.067
 8735SOL    HW127104   0.970   2.923   5.998
 8735SOL    HW227105   0.971   3.085   6.023
 8736SOL     OW27106   0.129   4.996   5.966
 8736SOL    HW127107   0.192   5.066   5.932
 8736SOL    HW227108   0.109   4.931   5.892
 8737SOL     OW27109   4.063   5.683   6.812
 8737SOL    HW127110   3.971   5.652   6.787
 8737SOL    HW227111   4.096   5.630   6.890
 8738SOL     OW27112   1.022   4.208   5.401
 8738SOL    HW127113   1.080   4.270   5.454
 8738SOL    HW227114   1.052   4.114   5.415
 8739SOL     OW27115   1.421   3.380   5.376
 8739SOL    HW127116   1.514   3.345   5.388
 8739SOL    HW227117   1.424   3.469   5.332
 8740SOL     OW27118   1.583   6.342   0.661
 8740SOL    HW127119   1.660   6.277   0.663
 8740SOL    HW227120   1.571   6.376   0.568
 8741SOL     OW27121   1.261   3.721   1.795
 8741SOL    HW127122   1.279   3.776   1.877
 8741SOL    HW227123   1.348   3.697   1.751
 8742SOL     OW27124   4.546   5.266   2.120
 8742SOL    HW127125   4.516   5.329   2.192
 8742SOL    HW227126   4.643   5.282   2.100
 8743SOL     OW27127   3.012   5.113   2.518
 8743SOL    HW127128   3.006   5.037   2.453
 8743SOL    HW227129   2.972   5.085   2.605
 8744SOL     OW27130   2.775   3.595   5.532
 8744SOL    HW127131   2.779   3.495   5.524
 8744SOL    HW227132   2.842   3.625   5.599
 8745SOL     OW27133   5.303   1.943   6.461
 8745SOL    HW127134   5.368   2.018   6.450
 8745SOL    HW227135   5.289   1.926   6.559
 8746SOL     OW27136   5.537   3.233   4.237
 8746SOL    HW127137   5.635   3.230   4.258
 8746SOL    HW227138   5.492   3.298   4.298
 8747SOL     OW27139   0.516   1.591   4.025
 8747SOL    HW127140   0.546   1.502   3.991
 8747SOL    HW227141   0.524   1.593   4.124
 8748SOL     OW27142   3.019   0.170   6.437
 8748SOL    HW127143   3.063   0.085   6.466
 8748SOL    HW227144   2.998   0.226   6.517
 8749SOL     OW27145   3.861   1.589   3.266
 8749SOL    HW127146   3.804   1.508   3.258
 8749SOL    HW227147   3.950   1.571   3.224
 8750SOL     OW27148   1.922   0.660   4.802
 8750SOL    HW127149   1.844   0.721   4.820
 8750SOL    HW227150   1.955   0.676   4.709
 8751SOL     OW27151   2.066   6.455   2.837
 8751SOL    HW127152   2.097   6.360   2.841
 8751SOL    HW227153   2.029   6.482   2.926
 8752SOL     OW27154   2.290   1.004   6.108
 8752SOL    HW127155   2.382   1.014   6.145
 8752SOL    HW227156   2.259   0.909   6.117
 8753SOL     OW27157   5.430   1.424   5.167
 8753SOL    HW127158   5.449   1.488   5.093
 8753SOL    HW227159   5.465   1.333   5.142
 8754SOL     OW27160   1.897   1.140   5.814
 8754SOL    HW127161   1.951   1.140   5.729
 8754SOL    HW227162   1.959   1.144   5.892
 8755SOL     OW27163   1.988   1.862   0.407
 8755SOL    HW127164   1.979   1.767   0.377
 8755SOL    HW227165   1.954   1.923   0.336
 8756SOL     OW27166   2.801   5.289   4.626
 8756SOL    HW127167   2.878   5.282   4.689
 8756SOL    HW227168   2.775   5.198   4.594
 8757SOL     OW27169   3.209   5.239   3.497
 8757SOL    HW127170   3.203   5.261   3.400
 8757SOL    HW227171   3.174   5.316   3.551
 8758SOL     OW27172   5.002   6.727   2.614
 8758SOL    HW127173   4.964   6.671   2.540
 8758SOL    HW227174   4.933   6.736   2.686
 8759SOL     OW27175   5.651   0.526   6.257
 8759SOL    HW127176   5.601   0.476   6.187
 8759SOL    HW227177   5.648   0.624   6.237
 8760SOL     OW27178   1.944   3.132   3.583
 8760SOL    HW127179   1.914   3.189   3.506
 8760SOL    HW227180   1.928   3.180   3.669
 8761SOL     OW27181   5.228   6.058   1.746
 8761SOL    HW127182   5.324   6.051   1.718
 8761SOL    HW227183   5.216   6.009   1.832
 8762SOL     OW27184   1.192   5.010   1.328
 8762SOL    HW127185   1.275   4.976   1.284
 8762SOL    HW227186   1.195   4.989   1.426
 8763SOL     OW27187   0.190   5.740   6.828
 8763SOL    HW127188   0.127   5.776   6.759
 8763SOL    HW227189   0.280   5.728   6.787
 8764SOL     OW27190   3.142   2.157   6.052
 8764SOL    HW127191   3.206   2.230   6.029
 8764SOL    HW227192   3.053   2.196   6.076
 8765SOL     OW27193   5.723   0.593   4.856
 8765SOL    HW127194   5.644   0.547   4.817
 8765SOL    HW227195   5.718   0.590   4.956
 8766SOL     OW27196   2.354   4.489   2.172
 8766SOL    HW127197   2.347   4.567   2.234
 8766SOL    HW227198   2.425   4.507   2.104
 8767SOL     OW27199   4.328   0.396   4.882
 8767SOL    HW127200   4.352   0.344   4.800
 8767SOL    HW227201   4.404   0.454   4.908
 8768SOL     OW27202   0.444   4.036   0.611
 8768SOL    HW127203   0.417   3.955   0.558
 8768SOL    HW227204   0.362   4.086   0.640
 8769SOL     OW27205   1.794   0.865   6.271
 8769SOL    HW127206   1.809   0.945   6.329
 8769SOL    HW227207   1.835   0.880   6.181
 8770SOL     OW27208   5.756   1.562   2.841
 8770SOL    HW127209   5.795   1.590   2.753
 8770SOL    HW227210   5.792   1.621   2.913
 8771SOL     OW27211   2.965   3.248   4.939
 8771SOL    HW127212   3.048   3.205   4.974
 8771SOL    HW227213   2.931   3.198   4.860
 8772SOL     OW27214   6.531   6.543   6.514
 8772SOL    HW127215   6.539   6.562   6.612
 8772SOL    HW227216   6.534   6.629   6.463
 8773SOL     OW27217   2.819   1.718   3.261
 8773SOL    HW127218   2.851   1.752   3.173
 8773SOL    HW227219   2.727   1.751   3.278
 8774SOL     OW27220   1.396   1.414   0.041
 8774SOL    HW127221   1.306   1.450   0.063
 8774SOL    HW227222   1.447   1.398   0.126
 8775SOL     OW27223   6.508   6.166   4.282
 8775SOL    HW127224   6.436   6.097   4.278
 8775SOL    HW227225   6.588   6.134   4.232
 8776SOL     OW27226   3.322   3.606   5.551
 8776SOL    HW127227   3.341   3.617   5.454
 8776SOL    HW227228   3.300   3.695   5.591
 8777SOL     OW27229   6.381   5.273   2.863
 8777SOL    HW127230   6.296   5.220   2.871
 8777SOL    HW227231   6.409   5.277   2.767
 8778SOL     OW27232   1.088   3.195   2.882
 8778SOL    HW127233   1.150   3.169   2.808
 8778SOL    HW227234   1.100   3.132   2.959
 8779SOL     OW27235   1.774   4.744   1.080
 8779SOL    HW127236   1.869   4.725   1.104
 8779SOL    HW227237   1.720   4.755   1.163
 8780SOL     OW27238   1.839   5.585   5.441
 8780SOL    HW127239   1.884   5.586   5.352
 8780SOL    HW227240   1.779   5.505   5.447
 8781SOL     OW27241   1.514   2.503   2.230
 8781SOL    HW127242   1.441   2.534   2.169
 8781SOL    HW227243   1.552   2.417   2.195
 8782SOL     OW27244   5.591   1.404   3.928
 8782SOL    HW127245   5.531   1.349   3.986
 8782SOL    HW227246   5.673   1.429   3.979
 8783SOL     OW27247   5.814   2.566   6.065
 8783SOL    HW127248   5.832   2.626   6.142
 8783SOL    HW227249   5.895   2.561   6.006
 8784SOL     OW27250   5.447   4.024   5.975
 8784SOL    HW127251   5.399   4.035   6.062
 8784SOL    HW227252   5.486   3.932   5.970
 8785SOL     OW27253   5.516   4.080   6.326
 8785SOL    HW127254   5.443   4.013   6.308
 8785SOL    HW227255   5.518   4.101   6.424
 8786SOL     OW27256   1.960   5.835   6.644
 8786SOL    HW127257   2.023   5.901   6.686
 8786SOL    HW227258   2.013   5.769   6.590
 8787SOL     OW27259   1.253   2.743   6.650
 8787SOL    HW127260   1.281   2.707   6.739
 8787SOL    HW227261   1.214   2.669   6.595
 8788SOL     OW27262   1.505   1.811   5.155
 8788SOL    HW127263   1.502   1.731   5.095
 8788SOL    HW227264   1.548   1.887   5.106
 8789SOL     OW27265   6.398   1.124   0.305
 8789SOL    HW127266   6.448   1.038   0.304
 8789SOL    HW227267   6.336   1.126   0.384
 8790SOL     OW27268   3.941   1.505   6.399
 8790SOL    HW127269   3.946   1.543   6.306
 8790SOL    HW227270   3.998   1.560   6.460
 8791SOL     OW27271   5.375   6.201   5.065
 8791SOL    HW127272   5.290   6.158   5.094
 8791SOL    HW227273   5.411   6.257   5.140
 8792SOL     OW27274   5.230   6.829   2.692
 8792SOL    HW127275   5.138   6.789   2.692
 8792SOL    HW227276   5.279   6.799   2.611
 8793SOL     OW27277   1.050   4.593   3.216
 8793SOL    HW127278   1.142   4.630   3.209
 8793SOL    HW227279   1.054   4.501   3.257
 8794SOL     OW27280   2.754   6.588   2.524
 8794SOL    HW127281   2.679   6.634   2.570
 8794SOL    HW227282   2.723   6.552   2.436
 8795SOL     OW27283   2.898   6.308   4.920
 8795SOL    HW127284   2.809   6.272   4.948
 8795SOL    HW227285   2.943   6.241   4.861
 8796SOL     OW27286   4.792   2.268   4.535
 8796SOL    HW127287   4.714   2.232   4.585
 8796SOL    HW227288   4.841   2.333   4.593
 8797SOL     OW27289   0.188   5.473   6.625
 8797SOL    HW127290   0.130   5.393   6.606
 8797SOL    HW227291   0.282   5.452   6.601
 8798SOL     OW27292   3.389   3.415   5.191
 8798SOL    HW127293   3.381   3.390   5.095
 8798SOL    HW227294   3.324   3.487   5.213
 8799SOL     OW27295   3.713   0.878   2.115
 8799SOL    HW127296   3.632   0.901   2.169
 8799SOL    HW227297   3.781   0.836   2.175
 8800SOL     OW27298   3.987   3.592   0.794
 8800SOL    HW127299   3.943   3.678   0.819
 8800SOL    HW227300   4.062   3.573   0.857
 8801SOL     OW27301   2.764   6.430   5.383
 8801SOL    HW127302   2.789   6.527   5.386
 8801SOL    HW227303   2.783   6.388   5.472
 8802SOL     OW27304   1.565   6.403   1.449
 8802SOL    HW127305   1.524   6.479   1.500
 8802SOL    HW227306   1.545   6.415   1.351
 8803SOL     OW27307   3.690   6.154   2.281
 8803SOL    HW127308   3.672   6.246   2.248
 8803SOL    HW227309   3.780   6.124   2.250
 8804SOL     OW27310   3.047   0.462   1.470
 8804SOL    HW127311   3.056   0.562   1.468
 8804SOL    HW227312   3.105   0.426   1.543
 8805SOL     OW27313   0.230   0.357   3.720
 8805SOL    HW127314   0.262   0.304   3.799
 8805SOL    HW227315   0.225   0.454   3.745
 8806SOL     OW27316   2.198   4.797   6.652
 8806SOL    HW127317   2.132   4.777   6.725
 8806SOL    HW227318   2.273   4.851   6.689
 8807SOL     OW27319   1.900   5.031   6.816
 8807SOL    HW127320   1.991   5.059   6.845
 8807SOL    HW227321   1.885   4.935   6.841
 8808SOL     OW27322   5.987   2.644   0.861
 8808SOL    HW127323   5.910   2.691   0.903
 8808SOL    HW227324   6.001   2.680   0.768
 8809SOL     OW27325   6.427   4.572   6.976
 8809SOL    HW127326   6.403   4.475   6.968
 8809SOL    HW227327   6.367   4.626   6.917
 8810SOL     OW27328   5.089   1.550   3.917
 8810SOL    HW127329   5.074   1.545   4.015
 8810SOL    HW227330   5.039   1.477   3.871
 8811SOL     OW27331   0.794   1.030   3.363
 8811SOL    HW127332   0.864   1.031   3.434
 8811SOL    HW227333   0.837   1.036   3.273
 8812SOL     OW27334   2.956   1.035   6.953
 8812SOL    HW127335   3.033   1.038   7.016
 8812SOL    HW227336   2.928   1.128   6.928
 8813SOL     OW27337   0.955   5.620   1.297
 8813SOL    HW127338   1.028   5.582   1.239
 8813SOL    HW227339   0.866   5.591   1.262
 8814SOL     OW27340   5.502   6.993   5.965
 8814SOL    HW127341   5.510   6.991   6.064
 8814SOL    HW227342   5.426   0.034   5.938
 8815SOL     OW27343   6.111   4.720   3.389
 8815SOL    HW127344   6.098   4.631   3.345
 8815SOL    HW227345   6.208   4.736   3.406
 8816SOL     OW27346   0.665   5.545   2.557
 8816SOL    HW127347   0.711   5.462   2.526
 8816SOL    HW227348   0.667   5.548   2.657
 8817SOL     OW27349   2.208   3.874   5.286
 8817SOL    HW127350   2.291   3.917   5.249
 8817SOL    HW227351   2.201   3.781   5.250
 8818SOL     OW27352   6.641   4.777   5.113
 8818SOL    HW127353   6.723   4.721   5.123
 8818SOL    HW227354   6.668   4.873   5.100
 8819SOL     OW27355   0.224   1.066   4.822
 8819SOL    HW127356   0.314   1.093   4.856
 8819SOL    HW227357   0.220   1.078   4.723
 8820SOL     OW27358   0.966   2.458   3.118
 8820SOL    HW127359   0.974   2.551   3.080
 8820SOL    HW227360   1.058   2.425   3.142
 8821SOL     OW27361   1.134   6.847   6.750
 8821SOL    HW127362   1.035   6.840   6.764
 8821SOL    HW227363   1.181   6.822   6.835
 8822SOL     OW27364   1.151   2.492   3.986
 8822SOL    HW127365   1.091   2.472   4.063
 8822SOL    HW227366   1.148   2.590   3.966
 8823SOL     OW27367   2.586   5.476   0.884
 8823SOL    HW127368   2.572   5.414   0.961
 8823SOL    HW227369   2.554   5.567   0.909
 8824SOL     OW27370   5.164   4.168   1.433
 8824SOL    HW127371   5.170   4.068   1.431
 8824SOL    HW227372   5.073   4.196   1.405
 8825SOL     OW27373   2.403   2.144   6.960
 8825SOL    HW127374   2.312   2.152   6.919
 8825SOL    HW227375   2.461   2.084   6.905
 8826SOL     OW27376   5.263   0.092   1.457
 8826SOL    HW127377   5.194   0.087   1.384
 8826SOL    HW227378   5.280   0.188   1.480
 8827SOL     OW27379   6.640   1.518   3.837
 8827SOL    HW127380   6.597   1.439   3.880
 8827SOL    HW227381   6.576   1.561   3.773
 8828SOL     OW27382   1.629   6.059   3.401
 8828SOL    HW127383   1.599   6.143   3.356
 8828SOL    HW227384   1.566   6.036   3.476
 8829SOL     OW27385   0.359   0.379   1.263
 8829SOL    HW127386   0.388   0.471   1.289
 8829SOL    HW227387   0.285   0.385   1.195
 8830SOL     OW27388   1.567   1.418   0.951
 8830SOL    HW127389   1.532   1.471   0.874
 8830SOL    HW227390   1.542   1.322   0.939
 8831SOL     OW27391   6.996   0.419   1.654
 8831SOL    HW127392   6.900   0.425   1.628
 8831SOL    HW227393   0.034   0.406   1.573
 8832SOL     OW27394   6.560   0.933   1.752
 8832SOL    HW127395   6.548   1.014   1.810
 8832SOL    HW227396   6.506   0.944   1.668
 8833SOL     OW27397   0.859   5.160   2.155
 8833SOL    HW127398   0.806   5.125   2.078
 8833SOL    HW227399   0.841   5.257   2.168
 8834SOL     OW27400   6.566   4.406   4.110
 8834SOL    HW127401   6.517   4.329   4.070
 8834SOL    HW227402   6.609   4.460   4.038
 8835SOL     OW27403   0.726   1.297   0.796
 8835SOL    HW127404   0.752   1.374   0.854
 8835SOL    HW227405   0.626   1.287   0.797
 8836SOL     OW27406   4.774   1.815   1.561
 8836SOL    HW127407   4.865   1.781   1.538
 8836SOL    HW227408   4.773   1.844   1.657
 8837SOL     OW27409   0.452   2.741   2.201
 8837SOL    HW127410   0.427   2.731   2.104
 8837SOL    HW227411   0.529   2.804   2.209
 8838SOL     OW27412   1.235   6.967   3.464
 8838SOL    HW127413   1.271   0.040   3.487
 8838SOL    HW227414   1.192   6.927   3.545
 8839SOL     OW27415   5.667   5.082   4.831
 8839SOL    HW127416   5.580   5.051   4.868
 8839SOL    HW227417   5.738   5.072   4.901
 8840SOL     OW27418   4.470   0.440   1.830
 8840SOL    HW127419   4.422   0.426   1.916
 8840SOL    HW227420   4.404   0.450   1.756
 8841SOL     OW27421   3.980   0.117   3.218
 8841SOL    HW127422   4.012   0.069   3.299
 8841SOL    HW227423   3.995   0.215   3.229
 8842SOL     OW27424   1.656   1.462   1.875
 8842SOL    HW127425   1.593   1.451   1.797
 8842SOL    HW227426   1.719   1.537   1.855
 8843SOL     OW27427   6.718   2.965   4.049
 8843SOL    HW127428   6.672   2.943   4.135
 8843SOL    HW227429   6.656   2.946   3.972
 8844SOL     OW27430   5.984   1.865   6.924
 8844SOL    HW127431   5.935   1.787   6.883
 8844SOL    HW227432   5.969   1.946   6.867
 8845SOL     OW27433   5.096   2.312   6.936
 8845SOL    HW127434   5.171   2.245   6.942
 8845SOL    HW227435   5.086   2.343   6.842
 8846SOL     OW27436   3.094   4.951   4.379
 8846SOL    HW127437   3.097   5.029   4.442
 8846SOL    HW227438   3.003   4.946   4.337
 8847SOL     OW27439   0.931   1.520   3.392
 8847SOL    HW127440   0.893   1.448   3.334
 8847SOL    HW227441   0.892   1.513   3.484
 8848SOL     OW27442   0.582   1.493   3.497
 8848SOL    HW127443   0.501   1.550   3.512
 8848SOL    HW227444   0.594   1.478   3.399
 8849SOL     OW27445   3.379   6.976   0.980
 8849SOL    HW127446   3.394   7.001   1.076
 8849SOL    HW227447   3.333   0.033   0.933
 8850SOL     OW27448   3.104   1.730   0.047
 8850SOL    HW127449   3.130   1.666   6.993
 8850SOL    HW227450   3.177   1.796   0.061
 8851SOL     OW27451   2.010   3.783   1.660
 8851SOL    HW127452   1.913   3.758   1.660
 8851SOL    HW227453   2.045   3.778   1.753
 8852SOL     OW27454   1.076   2.363   4.812
 8852SOL    HW127455   1.041   2.401   4.726
 8852SOL    HW227456   1.166   2.402   4.831
 8853SOL     OW27457   4.741   0.466   1.506
 8853SOL    HW127458   4.669   0.397   1.498
 8853SOL    HW227459   4.747   0.497   1.601
 8854SOL     OW27460   6.766   2.298   4.863
 8854SOL    HW127461   6.848   2.258   4.823
 8854SOL    HW227462   6.792   2.370   4.927
 8855SOL     OW27463   4.990   4.851   1.127
 8855SOL    HW127464   5.009   4.769   1.182
 8855SOL    HW227465   5.037   4.844   1.039
 8856SOL     OW27466   6.321   1.012   5.639
 8856SOL    HW127467   6.310   1.106   5.608
 8856SOL    HW227468   6.373   1.011   5.724
 8857SOL     OW27469   0.110   2.098   6.166
 8857SOL    HW127470   0.141   2.035   6.094
 8857SOL    HW227471   0.077   2.045   6.244
 8858SOL     OW27472   6.617   5.530   4.798
 8858SOL    HW127473   6.679   5.527   4.720
 8858SOL    HW227474   6.590   5.437   4.823
 8859SOL     OW27475   0.352   5.767   3.287
 8859SOL    HW127476   0.411   5.846   3.300
 8859SOL    HW227477   0.263   5.797   3.253
 8860SOL     OW27478   6.334   2.630   2.764
 8860SOL    HW127479   6.258   2.569   2.786
 8860SOL    HW227480   6.412   2.576   2.732
 8861SOL     OW27481   3.070   2.633   1.258
 8861SOL    HW127482   3.075   2.693   1.338
 8861SOL    HW227483   3.141   2.562   1.264
 8862SOL     OW27484   4.346   4.666   4.804
 8862SOL    HW127485   4.433   4.715   4.816
 8862SOL    HW227486   4.326   4.615   4.888
 8863SOL     OW27487   1.712   3.661   1.707
 8863SOL    HW127488   1.665   3.731   1.652
 8863SOL    HW227489   1.674   3.571   1.684
 8864SOL     OW27490   6.832   1.792   4.537
 8864SOL    HW127491   6.812   1.849   4.617
 8864SOL    HW227492   6.751   1.788   4.477
 8865SOL     OW27493   2.883   1.591   0.479
 8865SOL    HW127494   2.924   1.629   0.562
 8865SOL    HW227495   2.813   1.524   0.503
 8866SOL     OW27496   6.304   0.143   1.935
 8866SOL    HW127497   6.344   0.131   1.844
 8866SOL    HW227498   6.242   0.221   1.935
 8867SOL     OW27499   5.808   2.430   3.277
 8867SOL    HW127500   5.807   2.513   3.221
 8867SOL    HW227501   5.749   2.442   3.356
 8868SOL     OW27502   0.501   2.878   3.719
 8868SOL    HW127503   0.516   2.806   3.787
 8868SOL    HW227504   0.526   2.966   3.758
 8869SOL     OW27505   4.435   0.104   3.533
 8869SOL    HW127506   4.455   0.045   3.455
 8869SOL    HW227507   4.470   0.196   3.515
 8870SOL     OW27508   0.875   0.552   1.783
 8870SOL    HW127509   0.852   0.555   1.686
 8870SOL    HW227510   0.974   0.541   1.794
 8871SOL     OW27511   0.118   6.689   0.916
 8871SOL    HW127512   0.024   6.676   0.949
 8871SOL    HW227513   0.116   6.742   0.831
 8872SOL     OW27514   6.716   4.865   3.779
 8872SOL    HW127515   6.699   4.902   3.870
 8872SOL    HW227516   6.635   4.816   3.747
 8873SOL     OW27517   1.660   1.764   3.330
 8873SOL    HW127518   1.712   1.682   3.306
 8873SOL    HW227519   1.645   1.767   3.429
 8874SOL     OW27520   2.518   6.069   0.677
 8874SOL    HW127521   2.571   6.153   0.684
 8874SOL    HW227522   2.580   5.990   0.683
 8875SOL     OW27523   6.324   2.763   4.299
 8875SOL    HW127524   6.256   2.748   4.228
 8875SOL    HW227525   6.360   2.675   4.330
 8876SOL     OW27526   5.079   6.839   0.375
 8876SOL    HW127527   5.125   6.807   0.457
 8876SOL    HW227528   4.996   6.889   0.400
 8877SOL     OW27529   1.007   4.439   1.745
 8877SOL    HW127530   1.097   4.402   1.768
 8877SOL    HW227531   0.943   4.418   1.819
 8878SOL     OW27532   4.906   3.646   2.449
 8878SOL    HW127533   4.985   3.704   2.470
 8878SOL    HW227534   4.935   3.569   2.392
 8879SOL     OW27535   6.854   4.701   4.042
 8879SOL    HW127536   6.893   4.631   4.102
 8879SOL    HW227537   6.799   4.657   3.971
 8880SOL     OW27538   3.890   1.903   2.396
 8880SOL    HW127539   3.928   1.957   2.471
 8880SOL    HW227540   3.845   1.963   2.331
 8881SOL     OW27541   3.913   5.269   2.957
 8881SOL    HW127542   3.870   5.178   2.958
 8881SOL    HW227543   4.011   5.259   2.940
 8882SOL     OW27544   4.162   1.679   0.372
 8882SOL    HW127545   4.246   1.625   0.375
 8882SOL    HW227546   4.101   1.648   0.445
 8883SOL     OW27547   0.720   6.694   2.865
 8883SOL    HW127548   0.668   6.745   2.933
 8883SOL    HW227549   0.745   6.754   2.790
 8884SOL     OW27550   4.654   1.729   6.012
 8884SOL    HW127551   4.740   1.680   5.996
 8884SOL    HW227552   4.578   1.674   5.975
 8885SOL     OW27553   5.742   4.938   0.797
 8885SOL    HW127554   5.670   4.993   0.755
 8885SOL    HW227555   5.780   4.987   0.876
 8886SOL     OW27556   4.528   6.545   0.332
 8886SOL    HW127557   4.547   6.642   0.346
 8886SOL    HW227558   4.595   6.507   0.268
 8887SOL     OW27559   3.980   0.674   1.896
 8887SOL    HW127560   4.013   0.767   1.880
 8887SOL    HW227561   3.981   0.623   1.810
 8888SOL     OW27562   3.786   2.001   1.917
 8888SOL    HW127563   3.810   2.055   1.836
 8888SOL    HW227564   3.722   2.053   1.973
 8889SOL     OW27565   1.707   4.479   6.573
 8889SOL    HW127566   1.728   4.415   6.499
 8889SOL    HW227567   1.679   4.566   6.534
 8890SOL     OW27568   1.850   5.617   6.763
 8890SOL    HW127569   1.817   5.559   6.688
 8890SOL    HW227570   1.886   5.702   6.726
 8891SOL     OW27571   5.515   3.518   5.463
 8891SOL    HW127572   5.548   3.441   5.408
 8891SOL    HW227573   5.517   3.602   5.409
 8892SOL     OW27574   2.604   5.076   5.275
 8892SOL    HW127575   2.569   5.013   5.206
 8892SOL    HW227576   2.702   5.092   5.259
 8893SOL     OW27577   0.413   4.273   5.743
 8893SOL    HW127578   0.461   4.191   5.712
 8893SOL    HW227579   0.323   4.277   5.700
 8894SOL     OW27580   5.656   2.329   1.454
 8894SOL    HW127581   5.690   2.392   1.384
 8894SOL    HW227582   5.650   2.237   1.415
 8895SOL     OW27583   0.204   3.690   1.836
 8895SOL    HW127584   0.194   3.595   1.865
 8895SOL    HW227585   0.298   3.720   1.850
 8896SOL     OW27586   0.640   0.810   3.727
 8896SOL    HW127587   0.709   0.742   3.749
 8896SOL    HW227588   0.554   0.764   3.703
 8897SOL     OW27589   1.316   5.202   4.741
 8897SOL    HW127590   1.411   5.201   4.711
 8897SOL    HW227591   1.286   5.108   4.761
 8898SOL     OW27592   5.924   5.049   2.948
 8898SOL    HW127593   5.852   5.113   2.920
 8898SOL    HW227594   5.932   5.049   3.047
 8899SOL     OW27595   2.233   4.681   1.689
 8899SOL    HW127596   2.251   4.708   1.783
 8899SOL    HW227597   2.151   4.728   1.656
 8900SOL     OW27598   4.344   1.961   4.754
 8900SOL    HW127599   4.265   1.921   4.708
 8900SOL    HW227600   4.405   2.002   4.686
 8901SOL     OW27601   1.160   4.756   5.854
 8901SOL    HW127602   1.130   4.664   5.831
 8901SOL    HW227603   1.081   4.815   5.866
 8902SOL     OW27604   0.835   4.281   6.791
 8902SOL    HW127605   0.836   4.358   6.727
 8902SOL    HW227606   0.784   4.306   6.873
 8903SOL     OW27607   0.655   0.524   4.030
 8903SOL    HW127608   0.681   0.578   4.111
 8903SOL    HW227609   0.558   0.501   4.036
 8904SOL     OW27610   6.837   1.341   2.821
 8904SOL    HW127611   6.892   1.283   2.761
 8904SOL    HW227612   6.753   1.292   2.846
 8905SOL     OW27613   1.815   5.109   1.371
 8905SOL    HW127614   1.901   5.146   1.335
 8905SOL    HW227615   1.831   5.016   1.405
 8906SOL     OW27616   6.330   0.705   6.636
 8906SOL    HW127617   6.240   0.706   6.592
 8906SOL    HW227618   6.370   0.614   6.628
 8907SOL     OW27619   2.674   3.040   5.388
 8907SOL    HW127620   2.614   3.039   5.308
 8907SOL    HW227621   2.643   2.971   5.454
 8908SOL     OW27622   1.635   5.767   5.363
 8908SOL    HW127623   1.699   5.709   5.414
 8908SOL    HW227624   1.619   5.851   5.414
 8909SOL     OW27625   2.320   6.111   1.934
 8909SOL    HW127626   2.221   6.110   1.946
 8909SOL    HW227627   2.348   6.027   1.887
 8910SOL     OW27628   0.920   0.734   3.699
 8910SOL    HW127629   0.983   0.812   3.700
 8910SOL    HW227630   0.960   0.660   3.646
 8911SOL     OW27631   4.792   2.737   3.922
 8911SOL    HW127632   4.741   2.676   3.983
 8911SOL    HW227633   4.760   2.723   3.828
 8912SOL     OW27634   3.501   3.115   3.378
 8912SOL    HW127635   3.567   3.043   3.399
 8912SOL    HW227636   3.477   3.164   3.462
 8913SOL     OW27637   4.714   5.420   0.752
 8913SOL    HW127638   4.653   5.411   0.831
 8913SOL    HW227639   4.720   5.517   0.726
 8914SOL     OW27640   4.952   5.092   5.065
 8914SOL    HW127641   5.039   5.088   5.115
 8914SOL    HW227642   4.970   5.104   4.968
 8915SOL     OW27643   2.443   1.140   3.482
 8915SOL    HW127644   2.439   1.044   3.512
 8915SOL    HW227645   2.505   1.147   3.404
 8916SOL     OW27646   6.128   0.250   2.370
 8916SOL    HW127647   6.161   0.185   2.303
 8916SOL    HW227648   6.139   0.212   2.462
 8917SOL     OW27649   5.959   2.551   0.404
 8917SOL    HW127650   6.012   2.547   0.319
 8917SOL    HW227651   5.867   2.583   0.384
 8918SOL     OW27652   1.763   3.305   2.975
 8918SOL    HW127653   1.672   3.324   3.013
 8918SOL    HW227654   1.775   3.356   2.890
 8919SOL     OW27655   6.558   2.144   3.076
 8919SOL    HW127656   6.615   2.078   3.126
 8919SOL    HW227657   6.493   2.095   3.019
 8920SOL     OW27658   1.047   1.668   0.631
 8920SOL    HW127659   0.967   1.675   0.692
 8920SOL    HW227660   1.118   1.730   0.662
 8921SOL     OW27661   0.823   2.493   1.272
 8921SOL    HW127662   0.769   2.532   1.197
 8921SOL    HW227663   0.764   2.439   1.331
 8922SOL     OW27664   2.931   5.279   3.397
 8922SOL    HW127665   2.969   5.318   3.481
 8922SOL    HW227666   2.959   5.335   3.319
 8923SOL     OW27667   2.560   1.847   3.251
 8923SOL    HW127668   2.555   1.886   3.159
 8923SOL    HW227669   2.564   1.921   3.318
 8924SOL     OW27670   6.121   4.992   4.725
 8924SOL    HW127671   6.220   4.976   4.729
 8924SOL    HW227672   6.103   5.079   4.679
 8925SOL     OW27673   0.401   6.273   3.760
 8925SOL    HW127674   0.332   6.346   3.765
 8925SOL    HW227675   0.459   6.277   3.841
 8926SOL     OW27676   5.744   2.541   6.689
 8926SOL    HW127677   5.683   2.463   6.676
 8926SOL    HW227678   5.787   2.565   6.602
 8927SOL     OW27679   1.138   1.827   6.044
 8927SOL    HW127680   1.181   1.914   6.018
 8927SOL    HW227681   1.106   1.780   5.961
 8928SOL     OW27682   0.635   6.536   4.682
 8928SOL    HW127683   0.714   6.493   4.725
 8928SOL    HW227684   0.667   6.605   4.617
 8929SOL     OW27685   6.742   1.326   3.506
 8929SOL    HW127686   6.695   1.301   3.591
 8929SOL    HW227687   6.830   1.369   3.529
 8930SOL     OW27688   2.215   5.245   2.574
 8930SOL    HW127689   2.221   5.177   2.647
 8930SOL    HW227690   2.303   5.251   2.527
 8931SOL     OW27691   4.514   3.268   0.123
 8931SOL    HW127692   4.529   3.345   0.062
 8931SOL    HW227693   4.509   3.300   0.218
 8932SOL     OW27694   0.595   3.681   2.117
 8932SOL    HW127695   0.525   3.734   2.164
 8932SOL    HW227696   0.592   3.586   2.149
 8933SOL     OW27697   5.067   2.477   6.030
 8933SOL    HW127698   5.133   2.550   6.010
 8933SOL    HW227699   5.003   2.468   5.954
 8934SOL     OW27700   2.603   5.978   2.538
 8934SOL    HW127701   2.535   5.930   2.592
 8934SOL    HW227702   2.568   5.995   2.446
 8935SOL     OW27703   0.065   5.758   6.493
 8935SOL    HW127704   0.101   5.792   6.406
 8935SOL    HW227705   0.105   5.669   6.513
 8936SOL     OW27706   4.282   3.315   0.992
 8936SOL    HW127707   4.293   3.220   1.020
 8936SOL    HW227708   4.187   3.342   1.003
 8937SOL     OW27709   6.946   1.203   6.530
 8937SOL    HW127710   6.967   1.300   6.545
 8937SOL    HW227711   0.008   1.157   6.493
 8938SOL     OW27712   4.817   5.270   2.010
 8938SOL    HW127713   4.834   5.363   2.040
 8938SOL    HW227714   4.803   5.269   1.911
 8939SOL     OW27715   5.487   2.130   4.266
 8939SOL    HW127716   5.404   2.181   4.243
 8939SOL    HW227717   5.514   2.073   4.189
 8940SOL     OW27718   5.334   6.680   2.509
 8940SOL    HW127719   5.405   6.678   2.439
 8940SOL    HW227720   5.288   6.591   2.512
 8941SOL     OW27721   3.795   2.254   0.105
 8941SOL    HW127722   3.867   2.193   0.137
 8941SOL    HW227723   3.835   2.341   0.077
 8942SOL     OW27724   1.325   2.214   5.796
 8942SOL    HW127725   1.416   2.247   5.771
 8942SOL    HW227726   1.270   2.290   5.830
 8943SOL     OW27727   5.176   3.613   0.898
 8943SOL    HW127728   5.204   3.683   0.964
 8943SOL    HW227729   5.160   3.656   0.809
 8944SOL     OW27730   4.521   5.116   1.151
 8944SOL    HW127731   4.457   5.184   1.185
 8944SOL    HW227732   4.596   5.105   1.215
 8945SOL     OW27733   2.186   1.241   3.544
 8945SOL    HW127734   2.263   1.185   3.512
 8945SOL    HW227735   2.202   1.337   3.518
 8946SOL     OW27736   3.735   0.714   5.108
 8946SOL    HW127737   3.653   0.677   5.065
 8946SOL    HW227738   3.779   0.778   5.045
 8947SOL     OW27739   3.705   3.603   5.542
 8947SOL    HW127740   3.677   3.508   5.527
 8947SOL    HW227741   3.707   3.651   5.454
 8948SOL     OW27742   5.216   4.616   3.514
 8948SOL    HW127743   5.228   4.679   3.590
 8948SOL    HW227744   5.148   4.547   3.537
 8949SOL     OW27745   1.793   5.637   6.125
 8949SOL    HW127746   1.814   5.587   6.041
 8949SOL    HW227747   1.878   5.670   6.166
 8950SOL     OW27748   4.797   2.899   4.703
 8950SOL    HW127749   4.753   2.813   4.677
 8950SOL    HW227750   4.726   2.968   4.721
 8951SOL     OW27751   2.971   1.937   5.474
 8951SOL    HW127752   3.021   1.913   5.390
 8951SOL    HW227753   2.879   1.967   5.449
 8952SOL     OW27754   5.866   6.709   3.697
 8952SOL    HW127755   5.844   6.637   3.631
 8952SOL    HW227756   5.920   6.780   3.652
 8953SOL     OW27757   1.028   5.177   5.842
 8953SOL    HW127758   1.120   5.204   5.813
 8953SOL    HW227759   0.999   5.235   5.918
 8954SOL     OW27760   2.402   6.643   6.514
 8954SOL    HW127761   2.341   6.566   6.533
 8954SOL    HW227762   2.370   6.724   6.562
 8955SOL     OW27763   6.758   3.506   4.310
 8955SOL    HW127764   6.759   3.598   4.350
 8955SOL    HW227765   6.779   3.439   4.381
 8956SOL     OW27766   1.001   0.334   4.134
 8956SOL    HW127767   1.010   0.337   4.234
 8956SOL    HW227768   0.915   0.289   4.110
 8957SOL     OW27769   3.192   6.394   1.767
 8957SOL    HW127770   3.092   6.396   1.771
 8957SOL    HW227771   3.222   6.321   1.705
 8958SOL     OW27772   3.204   0.453   5.088
 8958SOL    HW127773   3.150   0.490   5.012
 8958SOL    HW227774   3.204   0.353   5.083
 8959SOL     OW27775   3.998   4.974   6.753
 8959SOL    HW127776   3.907   5.007   6.776
 8959SOL    HW227777   4.002   4.953   6.655
 8960SOL     OW27778   4.514   5.694   0.638
 8960SOL    HW127779   4.504   5.615   0.698
 8960SOL    HW227780   4.490   5.668   0.544
 8961SOL     OW27781   0.689   2.712   4.304
 8961SOL    HW127782   0.743   2.764   4.370
 8961SOL    HW227783   0.616   2.770   4.268
 8962SOL     OW27784   4.555   0.417   3.899
 8962SOL    HW127785   4.624   0.370   3.842
 8962SOL    HW227786   4.523   0.498   3.850
 8963SOL     OW27787   1.538   0.893   4.050
 8963SOL    HW127788   1.471   0.819   4.053
 8963SOL    HW227789   1.630   0.854   4.043
 8964SOL     OW27790   0.597   2.986   3.335
 8964SOL    HW127791   0.568   2.916   3.401
 8964SOL    HW227792   0.598   2.947   3.243
 8965SOL     OW27793   1.838   5.310   1.594
 8965SOL    HW127794   1.816   5.231   1.537
 8965SOL    HW227795   1.783   5.388   1.565
 8966SOL     OW27796   3.933   2.187   4.757
 8966SOL    HW127797   3.985   2.183   4.672
 8966SOL    HW227798   3.995   2.175   4.834
 8967SOL     OW27799   5.258   6.486   0.468
 8967SOL    HW127800   5.324   6.415   0.442
 8967SOL    HW227801   5.223   6.467   0.560
 8968SOL     OW27802   6.129   3.963   4.018
 8968SOL    HW127803   6.119   4.048   3.968
 8968SOL    HW227804   6.211   3.915   3.988
 8969SOL     OW27805   6.386   6.930   4.313
 8969SOL    HW127806   6.464   6.929   4.250
 8969SOL    HW227807   6.302   6.913   4.263
 8970SOL     OW27808   3.056   2.788   1.489
 8970SOL    HW127809   2.959   2.805   1.471
 8970SOL    HW227810   3.069   2.775   1.587
 8971SOL     OW27811   3.578   6.627   2.973
 8971SOL    HW127812   3.647   6.672   2.916
 8971SOL    HW227813   3.518   6.571   2.915
 8972SOL     OW27814   5.237   0.425   5.041
 8972SOL    HW127815   5.249   0.329   5.018
 8972SOL    HW227816   5.295   0.481   4.982
 8973SOL     OW27817   1.951   4.559   6.684
 8973SOL    HW127818   1.993   4.483   6.733
 8973SOL    HW227819   1.859   4.532   6.653
 8974SOL     OW27820   0.179   2.608   4.223
 8974SOL    HW127821   0.244   2.566   4.287
 8974SOL    HW227822   0.214   2.599   4.130
 8975SOL     OW27823   3.428   0.872   5.975
 8975SOL    HW127824   3.520   0.840   5.997
 8975SOL    HW227825   3.430   0.923   5.889
 8976SOL     OW27826   1.665   5.749   3.935
 8976SOL    HW127827   1.607   5.828   3.953
 8976SOL    HW227828   1.692   5.748   3.839
 8977SOL     OW27829   5.380   1.537   6.903
 8977SOL    HW127830   5.291   1.503   6.874
 8977SOL    HW227831   5.442   1.460   6.915
 8978SOL     OW27832   5.548   5.003   1.520
 8978SOL    HW127833   5.505   4.913   1.523
 8978SOL    HW227834   5.645   4.995   1.541
 8979SOL     OW27835   1.034   4.686   5.166
 8979SOL    HW127836   1.022   4.777   5.128
 8979SOL    HW227837   1.091   4.691   5.248
 8980SOL     OW27838   3.078   3.367   3.862
 8980SOL    HW127839   3.158   3.425   3.855
 8980SOL    HW227840   3.105   3.271   3.847
 8981SOL     OW27841   2.745   2.048   5.316
 8981SOL    HW127842   2.668   1.991   5.286
 8981SOL    HW227843   2.762   2.119   5.248
 8982SOL     OW27844   3.411   5.252   0.870
 8982SOL    HW127845   3.447   5.160   0.883
 8982SOL    HW227846   3.326   5.248   0.818
 8983SOL     OW27847   4.996   4.636   0.697
 8983SOL    HW127848   4.897   4.633   0.707
 8983SOL    HW227849   5.039   4.573   0.762
 8984SOL     OW27850   1.635   6.592   3.300
 8984SOL    HW127851   1.548   6.573   3.347
 8984SOL    HW227852   1.619   6.604   3.203
 8985SOL     OW27853   2.894   3.200   6.328
 8985SOL    HW127854   2.992   3.207   6.343
 8985SOL    HW227855   2.874   3.122   6.267
 8986SOL     OW27856   2.733   6.037   1.903
 8986SOL    HW127857   2.705   6.132   1.911
 8986SOL    HW227858   2.767   6.005   1.992
 8987SOL     OW27859   5.134   6.398   2.567
 8987SOL    HW127860   5.049   6.354   2.538
 8987SOL    HW227861   5.121   6.442   2.655
 8988SOL     OW27862   0.594   4.437   5.121
 8988SOL    HW127863   0.631   4.348   5.094
 8988SOL    HW227864   0.496   4.427   5.138
 8989SOL     OW27865   2.404   2.472   6.954
 8989SOL    HW127866   2.446   2.387   6.986
 8989SOL    HW227867   2.455   2.549   6.991
 8990SOL     OW27868   0.234   5.004   4.605
 8990SOL    HW127869   0.247   4.905   4.595
 8990SOL    HW227870   0.267   5.049   4.522
 8991SOL     OW27871   1.201   2.604   5.126
 8991SOL    HW127872   1.292   2.571   5.153
 8991SOL    HW227873   1.131   2.555   5.178
 8992SOL     OW27874   6.426   1.824   1.601
 8992SOL    HW127875   6.472   1.783   1.680
 8992SOL    HW227876   6.401   1.918   1.622
 8993SOL     OW27877   4.483   2.119   1.118
 8993SOL    HW127878   4.444   2.190   1.060
 8993SOL    HW227879   4.544   2.160   1.185
 8994SOL     OW27880   1.747   5.498   2.649
 8994SOL    HW127881   1.801   5.437   2.706
 8994SOL    HW227882   1.802   5.577   2.623
 8995SOL     OW27883   0.488   0.137   1.234
 8995SOL    HW127884   0.562   0.113   1.297
 8995SOL    HW227885   0.448   0.224   1.260
 8996SOL     OW27886   4.382   5.617   5.359
 8996SOL    HW127887   4.310   5.637   5.425
 8996SOL    HW227888   4.341   5.602   5.269
 8997SOL     OW27889   5.813   0.204   5.011
 8997SOL    HW127890   5.779   0.110   5.015
 8997SOL    HW227891   5.893   0.209   4.952
 8998SOL     OW27892   6.797   3.999   4.897
 8998SOL    HW127893   6.740   4.074   4.930
 8998SOL    HW227894   6.828   3.944   4.974
 8999SOL     OW27895   4.080   5.692   6.227
 8999SOL    HW127896   4.141   5.724   6.155
 8999SOL    HW227897   4.133   5.671   6.309
 9000SOL     OW27898   1.014   4.208   1.051
 9000SOL    HW127899   1.061   4.122   1.071
 9000SOL    HW227900   0.937   4.190   0.991
 9001SOL     OW27901   1.381   5.639   0.889
 9001SOL    HW127902   1.421   5.597   0.808
 9001SOL    HW227903   1.450   5.646   0.960
 9002SOL     OW27904   6.746   5.602   6.161
 9002SOL    HW127905   6.757   5.701   6.154
 9002SOL    HW227906   6.654   5.576   6.131
 9003SOL     OW27907   5.014   6.654   0.784
 9003SOL    HW127908   5.062   6.686   0.866
 9003SOL    HW227909   5.080   6.640   0.710
 9004SOL     OW27910   6.401   4.816   2.317
 9004SOL    HW127911   6.351   4.900   2.293
 9004SOL    HW227912   6.446   4.780   2.235
 9005SOL     OW27913   4.869   0.918   4.519
 9005SOL    HW127914   4.958   0.959   4.502
 9005SOL    HW227915   4.878   0.819   4.529
 9006SOL     OW27916   3.640   6.274   0.282
 9006SOL    HW127917   3.658   6.176   0.270
 9006SOL    HW227918   3.725   6.322   0.302
 9007SOL     OW27919   0.161   0.596   3.333
 9007SOL    HW127920   0.181   0.498   3.344
 9007SOL    HW227921   0.121   0.631   3.418
 9008SOL     OW27922   6.828   5.259   1.980
 9008SOL    HW127923   6.800   5.166   1.959
 9008SOL    HW227924   6.854   5.265   2.077
 9009SOL     OW27925   3.137   6.765   2.196
 9009SOL    HW127926   3.182   6.680   2.173
 9009SOL    HW227927   3.061   6.746   2.259
 9010SOL     OW27928   2.062   5.275   4.875
 9010SOL    HW127929   2.103   5.351   4.825
 9010SOL    HW227930   2.080   5.285   4.972
 9011SOL     OW27931   2.632   2.109   2.331
 9011SOL    HW127932   2.602   2.080   2.240
 9011SOL    HW227933   2.690   2.189   2.323
 9012SOL     OW27934   2.531   6.239   6.949
 9012SOL    HW127935   2.498   6.164   6.892
 9012SOL    HW227936   2.473   6.319   6.935
 9013SOL     OW27937   1.992   0.605   4.133
 9013SOL    HW127938   2.073   0.586   4.187
 9013SOL    HW227939   1.957   0.520   4.094
 9014SOL     OW27940   5.508   3.594   3.564
 9014SOL    HW127941   5.515   3.554   3.656
 9014SOL    HW227942   5.583   3.658   3.550
 9015SOL     OW27943   3.873   6.691   6.160
 9015SOL    HW127944   3.796   6.662   6.103
 9015SOL    HW227945   3.958   6.685   6.107
 9016SOL     OW27946   4.928   4.281   6.315
 9016SOL    HW127947   4.869   4.351   6.355
 9016SOL    HW227948   4.933   4.203   6.377
 9017SOL     OW27949   2.777   0.047   5.363
 9017SOL    HW127950   2.725   6.982   5.384
 9017SOL    HW227951   2.869   0.038   5.401
 9018SOL     OW27952   3.705   5.113   0.666
 9018SOL    HW127953   3.794   5.075   0.689
 9018SOL    HW227954   3.704   5.137   0.569
 9019SOL     OW27955   0.936   3.579   4.772
 9019SOL    HW127956   1.033   3.584   4.794
 9019SOL    HW227957   0.924   3.539   4.682
 9020SOL     OW27958   5.630   5.130   3.677
 9020SOL    HW127959   5.615   5.032   3.689
 9020SOL    HW227960   5.559   5.182   3.724
 9021SOL     OW27961   0.150   1.123   4.266
 9021SOL    HW127962   0.085   1.076   4.206
 9021SOL    HW227963   0.185   1.204   4.219
 9022SOL     OW27964   4.417   3.870   6.937
 9022SOL    HW127965   4.458   3.792   6.984
 9022SOL    HW227966   4.487   3.939   6.919
 9023SOL     OW27967   0.001   5.034   0.913
 9023SOL    HW127968   6.968   5.118   0.931
 9023SOL    HW227969   0.046   5.004   0.997
 9024SOL     OW27970   2.302   4.691   6.102
 9024SOL    HW127971   2.402   4.695   6.105
 9024SOL    HW227972   2.264   4.717   6.191
 9025SOL     OW27973   0.664   6.052   1.538
 9025SOL    HW127974   0.610   6.111   1.479
 9025SOL    HW227975   0.623   5.961   1.541
 9026SOL     OW27976   6.069   1.151   6.891
 9026SOL    HW127977   6.039   1.170   6.797
 9026SOL    HW227978   6.160   1.189   6.905
 9027SOL     OW27979   0.054   4.034   3.309
 9027SOL    HW127980   6.978   4.063   3.289
 9027SOL    HW227981   0.109   4.042   3.226
 9028SOL     OW27982   3.286   4.866   6.833
 9028SOL    HW127983   3.359   4.865   6.765
 9028SOL    HW227984   3.254   4.960   6.845
 9029SOL     OW27985   4.284   6.265   5.267
 9029SOL    HW127986   4.274   6.357   5.305
 9029SOL    HW227987   4.207   6.245   5.206
 9030SOL     OW27988   2.798   2.300   2.271
 9030SOL    HW127989   2.886   2.257   2.295
 9030SOL    HW227990   2.803   2.333   2.177
 9031SOL     OW27991   5.207   6.932   5.136
 9031SOL    HW127992   5.265   6.875   5.078
 9031SOL    HW227993   5.260   6.968   5.212
 9032SOL     OW27994   5.271   2.951   0.778
 9032SOL    HW127995   5.178   2.927   0.753
 9032SOL    HW227996   5.273   2.983   0.873
 9033SOL     OW27997   1.305   6.125   2.680
 9033SOL    HW127998   1.299   6.223   2.702
 9033SOL    HW227999   1.217   6.082   2.699
 9034SOL     OW28000   4.273   6.936   5.185
 9034SOL    HW128001   4.231   6.863   5.131
 9034SOL    HW228002   4.372   6.928   5.181
 9035SOL     OW28003   3.038   5.219   5.908
 9035SOL    HW128004   2.950   5.267   5.906
 9035SOL    HW228005   3.061   5.195   6.003
 9036SOL     OW28006   0.212   5.364   5.193
 9036SOL    HW128007   0.246   5.288   5.249
 9036SOL    HW228008   0.240   5.351   5.098
 9037SOL     OW28009   0.093   0.613   2.367
 9037SOL    HW128010   0.150   0.574   2.440
 9037SOL    HW228011   0.049   0.539   2.317
 9038SOL     OW28012   3.873   3.245   5.415
 9038SOL    HW128013   3.892   3.158   5.461
 9038SOL    HW228014   3.794   3.289   5.458
 9039SOL     OW28015   4.376   6.230   6.416
 9039SOL    HW128016   4.290   6.188   6.443
 9039SOL    HW228017   4.441   6.224   6.492
 9040SOL     OW28018   2.155   2.152   1.880
 9040SOL    HW128019   2.251   2.156   1.907
 9040SOL    HW228020   2.103   2.224   1.926
 9041SOL     OW28021   6.125   2.221   2.957
 9041SOL    HW128022   6.133   2.302   3.016
 9041SOL    HW228023   6.058   2.158   2.996
 9042SOL     OW28024   5.810   5.681   6.469
 9042SOL    HW128025   5.774   5.640   6.553
 9042SOL    HW228026   5.910   5.678   6.470
 9043SOL     OW28027   2.791   3.117   1.537
 9043SOL    HW128028   2.749   3.032   1.569
 9043SOL    HW228029   2.720   3.182   1.510
 9044SOL     OW28030   1.950   0.570   0.242
 9044SOL    HW128031   1.961   0.572   0.341
 9044SOL    HW228032   1.965   0.662   0.205
 9045SOL     OW28033   3.633   0.669   3.989
 9045SOL    HW128034   3.544   0.642   4.026
 9045SOL    HW228035   3.674   0.591   3.942
 9046SOL     OW28036   4.046   3.757   2.328
 9046SOL    HW128037   4.113   3.684   2.336
 9046SOL    HW228038   3.986   3.757   2.408
 9047SOL     OW28039   0.724   4.649   5.923
 9047SOL    HW128040   0.716   4.724   5.857
 9047SOL    HW228041   0.635   4.634   5.967
 9048SOL     OW28042   6.941   1.912   5.262
 9048SOL    HW128043   6.888   1.852   5.202
 9048SOL    HW228044   6.999   1.972   5.206
 9049SOL     OW28045   1.233   6.779   5.318
 9049SOL    HW128046   1.143   6.783   5.361
 9049SOL    HW228047   1.274   6.870   5.318
 9050SOL     OW28048   1.105   4.477   0.121
 9050SOL    HW128049   1.057   4.544   0.178
 9050SOL    HW228050   1.203   4.496   0.124
 9051SOL     OW28051   2.200   0.613   1.732
 9051SOL    HW128052   2.114   0.657   1.708
 9051SOL    HW228053   2.214   0.618   1.831
 9052SOL     OW28054   2.204   3.040   6.658
 9052SOL    HW128055   2.131   2.973   6.666
 9052SOL    HW228056   2.174   3.127   6.698
 9053SOL     OW28057   0.630   1.276   0.257
 9053SOL    HW128058   0.555   1.342   0.261
 9053SOL    HW228059   0.617   1.207   0.328
 9054SOL     OW28060   1.599   5.768   3.142
 9054SOL    HW128061   1.668   5.804   3.204
 9054SOL    HW228062   1.618   5.672   3.122
 9055SOL     OW28063   0.796   2.649   6.077
 9055SOL    HW128064   0.842   2.662   6.165
 9055SOL    HW228065   0.697   2.642   6.092
 9056SOL     OW28066   5.060   1.462   4.220
 9056SOL    HW128067   5.019   1.541   4.265
 9056SOL    HW228068   5.137   1.429   4.275
 9057SOL     OW28069   4.860   1.365   3.550
 9057SOL    HW128070   4.869   1.343   3.647
 9057SOL    HW228071   4.832   1.460   3.539
 9058SOL     OW28072   2.018   0.061   6.021
 9058SOL    HW128073   2.061   7.006   6.073
 9058SOL    HW228074   1.929   0.084   6.062
 9059SOL     OW28075   1.929   2.418   3.743
 9059SOL    HW128076   1.846   2.414   3.798
 9059SOL    HW228077   2.006   2.448   3.799
 9060SOL     OW28078   5.343   2.430   5.074
 9060SOL    HW128079   5.261   2.468   5.031
 9060SOL    HW228080   5.349   2.332   5.053
 9061SOL     OW28081   2.126   4.706   3.629
 9061SOL    HW128082   2.073   4.674   3.551
 9061SOL    HW228083   2.122   4.637   3.702
 9062SOL     OW28084   1.481   6.085   1.852
 9062SOL    HW128085   1.393   6.131   1.840
 9062SOL    HW228086   1.523   6.069   1.763
 9063SOL     OW28087   3.376   1.616   1.478
 9063SOL    HW128088   3.373   1.714   1.497
 9063SOL    HW228089   3.284   1.577   1.490
 9064SOL     OW28090   4.107   4.008   6.567
 9064SOL    HW128091   4.031   3.971   6.621
 9064SOL    HW228092   4.182   4.034   6.628
 9065SOL     OW28093   2.845   0.922   1.187
 9065SOL    HW128094   2.909   0.846   1.178
 9065SOL    HW228095   2.833   0.967   1.098
 9066SOL     OW28096   4.628   6.709   6.992
 9066SOL    HW128097   4.638   6.808   6.997
 9066SOL    HW228098   4.700   6.671   6.934
 9067SOL     OW28099   0.657   0.145   1.474
 9067SOL    HW128100   0.656   0.196   1.560
 9067SOL    HW228101   0.748   0.149   1.433
 9068SOL     OW28102   1.308   6.018   6.270
 9068SOL    HW128103   1.404   6.042   6.275
 9068SOL    HW228104   1.285   5.956   6.344
 9069SOL     OW28105   1.267   1.956   5.665
 9069SOL    HW128106   1.271   2.038   5.723
 9069SOL    HW228107   1.249   1.983   5.571
 9070SOL     OW28108   1.040   4.276   4.312
 9070SOL    HW128109   0.972   4.261   4.383
 9070SOL    HW228110   1.106   4.345   4.343
 9071SOL     OW28111   5.097   5.279   6.895
 9071SOL    HW128112   5.032   5.274   6.820
 9071SOL    HW228113   5.151   5.194   6.899
 9072SOL     OW28114   5.198   4.435   0.499
 9072SOL    HW128115   5.192   4.534   0.505
 9072SOL    HW228116   5.112   4.394   0.530
 9073SOL     OW28117   2.080   0.209   1.422
 9073SOL    HW128118   2.135   0.240   1.345
 9073SOL    HW228119   2.103   0.114   1.443
 9074SOL     OW28120   0.466   0.731   1.589
 9074SOL    HW128121   0.476   0.645   1.639
 9074SOL    HW228122   0.381   0.729   1.536
 9075SOL     OW28123   6.712   0.200   1.256
 9075SOL    HW128124   6.636   0.263   1.277
 9075SOL    HW228125   6.687   0.108   1.285
 9076SOL     OW28126   1.322   2.506   5.481
 9076SOL    HW128127   1.265   2.548   5.410
 9076SOL    HW228128   1.280   2.421   5.512
 9077SOL     OW28129   6.068   5.919   1.983
 9077SOL    HW128130   6.148   5.897   1.928
 9077SOL    HW228131   5.987   5.875   1.944
 9078SOL     OW28132   4.607   3.043   5.465
 9078SOL    HW128133   4.590   3.109   5.392
 9078SOL    HW228134   4.638   3.091   5.547
 9079SOL     OW28135   1.993   6.834   5.432
 9079SOL    HW128136   1.896   6.813   5.423
 9079SOL    HW228137   2.006   6.906   5.500
 9080SOL     OW28138   4.652   0.745   0.163
 9080SOL    HW128139   4.589   0.740   0.085
 9080SOL    HW228140   4.674   0.652   0.194
 9081SOL     OW28141   5.515   6.929   3.725
 9081SOL    HW128142   5.464   6.948   3.642
 9081SOL    HW228143   5.512   7.010   3.785
 9082SOL     OW28144   2.362   0.508   2.013
 9082SOL    HW128145   2.336   0.603   2.001
 9082SOL    HW228146   2.443   0.502   2.071
 9083SOL     OW28147   4.097   5.131   3.488
 9083SOL    HW128148   4.124   5.224   3.514
 9083SOL    HW228149   4.024   5.135   3.420
 9084SOL     OW28150   3.641   3.711   2.137
 9084SOL    HW128151   3.567   3.665   2.186
 9084SOL    HW228152   3.726   3.660   2.149
 9085SOL     OW28153   1.247   1.874   0.764
 9085SOL    HW128154   1.283   1.967   0.755
 9085SOL    HW228155   1.245   1.848   0.860
 9086SOL     OW28156   6.798   3.313   0.408
 9086SOL    HW128157   6.819   3.222   0.371
 9086SOL    HW228158   6.883   3.361   0.427
 9087SOL     OW28159   5.272   3.585   2.111
 9087SOL    HW128160   5.294   3.555   2.018
 9087SOL    HW228161   5.175   3.606   2.117
 9088SOL     OW28162   6.198   4.630   2.521
 9088SOL    HW128163   6.297   4.617   2.530
 9088SOL    HW228164   6.169   4.708   2.576
 9089SOL     OW28165   3.745   1.171   5.717
 9089SOL    HW128166   3.837   1.182   5.753
 9089SOL    HW228167   3.681   1.229   5.767
 9090SOL     OW28168   0.070   2.059   3.846
 9090SOL    HW128169   0.028   1.974   3.816
 9090SOL    HW228170   0.044   2.133   3.783
 9091SOL     OW28171   4.376   2.785   5.803
 9091SOL    HW128172   4.313   2.833   5.742
 9091SOL    HW228173   4.345   2.795   5.897
 9092SOL     OW28174   7.010   3.602   5.782
 9092SOL    HW128175   7.015   3.508   5.817
 9092SOL    HW228176   6.915   3.631   5.777
 9093SOL     OW28177   2.359   6.317   4.961
 9093SOL    HW128178   2.379   6.340   4.866
 9093SOL    HW228179   2.435   6.348   5.019
 9094SOL     OW28180   1.758   4.036   0.619
 9094SOL    HW128181   1.784   3.941   0.602
 9094SOL    HW228182   1.750   4.052   0.717
 9095SOL     OW28183   0.298   0.266   6.162
 9095SOL    HW128184   0.347   0.342   6.119
 9095SOL    HW228185   0.363   0.200   6.199
 9096SOL     OW28186   6.440   5.582   3.953
 9096SOL    HW128187   6.380   5.521   3.903
 9096SOL    HW228188   6.532   5.578   3.913
 9097SOL     OW28189   0.624   3.862   0.307
 9097SOL    HW128190   0.625   3.858   0.207
 9097SOL    HW228191   0.656   3.952   0.337
 9098SOL     OW28192   1.773   5.414   4.570
 9098SOL    HW128193   1.846   5.347   4.562
 9098SOL    HW228194   1.794   5.493   4.512
 9099SOL     OW28195   2.610   1.669   6.236
 9099SOL    HW128196   2.541   1.622   6.291
 9099SOL    HW228197   2.578   1.760   6.213
 9100SOL     OW28198   1.670   4.734   4.775
 9100SOL    HW128199   1.674   4.813   4.713
 9100SOL    HW228200   1.622   4.760   4.859
 9101SOL     OW28201   6.597   1.895   1.358
 9101SOL    HW128202   6.674   1.958   1.361
 9101SOL    HW228203   6.594   1.842   1.442
 9102SOL     OW28204   3.383   0.708   2.978
 9102SOL    HW128205   3.438   0.768   3.036
 9102SOL    HW228206   3.308   0.760   2.937
 9103SOL     OW28207   6.057   0.444   1.134
 9103SOL    HW128208   6.152   0.418   1.150
 9103SOL    HW228209   6.034   0.432   1.038
 9104SOL     OW28210   5.255   2.461   5.740
 9104SOL    HW128211   5.212   2.374   5.719
 9104SOL    HW228212   5.294   2.501   5.657
 9105SOL     OW28213   2.950   0.879   0.306
 9105SOL    HW128214   3.022   0.810   0.302
 9105SOL    HW228215   2.991   0.970   0.320
 9106SOL     OW28216   2.516   2.858   6.344
 9106SOL    HW128217   2.422   2.830   6.327
 9106SOL    HW228218   2.572   2.839   6.263
 9107SOL     OW28219   3.963   0.651   1.034
 9107SOL    HW128220   4.030   0.584   1.063
 9107SOL    HW228221   3.881   0.645   1.091
 9108SOL     OW28222   5.924   6.545   5.517
 9108SOL    HW128223   5.995   6.609   5.546
 9108SOL    HW228224   5.952   6.501   5.431
 9109SOL     OW28225   5.194   3.873   3.295
 9109SOL    HW128226   5.098   3.858   3.314
 9109SOL    HW228227   5.222   3.961   3.334
 9110SOL     OW28228   1.287   6.453   2.439
 9110SOL    HW128229   1.353   6.382   2.415
 9110SOL    HW228230   1.195   6.415   2.437
 9111SOL     OW28231   4.585   2.785   5.646
 9111SOL    HW128232   4.572   2.710   5.582
 9111SOL    HW228233   4.506   2.790   5.708
 9112SOL     OW28234   0.685   4.680   1.769
 9112SOL    HW128235   0.593   4.717   1.784
 9112SOL    HW228236   0.679   4.598   1.713
 9113SOL     OW28237   5.521   0.425   4.720
 9113SOL    HW128238   5.457   0.408   4.645
 9113SOL    HW228239   5.578   0.344   4.734
 9114SOL     OW28240   0.129   1.090   6.342
 9114SOL    HW128241   0.121   0.996   6.310
 9114SOL    HW228242   0.108   1.153   6.268
 9115SOL     OW28243   5.427   3.900   4.379
 9115SOL    HW128244   5.498   3.842   4.419
 9115SOL    HW228245   5.390   3.856   4.297
 9116SOL     OW28246   0.416   5.463   4.037
 9116SOL    HW128247   0.479   5.454   4.114
 9116SOL    HW228248   0.444   5.541   3.980
 9117SOL     OW28249   2.093   6.815   0.086
 9117SOL    HW128250   2.012   6.874   0.081
 9117SOL    HW228251   2.155   6.850   0.156
 9118SOL     OW28252   6.881   5.312   0.896
 9118SOL    HW128253   6.859   5.377   0.823
 9118SOL    HW228254   6.890   5.361   0.983
 9119SOL     OW28255   3.723   1.878   0.620
 9119SOL    HW128256   3.758   1.966   0.588
 9119SOL    HW228257   3.748   1.806   0.555
 9120SOL     OW28258   6.693   4.456   5.176
 9120SOL    HW128259   6.759   4.432   5.247
 9120SOL    HW228260   6.602   4.465   5.217
 9121SOL     OW28261   4.687   0.987   4.703
 9121SOL    HW128262   4.711   0.959   4.610
 9121SOL    HW228263   4.588   0.995   4.711
 9122SOL     OW28264   0.213   1.613   1.995
 9122SOL    HW128265   0.163   1.586   1.913
 9122SOL    HW228266   0.311   1.611   1.976
 9123SOL     OW28267   0.814   6.109   4.737
 9123SOL    HW128268   0.799   6.180   4.806
 9123SOL    HW228269   0.747   6.036   4.749
 9124SOL     OW28270   3.109   5.645   0.742
 9124SOL    HW128271   3.168   5.590   0.683
 9124SOL    HW228272   3.059   5.586   0.805
 9125SOL     OW28273   4.946   6.640   1.953
 9125SOL    HW128274   4.926   6.722   1.898
 9125SOL    HW228275   4.867   6.579   1.950
 9126SOL     OW28276   3.742   5.117   0.375
 9126SOL    HW128277   3.820   5.149   0.320
 9126SOL    HW228278   3.657   5.146   0.331
 9127SOL     OW28279   6.155   4.186   5.760
 9127SOL    HW128280   6.153   4.244   5.842
 9127SOL    HW228281   6.240   4.134   5.759
 9128SOL     OW28282   5.379   3.726   6.768
 9128SOL    HW128283   5.386   3.730   6.668
 9128SOL    HW228284   5.284   3.708   6.794
 9129SOL     OW28285   0.695   2.820   1.689
 9129SOL    HW128286   0.628   2.879   1.734
 9129SOL    HW228287   0.752   2.874   1.628
 9130SOL     OW28288   2.888   3.971   6.072
 9130SOL    HW128289   2.945   3.891   6.088
 9130SOL    HW228290   2.856   3.971   5.977
 9131SOL     OW28291   6.299   3.271   0.948
 9131SOL    HW128292   6.322   3.173   0.948
 9131SOL    HW228293   6.208   3.283   0.989
 9132SOL     OW28294   0.745   4.411   4.111
 9132SOL    HW128295   0.800   4.487   4.146
 9132SOL    HW228296   0.799   4.327   4.115
 9133SOL     OW28297   5.035   6.588   0.267
 9133SOL    HW128298   5.108   6.584   0.336
 9133SOL    HW228299   5.050   6.516   0.199
 9134SOL     OW28300   4.749   4.394   0.008
 9134SOL    HW128301   4.715   4.340   0.085
 9134SOL    HW228302   4.768   4.333   6.949
 9135SOL     OW28303   6.834   5.282   2.561
 9135SOL    HW128304   6.913   5.266   2.619
 9135SOL    HW228305   6.796   5.373   2.581
 9136SOL     OW28306   0.697   4.816   6.976
 9136SOL    HW128307   0.609   4.797   6.931
 9136SOL    HW228308   0.770   4.808   6.909
 9137SOL     OW28309   5.493   5.370   5.963
 9137SOL    HW128310   5.404   5.324   5.962
 9137SOL    HW228311   5.535   5.362   5.873
 9138SOL     OW28312   1.538   3.876   6.138
 9138SOL    HW128313   1.585   3.885   6.226
 9138SOL    HW228314   1.605   3.854   6.067
 9139SOL     OW28315   0.429   6.830   0.792
 9139SOL    HW128316   0.401   6.840   0.887
 9139SOL    HW228317   0.500   6.760   0.786
 9140SOL     OW28318   0.254   4.081   3.144
 9140SOL    HW128319   0.254   4.161   3.085
 9140SOL    HW228320   0.347   4.060   3.172
 9141SOL     OW28321   0.267   5.838   4.250
 9141SOL    HW128322   0.218   5.837   4.163
 9141SOL    HW228323   0.362   5.813   4.235
 9142SOL     OW28324   1.828   5.308   3.355
 9142SOL    HW128325   1.744   5.362   3.353
 9142SOL    HW228326   1.811   5.220   3.310
 9143SOL     OW28327   5.268   3.222   2.625
 9143SOL    HW128328   5.241   3.126   2.621
 9143SOL    HW228329   5.358   3.233   2.582
 9144SOL     OW28330   2.358   4.752   5.423
 9144SOL    HW128331   2.411   4.684   5.474
 9144SOL    HW228332   2.322   4.710   5.339
 9145SOL     OW28333   2.908   5.846   6.749
 9145SOL    HW128334   2.957   5.912   6.693
 9145SOL    HW228335   2.915   5.755   6.708
 9146SOL     OW28336   5.196   1.619   4.596
 9146SOL    HW128337   5.256   1.696   4.572
 9146SOL    HW228338   5.193   1.554   4.520
 9147SOL     OW28339   4.532   6.920   6.163
 9147SOL    HW128340   4.456   6.883   6.217
 9147SOL    HW228341   4.545   7.016   6.187
 9148SOL     OW28342   3.617   5.605   2.444
 9148SOL    HW128343   3.553   5.529   2.433
 9148SOL    HW228344   3.648   5.635   2.353
 9149SOL     OW28345   1.202   3.867   1.483
 9149SOL    HW128346   1.246   3.834   1.400
 9149SOL    HW228347   1.219   3.803   1.558
 9150SOL     OW28348   3.837   3.509   6.625
 9150SOL    HW128349   3.833   3.535   6.529
 9150SOL    HW228350   3.789   3.578   6.680
 9151SOL     OW28351   2.131   3.786   3.740
 9151SOL    HW128352   2.131   3.853   3.814
 9151SOL    HW228353   2.094   3.827   3.657
 9152SOL     OW28354   1.909   5.450   1.914
 9152SOL    HW128355   1.920   5.391   1.834
 9152SOL    HW228356   1.995   5.454   1.965
 9153SOL     OW28357   0.714   3.653   0.483
 9153SOL    HW128358   0.690   3.734   0.429
 9153SOL    HW228359   0.655   3.576   0.455
 9154SOL     OW28360   4.378   5.246   2.944
 9154SOL    HW128361   4.431   5.172   2.904
 9154SOL    HW228362   4.368   5.231   3.042
 9155SOL     OW28363   0.403   6.376   2.655
 9155SOL    HW128364   0.465   6.417   2.588
 9155SOL    HW228365   0.355   6.448   2.705
 9156SOL     OW28366   6.761   4.467   5.714
 9156SOL    HW128367   6.764   4.533   5.639
 9156SOL    HW228368   6.696   4.498   5.784
 9157SOL     OW28369   2.003   4.709   5.097
 9157SOL    HW128370   1.936   4.638   5.077
 9157SOL    HW228371   1.955   4.791   5.129
 9158SOL     OW28372   6.690   2.384   3.917
 9158SOL    HW128373   6.625   2.441   3.967
 9158SOL    HW228374   6.774   2.375   3.970
 9159SOL     OW28375   2.410   0.874   3.552
 9159SOL    HW128376   2.352   0.902   3.628
 9159SOL    HW228377   2.450   0.785   3.572
 9160SOL     OW28378   0.450   3.382   6.461
 9160SOL    HW128379   0.460   3.327   6.543
 9160SOL    HW228380   0.512   3.348   6.390
 9161SOL     OW28381   5.676   3.181   2.808
 9161SOL    HW128382   5.727   3.106   2.850
 9161SOL    HW228383   5.687   3.264   2.863
 9162SOL     OW28384   5.662   2.434   1.850
 9162SOL    HW128385   5.723   2.503   1.812
 9162SOL    HW228386   5.698   2.343   1.830
 9163SOL     OW28387   1.549   3.628   3.060
 9163SOL    HW128388   1.461   3.665   3.089
 9163SOL    HW228389   1.540   3.530   3.042
 9164SOL     OW28390   4.045   1.026   0.699
 9164SOL    HW128391   4.037   0.940   0.648
 9164SOL    HW228392   4.075   1.007   0.793
 9165SOL     OW28393   6.833   0.039   6.554
 9165SOL    HW128394   6.855   0.036   6.457
 9165SOL    HW228395   6.897   0.102   6.600
 9166SOL     OW28396   4.057   5.653   2.211
 9166SOL    HW128397   4.009   5.573   2.176
 9166SOL    HW228398   4.156   5.642   2.197
 9167SOL     OW28399   0.522   2.427   5.004
 9167SOL    HW128400   0.531   2.330   5.026
 9167SOL    HW228401   0.497   2.478   5.087
 9168SOL     OW28402   5.679   5.947   4.604
 9168SOL    HW128403   5.626   5.960   4.688
 9168SOL    HW228404   5.618   5.917   4.531
 9169SOL     OW28405   5.699   5.808   0.272
 9169SOL    HW128406   5.774   5.830   0.209
 9169SOL    HW228407   5.703   5.710   0.295
 9170SOL     OW28408   1.363   0.018   5.337
 9170SOL    HW128409   1.427   0.033   5.262
 9170SOL    HW228410   1.381   0.085   5.409
 9171SOL     OW28411   4.731   5.817   6.719
 9171SOL    HW128412   4.645   5.832   6.768
 9171SOL    HW228413   4.747   5.719   6.708
 9172SOL     OW28414   5.354   0.543   5.924
 9172SOL    HW128415   5.301   0.510   6.001
 9172SOL    HW228416   5.449   0.512   5.932
 9173SOL     OW28417   6.082   4.142   6.942
 9173SOL    HW128418   6.030   4.080   7.000
 9173SOL    HW228419   6.175   4.152   6.978
 9174SOL     OW28420   5.878   4.888   7.016
 9174SOL    HW128421   5.825   4.964   6.977
 9174SOL    HW228422   5.854   4.877   0.094
 9175SOL     OW28423   2.012   0.975   1.465
 9175SOL    HW128424   2.029   0.929   1.378
 9175SOL    HW228425   2.056   1.065   1.465
 9176SOL     OW28426   1.548   6.798   2.262
 9176SOL    HW128427   1.604   6.727   2.221
 9176SOL    HW228428   1.495   6.845   2.190
 9177SOL     OW28429   0.485   5.623   3.586
 9177SOL    HW128430   0.405   5.564   3.574
 9177SOL    HW228431   0.513   5.621   3.682
 9178SOL     OW28432   1.033   3.329   1.014
 9178SOL    HW128433   1.050   3.241   0.968
 9178SOL    HW228434   0.982   3.389   0.951
 9179SOL     OW28435   3.928   5.983   3.002
 9179SOL    HW128436   3.927   6.063   2.942
 9179SOL    HW228437   3.895   5.903   2.951
 9180SOL     OW28438   0.469   1.143   4.911
 9180SOL    HW128439   0.485   1.233   4.953
 9180SOL    HW228440   0.524   1.074   4.958
 9181SOL     OW28441   3.156   1.821   2.920
 9181SOL    HW128442   3.205   1.774   2.846
 9181SOL    HW228443   3.196   1.796   3.008
 9182SOL     OW28444   6.685   1.487   3.012
 9182SOL    HW128445   6.623   1.477   2.935
 9182SOL    HW228446   6.779   1.489   2.980
 9183SOL     OW28447   3.381   1.825   5.431
 9183SOL    HW128448   3.339   1.864   5.513
 9183SOL    HW228449   3.455   1.885   5.400
 9184SOL     OW28450   2.763   5.884   0.879
 9184SOL    HW128451   2.735   5.826   0.803
 9184SOL    HW228452   2.853   5.922   0.861
 9185SOL     OW28453   0.468   1.204   5.296
 9185SOL    HW128454   0.434   1.212   5.390
 9185SOL    HW228455   0.492   1.295   5.262
 9186SOL     OW28456   5.134   6.590   5.954
 9186SOL    HW128457   5.230   6.606   5.978
 9186SOL    HW228458   5.079   6.669   5.983
 9187SOL     OW28459   5.048   3.477   1.310
 9187SOL    HW128460   5.054   3.488   1.211
 9187SOL    HW228461   5.001   3.557   1.349
 9188SOL     OW28462   1.064   1.073   2.496
 9188SOL    HW128463   1.029   1.054   2.588
 9188SOL    HW228464   0.993   1.120   2.443
 9189SOL     OW28465   2.937   0.557   6.880
 9189SOL    HW128466   2.882   0.487   6.924
 9189SOL    HW228467   2.959   0.629   6.945
 9190SOL     OW28468   3.485   0.987   5.690
 9190SOL    HW128469   3.560   1.053   5.692
 9190SOL    HW228470   3.519   0.899   5.655
 9191SOL     OW28471   4.978   0.148   1.666
 9191SOL    HW128472   4.972   0.243   1.635
 9191SOL    HW228473   4.955   0.086   1.591
 9192SOL     OW28474   4.194   4.812   3.764
 9192SOL    HW128475   4.244   4.853   3.687
 9192SOL    HW228476   4.096   4.818   3.747
 9193SOL     OW28477   3.998   3.891   2.089
 9193SOL    HW128478   4.015   3.862   2.183
 9193SOL    HW228479   4.022   3.988   2.079
 9194SOL     OW28480   2.721   5.713   3.730
 9194SOL    HW128481   2.627   5.700   3.761
 9194SOL    HW228482   2.781   5.720   3.809
 9195SOL     OW28483   0.345   3.305   3.483
 9195SOL    HW128484   0.287   3.253   3.546
 9195SOL    HW228485   0.330   3.403   3.498
 9196SOL     OW28486   5.690   5.696   3.418
 9196SOL    HW128487   5.601   5.651   3.424
 9196SOL    HW228488   5.744   5.673   3.500
 9197SOL     OW28489   4.225   2.246   6.449
 9197SOL    HW128490   4.233   2.343   6.470
 9197SOL    HW228491   4.132   2.225   6.418
 9198SOL     OW28492   6.584   2.265   4.587
 9198SOL    HW128493   6.657   2.207   4.623
 9198SOL    HW228494   6.593   2.271   4.487
 9199SOL     OW28495   0.848   3.579   0.075
 9199SOL    HW128496   0.751   3.605   0.083
 9199SOL    HW228497   0.854   3.487   0.036
 9200SOL     OW28498   4.310   5.933   2.120
 9200SOL    HW128499   4.257   6.007   2.161
 9200SOL    HW228500   4.403   5.965   2.101
 9201SOL     OW28501   0.216   2.582   2.389
 9201SOL    HW128502   0.278   2.587   2.311
 9201SOL    HW228503   0.179   2.490   2.397
 9202SOL     OW28504   1.981   5.896   3.048
 9202SOL    HW128505   1.959   5.818   3.107
 9202SOL    HW228506   2.048   5.954   3.095
 9203SOL     OW28507   5.130   2.132   0.313
 9203SOL    HW128508   5.057   2.177   0.262
 9203SOL    HW228509   5.140   2.175   0.403
 9204SOL     OW28510   4.907   4.237   1.360
 9204SOL    HW128511   4.893   4.189   1.273
 9204SOL    HW228512   4.871   4.330   1.354
 9205SOL     OW28513   4.298   2.776   0.759
 9205SOL    HW128514   4.215   2.719   0.766
 9205SOL    HW228515   4.326   2.783   0.664
 9206SOL     OW28516   6.622   0.425   5.209
 9206SOL    HW128517   6.719   0.436   5.189
 9206SOL    HW228518   6.570   0.428   5.124
 9207SOL     OW28519   6.014   6.053   0.812
 9207SOL    HW128520   5.934   6.114   0.818
 9207SOL    HW228521   6.039   6.041   0.717
 9208SOL     OW28522   6.158   4.245   1.590
 9208SOL    HW128523   6.134   4.225   1.685
 9208SOL    HW228524   6.257   4.256   1.582
 9209SOL     OW28525   4.983   0.652   4.509
 9209SOL    HW128526   5.029   0.683   4.426
 9209SOL    HW228527   5.043   0.665   4.588
 9210SOL     OW28528   1.741   6.824   0.420
 9210SOL    HW128529   1.791   6.765   0.357
 9210SOL    HW228530   1.735   6.916   0.381
 9211SOL     OW28531   5.443   1.240   6.171
 9211SOL    HW128532   5.399   1.155   6.201
 9211SOL    HW228533   5.388   1.318   6.199
 9212SOL     OW28534   6.023   3.762   6.540
 9212SOL    HW128535   6.064   3.671   6.527
 9212SOL    HW228536   6.078   3.830   6.491
 9213SOL     OW28537   0.450   5.539   3.165
 9213SOL    HW128538   0.394   5.610   3.208
 9213SOL    HW228539   0.405   5.450   3.175
 9214SOL     OW28540   1.624   1.183   5.760
 9214SOL    HW128541   1.616   1.231   5.673
 9214SOL    HW228542   1.721   1.167   5.781
 9215SOL     OW28543   6.669   3.733   3.994
 9215SOL    HW128544   6.703   3.639   3.999
 9215SOL    HW228545   6.666   3.772   4.086
 9216SOL     OW28546   1.597   0.053   3.456
 9216SOL    HW128547   1.584   0.077   3.360
 9216SOL    HW228548   1.560   6.980   3.473
 9217SOL     OW28549   3.601   2.731   0.315
 9217SOL    HW128550   3.553   2.673   0.248
 9217SOL    HW228551   3.668   2.788   0.268
 9218SOL     OW28552   4.972   5.660   5.908
 9218SOL    HW128553   4.992   5.711   5.992
 9218SOL    HW228554   4.873   5.655   5.895
 9219SOL     OW28555   3.884   3.302   5.929
 9219SOL    HW128556   3.888   3.252   5.842
 9219SOL    HW228557   3.820   3.256   5.990
 9220SOL     OW28558   0.769   6.721   3.626
 9220SOL    HW128559   0.726   6.741   3.714
 9220SOL    HW228560   0.699   6.701   3.558
 9221SOL     OW28561   2.518   1.359   2.199
 9221SOL    HW128562   2.587   1.380   2.269
 9221SOL    HW228563   2.442   1.423   2.208
 9222SOL     OW28564   2.380   5.929   3.292
 9222SOL    HW128565   2.473   5.926   3.328
 9222SOL    HW228566   2.317   5.958   3.364
 9223SOL     OW28567   6.092   2.200   4.895
 9223SOL    HW128568   6.013   2.168   4.843
 9223SOL    HW228569   6.173   2.202   4.836
 9224SOL     OW28570   1.845   5.770   2.614
 9224SOL    HW128571   1.908   5.764   2.536
 9224SOL    HW228572   1.894   5.809   2.693
 9225SOL     OW28573   0.269   6.041   5.380
 9225SOL    HW128574   0.200   6.001   5.320
 9225SOL    HW228575   0.307   5.969   5.439
 9226SOL     OW28576   0.989   6.868   4.827
 9226SOL    HW128577   1.000   6.921   4.911
 9226SOL    HW228578   0.918   6.908   4.770
 9227SOL     OW28579   4.254   3.053   0.810
 9227SOL    HW128580   4.241   2.956   0.794
 9227SOL    HW228581   4.273   3.068   0.907
 9228SOL     OW28582   3.576   3.896   4.331
 9228SOL    HW128583   3.630   3.821   4.293
 9228SOL    HW228584   3.584   3.977   4.273
 9229SOL     OW28585   0.580   6.192   1.271
 9229SOL    HW128586   0.667   6.165   1.229
 9229SOL    HW228587   0.578   6.291   1.284
 9230SOL     OW28588   3.385   6.892   5.812
 9230SOL    HW128589   3.468   6.836   5.807
 9230SOL    HW228590   3.402   6.980   5.767
 9231SOL     OW28591   5.545   6.461   1.758
 9231SOL    HW128592   5.502   6.422   1.839
 9231SOL    HW228593   5.486   6.445   1.678
 9232SOL     OW28594   1.120   5.082   2.058
 9232SOL    HW128595   1.031   5.098   2.101
 9232SOL    HW228596   1.116   4.999   2.003
 9233SOL     OW28597   1.222   0.254   5.925
 9233SOL    HW128598   1.315   0.277   5.952
 9233SOL    HW228599   1.165   0.243   6.006
 9234SOL     OW28600   3.334   3.923   0.052
 9234SOL    HW128601   3.288   3.907   0.140
 9234SOL    HW228602   3.338   4.021   0.034
 9235SOL     OW28603   1.747   2.290   2.635
 9235SOL    HW128604   1.724   2.196   2.610
 9235SOL    HW228605   1.668   2.334   2.678
 9236SOL     OW28606   1.671   4.064   6.453
 9236SOL    HW128607   1.690   3.991   6.388
 9236SOL    HW228608   1.717   4.148   6.423
 9237SOL     OW28609   6.611   5.875   3.715
 9237SOL    HW128610   6.633   5.911   3.624
 9237SOL    HW228611   6.532   5.924   3.752
 9238SOL     OW28612   1.936   2.923   4.880
 9238SOL    HW128613   1.998   2.930   4.958
 9238SOL    HW228614   1.877   3.004   4.877
 9239SOL     OW28615   2.261   6.028   6.307
 9239SOL    HW128616   2.162   6.031   6.295
 9239SOL    HW228617   2.305   6.070   6.228
 9240SOL     OW28618   3.757   1.460   4.860
 9240SOL    HW128619   3.750   1.558   4.845
 9240SOL    HW228620   3.800   1.417   4.780
 9241SOL     OW28621   5.008   6.365   6.883
 9241SOL    HW128622   5.082   6.411   6.931
 9241SOL    HW228623   5.047   6.306   6.811
 9242SOL     OW28624   2.571   2.675   0.051
 9242SOL    HW128625   2.523   2.748   0.001
 9242SOL    HW228626   2.557   2.687   0.149
 9243SOL     OW28627   2.229   6.992   0.259
 9243SOL    HW128628   2.192   6.977   0.351
 9243SOL    HW228629   2.220   0.071   0.234
 9244SOL     OW28630   2.987   6.348   6.286
 9244SOL    HW128631   2.960   6.360   6.191
 9244SOL    HW228632   3.025   6.434   6.321
 9245SOL     OW28633   0.382   3.945   3.468
 9245SOL    HW128634   0.360   3.879   3.539
 9245SOL    HW228635   0.345   4.035   3.493
 9246SOL     OW28636   5.020   1.600   6.381
 9246SOL    HW128637   5.058   1.577   6.291
 9246SOL    HW228638   5.020   1.700   6.392
 9247SOL     OW28639   2.986   6.328   2.763
 9247SOL    HW128640   2.979   6.425   2.740
 9247SOL    HW228641   2.902   6.281   2.738
 9248SOL     OW28642   2.799   0.148   6.263
 9248SOL    HW128643   2.827   0.113   6.174
 9248SOL    HW228644   2.879   0.166   6.319
 9249SOL     OW28645   2.989   1.803   0.289
 9249SOL    HW128646   2.997   1.809   0.190
 9249SOL    HW228647   2.952   1.713   0.314
 9250SOL     OW28648   0.937   3.354   1.705
 9250SOL    HW128649   1.029   3.381   1.675
 9250SOL    HW228650   0.945   3.300   1.789
 9251SOL     OW28651   4.249   1.418   0.831
 9251SOL    HW128652   4.195   1.386   0.753
 9251SOL    HW228653   4.197   1.487   0.881
 9252SOL     OW28654   5.621   1.396   4.864
 9252SOL    HW128655   5.643   1.299   4.876
 9252SOL    HW228656   5.534   1.404   4.816
 9253SOL     OW28657   2.378   5.488   3.516
 9253SOL    HW128658   2.324   5.404   3.513
 9253SOL    HW228659   2.454   5.477   3.579
 9254SOL     OW28660   6.433   5.744   2.355
 9254SOL    HW128661   6.462   5.840   2.359
 9254SOL    HW228662   6.349   5.736   2.301
 9255SOL     OW28663   0.580   3.112   1.646
 9255SOL    HW128664   0.662   3.117   1.703
 9255SOL    HW228665   0.580   3.188   1.581
 9256SOL     OW28666   1.510   6.420   1.173
 9256SOL    HW128667   1.530   6.454   1.081
 9256SOL    HW228668   1.514   6.320   1.173
 9257SOL     OW28669   6.591   6.499   5.548
 9257SOL    HW128670   6.642   6.525   5.466
 9257SOL    HW228671   6.559   6.404   5.538
 9258SOL     OW28672   4.951   3.577   3.020
 9258SOL    HW128673   5.034   3.633   3.015
 9258SOL    HW228674   4.942   3.523   2.937
 9259SOL     OW28675   1.102   3.234   6.246
 9259SOL    HW128676   1.091   3.287   6.162
 9259SOL    HW228677   1.198   3.209   6.257
 9260SOL     OW28678   5.086   4.778   5.056
 9260SOL    HW128679   5.177   4.812   5.080
 9260SOL    HW228680   5.092   4.682   5.030
 9261SOL     OW28681   1.515   2.946   1.032
 9261SOL    HW128682   1.564   3.017   0.980
 9261SOL    HW228683   1.558   2.858   1.017
 9262SOL     OW28684   6.363   6.346   5.791
 9262SOL    HW128685   6.450   6.302   5.771
 9262SOL    HW228686   6.364   6.439   5.754
 9263SOL     OW28687   2.289   4.584   2.584
 9263SOL    HW128688   2.255   4.516   2.648
 9263SOL    HW228689   2.258   4.561   2.492
 9264SOL     OW28690   6.058   3.685   5.491
 9264SOL    HW128691   6.107   3.760   5.447
 9264SOL    HW228692   6.010   3.720   5.572
 9265SOL     OW28693   4.088   0.238   1.753
 9265SOL    HW128694   4.155   0.177   1.795
 9265SOL    HW228695   4.117   0.259   1.659
 9266SOL     OW28696   0.181   4.636   0.894
 9266SOL    HW128697   0.117   4.636   0.817
 9266SOL    HW228698   0.173   4.722   0.944
 9267SOL     OW28699   6.752   1.282   3.243
 9267SOL    HW128700   6.765   1.302   3.341
 9267SOL    HW228701   6.758   1.366   3.191
 9268SOL     OW28702   0.102   0.146   0.929
 9268SOL    HW128703   0.044   0.131   1.009
 9268SOL    HW228704   0.198   0.142   0.955
 9269SOL     OW28705   3.642   6.088   1.408
 9269SOL    HW128706   3.581   6.156   1.449
 9269SOL    HW228707   3.605   5.996   1.423
 9270SOL     OW28708   1.855   1.313   5.402
 9270SOL    HW128709   1.916   1.239   5.371
 9270SOL    HW228710   1.896   1.401   5.379
 9271SOL     OW28711   1.211   4.896   5.608
 9271SOL    HW128712   1.234   4.991   5.629
 9271SOL    HW228713   1.208   4.843   5.693
 9272SOL     OW28714   6.416   6.742   6.163
 9272SOL    HW128715   6.426   6.742   6.064
 9272SOL    HW228716   6.355   6.816   6.190
 9273SOL     OW28717   6.420   4.009   3.517
 9273SOL    HW128718   6.364   4.090   3.531
 9273SOL    HW228719   6.417   3.983   3.421
 9274SOL     OW28720   6.885   3.322   1.296
 9274SOL    HW128721   6.791   3.349   1.278
 9274SOL    HW228722   6.911   3.350   1.389
 9275SOL     OW28723   4.544   1.835   0.418
 9275SOL    HW128724   4.582   1.873   0.502
 9275SOL    HW228725   4.591   1.749   0.396
 9276SOL     OW28726   1.154   4.244   0.296
 9276SOL    HW128727   1.139   4.290   0.209
 9276SOL    HW228728   1.250   4.252   0.322
 9277SOL     OW28729   3.524   6.178   3.077
 9277SOL    HW128730   3.621   6.194   3.059
 9277SOL    HW228731   3.486   6.117   3.006
 9278SOL     OW28732   1.555   6.765   4.590
 9278SOL    HW128733   1.483   6.720   4.643
 9278SOL    HW228734   1.598   6.699   4.528
 9279SOL     OW28735   3.949   6.100   2.196
 9279SOL    HW128736   4.014   6.105   2.120
 9279SOL    HW228737   3.921   6.005   2.210
 9280SOL     OW28738   1.430   4.508   1.679
 9280SOL    HW128739   1.349   4.530   1.625
 9280SOL    HW228740   1.481   4.435   1.635
 9281SOL     OW28741   1.470   5.805   0.579
 9281SOL    HW128742   1.569   5.823   0.585
 9281SOL    HW228743   1.450   5.714   0.614
 9282SOL     OW28744   1.741   1.007   3.449
 9282SOL    HW128745   1.824   0.953   3.436
 9282SOL    HW228746   1.683   0.999   3.368
 9283SOL     OW28747   5.744   4.952   6.422
 9283SOL    HW128748   5.673   4.995   6.478
 9283SOL    HW228749   5.710   4.864   6.387
 9284SOL     OW28750   3.911   6.055   1.588
 9284SOL    HW128751   3.979   6.092   1.525
 9284SOL    HW228752   3.828   6.112   1.585
 9285SOL     OW28753   6.887   5.594   3.582
 9285SOL    HW128754   6.981   5.626   3.568
 9285SOL    HW228755   6.827   5.634   3.513
 9286SOL     OW28756   5.481   5.776   1.637
 9286SOL    HW128757   5.457   5.695   1.691
 9286SOL    HW228758   5.524   5.844   1.697
 9287SOL     OW28759   4.535   4.286   0.657
 9287SOL    HW128760   4.548   4.204   0.713
 9287SOL    HW228761   4.527   4.260   0.561
 9288SOL     OW28762   3.481   0.924   3.241
 9288SOL    HW128763   3.401   0.864   3.245
 9288SOL    HW228764   3.528   0.923   3.329
 9289SOL     OW28765   4.268   5.926   2.432
 9289SOL    HW128766   4.197   5.963   2.491
 9289SOL    HW228767   4.235   5.841   2.390
 9290SOL     OW28768   5.617   0.459   3.776
 9290SOL    HW128769   5.524   0.447   3.812
 9290SOL    HW228770   5.618   0.436   3.679
 9291SOL     OW28771   0.304   5.131   5.298
 9291SOL    HW128772   0.324   5.051   5.242
 9291SOL    HW228773   0.355   5.126   5.384
 9292SOL     OW28774   1.855   2.339   6.905
 9292SOL    HW128775   1.905   2.258   6.875
 9292SOL    HW228776   1.836   2.332   7.003
 9293SOL     OW28777   4.147   1.268   6.110
 9293SOL    HW128778   4.121   1.283   6.015
 9293SOL    HW228779   4.206   1.343   6.140
 9294SOL     OW28780   5.396   6.292   5.999
 9294SOL    HW128781   5.385   6.200   6.036
 9294SOL    HW228782   5.493   6.316   6.000
 9295SOL     OW28783   6.103   0.122   3.124
 9295SOL    HW128784   6.019   0.114   3.179
 9295SOL    HW228785   6.109   0.045   3.061
 9296SOL     OW28786   2.464   3.226   5.695
 9296SOL    HW128787   2.452   3.240   5.596
 9296SOL    HW228788   2.551   3.266   5.724
 9297SOL     OW28789   6.972   5.411   1.799
 9297SOL    HW128790   6.997   5.497   1.843
 9297SOL    HW228791   6.923   5.354   1.865
 9298SOL     OW28792   6.706   4.863   6.924
 9298SOL    HW128793   6.713   4.777   6.874
 9298SOL    HW228794   6.798   4.892   6.952
 9299SOL     OW28795   3.487   2.067   4.216
 9299SOL    HW128796   3.568   2.036   4.266
 9299SOL    HW228797   3.425   2.114   4.278
 9300SOL     OW28798   2.656   5.789   6.017
 9300SOL    HW128799   2.743   5.791   5.968
 9300SOL    HW228800   2.581   5.801   5.953
 9301SOL     OW28801   0.114   3.294   3.972
 9301SOL    HW128802   0.181   3.220   3.970
 9301SOL    HW228803   0.023   3.256   3.989
 9302SOL     OW28804   2.831   5.919   3.912
 9302SOL    HW128805   2.904   5.945   3.975
 9302SOL    HW228806   2.754   5.982   3.922
 9303SOL     OW28807   3.265   4.196   6.709
 9303SOL    HW128808   3.209   4.119   6.677
 9303SOL    HW228809   3.330   4.221   6.638
 9304SOL     OW28810   6.102   5.684   6.470
 9304SOL    HW128811   6.181   5.628   6.497
 9304SOL    HW228812   6.081   5.749   6.543
 9305SOL     OW28813   2.582   1.592   0.942
 9305SOL    HW128814   2.514   1.519   0.936
 9305SOL    HW228815   2.601   1.628   0.851
 9306SOL     OW28816   6.763   6.269   3.854
 9306SOL    HW128817   6.681   6.309   3.894
 9306SOL    HW228818   6.749   6.253   3.756
 9307SOL     OW28819   1.590   4.329   0.614
 9307SOL    HW128820   1.555   4.396   0.680
 9307SOL    HW228821   1.676   4.290   0.648
 9308SOL     OW28822   2.447   3.358   1.103
 9308SOL    HW128823   2.471   3.453   1.122
 9308SOL    HW228824   2.349   3.345   1.119
 9309SOL     OW28825   3.368   5.151   6.290
 9309SOL    HW128826   3.354   5.248   6.269
 9309SOL    HW228827   3.465   5.134   6.304
 9310SOL     OW28828   6.388   6.708   5.886
 9310SOL    HW128829   6.402   6.795   5.838
 9310SOL    HW228830   6.292   6.700   5.913
 9311SOL     OW28831   5.415   4.658   6.743
 9311SOL    HW128832   5.398   4.631   6.648
 9311SOL    HW228833   5.502   4.706   6.750
 9312SOL     OW28834   6.404   3.482   3.978
 9312SOL    HW128835   6.305   3.490   3.987
 9312SOL    HW228836   6.433   3.390   4.004
 9313SOL     OW28837   0.616   0.224   1.771
 9313SOL    HW128838   0.541   0.179   1.819
 9313SOL    HW228839   0.607   0.323   1.781
 9314SOL     OW28840   5.439   4.754   1.506
 9314SOL    HW128841   5.409   4.741   1.412
 9314SOL    HW228842   5.388   4.692   1.566
 9315SOL     OW28843   5.395   5.490   5.596
 9315SOL    HW128844   5.442   5.569   5.557
 9315SOL    HW228845   5.320   5.521   5.653
 9316SOL     OW28846   5.707   5.632   6.781
 9316SOL    HW128847   5.670   5.545   6.815
 9316SOL    HW228848   5.640   5.705   6.798
 9317SOL     OW28849   2.657   6.736   3.057
 9317SOL    HW128850   2.751   6.706   3.067
 9317SOL    HW228851   2.633   6.739   2.960
 9318SOL     OW28852   3.482   0.319   3.605
 9318SOL    HW128853   3.438   0.263   3.675
 9318SOL    HW228854   3.496   0.265   3.522
 9319SOL     OW28855   3.956   2.244   0.665
 9319SOL    HW128856   4.028   2.282   0.606
 9319SOL    HW228857   3.896   2.317   0.696
 9320SOL     OW28858   6.683   6.841   6.679
 9320SOL    HW128859   6.764   6.877   6.633
 9320SOL    HW228860   6.612   6.910   6.680
 9321SOL     OW28861   1.253   2.422   4.430
 9321SOL    HW128862   1.278   2.499   4.372
 9321SOL    HW228863   1.327   2.406   4.496
 9322SOL     OW28864   5.294   3.572   0.629
 9322SOL    HW128865   5.200   3.585   0.598
 9322SOL    HW228866   5.358   3.593   0.554
 9323SOL     OW28867   0.782   2.678   4.996
 9323SOL    HW128868   0.874   2.717   4.991
 9323SOL    HW228869   0.779   2.592   4.946
 9324SOL     OW28870   0.909   4.071   1.496
 9324SOL    HW128871   0.982   4.025   1.547
 9324SOL    HW228872   0.949   4.122   1.420
 9325SOL     OW28873   7.002   4.468   2.713
 9325SOL    HW128874   6.949   4.451   2.796
 9325SOL    HW228875   7.013   4.567   2.700
 9326SOL     OW28876   3.840   4.580   1.012
 9326SOL    HW128877   3.757   4.534   0.980
 9326SOL    HW228878   3.820   4.632   1.095
 9327SOL     OW28879   1.869   1.908   3.208
 9327SOL    HW128880   1.784   1.866   3.239
 9327SOL    HW228881   1.912   1.850   3.138
 9328SOL     OW28882   0.811   0.471   3.518
 9328SOL    HW128883   0.775   0.561   3.490
 9328SOL    HW228884   0.907   0.481   3.543
 9329SOL     OW28885   1.645   4.954   5.958
 9329SOL    HW128886   1.717   4.966   6.026
 9329SOL    HW228887   1.561   4.923   6.004
 9330SOL     OW28888   0.552   6.274   0.810
 9330SOL    HW128889   0.650   6.287   0.827
 9330SOL    HW228890   0.519   6.198   0.866
 9331SOL     OW28891   2.528   5.299   4.821
 9331SOL    HW128892   2.627   5.300   4.811
 9331SOL    HW228893   2.486   5.271   4.734
 9332SOL     OW28894   6.245   5.894   0.485
 9332SOL    HW128895   6.316   5.932   0.426
 9332SOL    HW228896   6.163   5.874   0.431
 9333SOL     OW28897   1.088   5.563   0.847
 9333SOL    HW128898   1.066   5.638   0.785
 9333SOL    HW228899   1.184   5.569   0.873
 9334SOL     OW28900   0.216   6.330   0.306
 9334SOL    HW128901   0.178   6.242   0.336
 9334SOL    HW228902   0.287   6.359   0.370
 9335SOL     OW28903   0.023   3.694   0.777
 9335SOL    HW128904   0.122   3.706   0.786
 9335SOL    HW228905   6.996   3.782   0.789
 9336SOL     OW28906   4.088   5.502   5.626
 9336SOL    HW128907   4.083   5.451   5.540
 9336SOL    HW228908   4.004   5.486   5.678
 9337SOL     OW28909   3.101   1.893   4.704
 9337SOL    HW128910   3.134   1.985   4.727
 9337SOL    HW228911   3.132   1.868   4.613
 9338SOL     OW28912   4.179   0.069   1.372
 9338SOL    HW128913   4.136   0.036   1.457
 9338SOL    HW228914   4.188   7.012   1.307
 9339SOL     OW28915   0.277   3.447   4.384
 9339SOL    HW128916   0.364   3.452   4.433
 9339SOL    HW228917   0.204   3.486   4.440
 9340SOL     OW28918   2.637   4.673   2.223
 9340SOL    HW128919   2.700   4.622   2.164
 9340SOL    HW228920   2.579   4.732   2.166
 9341SOL     OW28921   5.219   5.737   1.436
 9341SOL    HW128922   5.134   5.751   1.488
 9341SOL    HW228923   5.291   5.794   1.475
 9342SOL     OW28924   3.151   0.210   4.942
 9342SOL    HW128925   3.070   0.224   4.886
 9342SOL    HW228926   3.206   0.136   4.903
 9343SOL     OW28927   5.615   3.879   1.219
 9343SOL    HW128928   5.619   3.901   1.121
 9343SOL    HW228929   5.601   3.962   1.271
 9344SOL     OW28930   5.316   6.373   4.833
 9344SOL    HW128931   5.231   6.424   4.847
 9344SOL    HW228932   5.355   6.348   4.922
 9345SOL     OW28933   6.772   4.829   6.144
 9345SOL    HW128934   6.756   4.922   6.177
 9345SOL    HW228935   6.808   4.833   6.051
 9346SOL     OW28936   5.222   0.976   2.106
 9346SOL    HW128937   5.133   0.992   2.065
 9346SOL    HW228938   5.235   0.879   2.122
 9347SOL     OW28939   4.306   6.810   2.199
 9347SOL    HW128940   4.249   6.868   2.259
 9347SOL    HW228941   4.247   6.758   2.137
 9348SOL     OW28942   2.567   5.240   1.898
 9348SOL    HW128943   2.621   5.286   1.828
 9348SOL    HW228944   2.606   5.149   1.916
 9349SOL     OW28945   0.377   4.815   1.198
 9349SOL    HW128946   0.398   4.734   1.253
 9349SOL    HW228947   0.366   4.894   1.258
 9350SOL     OW28948   6.413   0.435   6.646
 9350SOL    HW128949   6.492   0.387   6.683
 9350SOL    HW228950   6.407   0.420   6.547
 9351SOL     OW28951   4.394   3.996   6.280
 9351SOL    HW128952   4.294   3.992   6.270
 9351SOL    HW228953   4.436   3.942   6.207
 9352SOL     OW28954   2.551   1.727   6.894
 9352SOL    HW128955   2.590   1.815   6.866
 9352SOL    HW228956   2.581   1.705   6.987
 9353SOL     OW28957   1.087   3.052   2.368
 9353SOL    HW128958   1.027   3.099   2.433
 9353SOL    HW228959   1.176   3.099   2.366
 9354SOL     OW28960   5.903   1.999   2.239
 9354SOL    HW128961   5.962   1.923   2.264
 9354SOL    HW228962   5.889   1.999   2.140
 9355SOL     OW28963   0.554   1.851   2.164
 9355SOL    HW128964   0.549   1.797   2.081
 9355SOL    HW228965   0.476   1.830   2.223
 9356SOL     OW28966   4.361   2.381   2.087
 9356SOL    HW128967   4.283   2.321   2.106
 9356SOL    HW228968   4.339   2.439   2.008
 9357SOL     OW28969   2.152   4.434   6.798
 9357SOL    HW128970   2.234   4.492   6.793
 9357SOL    HW228971   2.131   4.413   6.893
 9358SOL     OW28972   5.502   4.227   3.217
 9358SOL    HW128973   5.452   4.295   3.271
 9358SOL    HW228974   5.449   4.202   3.136
 9359SOL     OW28975   4.056   5.195   5.483
 9359SOL    HW128976   4.140   5.141   5.489
 9359SOL    HW228977   4.029   5.205   5.387
 9360SOL     OW28978   0.884   0.393   5.698
 9360SOL    HW128979   0.871   0.471   5.637
 9360SOL    HW228980   0.978   0.361   5.693
 9361SOL     OW28981   1.286   1.407   2.599
 9361SOL    HW128982   1.311   1.310   2.587
 9361SOL    HW228983   1.303   1.456   2.514
 9362SOL     OW28984   1.266   1.625   3.007
 9362SOL    HW128985   1.317   1.675   3.077
 9362SOL    HW228986   1.187   1.678   2.977
 9363SOL     OW28987   1.399   6.192   2.394
 9363SOL    HW128988   1.458   6.169   2.471
 9363SOL    HW228989   1.316   6.137   2.397
 9364SOL     OW28990   5.478   4.244   0.913
 9364SOL    HW128991   5.403   4.283   0.859
 9364SOL    HW228992   5.445   4.221   1.004
 9365SOL     OW28993   2.339   1.660   4.308
 9365SOL    HW128994   2.341   1.597   4.231
 9365SOL    HW228995   2.267   1.632   4.373
 9366SOL     OW28996   3.101   1.503   1.499
 9366SOL    HW128997   3.131   1.455   1.416
 9366SOL    HW228998   3.081   1.436   1.570
 9367SOL     OW28999   5.280   7.001   4.477
 9367SOL    HW129000   5.193   0.031   4.472
 9367SOL    HW229001   5.299   6.958   4.389
 9368SOL     OW29002   5.611   3.053   0.765
 9368SOL    HW129003   5.574   3.036   0.857
 9368SOL    HW229004   5.704   3.017   0.760
 9369SOL     OW29005   0.405   1.929   5.426
 9369SOL    HW129006   0.362   1.981   5.353
 9369SOL    HW229007   0.483   1.981   5.462
 9370SOL     OW29008   5.653   5.545   2.288
 9370SOL    HW129009   5.749   5.565   2.273
 9370SOL    HW229010   5.598   5.593   2.220
 9371SOL     OW29011   1.894   6.687   0.235
 9371SOL    HW129012   1.923   6.596   0.265
 9371SOL    HW229013   1.970   6.734   0.191
 9372SOL     OW29014   5.452   5.424   0.580
 9372SOL    HW129015   5.381   5.467   0.636
 9372SOL    HW229016   5.425   5.330   0.558
 9373SOL     OW29017   4.840   2.795   4.355
 9373SOL    HW129018   4.878   2.763   4.442
 9373SOL    HW229019   4.865   2.730   4.282
 9374SOL     OW29020   5.651   3.885   6.950
 9374SOL    HW129021   5.588   3.860   6.877
 9374SOL    HW229022   5.697   3.970   6.926
 9375SOL     OW29023   6.487   6.664   4.494
 9375SOL    HW129024   6.582   6.677   4.520
 9375SOL    HW229025   6.433   6.743   4.524
 9376SOL     OW29026   2.662   3.308   1.803
 9376SOL    HW129027   2.710   3.366   1.738
 9376SOL    HW229028   2.576   3.351   1.830
 9377SOL     OW29029   6.719   4.559   3.872
 9377SOL    HW129030   6.792   4.508   3.826
 9377SOL    HW229031   6.665   4.608   3.803
 9378SOL     OW29032   4.068   6.119   1.311
 9378SOL    HW129033   4.144   6.116   1.246
 9378SOL    HW229034   3.987   6.076   1.271
 9379SOL     OW29035   4.674   4.786   5.329
 9379SOL    HW129036   4.661   4.720   5.256
 9379SOL    HW229037   4.667   4.740   5.418
 9380SOL     OW29038   6.911   5.436   5.392
 9380SOL    HW129039   6.912   5.367   5.320
 9380SOL    HW229040   6.990   5.423   5.452
 9381SOL     OW29041   0.975   0.659   0.115
 9381SOL    HW129042   0.893   0.648   0.059
 9381SOL    HW229043   0.971   0.747   0.163
 9382SOL     OW29044   5.815   2.039   2.491
 9382SOL    HW129045   5.848   2.133   2.496
 9382SOL    HW229046   5.813   2.008   2.396
 9383SOL     OW29047   6.796   5.377   6.676
 9383SOL    HW129048   6.802   5.320   6.758
 9383SOL    HW229049   6.873   5.355   6.615
 9384SOL     OW29050   3.615   6.907   2.424
 9384SOL    HW129051   3.604   6.849   2.506
 9384SOL    HW229052   3.551   6.876   2.353
 9385SOL     OW29053   3.809   6.314   3.635
 9385SOL    HW129054   3.727   6.286   3.685
 9385SOL    HW229055   3.782   6.355   3.548
 9386SOL     OW29056   3.436   6.887   5.151
 9386SOL    HW129057   3.529   6.866   5.120
 9386SOL    HW229058   3.408   6.976   5.115
 9387SOL     OW29059   4.859   6.081   0.532
 9387SOL    HW129060   4.800   6.000   0.524
 9387SOL    HW229061   4.804   6.158   0.565
 9388SOL     OW29062   6.203   6.964   1.551
 9388SOL    HW129063   6.259   6.961   1.468
 9388SOL    HW229064   6.255   7.010   1.624
 9389SOL     OW29065   3.287   1.113   0.602
 9389SOL    HW129066   3.309   1.192   0.544
 9389SOL    HW229067   3.338   1.119   0.687
 9390SOL     OW29068   3.574   5.960   0.792
 9390SOL    HW129069   3.657   5.953   0.848
 9390SOL    HW229070   3.541   6.055   0.794
 9391SOL     OW29071   5.872   0.397   3.953
 9391SOL    HW129072   5.787   0.449   3.960
 9391SOL    HW229073   5.858   0.317   3.894
 9392SOL     OW29074   0.850   6.859   5.115
 9392SOL    HW129075   0.782   6.930   5.101
 9392SOL    HW229076   0.942   6.898   5.106
 9393SOL     OW29077   4.395   1.682   5.662
 9393SOL    HW129078   4.394   1.611   5.592
 9393SOL    HW229079   4.410   1.641   5.752
 9394SOL     OW29080   6.316   1.473   2.254
 9394SOL    HW129081   6.362   1.561   2.242
 9394SOL    HW229082   6.383   1.403   2.277
 9395SOL     OW29083   1.878   3.042   6.871
 9395SOL    HW129084   1.891   3.141   6.861
 9395SOL    HW229085   1.917   3.012   6.957
 9396SOL     OW29086   0.369   1.062   5.760
 9396SOL    HW129087   0.428   0.981   5.758
 9396SOL    HW229088   0.317   1.064   5.845
 9397SOL     OW29089   1.812   1.997   1.234
 9397SOL    HW129090   1.811   1.897   1.226
 9397SOL    HW229091   1.728   2.034   1.196
 9398SOL     OW29092   2.675   1.740   1.657
 9398SOL    HW129093   2.649   1.704   1.747
 9398SOL    HW229094   2.708   1.665   1.600
 9399SOL     OW29095   0.425   0.786   5.570
 9399SOL    HW129096   0.419   0.691   5.541
 9399SOL    HW229097   0.477   0.838   5.503
 9400SOL     OW29098   3.856   1.404   3.643
 9400SOL    HW129099   3.785   1.466   3.610
 9400SOL    HW229100   3.939   1.418   3.589
 9401SOL     OW29101   4.145   6.622   4.163
 9401SOL    HW129102   4.155   6.691   4.091
 9401SOL    HW229103   4.064   6.566   4.144
 9402SOL     OW29104   2.702   4.811   5.957
 9402SOL    HW129105   2.742   4.780   5.871
 9402SOL    HW229106   2.765   4.874   6.003
 9403SOL     OW29107   5.872   0.239   4.384
 9403SOL    HW129108   5.809   0.313   4.358
 9403SOL    HW229109   5.845   0.155   4.337
 9404SOL     OW29110   1.749   4.580   5.071
 9404SOL    HW129111   1.746   4.519   5.150
 9404SOL    HW229112   1.709   4.668   5.095
 9405SOL     OW29113   0.442   0.673   1.251
 9405SOL    HW129114   0.531   0.692   1.291
 9405SOL    HW229115   0.423   0.740   1.179
 9406SOL     OW29116   6.438   1.556   4.673
 9406SOL    HW129117   6.372   1.554   4.747
 9406SOL    HW229118   6.486   1.644   4.672
 9407SOL     OW29119   3.354   5.580   3.576
 9407SOL    HW129120   3.320   5.622   3.492
 9407SOL    HW229121   3.452   5.561   3.567
 9408SOL     OW29122   3.809   2.264   6.739
 9408SOL    HW129123   3.851   2.194   6.680
 9408SOL    HW229124   3.879   2.324   6.776
 9409SOL     OW29125   6.199   3.848   3.666
 9409SOL    HW129126   6.280   3.876   3.717
 9409SOL    HW229127   6.137   3.926   3.656
 9410SOL     OW29128   4.265   6.794   1.752
 9410SOL    HW129129   4.248   6.753   1.841
 9410SOL    HW229130   4.341   6.746   1.707
 9411SOL     OW29131   5.729   4.916   2.203
 9411SOL    HW129132   5.710   4.880   2.112
 9411SOL    HW229133   5.657   4.980   2.229
 9412SOL     OW29134   6.687   2.140   3.382
 9412SOL    HW129135   6.729   2.194   3.308
 9412SOL    HW229136   6.594   2.174   3.399
 9413SOL     OW29137   3.741   5.579   3.423
 9413SOL    HW129138   3.783   5.596   3.334
 9413SOL    HW229139   3.716   5.483   3.431
 9414SOL     OW29140   2.473   0.229   2.160
 9414SOL    HW129141   2.382   0.201   2.128
 9414SOL    HW229142   2.514   0.289   2.091
 9415SOL     OW29143   1.227   0.118   2.142
 9415SOL    HW129144   1.129   0.101   2.151
 9415SOL    HW229145   1.260   0.165   2.223
 9416SOL     OW29146   1.435   1.886   1.314
 9416SOL    HW129147   1.427   1.955   1.386
 9416SOL    HW229148   1.480   1.805   1.351
 9417SOL     OW29149   1.111   0.383   4.547
 9417SOL    HW129150   1.066   0.302   4.511
 9417SOL    HW229151   1.202   0.359   4.582
 9418SOL     OW29152   4.235   4.123   0.779
 9418SOL    HW129153   4.202   4.053   0.716
 9418SOL    HW229154   4.329   4.101   0.807
 9419SOL     OW29155   2.288   5.841   3.974
 9419SOL    HW129156   2.270   5.758   3.922
 9419SOL    HW229157   2.375   5.832   4.022
 9420SOL     OW29158   1.824   0.260   3.105
 9420SOL    HW129159   1.771   0.337   3.142
 9420SOL    HW229160   1.880   0.220   3.177
 9421SOL     OW29161   1.443   4.866   5.466
 9421SOL    HW129162   1.358   4.866   5.520
 9421SOL    HW229163   1.508   4.803   5.508
 9422SOL     OW29164   3.706   1.368   3.035
 9422SOL    HW129165   3.613   1.395   3.063
 9422SOL    HW229166   3.703   1.333   2.941
 9423SOL     OW29167   4.352   0.091   4.935
 9423SOL    HW129168   4.395   0.045   5.013
 9423SOL    HW229169   4.259   0.119   4.959
 9424SOL     OW29170   2.960   5.763   3.401
 9424SOL    HW129171   2.908   5.682   3.426
 9424SOL    HW229172   2.959   5.828   3.478
 9425SOL     OW29173   0.798   5.300   2.518
 9425SOL    HW129174   0.764   5.207   2.534
 9425SOL    HW229175   0.895   5.304   2.541
 9426SOL     OW29176   3.573   5.927   0.509
 9426SOL    HW129177   3.578   5.950   0.607
 9426SOL    HW229178   3.522   5.999   0.461
 9427SOL     OW29179   2.408   5.236   4.138
 9427SOL    HW129180   2.473   5.249   4.213
 9427SOL    HW229181   2.318   5.269   4.166
 9428SOL     OW29182   4.645   6.365   2.165
 9428SOL    HW129183   4.552   6.397   2.178
 9428SOL    HW229184   4.679   6.394   2.076
 9429SOL     OW29185   0.368   3.738   2.883
 9429SOL    HW129186   0.402   3.745   2.789
 9429SOL    HW229187   0.271   3.714   2.881
 9430SOL     OW29188   6.311   6.684   1.649
 9430SOL    HW129189   6.288   6.668   1.745
 9430SOL    HW229190   6.304   6.782   1.629
 9431SOL     OW29191   6.825   4.586   0.490
 9431SOL    HW129192   6.789   4.627   0.406
 9431SOL    HW229193   6.871   4.657   0.545
 9432SOL     OW29194   6.592   6.933   4.111
 9432SOL    HW129195   6.588   6.943   4.011
 9432SOL    HW229196   6.674   6.980   4.145
 9433SOL     OW29197   2.694   5.446   4.250
 9433SOL    HW129198   2.783   5.413   4.281
 9433SOL    HW229199   2.637   5.468   4.329
 9434SOL     OW29200   6.371   4.768   3.411
 9434SOL    HW129201   6.442   4.701   3.393
 9434SOL    HW229202   6.404   4.834   3.478
 9435SOL     OW29203   2.692   2.445   5.678
 9435SOL    HW129204   2.771   2.386   5.662
 9435SOL    HW229205   2.718   2.521   5.737
 9436SOL     OW29206   3.748   1.909   5.561
 9436SOL    HW129207   3.760   1.888   5.658
 9436SOL    HW229208   3.829   1.880   5.510
 9437SOL     OW29209   0.529   6.092   4.279
 9437SOL    HW129210   0.629   6.089   4.272
 9437SOL    HW229211   0.497   6.185   4.261
 9438SOL     OW29212   0.452   6.323   1.647
 9438SOL    HW129213   0.445   6.230   1.610
 9438SOL    HW229214   0.368   6.345   1.696
 9439SOL     OW29215   1.877   3.260   1.186
 9439SOL    HW129216   1.787   3.255   1.229
 9439SOL    HW229217   1.890   3.181   1.126
 9440SOL     OW29218   3.126   5.934   3.573
 9440SOL    HW129219   3.144   6.028   3.601
 9440SOL    HW229220   3.197   5.903   3.510
 9441SOL     OW29221   1.254   5.356   5.532
 9441SOL    HW129222   1.339   5.409   5.531
 9441SOL    HW229223   1.189   5.397   5.595
 9442SOL     OW29224   0.878   3.278   1.210
 9442SOL    HW129225   0.947   3.295   1.139
 9442SOL    HW229226   0.884   3.349   1.280
 9443SOL     OW29227   1.581   2.008   1.080
 9443SOL    HW129228   1.613   1.931   1.024
 9443SOL    HW229229   1.486   1.994   1.105
 9444SOL     OW29230   1.266   4.274   5.553
 9444SOL    HW129231   1.293   4.266   5.457
 9444SOL    HW229232   1.306   4.356   5.593
 9445SOL     OW29233   6.070   2.158   1.764
 9445SOL    HW129234   5.993   2.181   1.705
 9445SOL    HW229235   6.049   2.076   1.817
 9446SOL     OW29236   5.560   4.683   7.007
 9446SOL    HW129237   5.605   4.594   7.017
 9446SOL    HW229238   5.461   4.672   7.016
 9447SOL     OW29239   6.016   0.804   1.997
 9447SOL    HW129240   5.956   0.729   2.025
 9447SOL    HW229241   5.998   0.827   1.901
 9448SOL     OW29242   6.022   6.142   0.482
 9448SOL    HW129243   6.021   6.043   0.471
 9448SOL    HW229244   6.102   6.179   0.435
 9449SOL     OW29245   5.922   5.440   4.838
 9449SOL    HW129246   5.903   5.351   4.796
 9449SOL    HW229247   5.856   5.507   4.804
 9450SOL     OW29248   2.014   6.135   3.890
 9450SOL    HW129249   2.013   6.232   3.866
 9450SOL    HW229250   1.967   6.122   3.977
 9451SOL     OW29251   4.230   3.844   5.177
 9451SOL    HW129252   4.145   3.872   5.132
 9451SOL    HW229253   4.229   3.875   5.272
 9452SOL     OW29254   3.644   4.385   0.666
 9452SOL    HW129255   3.740   4.383   0.638
 9452SOL    HW229256   3.597   4.458   0.616
 9453SOL     OW29257   3.822   6.071   1.215
 9453SOL    HW129258   3.766   6.075   1.297
 9453SOL    HW229259   3.764   6.078   1.134
 9454SOL     OW29260   2.124   2.126   5.910
 9454SOL    HW129261   2.138   2.039   5.957
 9454SOL    HW229262   2.160   2.119   5.817
 9455SOL     OW29263   1.703   2.389   2.007
 9455SOL    HW129264   1.688   2.359   1.913
 9455SOL    HW229265   1.630   2.353   2.065
 9456SOL     OW29266   1.252   3.064   0.081
 9456SOL    HW129267   1.311   3.117   0.142
 9456SOL    HW229268   1.249   3.108   7.009
 9457SOL     OW29269   5.959   3.941   0.068
 9457SOL    HW129270   6.011   3.895   7.014
 9457SOL    HW229271   6.016   3.953   0.149
 9458SOL     OW29272   1.067   5.803   3.848
 9458SOL    HW129273   1.039   5.899   3.838
 9458SOL    HW229274   0.986   5.745   3.859
 9459SOL     OW29275   4.272   6.481   0.656
 9459SOL    HW129276   4.274   6.385   0.684
 9459SOL    HW229277   4.296   6.539   0.734
 9460SOL     OW29278   1.819   3.752   5.530
 9460SOL    HW129279   1.727   3.755   5.567
 9460SOL    HW229280   1.884   3.730   5.603
 9461SOL     OW29281   1.423   0.224   2.740
 9461SOL    HW129282   1.383   0.186   2.657
 9461SOL    HW229283   1.433   0.323   2.730
 9462SOL     OW29284   0.557   3.147   3.717
 9462SOL    HW129285   0.523   3.239   3.737
 9462SOL    HW229286   0.583   3.141   3.620
 9463SOL     OW29287   5.229   2.264   6.154
 9463SOL    HW129288   5.185   2.347   6.119
 9463SOL    HW229289   5.238   2.197   6.081
 9464SOL     OW29290   4.092   6.591   6.485
 9464SOL    HW129291   4.164   6.643   6.531
 9464SOL    HW229292   4.126   6.559   6.396
 9465SOL     OW29293   4.416   6.252   4.303
 9465SOL    HW129294   4.371   6.168   4.274
 9465SOL    HW229295   4.414   6.257   4.403
 9466SOL     OW29296   3.383   1.993   6.616
 9466SOL    HW129297   3.444   2.004   6.695
 9466SOL    HW229298   3.309   1.930   6.639
 9467SOL     OW29299   1.387   2.962   2.269
 9467SOL    HW129300   1.486   2.970   2.259
 9467SOL    HW229301   1.341   3.008   2.193
 9468SOL     OW29302   0.417   2.307   6.031
 9468SOL    HW129303   0.391   2.228   6.087
 9468SOL    HW229304   0.422   2.389   6.089
 9469SOL     OW29305   0.308   4.226   2.693
 9469SOL    HW129306   0.323   4.300   2.627
 9469SOL    HW229307   0.263   4.150   2.646
 9470SOL     OW29308   6.774   4.061   2.007
 9470SOL    HW129309   6.735   4.123   1.939
 9470SOL    HW229310   6.773   3.967   1.972
 9471SOL     OW29311   6.914   2.487   5.794
 9471SOL    HW129312   6.896   2.406   5.738
 9471SOL    HW229313   6.912   2.462   5.891
 9472SOL     OW29314   6.663   2.172   5.135
 9472SOL    HW129315   6.729   2.194   5.206
 9472SOL    HW229316   6.700   2.200   5.046
 9473SOL     OW29317   2.437   5.122   5.482
 9473SOL    HW129318   2.342   5.117   5.450
 9473SOL    HW229319   2.499   5.114   5.405
 9474SOL     OW29320   3.796   5.557   3.808
 9474SOL    HW129321   3.824   5.652   3.824
 9474SOL    HW229322   3.826   5.500   3.884
 9475SOL     OW29323   2.269   3.290   1.309
 9475SOL    HW129324   2.326   3.358   1.356
 9475SOL    HW229325   2.261   3.208   1.365
 9476SOL     OW29326   2.522   3.597   5.642
 9476SOL    HW129327   2.620   3.588   5.630
 9476SOL    HW229328   2.484   3.652   5.567
 9477SOL     OW29329   1.173   2.190   0.323
 9477SOL    HW129330   1.135   2.276   0.289
 9477SOL    HW229331   1.119   2.157   0.400
 9478SOL     OW29332   5.600   3.661   6.358
 9478SOL    HW129333   5.594   3.678   6.259
 9478SOL    HW229334   5.674   3.715   6.397
 9479SOL     OW29335   5.373   4.584   5.224
 9479SOL    HW129336   5.313   4.504   5.232
 9479SOL    HW229337   5.452   4.561   5.168
 9480SOL     OW29338   6.835   3.355   6.467
 9480SOL    HW129339   6.833   3.255   6.468
 9480SOL    HW229340   6.774   3.391   6.537
 9481SOL     OW29341   0.284   2.615   2.649
 9481SOL    HW129342   0.265   2.621   2.551
 9481SOL    HW229343   0.248   2.529   2.684
 9482SOL     OW29344   4.696   0.999   2.115
 9482SOL    HW129345   4.627   0.977   2.046
 9482SOL    HW229346   4.688   0.936   2.192
 9483SOL     OW29347   1.612   0.812   0.611
 9483SOL    HW129348   1.606   0.766   0.699
 9483SOL    HW229349   1.576   0.905   0.619
 9484SOL     OW29350   6.130   0.181   3.663
 9484SOL    HW129351   6.218   0.216   3.695
 9484SOL    HW229352   6.098   0.237   3.586
 9485SOL     OW29353   0.286   7.010   3.005
 9485SOL    HW129354   0.313   6.993   3.100
 9485SOL    HW229355   0.206   0.051   3.004
 9486SOL     OW29356   3.170   0.186   2.233
 9486SOL    HW129357   3.243   0.124   2.204
 9486SOL    HW229358   3.107   0.203   2.156
 9487SOL     OW29359   3.417   3.200   3.138
 9487SOL    HW129360   3.406   3.300   3.135
 9487SOL    HW229361   3.471   3.175   3.217
 9488SOL     OW29362   1.710   0.607   1.626
 9488SOL    HW129363   1.722   0.598   1.725
 9488SOL    HW229364   1.632   0.665   1.606
 9489SOL     OW29365   3.046   4.667   0.447
 9489SOL    HW129366   3.105   4.720   0.508
 9489SOL    HW229367   2.965   4.637   0.496
 9490SOL     OW29368   4.916   1.396   0.301
 9490SOL    HW129369   4.846   1.338   0.343
 9490SOL    HW229370   4.878   1.442   0.221
 9491SOL     OW29371   5.438   6.040   6.137
 9491SOL    HW129372   5.395   5.952   6.117
 9491SOL    HW229373   5.530   6.026   6.172
 9492SOL     OW29374   2.382   5.235   1.336
 9492SOL    HW129375   2.456   5.167   1.331
 9492SOL    HW229376   2.373   5.267   1.430
 9493SOL     OW29377   5.170   6.173   2.809
 9493SOL    HW129378   5.233   6.211   2.876
 9493SOL    HW229379   5.080   6.216   2.819
 9494SOL     OW29380   3.697   3.253   6.611
 9494SOL    HW129381   3.708   3.204   6.697
 9494SOL    HW229382   3.736   3.345   6.620
 9495SOL     OW29383   5.526   2.674   4.509
 9495SOL    HW129384   5.457   2.742   4.532
 9495SOL    HW229385   5.596   2.671   4.581
 9496SOL     OW29386   6.729   4.530   6.957
 9496SOL    HW129387   6.742   4.434   6.932
 9496SOL    HW229388   6.632   4.548   6.973
 9497SOL     OW29389   1.344   6.219   6.036
 9497SOL    HW129390   1.367   6.307   6.079
 9497SOL    HW229391   1.286   6.166   6.099
 9498SOL     OW29392   4.586   6.828   6.604
 9498SOL    HW129393   4.502   6.793   6.644
 9498SOL    HW229394   4.664   6.772   6.633
 9499SOL     OW29395   4.895   3.965   5.748
 9499SOL    HW129396   4.931   3.929   5.834
 9499SOL    HW229397   4.817   4.025   5.767
 9500SOL     OW29398   4.696   5.890   0.897
 9500SOL    HW129399   4.750   5.968   0.865
 9500SOL    HW229400   4.704   5.815   0.832
 9501SOL     OW29401   3.299   1.608   5.074
 9501SOL    HW129402   3.299   1.530   5.138
 9501SOL    HW229403   3.388   1.653   5.078
 9502SOL     OW29404   3.617   3.248   5.965
 9502SOL    HW129405   3.553   3.246   6.041
 9502SOL    HW229406   3.588   3.316   5.898
 9503SOL     OW29407   1.171   6.935   1.928
 9503SOL    HW129408   1.227   6.956   1.848
 9503SOL    HW229409   1.224   6.953   2.011
 9504SOL     OW29410   0.225   2.846   0.636
 9504SOL    HW129411   0.269   2.807   0.556
 9504SOL    HW229412   0.259   2.801   0.719
 9505SOL     OW29413   5.042   3.059   3.094
 9505SOL    HW129414   4.945   3.057   3.071
 9505SOL    HW229415   5.085   3.138   3.050
 9506SOL     OW29416   6.459   2.410   1.392
 9506SOL    HW129417   6.556   2.422   1.371
 9506SOL    HW229418   6.409   2.491   1.362
 9507SOL     OW29419   1.342   2.900   5.229
 9507SOL    HW129420   1.332   2.999   5.236
 9507SOL    HW229421   1.377   2.876   5.139
 9508SOL     OW29422   4.869   1.246   5.727
 9508SOL    HW129423   4.843   1.226   5.633
 9508SOL    HW229424   4.868   1.163   5.782
 9509SOL     OW29425   3.514   6.990   6.156
 9509SOL    HW129426   3.427   6.959   6.193
 9509SOL    HW229427   3.504   7.011   6.059
 9510SOL     OW29428   6.643   4.006   2.949
 9510SOL    HW129429   6.649   4.105   2.960
 9510SOL    HW229430   6.560   3.983   2.898
 9511SOL     OW29431   2.117   1.623   1.533
 9511SOL    HW129432   2.046   1.684   1.496
 9511SOL    HW229433   2.074   1.550   1.585
 9512SOL     OW29434   1.612   4.091   5.419
 9512SOL    HW129435   1.653   4.178   5.445
 9512SOL    HW229436   1.654   4.017   5.471
 9513SOL     OW29437   2.497   4.556   4.355
 9513SOL    HW129438   2.438   4.497   4.299
 9513SOL    HW229439   2.447   4.584   4.437
 9514SOL     OW29440   3.076   2.918   5.578
 9514SOL    HW129441   3.018   2.932   5.498
 9514SOL    HW229442   3.072   2.823   5.606
 9515SOL     OW29443   2.467   5.580   5.709
 9515SOL    HW129444   2.437   5.627   5.626
 9515SOL    HW229445   2.544   5.521   5.688
 9516SOL     OW29446   6.181   4.265   4.804
 9516SOL    HW129447   6.199   4.168   4.792
 9516SOL    HW229448   6.192   4.312   4.716
 9517SOL     OW29449   0.895   5.092   2.821
 9517SOL    HW129450   0.915   5.159   2.892
 9517SOL    HW229451   0.797   5.071   2.821
 9518SOL     OW29452   1.107   2.871   5.606
 9518SOL    HW129453   1.156   2.953   5.637
 9518SOL    HW229454   1.157   2.829   5.531
 9519SOL     OW29455   3.259   3.582   3.413
 9519SOL    HW129456   3.205   3.649   3.464
 9519SOL    HW229457   3.204   3.542   3.340
 9520SOL     OW29458   5.124   1.049   6.529
 9520SOL    HW129459   5.128   1.147   6.509
 9520SOL    HW229460   5.073   1.035   6.614
 9521SOL     OW29461   4.041   1.242   1.158
 9521SOL    HW129462   4.126   1.212   1.115
 9521SOL    HW229463   4.056   1.330   1.203
 9522SOL     OW29464   3.804   6.894   1.070
 9522SOL    HW129465   3.731   6.831   1.043
 9522SOL    HW229466   3.853   6.856   1.149
 9523SOL     OW29467   2.566   4.773   4.780
 9523SOL    HW129468   2.658   4.763   4.741
 9523SOL    HW229469   2.547   4.694   4.839
 9524SOL     OW29470   1.936   3.849   0.225
 9524SOL    HW129471   2.009   3.916   0.237
 9524SOL    HW229472   1.936   3.815   0.131
 9525SOL     OW29473   2.468   3.024   6.581
 9525SOL    HW129474   2.373   3.023   6.611
 9525SOL    HW229475   2.477   2.972   6.496
 9526SOL     OW29476   5.538   5.035   6.044
 9526SOL    HW129477   5.595   5.114   6.064
 9526SOL    HW229478   5.575   4.954   6.088
 9527SOL     OW29479   3.792   6.503   4.459
 9527SOL    HW129480   3.722   6.514   4.529
 9527SOL    HW229481   3.882   6.492   4.502
 9528SOL     OW29482   4.695   2.574   0.532
 9528SOL    HW129483   4.743   2.487   0.547
 9528SOL    HW229484   4.725   2.613   0.445
 9529SOL     OW29485   5.847   0.373   2.483
 9529SOL    HW129486   5.795   0.387   2.398
 9529SOL    HW229487   5.784   0.372   2.560
 9530SOL     OW29488   1.230   5.584   3.605
 9530SOL    HW129489   1.330   5.593   3.610
 9530SOL    HW229490   1.198   5.532   3.684
 9531SOL     OW29491   3.203   6.140   1.631
 9531SOL    HW129492   3.294   6.133   1.673
 9531SOL    HW229493   3.133   6.138   1.702
 9532SOL     OW29494   7.016   5.055   4.716
 9532SOL    HW129495   0.090   5.018   4.708
 9532SOL    HW229496   6.971   5.054   4.627
 9533SOL     OW29497   0.663   4.063   3.933
 9533SOL    HW129498   0.642   3.972   3.900
 9533SOL    HW229499   0.762   4.073   3.946
 9534SOL     OW29500   4.709   5.747   3.925
 9534SOL    HW129501   4.716   5.710   3.832
 9534SOL    HW229502   4.642   5.821   3.926
 9535SOL     OW29503   0.184   1.631   4.363
 9535SOL    HW129504   0.253   1.694   4.397
 9535SOL    HW229505   0.206   1.538   4.391
 9536SOL     OW29506   3.935   3.798   5.380
 9536SOL    HW129507   3.917   3.736   5.303
 9536SOL    HW229508   3.933   3.746   5.465
 9537SOL     OW29509   0.064   0.894   4.082
 9537SOL    HW129510   0.087   0.796   4.084
 9537SOL    HW229511   0.141   0.945   4.044
 9538SOL     OW29512   5.424   0.745   5.242
 9538SOL    HW129513   5.403   0.652   5.273
 9538SOL    HW229514   5.522   0.753   5.226
 9539SOL     OW29515   3.764   4.031   2.150
 9539SOL    HW129516   3.820   3.952   2.123
 9539SOL    HW229517   3.741   4.024   2.247
 9540SOL     OW29518   4.258   4.682   2.975
 9540SOL    HW129519   4.180   4.744   2.968
 9540SOL    HW229520   4.283   4.649   2.884
 9541SOL     OW29521   1.412   5.617   5.665
 9541SOL    HW129522   1.511   5.622   5.674
 9541SOL    HW229523   1.386   5.646   5.573
 9542SOL     OW29524   6.337   3.812   2.784
 9542SOL    HW129525   6.388   3.725   2.780
 9542SOL    HW229526   6.282   3.823   2.701
 9543SOL     OW29527   2.370   0.546   5.476
 9543SOL    HW129528   2.401   0.574   5.567
 9543SOL    HW229529   2.352   0.448   5.475
 9544SOL     OW29530   6.211   3.113   4.482
 9544SOL    HW129531   6.240   3.153   4.570
 9544SOL    HW229532   6.139   3.170   4.443
 9545SOL     OW29533   6.650   4.265   1.849
 9545SOL    HW129534   6.597   4.311   1.920
 9545SOL    HW229535   6.592   4.247   1.770
 9546SOL     OW29536   2.966   2.819   0.974
 9546SOL    HW129537   3.052   2.856   1.009
 9546SOL    HW229538   2.942   2.737   1.026
 9547SOL     OW29539   4.073   0.613   3.427
 9547SOL    HW129540   4.170   0.639   3.423
 9547SOL    HW229541   4.043   0.610   3.522
 9548SOL     OW29542   0.673   4.893   5.799
 9548SOL    HW129543   0.660   4.926   5.705
 9548SOL    HW229544   0.647   4.966   5.863
 9549SOL     OW29545   4.966   1.128   1.690
 9549SOL    HW129546   5.042   1.116   1.626
 9549SOL    HW229547   4.999   1.178   1.771
 9550SOL     OW29548   6.811   2.742   1.400
 9550SOL    HW129549   6.740   2.797   1.444
 9550SOL    HW229550   6.882   2.720   1.467
 9551SOL     OW29551   6.112   3.101   6.494
 9551SOL    HW129552   6.034   3.041   6.509
 9551SOL    HW229553   6.139   3.143   6.581
 9552SOL     OW29554   2.844   1.804   6.904
 9552SOL    HW129555   2.944   1.799   6.908
 9552SOL    HW229556   2.814   1.893   6.940
 9553SOL     OW29557   5.565   1.341   6.976
 9553SOL    HW129558   5.598   1.355   6.882
 9553SOL    HW229559   5.575   1.244   7.000
 9554SOL     OW29560   2.472   0.980   4.789
 9554SOL    HW129561   2.517   1.068   4.802
 9554SOL    HW229562   2.374   0.990   4.805
 9555SOL     OW29563   0.470   6.336   3.134
 9555SOL    HW129564   0.381   6.370   3.103
 9555SOL    HW229565   0.464   6.310   3.230
 9556SOL     OW29566   2.077   4.234   6.420
 9556SOL    HW129567   2.123   4.194   6.498
 9556SOL    HW229568   2.104   4.329   6.410
 9557SOL     OW29569   5.716   0.871   0.878
 9557SOL    HW129570   5.636   0.850   0.933
 9557SOL    HW229571   5.770   0.943   0.922
 9558SOL     OW29572   4.902   6.024   5.528
 9558SOL    HW129573   4.930   6.105   5.579
 9558SOL    HW229574   4.947   6.023   5.438
 9559SOL     OW29575   2.216   4.508   0.245
 9559SOL    HW129576   2.272   4.463   0.314
 9559SOL    HW229577   2.192   4.600   0.276
 9560SOL     OW29578   2.662   0.303   1.952
 9560SOL    HW129579   2.661   0.387   2.006
 9560SOL    HW229580   2.626   0.321   1.860
 9561SOL     OW29581   6.956   0.969   0.145
 9561SOL    HW129582   6.928   0.955   0.240
 9561SOL    HW229583   0.006   0.900   0.120
 9562SOL     OW29584   1.876   6.127   2.868
 9562SOL    HW129585   1.871   6.034   2.904
 9562SOL    HW229586   1.972   6.158   2.868
 9563SOL     OW29587   0.658   5.807   6.622
 9563SOL    HW129588   0.732   5.835   6.684
 9563SOL    HW229589   0.698   5.763   6.541
 9564SOL     OW29590   1.256   1.175   0.828
 9564SOL    HW129591   1.342   1.147   0.871
 9564SOL    HW229592   1.270   1.185   0.729
 9565SOL     OW29593   1.923   2.294   4.526
 9565SOL    HW129594   1.960   2.333   4.441
 9565SOL    HW229595   1.953   2.200   4.536
 9566SOL     OW29596   3.120   0.340   6.958
 9566SOL    HW129597   3.166   0.425   6.930
 9566SOL    HW229598   3.024   0.360   6.976
 9567SOL     OW29599   0.432   4.476   0.983
 9567SOL    HW129600   0.353   4.420   0.956
 9567SOL    HW229601   0.474   4.437   1.065
 9568SOL     OW29602   4.399   1.611   5.921
 9568SOL    HW129603   4.347   1.681   5.970
 9568SOL    HW229604   4.354   1.523   5.931
 9569SOL     OW29605   5.851   0.351   2.019
 9569SOL    HW129606   5.797   0.301   2.086
 9569SOL    HW229607   5.900   0.287   1.960
 9570SOL     OW29608   0.941   3.441   2.344
 9570SOL    HW129609   0.927   3.425   2.246
 9570SOL    HW229610   0.954   3.538   2.361
 9571SOL     OW29611   1.903   1.524   6.461
 9571SOL    HW129612   1.902   1.492   6.556
 9571SOL    HW229613   1.983   1.582   6.446
 9572SOL     OW29614   2.264   4.858   4.380
 9572SOL    HW129615   2.199   4.797   4.334
 9572SOL    HW229616   2.315   4.806   4.448
 9573SOL     OW29617   5.574   0.088   4.517
 9573SOL    HW129618   5.485   0.047   4.496
 9573SOL    HW229619   5.644   0.046   4.459
 9574SOL     OW29620   4.537   3.056   0.642
 9574SOL    HW129621   4.474   3.051   0.720
 9574SOL    HW229622   4.606   2.985   0.651
 9575SOL     OW29623   5.306   7.013   1.733
 9575SOL    HW129624   5.262   0.084   1.743
 9575SOL    HW229625   5.358   7.010   1.648
 9576SOL     OW29626   1.164   1.123   5.499
 9576SOL    HW129627   1.104   1.053   5.538
 9576SOL    HW229628   1.156   1.208   5.552
 9577SOL     OW29629   6.796   4.985   3.302
 9577SOL    HW129630   6.858   4.912   3.331
 9577SOL    HW229631   6.762   5.034   3.383
 9578SOL     OW29632   2.164   3.253   3.104
 9578SOL    HW129633   2.085   3.204   3.069
 9578SOL    HW229634   2.234   3.188   3.131
 9579SOL     OW29635   5.683   5.239   2.328
 9579SOL    HW129636   5.634   5.326   2.338
 9579SOL    HW229637   5.643   5.186   2.254
 9580SOL     OW29638   4.872   3.747   3.898
 9580SOL    HW129639   4.954   3.760   3.954
 9580SOL    HW229640   4.841   3.652   3.906
 9581SOL     OW29641   5.038   1.905   6.380
 9581SOL    HW129642   5.126   1.916   6.426
 9581SOL    HW229643   4.987   1.991   6.385
 9582SOL     OW29644   4.506   6.577   5.122
 9582SOL    HW129645   4.599   6.552   5.147
 9582SOL    HW229646   4.480   6.528   5.038
 9583SOL     OW29647   2.821   5.162   1.328
 9583SOL    HW129648   2.884   5.109   1.273
 9583SOL    HW229649   2.864   5.248   1.356
 9584SOL     OW29650   2.589   5.484   4.515
 9584SOL    HW129651   2.663   5.465   4.579
 9584SOL    HW229652   2.537   5.401   4.497
 9585SOL     OW29653   4.521   6.836   0.835
 9585SOL    HW129654   4.616   6.835   0.866
 9585SOL    HW229655   4.518   6.859   0.738
 9586SOL     OW29656   3.235   5.379   3.246
 9586SOL    HW129657   3.325   5.397   3.208
 9586SOL    HW229658   3.206   5.456   3.303
 9587SOL     OW29659   3.806   6.546   0.026
 9587SOL    HW129660   3.844   6.616   6.984
 9587SOL    HW229661   3.876   6.477   0.046
 9588SOL     OW29662   6.621   5.958   0.139
 9588SOL    HW129663   6.632   5.859   0.148
 9588SOL    HW229664   6.672   5.990   0.060
 9589SOL     OW29665   1.354   1.655   6.158
 9589SOL    HW129666   1.257   1.678   6.158
 9589SOL    HW229667   1.408   1.734   6.186
 9590SOL     OW29668   6.359   0.723   1.113
 9590SOL    HW129669   6.282   0.732   1.176
 9590SOL    HW229670   6.351   0.637   1.062
 9591SOL     OW29671   4.946   0.642   0.005
 9591SOL    HW129672   4.918   0.738   7.014
 9591SOL    HW229673   4.994   0.630   0.092
 9592SOL     OW29674   2.440   5.801   5.850
 9592SOL    HW129675   2.375   5.860   5.801
 9592SOL    HW229676   2.450   5.715   5.801
 9593SOL     OW29677   2.197   2.194   3.687
 9593SOL    HW129678   2.186   2.293   3.673
 9593SOL    HW229679   2.274   2.177   3.748
 9594SOL     OW29680   0.145   6.527   3.414
 9594SOL    HW129681   0.075   6.533   3.484
 9594SOL    HW229682   0.113   6.470   3.339
 9595SOL     OW29683   0.175   3.551   3.501
 9595SOL    HW129684   0.161   3.632   3.444
 9595SOL    HW229685   0.103   3.546   3.570
 9596SOL     OW29686   1.893   6.779   0.752
 9596SOL    HW129687   1.895   6.823   0.662
 9596SOL    HW229688   1.975   6.805   0.803
 9597SOL     OW29689   0.938   3.520   2.036
 9597SOL    HW129690   1.019   3.476   1.997
 9597SOL    HW229691   0.965   3.606   2.080
 9598SOL     OW29692   2.354   4.252   4.061
 9598SOL    HW129693   2.271   4.305   4.043
 9598SOL    HW229694   2.395   4.223   3.975
 9599SOL     OW29695   4.428   0.216   4.704
 9599SOL    HW129696   4.394   0.165   4.783
 9599SOL    HW229697   4.496   0.161   4.655
 9600SOL     OW29698   3.994   1.006   0.258
 9600SOL    HW129699   3.925   1.072   0.289
 9600SOL    HW229700   3.950   0.932   0.209
 9601SOL     OW29701   0.527   3.271   0.195
 9601SOL    HW129702   0.578   3.189   0.170
 9601SOL    HW229703   0.496   3.317   0.112
 9602SOL     OW29704   4.433   4.434   5.668
 9602SOL    HW129705   4.372   4.497   5.715
 9602SOL    HW229706   4.409   4.431   5.571
 9603SOL     OW29707   5.145   6.982   5.821
 9603SOL    HW129708   5.200   0.045   5.836
 9603SOL    HW229709   5.171   6.940   5.734
 9604SOL     OW29710   4.907   6.854   1.214
 9604SOL    HW129711   4.849   6.899   1.282
 9604SOL    HW229712   5.003   6.866   1.239
 9605SOL     OW29713   5.264   4.959   1.835
 9605SOL    HW129714   5.275   4.998   1.744
 9605SOL    HW229715   5.168   4.968   1.864
 9606SOL     OW29716   1.310   1.629   6.698
 9606SOL    HW129717   1.239   1.610   6.766
 9606SOL    HW229718   1.271   1.619   6.606
 9607SOL     OW29719   1.835   2.735   6.906
 9607SOL    HW129720   1.863   2.670   6.835
 9607SOL    HW229721   1.782   2.808   6.865
 9608SOL     OW29722   6.223   2.265   4.571
 9608SOL    HW129723   6.199   2.189   4.511
 9608SOL    HW229724   6.278   2.231   4.647
 9609SOL     OW29725   5.016   3.249   0.636
 9609SOL    HW129726   5.103   3.219   0.597
 9609SOL    HW229727   4.988   3.336   0.594
 9610SOL     OW29728   1.092   4.849   3.031
 9610SOL    HW129729   1.173   4.826   3.085
 9610SOL    HW229730   1.109   4.933   2.979
 9611SOL     OW29731   2.377   0.795   0.697
 9611SOL    HW129732   2.462   0.749   0.671
 9611SOL    HW229733   2.394   0.893   0.709
 9612SOL     OW29734   0.276   1.892   3.665
 9612SOL    HW129735   0.234   1.970   3.713
 9612SOL    HW229736   0.361   1.868   3.710
 9613SOL     OW29737   6.228   4.526   4.119
 9613SOL    HW129738   6.141   4.576   4.129
 9613SOL    HW229739   6.219   4.436   4.162
 9614SOL     OW29740   3.928   2.173   3.010
 9614SOL    HW129741   3.938   2.075   2.989
 9614SOL    HW229742   4.019   2.215   3.015
 9615SOL     OW29743   1.405   4.219   1.261
 9615SOL    HW129744   1.441   4.308   1.287
 9615SOL    HW229745   1.362   4.225   1.171
 9616SOL     OW29746   4.519   3.816   6.103
 9616SOL    HW129747   4.474   3.780   6.185
 9616SOL    HW229748   4.462   3.796   6.023
 9617SOL     OW29749   1.485   3.363   2.651
 9617SOL    HW129750   1.457   3.335   2.559
 9617SOL    HW229751   1.405   3.393   2.703
 9618SOL     OW29752   2.234   2.411   0.417
 9618SOL    HW129753   2.180   2.382   0.496
 9618SOL    HW229754   2.304   2.343   0.398
 9619SOL     OW29755   2.348   0.426   7.004
 9619SOL    HW129756   2.300   0.340   0.003
 9619SOL    HW229757   2.447   0.409   7.006
 9620SOL     OW29758   5.377   1.119   5.005
 9620SOL    HW129759   5.300   1.157   4.954
 9620SOL    HW229760   5.362   1.131   5.103
 9621SOL     OW29761   1.748   3.922   3.121
 9621SOL    HW129762   1.839   3.935   3.081
 9621SOL    HW229763   1.735   3.825   3.142
 9622SOL     OW29764   4.316   0.209   6.962
 9622SOL    HW129765   4.356   0.118   6.953
 9622SOL    HW229766   4.300   0.248   6.871
 9623SOL     OW29767   1.710   3.540   0.032
 9623SOL    HW129768   1.630   3.507   0.082
 9623SOL    HW229769   1.711   3.640   0.035
 9624SOL     OW29770   6.565   3.158   3.589
 9624SOL    HW129771   6.555   3.100   3.508
 9624SOL    HW229772   6.603   3.103   3.664
 9625SOL     OW29773   5.883   5.977   1.636
 9625SOL    HW129774   5.918   5.885   1.653
 9625SOL    HW229775   5.838   6.012   1.718
 9626SOL     OW29776   3.661   0.597   0.214
 9626SOL    HW129777   3.713   0.646   0.144
 9626SOL    HW229778   3.566   0.588   0.185
 9627SOL     OW29779   0.920   0.132   0.253
 9627SOL    HW129780   0.844   0.182   0.210
 9627SOL    HW229781   0.989   0.198   0.284
 9628SOL     OW29782   3.557   0.031   1.959
 9628SOL    HW129783   3.528   6.964   1.915
 9628SOL    HW229784   3.543   0.107   1.896
 9629SOL     OW29785   2.387   0.361   1.063
 9629SOL    HW129786   2.341   0.426   1.124
 9629SOL    HW229787   2.371   0.268   1.095
 9630SOL     OW29788   0.363   2.152   6.272
 9630SOL    HW129789   0.384   2.144   6.369
 9630SOL    HW229790   0.264   2.157   6.259
 9631SOL     OW29791   6.845   5.882   0.372
 9631SOL    HW129792   6.768   5.925   0.325
 9631SOL    HW229793   6.868   5.796   0.327
 9632SOL     OW29794   1.583   5.854   2.550
 9632SOL    HW129795   1.672   5.807   2.551
 9632SOL    HW229796   1.511   5.790   2.574
 9633SOL     OW29797   0.130   5.284   6.841
 9633SOL    HW129798   0.154   5.377   6.815
 9633SOL    HW229799   0.105   5.231   6.759
 9634SOL     OW29800   0.046   5.855   5.842
 9634SOL    HW129801   7.012   5.933   5.876
 9634SOL    HW229802   0.033   5.848   5.743
 9635SOL     OW29803   6.723   6.048   5.530
 9635SOL    HW129804   6.761   6.005   5.449
 9635SOL    HW229805   6.796   6.070   5.594
 9636SOL     OW29806   4.382   1.508   0.407
 9636SOL    HW129807   4.333   1.431   0.445
 9636SOL    HW229808   4.479   1.500   0.430
 9637SOL     OW29809   2.356   0.914   6.407
 9637SOL    HW129810   2.362   0.828   6.459
 9637SOL    HW229811   2.433   0.973   6.430
 9638SOL     OW29812   6.639   2.412   6.640
 9638SOL    HW129813   6.574   2.371   6.577
 9638SOL    HW229814   6.647   2.355   6.722
 9639SOL     OW29815   3.567   0.538   2.783
 9639SOL    HW129816   3.538   0.443   2.778
 9639SOL    HW229817   3.502   0.590   2.838
 9640SOL     OW29818   1.439   1.779   3.151
 9640SOL    HW129819   1.451   1.865   3.101
 9640SOL    HW229820   1.518   1.764   3.210
 9641SOL     OW29821   5.420   5.622   6.344
 9641SOL    HW129822   5.496   5.562   6.368
 9641SOL    HW229823   5.415   5.631   6.244
 9642SOL     OW29824   3.339   6.375   3.164
 9642SOL    HW129825   3.405   6.310   3.124
 9642SOL    HW229826   3.285   6.416   3.091
 9643SOL     OW29827   4.168   4.799   2.730
 9643SOL    HW129828   4.147   4.757   2.641
 9643SOL    HW229829   4.256   4.846   2.725
 9644SOL     OW29830   2.479   1.051   0.767
 9644SOL    HW129831   2.387   1.086   0.782
 9644SOL    HW229832   2.516   1.015   0.853
 9645SOL     OW29833   2.890   5.385   5.086
 9645SOL    HW129834   2.889   5.285   5.079
 9645SOL    HW229835   2.799   5.421   5.062
 9646SOL     OW29836   3.288   5.421   3.943
 9646SOL    HW129837   3.190   5.405   3.939
 9646SOL    HW229838   3.315   5.443   4.037
 9647SOL     OW29839   6.790   3.081   6.423
 9647SOL    HW129840   6.787   3.119   6.331
 9647SOL    HW229841   6.817   2.984   6.418
 9648SOL     OW29842   4.475   3.605   0.892
 9648SOL    HW129843   4.490   3.511   0.862
 9648SOL    HW229844   4.446   3.606   0.988
 9649SOL     OW29845   2.044   5.091   1.944
 9649SOL    HW129846   2.127   5.145   1.930
 9649SOL    HW229847   1.980   5.107   1.869
 9650SOL     OW29848   1.433   0.700   1.347
 9650SOL    HW129849   1.365   0.668   1.413
 9650SOL    HW229850   1.466   0.622   1.294
 9651SOL     OW29851   0.657   1.773   0.098
 9651SOL    HW129852   0.594   1.776   0.175
 9651SOL    HW229853   0.749   1.753   0.130
 9652SOL     OW29854   1.192   4.943   1.630
 9652SOL    HW129855   1.093   4.936   1.641
 9652SOL    HW229856   1.231   4.852   1.621
 9653SOL     OW29857   5.978   5.876   4.304
 9653SOL    HW129858   5.917   5.944   4.263
 9653SOL    HW229859   6.026   5.916   4.382
 9654SOL     OW29860   1.997   3.028   2.387
 9654SOL    HW129861   2.062   3.025   2.463
 9654SOL    HW229862   2.016   3.109   2.331
 9655SOL     OW29863   6.227   1.957   0.129
 9655SOL    HW129864   6.145   1.899   0.136
 9655SOL    HW229865   6.235   2.013   0.211
 9656SOL     OW29866   2.440   1.716   2.809
 9656SOL    HW129867   2.493   1.699   2.892
 9656SOL    HW229868   2.427   1.815   2.798
 9657SOL     OW29869   0.221   0.542   4.779
 9657SOL    HW129870   0.184   0.518   4.689
 9657SOL    HW229871   0.180   0.627   4.811
 9658SOL     OW29872   5.787   1.195   2.547
 9658SOL    HW129873   5.777   1.273   2.610
 9658SOL    HW229874   5.726   1.121   2.576
 9659SOL     OW29875   1.293   4.962   6.600
 9659SOL    HW129876   1.354   5.023   6.650
 9659SOL    HW229877   1.296   4.871   6.642
 9660SOL     OW29878   1.133   4.873   0.498
 9660SOL    HW129879   1.115   4.775   0.491
 9660SOL    HW229880   1.046   4.922   0.504
 9661SOL     OW29881   4.214   0.530   0.453
 9661SOL    HW129882   4.131   0.500   0.407
 9661SOL    HW229883   4.194   0.613   0.506
 9662SOL     OW29884   5.609   2.297   3.978
 9662SOL    HW129885   5.542   2.270   3.909
 9662SOL    HW229886   5.570   2.369   4.036
 9663SOL     OW29887   3.240   5.727   2.455
 9663SOL    HW129888   3.321   5.761   2.504
 9663SOL    HW229889   3.211   5.640   2.494
 9664SOL     OW29890   3.062   6.216   1.371
 9664SOL    HW129891   3.110   6.196   1.457
 9664SOL    HW229892   3.081   6.310   1.343
 9665SOL     OW29893   5.660   4.336   3.613
 9665SOL    HW129894   5.694   4.419   3.567
 9665SOL    HW229895   5.650   4.263   3.547
 9666SOL     OW29896   5.975   4.556   4.874
 9666SOL    HW129897   5.895   4.524   4.926
 9666SOL    HW229898   5.974   4.513   4.784
 9667SOL     OW29899   2.881   3.701   3.262
 9667SOL    HW129900   2.925   3.784   3.295
 9667SOL    HW229901   2.877   3.633   3.336
 9668SOL     OW29902   0.276   1.679   5.302
 9668SOL    HW129903   0.310   1.751   5.362
 9668SOL    HW229904   0.224   1.612   5.355
 9669SOL     OW29905   2.071   6.641   6.881
 9669SOL    HW129906   1.977   6.608   6.893
 9669SOL    HW229907   2.095   6.701   6.957
 9670SOL     OW29908   6.552   4.068   6.812
 9670SOL    HW129909   6.612   4.035   6.740
 9670SOL    HW229910   6.549   4.000   6.886
 9671SOL     OW29911   6.603   1.224   0.114
 9671SOL    HW129912   6.694   1.213   0.154
 9671SOL    HW229913   6.535   1.180   0.173
 9672SOL     OW29914   0.708   6.765   5.538
 9672SOL    HW129915   0.681   6.752   5.443
 9672SOL    HW229916   0.656   6.703   5.597
 9673SOL     OW29917   2.158   2.639   5.925
 9673SOL    HW129918   2.140   2.562   5.986
 9673SOL    HW229919   2.173   2.606   5.832
 9674SOL     OW29920   2.494   6.242   2.081
 9674SOL    HW129921   2.450   6.316   2.133
 9674SOL    HW229922   2.428   6.202   2.018
 9675SOL     OW29923   6.877   2.227   2.228
 9675SOL    HW129924   6.899   2.293   2.156
 9675SOL    HW229925   6.782   2.241   2.258
 9676SOL     OW29926   6.757   2.824   4.457
 9676SOL    HW129927   6.746   2.726   4.469
 9676SOL    HW229928   6.831   2.858   4.515
 9677SOL     OW29929   1.753   3.378   5.731
 9677SOL    HW129930   1.717   3.453   5.786
 9677SOL    HW229931   1.761   3.296   5.787
 9678SOL     OW29932   3.842   3.449   2.884
 9678SOL    HW129933   3.779   3.527   2.891
 9678SOL    HW229934   3.818   3.393   2.805
 9679SOL     OW29935   0.689   3.867   0.957
 9679SOL    HW129936   0.692   3.820   0.868
 9679SOL    HW229937   0.600   3.911   0.969
 9680SOL     OW29938   4.803   5.107   2.804
 9680SOL    HW129939   4.860   5.031   2.835
 9680SOL    HW229940   4.768   5.086   2.712
 9681SOL     OW29941   0.859   0.749   3.985
 9681SOL    HW129942   0.779   0.693   3.964
 9681SOL    HW229943   0.912   0.763   3.901
 9682SOL     OW29944   0.848   4.196   2.195
 9682SOL    HW129945   0.849   4.103   2.157
 9682SOL    HW229946   0.900   4.197   2.280
 9683SOL     OW29947   4.272   0.173   5.360
 9683SOL    HW129948   4.273   0.082   5.319
 9683SOL    HW229949   4.269   0.242   5.288
 9684SOL     OW29950   0.812   4.353   3.574
 9684SOL    HW129951   0.824   4.452   3.568
 9684SOL    HW229952   0.820   4.312   3.483
 9685SOL     OW29953   1.581   1.824   6.522
 9685SOL    HW129954   1.562   1.879   6.440
 9685SOL    HW229955   1.514   1.846   6.593
 9686SOL     OW29956   5.837   2.713   2.119
 9686SOL    HW129957   5.850   2.811   2.106
 9686SOL    HW229958   5.913   2.663   2.078
 9687SOL     OW29959   2.990   1.073   4.592
 9687SOL    HW129960   2.921   1.126   4.543
 9687SOL    HW229961   3.076   1.122   4.592
 9688SOL     OW29962   5.503   1.597   4.477
 9688SOL    HW129963   5.555   1.676   4.446
 9688SOL    HW229964   5.522   1.519   4.417
 9689SOL     OW29965   2.838   5.545   5.363
 9689SOL    HW129966   2.849   5.551   5.264
 9689SOL    HW229967   2.798   5.629   5.398
 9690SOL     OW29968   6.374   3.717   0.266
 9690SOL    HW129969   6.324   3.736   0.351
 9690SOL    HW229970   6.418   3.628   0.273
 9691SOL     OW29971   1.581   4.896   0.755
 9691SOL    HW129972   1.617   4.985   0.729
 9691SOL    HW229973   1.481   4.898   0.755
 9692SOL     OW29974   2.957   5.299   0.505
 9692SOL    HW129975   2.950   5.205   0.537
 9692SOL    HW229976   2.896   5.358   0.558
 9693SOL     OW29977   5.703   5.238   1.635
 9693SOL    HW129978   5.693   5.319   1.576
 9693SOL    HW229979   5.765   5.173   1.591
 9694SOL     OW29980   1.000   1.516   0.333
 9694SOL    HW129981   1.089   1.556   0.354
 9694SOL    HW229982   0.964   1.470   0.415
 9695SOL     OW29983   6.528   4.779   0.126
 9695SOL    HW129984   6.560   4.862   0.081
 9695SOL    HW229985   6.507   4.710   0.057
 9696SOL     OW29986   4.043   4.122   0.219
 9696SOL    HW129987   3.979   4.071   0.160
 9696SOL    HW229988   4.035   4.220   0.199
 9697SOL     OW29989   0.542   6.056   6.565
 9697SOL    HW129990   0.581   5.983   6.620
 9697SOL    HW229991   0.447   6.034   6.541
 9698SOL     OW29992   4.838   1.664   5.587
 9698SOL    HW129993   4.754   1.712   5.561
 9698SOL    HW229994   4.917   1.715   5.554
 9699SOL     OW29995   1.244   2.509   6.508
 9699SOL    HW129996   1.244   2.468   6.417
 9699SOL    HW229997   1.173   2.466   6.564
 9700SOL     OW29998   3.686   2.905   3.449
 9700SOL    HW129999   3.757   2.956   3.497
 9700SOL    HW230000   3.721   2.872   3.362
 9701SOL     OW30001   4.412   4.645   4.139
 9701SOL    HW130002   4.419   4.578   4.213
 9701SOL    HW230003   4.504   4.671   4.109
 9702SOL     OW30004   5.418   0.365   0.491
 9702SOL    HW130005   5.336   0.391   0.542
 9702SOL    HW230006   5.463   0.288   0.538
 9703SOL     OW30007   2.659   5.982   4.502
 9703SOL    HW130008   2.719   5.966   4.581
 9703SOL    HW230009   2.708   5.962   4.418
 9704SOL     OW30010   2.442   1.801   4.054
 9704SOL    HW130011   2.410   1.733   4.121
 9704SOL    HW230012   2.495   1.756   3.983
 9705SOL     OW30013   3.712   4.117   0.741
 9705SOL    HW130014   3.801   4.130   0.785
 9705SOL    HW230015   3.677   4.206   0.710
 9706SOL     OW30016   0.128   2.391   3.481
 9706SOL    HW130017   0.174   2.394   3.392
 9706SOL    HW230018   0.039   2.435   3.474
 9707SOL     OW30019   3.256   5.376   1.536
 9707SOL    HW130020   3.238   5.278   1.542
 9707SOL    HW230021   3.336   5.391   1.478
 9708SOL     OW30022   1.645   1.831   1.683
 9708SOL    HW130023   1.600   1.854   1.769
 9708SOL    HW230024   1.581   1.844   1.607
 9709SOL     OW30025   1.641   6.321   3.645
 9709SOL    HW130026   1.565   6.383   3.666
 9709SOL    HW230027   1.611   6.226   3.659
 9710SOL     OW30028   1.304   0.216   3.524
 9710SOL    HW130029   1.373   0.276   3.484
 9710SOL    HW230030   1.260   0.261   3.602
 9711SOL     OW30031   1.947   3.161   6.352
 9711SOL    HW130032   2.011   3.088   6.378
 9711SOL    HW230033   1.958   3.238   6.414
 9712SOL     OW30034   5.067   3.278   4.676
 9712SOL    HW130035   5.023   3.204   4.624
 9712SOL    HW230036   5.001   3.319   4.738
 9713SOL     OW30037   0.248   5.336   3.253
 9713SOL    HW130038   0.247   5.246   3.208
 9713SOL    HW230039   0.168   5.388   3.225
 9714SOL     OW30040   2.741   1.932   2.522
 9714SOL    HW130041   2.681   1.966   2.450
 9714SOL    HW230042   2.806   1.867   2.483
 9715SOL     OW30043   5.751   5.722   5.963
 9715SOL    HW130044   5.704   5.807   5.938
 9715SOL    HW230045   5.792   5.733   6.054
 9716SOL     OW30046   3.207   0.798   6.106
 9716SOL    HW130047   3.173   0.710   6.074
 9716SOL    HW230048   3.299   0.814   6.071
 9717SOL     OW30049   5.490   5.277   3.381
 9717SOL    HW130050   5.502   5.240   3.289
 9717SOL    HW230051   5.524   5.211   3.448
 9718SOL     OW30052   5.556   2.926   1.832
 9718SOL    HW130053   5.561   2.842   1.886
 9718SOL    HW230054   5.478   2.980   1.861
 9719SOL     OW30055   0.277   1.353   0.174
 9719SOL    HW130056   0.284   1.266   0.123
 9719SOL    HW230057   0.367   1.396   0.179
 9720SOL     OW30058   0.755   0.672   0.622
 9720SOL    HW130059   0.804   0.700   0.704
 9720SOL    HW230060   0.689   0.601   0.646
 9721SOL     OW30061   0.355   2.272   3.589
 9721SOL    HW130062   0.266   2.309   3.563
 9721SOL    HW230063   0.414   2.266   3.509
 9722SOL     OW30064   0.201   0.246   4.813
 9722SOL    HW130065   0.191   0.258   4.714
 9722SOL    HW230066   0.173   0.330   4.859
 9723SOL     OW30067   6.391   0.371   4.104
 9723SOL    HW130068   6.418   0.288   4.153
 9723SOL    HW230069   6.368   0.348   4.009
 9724SOL     OW30070   3.989   2.529   1.656
 9724SOL    HW130071   4.031   2.620   1.656
 9724SOL    HW230072   3.890   2.539   1.670
 9725SOL     OW30073   3.783   3.015   5.808
 9725SOL    HW130074   3.831   3.068   5.738
 9725SOL    HW230075   3.827   3.030   5.896
 9726SOL     OW30076   4.745   6.150   4.598
 9726SOL    HW130077   4.815   6.209   4.557
 9726SOL    HW230078   4.727   6.073   4.538
 9727SOL     OW30079   0.858   0.703   6.804
 9727SOL    HW130080   0.808   0.639   6.862
 9727SOL    HW230081   0.795   0.748   6.741
 9728SOL     OW30082   3.112   6.093   6.320
 9728SOL    HW130083   3.075   6.186   6.326
 9728SOL    HW230084   3.053   6.030   6.371
 9729SOL     OW30085   3.245   5.222   2.750
 9729SOL    HW130086   3.273   5.206   2.655
 9729SOL    HW230087   3.193   5.143   2.783
 9730SOL     OW30088   5.190   3.821   2.787
 9730SOL    HW130089   5.106   3.855   2.744
 9730SOL    HW230090   5.208   3.728   2.756
 9731SOL     OW30091   5.054   4.847   0.866
 9731SOL    HW130092   5.046   4.778   0.794
 9731SOL    HW230093   5.059   4.938   0.825
 9732SOL     OW30094   4.845   6.430   4.851
 9732SOL    HW130095   4.832   6.437   4.950
 9732SOL    HW230096   4.766   6.384   4.811
 9733SOL     OW30097   4.673   4.769   4.392
 9733SOL    HW130098   4.629   4.723   4.315
 9733SOL    HW230099   4.772   4.756   4.386
 9734SOL     OW30100   6.223   2.194   5.938
 9734SOL    HW130101   6.272   2.242   5.865
 9734SOL    HW230102   6.169   2.119   5.899
 9735SOL     OW30103   2.928   5.105   0.705
 9735SOL    HW130104   2.886   5.194   0.719
 9735SOL    HW230105   2.912   5.047   0.785
 9736SOL     OW30106   3.697   1.781   1.333
 9736SOL    HW130107   3.668   1.686   1.343
 9736SOL    HW230108   3.618   1.840   1.318
 9737SOL     OW30109   4.275   1.504   4.720
 9737SOL    HW130110   4.259   1.582   4.781
 9737SOL    HW230111   4.250   1.529   4.627
 9738SOL     OW30112   2.605   0.509   2.157
 9738SOL    HW130113   2.601   0.603   2.189
 9738SOL    HW230114   2.643   0.451   2.230
 9739SOL     OW30115   5.252   4.385   2.331
 9739SOL    HW130116   5.319   4.451   2.364
 9739SOL    HW230117   5.298   4.310   2.285
 9740SOL     OW30118   6.936   2.940   2.929
 9740SOL    HW130119   6.985   2.853   2.942
 9740SOL    HW230120   6.839   2.927   2.948
 9741SOL     OW30121   3.561   2.008   2.427
 9741SOL    HW130122   3.491   2.077   2.439
 9741SOL    HW230123   3.536   1.947   2.352
 9742SOL     OW30124   3.659   1.557   3.545
 9742SOL    HW130125   3.651   1.644   3.593
 9742SOL    HW230126   3.604   1.559   3.462
 9743SOL     OW30127   1.058   0.868   5.605
 9743SOL    HW130128   1.083   0.846   5.511
 9743SOL    HW230129   1.113   0.813   5.668
 9744SOL     OW30130   2.607   0.071   1.338
 9744SOL    HW130131   2.702   0.101   1.328
 9744SOL    HW230132   2.558   0.135   1.397
 9745SOL     OW30133   0.662   0.750   4.840
 9745SOL    HW130134   0.581   0.761   4.898
 9745SOL    HW230135   0.736   0.808   4.874
 9746SOL     OW30136   5.924   6.824   4.450
 9746SOL    HW130137   5.961   6.741   4.407
 9746SOL    HW230138   5.982   6.849   4.527
 9747SOL     OW30139   0.028   0.235   6.083
 9747SOL    HW130140   0.119   0.236   6.124
 9747SOL    HW230141   6.981   0.192   6.145
 9748SOL     OW30142   1.698   4.396   4.890
 9748SOL    HW130143   1.710   4.315   4.948
 9748SOL    HW230144   1.726   4.477   4.941
 9749SOL     OW30145   0.405   5.194   4.749
 9749SOL    HW130146   0.487   5.138   4.757
 9749SOL    HW230147   0.328   5.137   4.720
 9750SOL     OW30148   2.516   5.596   2.472
 9750SOL    HW130149   2.465   5.677   2.503
 9750SOL    HW230150   2.567   5.557   2.549
 9751SOL     OW30151   1.200   2.129   0.614
 9751SOL    HW130152   1.201   2.225   0.641
 9751SOL    HW230153   1.108   2.105   0.582
 9752SOL     OW30154   3.290   6.639   5.805
 9752SOL    HW130155   3.329   6.731   5.800
 9752SOL    HW230156   3.348   6.582   5.863
 9753SOL     OW30157   6.949   6.990   6.934
 9753SOL    HW130158   6.868   6.963   6.986
 9753SOL    HW230159   0.007   7.007   6.996
 9754SOL     OW30160   6.962   3.498   6.684
 9754SOL    HW130161   6.954   3.464   6.591
 9754SOL    HW230162   6.973   3.422   6.747
 9755SOL     OW30163   4.069   5.611   4.844
 9755SOL    HW130164   3.979   5.649   4.822
 9755SOL    HW230165   4.089   5.625   4.941
 9756SOL     OW30166   4.541   3.109   6.338
 9756SOL    HW130167   4.632   3.147   6.356
 9756SOL    HW230168   4.489   3.173   6.281
 9757SOL     OW30169   6.229   0.799   3.997
 9757SOL    HW130170   6.283   0.774   4.078
 9757SOL    HW230171   6.170   0.723   3.971
 9758SOL     OW30172   3.373   0.851   0.201
 9758SOL    HW130173   3.445   0.837   0.132
 9758SOL    HW230174   3.407   0.914   0.271
 9759SOL     OW30175   2.978   6.178   1.910
 9759SOL    HW130176   2.908   6.107   1.908
 9759SOL    HW230177   2.953   6.252   1.848
 9760SOL     OW30178   5.209   3.989   6.700
 9760SOL    HW130179   5.118   4.029   6.706
 9760SOL    HW230180   5.207   3.913   6.635
 9761SOL     OW30181   4.747   5.462   2.658
 9761SOL    HW130182   4.833   5.509   2.682
 9761SOL    HW230183   4.713   5.414   2.738
 9762SOL     OW30184   3.461   0.908   2.233
 9762SOL    HW130185   3.421   0.909   2.141
 9762SOL    HW230186   3.408   0.849   2.293
 9763SOL     OW30187   2.154   1.898   1.742
 9763SOL    HW130188   2.136   1.984   1.789
 9763SOL    HW230189   2.221   1.912   1.670
 9764SOL     OW30190   0.216   2.413   3.969
 9764SOL    HW130191   0.270   2.350   4.024
 9764SOL    HW230192   0.278   2.469   3.913
 9765SOL     OW30193   0.419   0.857   6.041
 9765SOL    HW130194   0.494   0.864   5.976
 9765SOL    HW230195   0.444   0.905   6.125
 9766SOL     OW30196   2.586   0.846   2.000
 9766SOL    HW130197   2.674   0.861   2.044
 9766SOL    HW230198   2.536   0.932   1.994
 9767SOL     OW30199   4.476   0.304   5.476
 9767SOL    HW130200   4.400   0.239   5.480
 9767SOL    HW230201   4.441   0.397   5.482
 9768SOL     OW30202   4.403   2.164   3.063
 9768SOL    HW130203   4.479   2.100   3.049
 9768SOL    HW230204   4.434   2.257   3.048
 9769SOL     OW30205   0.811   2.381   0.540
 9769SOL    HW130206   0.722   2.413   0.572
 9769SOL    HW230207   0.881   2.405   0.606
 9770SOL     OW30208   0.650   2.904   5.340
 9770SOL    HW130209   0.653   2.882   5.242
 9770SOL    HW230210   0.587   2.981   5.354
 9771SOL     OW30211   1.836   6.514   3.988
 9771SOL    HW130212   1.918   6.463   3.961
 9771SOL    HW230213   1.798   6.561   3.908
 9772SOL     OW30214   5.721   6.643   1.436
 9772SOL    HW130215   5.627   6.653   1.404
 9772SOL    HW230216   5.730   6.557   1.487
 9773SOL     OW30217   4.875   5.475   3.807
 9773SOL    HW130218   4.880   5.379   3.781
 9773SOL    HW230219   4.782   5.509   3.792
 9774SOL     OW30220   6.762   5.220   4.477
 9774SOL    HW130221   6.784   5.123   4.485
 9774SOL    HW230222   6.843   5.271   4.446
 9775SOL     OW30223   2.846   1.886   4.759
 9775SOL    HW130224   2.932   1.848   4.725
 9775SOL    HW230225   2.866   1.960   4.823
 9776SOL     OW30226   0.694   4.695   4.568
 9776SOL    HW130227   0.767   4.629   4.586
 9776SOL    HW230228   0.641   4.711   4.652
 9777SOL     OW30229   4.804   6.176   6.149
 9777SOL    HW130230   4.863   6.221   6.216
 9777SOL    HW230231   4.748   6.245   6.102
 9778SOL     OW30232   3.516   0.961   4.750
 9778SOL    HW130233   3.446   0.899   4.785
 9778SOL    HW230234   3.552   1.016   4.825
 9779SOL     OW30235   3.585   2.338   6.623
 9779SOL    HW130236   3.675   2.319   6.662
 9779SOL    HW230237   3.529   2.256   6.625
 9780SOL     OW30238   1.817   3.661   1.246
 9780SOL    HW130239   1.880   3.590   1.279
 9780SOL    HW230240   1.868   3.747   1.234
 9781SOL     OW30241   0.546   6.994   4.296
 9781SOL    HW130242   0.560   6.915   4.236
 9781SOL    HW230243   0.512   6.962   4.385
 9782SOL     OW30244   6.147   0.067   1.137
 9782SOL    HW130245   6.100   0.035   1.055
 9782SOL    HW230246   6.246   0.061   1.124
 9783SOL     OW30247   6.280   6.747   3.590
 9783SOL    HW130248   6.247   6.797   3.510
 9783SOL    HW230249   6.379   6.761   3.600
 9784SOL     OW30250   4.630   0.452   4.684
 9784SOL    HW130251   4.646   0.494   4.773
 9784SOL    HW230252   4.575   0.370   4.695
 9785SOL     OW30253   1.092   2.010   1.083
 9785SOL    HW130254   1.078   1.966   0.994
 9785SOL    HW230255   1.124   1.941   1.149
 9786SOL     OW30256   1.860   0.337   3.549
 9786SOL    HW130257   1.933   0.281   3.589
 9786SOL    HW230258   1.856   0.322   3.450
 9787SOL     OW30259   5.952   3.999   1.552
 9787SOL    HW130260   6.016   4.067   1.586
 9787SOL    HW230261   5.954   3.997   1.452
 9788SOL     OW30262   0.210   7.005   6.665
 9788SOL    HW130263   0.127   0.040   6.679
 9788SOL    HW230264   0.196   6.941   6.589
 9789SOL     OW30265   1.759   4.312   4.521
 9789SOL    HW130266   1.826   4.247   4.556
 9789SOL    HW230267   1.775   4.402   4.561
 9790SOL     OW30268   0.206   1.091   3.671
 9790SOL    HW130269   0.205   1.076   3.572
 9790SOL    HW230270   0.205   1.002   3.718
 9791SOL     OW30271   1.373   2.618   0.955
 9791SOL    HW130272   1.318   2.686   0.907
 9791SOL    HW230273   1.356   2.528   0.917
 9792SOL     OW30274   4.461   5.588   1.992
 9792SOL    HW130275   4.485   5.507   1.938
 9792SOL    HW230276   4.407   5.650   1.935
 9793SOL     OW30277   5.535   6.146   2.384
 9793SOL    HW130278   5.617   6.202   2.373
 9793SOL    HW230279   5.469   6.194   2.441
 9794SOL     OW30280   3.518   3.919   6.799
 9794SOL    HW130281   3.541   3.888   6.891
 9794SOL    HW230282   3.418   3.917   6.787
 9795SOL     OW30283   1.910   4.673   3.139
 9795SOL    HW130284   1.836   4.678   3.205
 9795SOL    HW230285   1.956   4.762   3.134
 9796SOL     OW30286   4.016   4.966   6.323
 9796SOL    HW130287   3.929   4.950   6.276
 9796SOL    HW230288   4.029   4.895   6.392
 9797SOL     OW30289   6.230   3.210   5.374
 9797SOL    HW130290   6.276   3.166   5.451
 9797SOL    HW230291   6.238   3.309   5.383
 9798SOL     OW30292   3.508   1.367   2.105
 9798SOL    HW130293   3.533   1.333   2.196
 9798SOL    HW230294   3.419   1.329   2.079
 9799SOL     OW30295   4.091   3.407   3.248
 9799SOL    HW130296   4.102   3.456   3.334
 9799SOL    HW230297   4.070   3.311   3.266
 9800SOL     OW30298   3.865   6.823   0.527
 9800SOL    HW130299   3.875   6.848   0.623
 9800SOL    HW230300   3.955   6.820   0.483
 9801SOL     OW30301   5.838   5.005   1.487
 9801SOL    HW130302   5.800   4.912   1.484
 9801SOL    HW230303   5.885   5.025   1.401
 9802SOL     OW30304   0.743   5.708   2.304
 9802SOL    HW130305   0.651   5.743   2.293
 9802SOL    HW230306   0.757   5.679   2.399
 9803SOL     OW30307   5.640   0.172   6.493
 9803SOL    HW130308   5.541   0.176   6.507
 9803SOL    HW230309   5.685   0.236   6.555
 9804SOL     OW30310   4.517   5.541   4.051
 9804SOL    HW130311   4.597   5.596   4.026
 9804SOL    HW230312   4.536   5.493   4.137
 9805SOL     OW30313   3.542   4.087   0.997
 9805SOL    HW130314   3.632   4.052   0.972
 9805SOL    HW230315   3.542   4.110   1.095
 9806SOL     OW30316   0.011   1.421   2.321
 9806SOL    HW130317   6.972   1.353   2.276
 9806SOL    HW230318   0.079   1.375   2.379
 9807SOL     OW30319   2.110   3.396   0.962
 9807SOL    HW130320   2.083   3.403   1.057
 9807SOL    HW230321   2.156   3.308   0.947
 9808SOL     OW30322   2.700   2.444   3.290
 9808SOL    HW130323   2.751   2.492   3.218
 9808SOL    HW230324   2.614   2.411   3.254
 9809SOL     OW30325   0.163   0.193   4.504
 9809SOL    HW130326   0.223   0.196   4.423
 9809SOL    HW230327   0.186   0.114   4.560
 9810SOL     OW30328   4.725   1.445   2.637
 9810SOL    HW130329   4.666   1.476   2.562
 9810SOL    HW230330   4.669   1.419   2.715
 9811SOL     OW30331   1.626   0.883   3.239
 9811SOL    HW130332   1.539   0.846   3.205
 9811SOL    HW230333   1.685   0.904   3.161
 9812SOL     OW30334   5.521   2.849   6.397
 9812SOL    HW130335   5.494   2.923   6.335
 9812SOL    HW230336   5.441   2.792   6.416
 9813SOL     OW30337   6.113   4.641   0.524
 9813SOL    HW130338   6.120   4.695   0.441
 9813SOL    HW230339   6.178   4.676   0.592
 9814SOL     OW30340   6.525   1.577   6.204
 9814SOL    HW130341   6.478   1.499   6.162
 9814SOL    HW230342   6.464   1.620   6.271
 9815SOL     OW30343   6.573   5.025   2.156
 9815SOL    HW130344   6.640   4.954   2.177
 9815SOL    HW230345   6.604   5.078   2.077
 9816SOL     OW30346   6.977   2.110   4.984
 9816SOL    HW130347   7.011   2.159   4.903
 9816SOL    HW230348   0.035   2.065   5.030
 9817SOL     OW30349   2.471   1.698   0.470
 9817SOL    HW130350   2.464   1.618   0.410
 9817SOL    HW230351   2.379   1.727   0.497
 9818SOL     OW30352   0.200   0.068   2.645
 9818SOL    HW130353   0.283   0.030   2.603
 9818SOL    HW230354   0.120   0.039   2.593
 9819SOL     OW30355   5.640   1.119   4.907
 9819SOL    HW130356   5.632   1.057   4.829
 9819SOL    HW230357   5.554   1.117   4.959
 9820SOL     OW30358   3.496   0.454   6.441
 9820SOL    HW130359   3.571   0.394   6.414
 9820SOL    HW230360   3.418   0.440   6.380
 9821SOL     OW30361   4.973   4.100   6.765
 9821SOL    HW130362   4.932   4.192   6.757
 9821SOL    HW230363   4.906   4.032   6.734
 9822SOL     OW30364   3.514   6.292   3.765
 9822SOL    HW130365   3.455   6.219   3.799
 9822SOL    HW230366   3.567   6.331   3.840
 9823SOL     OW30367   4.293   5.333   3.312
 9823SOL    HW130368   4.280   5.423   3.353
 9823SOL    HW230369   4.204   5.293   3.291
 9824SOL     OW30370   1.346   5.994   5.583
 9824SOL    HW130371   1.282   5.925   5.618
 9824SOL    HW230372   1.343   6.075   5.642
 9825SOL     OW30373   0.792   6.252   4.443
 9825SOL    HW130374   0.867   6.302   4.487
 9825SOL    HW230375   0.713   6.253   4.504
 9826SOL     OW30376   1.707   5.693   5.672
 9826SOL    HW130377   1.667   5.781   5.646
 9826SOL    HW230378   1.749   5.651   5.592
 9827SOL     OW30379   1.276   4.650   2.051
 9827SOL    HW130380   1.308   4.559   2.026
 9827SOL    HW230381   1.341   4.718   2.019
 9828SOL     OW30382   4.989   2.282   4.345
 9828SOL    HW130383   4.993   2.273   4.246
 9828SOL    HW230384   4.895   2.302   4.373
 9829SOL     OW30385   5.513   3.931   5.484
 9829SOL    HW130386   5.594   3.986   5.499
 9829SOL    HW230387   5.497   3.872   5.563
 9830SOL     OW30388   5.987   1.340   3.278
 9830SOL    HW130389   5.988   1.337   3.178
 9830SOL    HW230390   5.997   1.248   3.314
 9831SOL     OW30391   0.902   5.132   1.712
 9831SOL    HW130392   0.989   5.170   1.742
 9831SOL    HW230393   0.913   5.034   1.693
 9832SOL     OW30394   5.379   5.657   5.166
 9832SOL    HW130395   5.321   5.712   5.227
 9832SOL    HW230396   5.464   5.634   5.213
 9833SOL     OW30397   3.525   2.862   4.328
 9833SOL    HW130398   3.469   2.865   4.411
 9833SOL    HW230399   3.468   2.883   4.248
 9834SOL     OW30400   3.495   5.936   6.457
 9834SOL    HW130401   3.575   5.894   6.414
 9834SOL    HW230402   3.412   5.904   6.412
 9835SOL     OW30403   3.612   3.115   3.664
 9835SOL    HW130404   3.652   3.207   3.659
 9835SOL    HW230405   3.630   3.066   3.580
 9836SOL     OW30406   6.775   2.812   6.164
 9836SOL    HW130407   6.735   2.725   6.135
 9836SOL    HW230408   6.736   2.840   6.251
 9837SOL     OW30409   6.117   0.866   4.636
 9837SOL    HW130410   6.146   0.773   4.658
 9837SOL    HW230411   6.119   0.878   4.537
 9838SOL     OW30412   0.665   5.934   0.828
 9838SOL    HW130413   0.640   6.012   0.884
 9838SOL    HW230414   0.591   5.866   0.830
 9839SOL     OW30415   4.050   6.159   4.043
 9839SOL    HW130416   4.119   6.102   3.998
 9839SOL    HW230417   3.968   6.163   3.985
 9840SOL     OW30418   6.096   2.183   6.388
 9840SOL    HW130419   6.182   2.132   6.394
 9840SOL    HW230420   6.107   2.259   6.325
 9841SOL     OW30421   0.045   5.825   2.253
 9841SOL    HW130422   0.144   5.830   2.238
 9841SOL    HW230423   0.026   5.780   2.340
 9842SOL     OW30424   3.901   0.108   0.180
 9842SOL    HW130425   3.842   0.055   0.241
 9842SOL    HW230426   3.863   0.108   0.088
 9843SOL     OW30427   0.501   0.196   0.492
 9843SOL    HW130428   0.518   0.167   0.397
 9843SOL    HW230429   0.461   0.120   0.543
 9844SOL     OW30430   5.322   1.185   4.703
 9844SOL    HW130431   5.298   1.103   4.755
 9844SOL    HW230432   5.239   1.228   4.669
 9845SOL     OW30433   1.220   3.581   2.533
 9845SOL    HW130434   1.264   3.542   2.453
 9845SOL    HW230435   1.152   3.649   2.505
 9846SOL     OW30436   6.122   2.458   2.814
 9846SOL    HW130437   6.108   2.362   2.840
 9846SOL    HW230438   6.080   2.475   2.725
 9847SOL     OW30439   4.015   4.268   6.691
 9847SOL    HW130440   4.098   4.323   6.680
 9847SOL    HW230441   4.034   4.174   6.663
 9848SOL     OW30442   3.121   3.419   5.587
 9848SOL    HW130443   3.158   3.338   5.543
 9848SOL    HW230444   3.186   3.495   5.578
 9849SOL     OW30445   1.527   1.440   2.123
 9849SOL    HW130446   1.562   1.491   2.202
 9849SOL    HW230447   1.595   1.443   2.050
 9850SOL     OW30448   1.793   0.771   3.952
 9850SOL    HW130449   1.885   0.731   3.952
 9850SOL    HW230450   1.725   0.697   3.950
 9851SOL     OW30451   3.182   5.819   4.029
 9851SOL    HW130452   3.219   5.791   3.941
 9851SOL    HW230453   3.139   5.741   4.074
 9852SOL     OW30454   2.430   0.468   6.695
 9852SOL    HW130455   2.407   0.526   6.773
 9852SOL    HW230456   2.507   0.408   6.719
 9853SOL     OW30457   0.300   4.184   4.056
 9853SOL    HW130458   0.279   4.120   4.130
 9853SOL    HW230459   0.238   4.262   4.060
 9854SOL     OW30460   6.441   3.917   0.089
 9854SOL    HW130461   6.431   3.846   0.159
 9854SOL    HW230462   6.525   3.902   0.038
 9855SOL     OW30463   0.779   6.286   0.921
 9855SOL    HW130464   0.870   6.280   0.880
 9855SOL    HW230465   0.787   6.271   1.020
 9856SOL     OW30466   5.052   4.731   3.302
 9856SOL    HW130467   5.128   4.731   3.367
 9856SOL    HW230468   5.070   4.666   3.229
 9857SOL     OW30469   4.556   6.870   5.464
 9857SOL    HW130470   4.620   6.931   5.511
 9857SOL    HW230471   4.481   6.847   5.525
 9858SOL     OW30472   0.105   5.231   2.675
 9858SOL    HW130473   0.121   5.301   2.745
 9858SOL    HW230474   0.100   5.141   2.718
 9859SOL     OW30475   0.260   6.104   2.980
 9859SOL    HW130476   0.211   6.188   2.958
 9859SOL    HW230477   0.219   6.062   3.061
 9860SOL     OW30478   1.382   3.427   3.354
 9860SOL    HW130479   1.336   3.384   3.277
 9860SOL    HW230480   1.473   3.386   3.365
 9861SOL     OW30481   3.973   2.110   4.308
 9861SOL    HW130482   4.005   2.148   4.221
 9861SOL    HW230483   4.028   2.147   4.382
 9862SOL     OW30484   1.660   2.871   6.767
 9862SOL    HW130485   1.623   2.825   6.686
 9862SOL    HW230486   1.619   2.962   6.775
 9863SOL     OW30487   3.707   5.997   1.951
 9863SOL    HW130488   3.798   6.004   1.992
 9863SOL    HW230489   3.672   6.089   1.934
 9864SOL     OW30490   3.090   6.054   5.279
 9864SOL    HW130491   3.171   6.049   5.221
 9864SOL    HW230492   3.051   6.147   5.274
 9865SOL     OW30493   2.680   5.178   6.233
 9865SOL    HW130494   2.711   5.133   6.149
 9865SOL    HW230495   2.609   5.122   6.277
 9866SOL     OW30496   0.281   5.667   5.610
 9866SOL    HW130497   0.330   5.754   5.597
 9866SOL    HW230498   0.313   5.601   5.543
 9867SOL     OW30499   4.983   1.215   2.301
 9867SOL    HW130500   4.941   1.306   2.304
 9867SOL    HW230501   5.002   1.191   2.205
 9868SOL     OW30502   2.205   4.777   3.225
 9868SOL    HW130503   2.189   4.771   3.127
 9868SOL    HW230504   2.221   4.685   3.262
 9869SOL     OW30505   5.462   1.705   2.648
 9869SOL    HW130506   5.524   1.777   2.676
 9869SOL    HW230507   5.433   1.720   2.553
 9870SOL     OW30508   2.317   2.881   2.826
 9870SOL    HW130509   2.246   2.864   2.895
 9870SOL    HW230510   2.392   2.932   2.867
 9871SOL     OW30511   5.982   5.079   3.223
 9871SOL    HW130512   5.948   5.076   3.317
 9871SOL    HW230513   6.079   5.057   3.221
 9872SOL     OW30514   0.866   6.450   4.833
 9872SOL    HW130515   0.911   6.525   4.882
 9872SOL    HW230516   0.918   6.429   4.750
 9873SOL     OW30517   0.513   0.906   5.324
 9873SOL    HW130518   0.589   0.843   5.336
 9873SOL    HW230519   0.537   0.976   5.256
 9874SOL     OW30520   6.898   1.865   3.775
 9874SOL    HW130521   6.872   1.776   3.738
 9874SOL    HW230522   6.869   1.937   3.711
 9875SOL     OW30523   5.941   5.783   1.148
 9875SOL    HW130524   5.883   5.832   1.083
 9875SOL    HW230525   5.919   5.686   1.146
 9876SOL     OW30526   0.544   0.275   3.048
 9876SOL    HW130527   0.519   0.254   2.954
 9876SOL    HW230528   0.495   0.356   3.079
 9877SOL     OW30529   1.557   5.770   5.116
 9877SOL    HW130530   1.586   5.755   5.210
 9877SOL    HW230531   1.461   5.798   5.114
 9878SOL     OW30532   4.592   3.940   0.543
 9878SOL    HW130533   4.647   3.990   0.610
 9878SOL    HW230534   4.533   3.875   0.590
 9879SOL     OW30535   5.313   5.761   4.278
 9879SOL    HW130536   5.280   5.706   4.201
 9879SOL    HW230537   5.413   5.755   4.283
 9880SOL     OW30538   2.679   1.199   1.053
 9880SOL    HW130539   2.703   1.104   1.032
 9880SOL    HW230540   2.615   1.234   0.985
 9881SOL     OW30541   6.342   7.002   2.939
 9881SOL    HW130542   6.415   6.933   2.939
 9881SOL    HW230543   6.374   0.066   2.984
 9882SOL     OW30544   3.621   4.079   4.053
 9882SOL    HW130545   3.566   4.039   3.980
 9882SOL    HW230546   3.564   4.139   4.109
 9883SOL     OW30547   1.510   6.018   3.088
 9883SOL    HW130548   1.472   6.021   2.995
 9883SOL    HW230549   1.538   5.924   3.109
 9884SOL     OW30550   3.305   2.563   5.316
 9884SOL    HW130551   3.290   2.549   5.413
 9884SOL    HW230552   3.260   2.490   5.264
 9885SOL     OW30553   4.916   1.918   5.247
 9885SOL    HW130554   4.892   1.980   5.172
 9885SOL    HW230555   4.864   1.833   5.238
 9886SOL     OW30556   2.744   6.315   1.535
 9886SOL    HW130557   2.651   6.305   1.570
 9886SOL    HW230558   2.746   6.292   1.437
 9887SOL     OW30559   3.745   1.674   0.391
 9887SOL    HW130560   3.704   1.626   0.469
 9887SOL    HW230561   3.783   1.607   0.327
 9888SOL     OW30562   6.353   6.565   4.285
 9888SOL    HW130563   6.416   6.587   4.360
 9888SOL    HW230564   6.405   6.552   4.200
 9889SOL     OW30565   6.948   6.170   2.233
 9889SOL    HW130566   6.883   6.134   2.165
 9889SOL    HW230567   0.023   6.161   2.198
 9890SOL     OW30568   1.852   3.237   3.285
 9890SOL    HW130569   1.892   3.326   3.305
 9890SOL    HW230570   1.896   3.199   3.203
 9891SOL     OW30571   3.578   0.321   1.865
 9891SOL    HW130572   3.479   0.313   1.879
 9891SOL    HW230573   3.612   0.401   1.915
 9892SOL     OW30574   2.444   6.044   3.028
 9892SOL    HW130575   2.471   6.140   3.020
 9892SOL    HW230576   2.439   6.019   3.125
 9893SOL     OW30577   5.706   4.520   4.480
 9893SOL    HW130578   5.729   4.456   4.554
 9893SOL    HW230579   5.712   4.614   4.513
 9894SOL     OW30580   4.252   3.957   5.411
 9894SOL    HW130581   4.309   4.039   5.414
 9894SOL    HW230582   4.271   3.901   5.492
 9895SOL     OW30583   4.546   2.655   6.077
 9895SOL    HW130584   4.556   2.754   6.082
 9895SOL    HW230585   4.633   2.612   6.099
 9896SOL     OW30586   3.973   3.919   6.795
 9896SOL    HW130587   3.945   3.959   6.882
 9896SOL    HW230588   4.032   3.840   6.812
 9897SOL     OW30589   1.499   1.389   2.761
 9897SOL    HW130590   1.422   1.398   2.698
 9897SOL    HW230591   1.523   1.293   2.773
 9898SOL     OW30592   0.232   5.477   0.102
 9898SOL    HW130593   0.328   5.486   0.130
 9898SOL    HW230594   0.221   5.395   0.045
 9899SOL     OW30595   3.537   5.029   0.832
 9899SOL    HW130596   3.601   5.058   0.761
 9899SOL    HW230597   3.544   4.930   0.845
 9900SOL     OW30598   2.661   5.395   3.200
 9900SOL    HW130599   2.599   5.317   3.206
 9900SOL    HW230600   2.612   5.478   3.227
 9901SOL     OW30601   2.882   1.211   6.007
 9901SOL    HW130602   2.925   1.287   5.958
 9901SOL    HW230603   2.936   1.128   5.995
 9902SOL     OW30604   4.221   4.609   0.301
 9902SOL    HW130605   4.203   4.687   0.361
 9902SOL    HW230606   4.263   4.642   0.216
 9903SOL     OW30607   2.841   0.996   0.929
 9903SOL    HW130608   2.837   0.900   0.901
 9903SOL    HW230609   2.898   1.047   0.864
 9904SOL     OW30610   6.431   6.066   2.108
 9904SOL    HW130611   6.373   6.005   2.161
 9904SOL    HW230612   6.471   6.016   2.031
 9905SOL     OW30613   2.363   6.742   0.237
 9905SOL    HW130614   2.311   6.826   0.223
 9905SOL    HW230615   2.344   6.706   0.328
 9906SOL     OW30616   3.492   3.532   6.360
 9906SOL    HW130617   3.467   3.556   6.454
 9906SOL    HW230618   3.437   3.587   6.296
 9907SOL     OW30619   0.734   6.927   3.254
 9907SOL    HW130620   0.792   6.972   3.322
 9907SOL    HW230621   0.786   6.853   3.210
 9908SOL     OW30622   6.349   3.187   6.021
 9908SOL    HW130623   6.438   3.233   6.016
 9908SOL    HW230624   6.302   3.215   6.105
 9909SOL     OW30625   2.482   6.336   3.099
 9909SOL    HW130626   2.383   6.319   3.097
 9909SOL    HW230627   2.504   6.394   3.177
 9910SOL     OW30628   1.047   5.776   0.615
 9910SOL    HW130629   1.120   5.837   0.585
 9910SOL    HW230630   0.988   5.824   0.680
 9911SOL     OW30631   3.128   4.846   2.104
 9911SOL    HW130632   3.207   4.834   2.044
 9911SOL    HW230633   3.043   4.837   2.052
 9912SOL     OW30634   5.743   6.242   0.436
 9912SOL    HW130635   5.740   6.276   0.342
 9912SOL    HW230636   5.838   6.230   0.464
 9913SOL     OW30637   6.430   1.703   2.315
 9913SOL    HW130638   6.429   1.707   2.415
 9913SOL    HW230639   6.522   1.726   2.282
 9914SOL     OW30640   1.925   5.516   3.800
 9914SOL    HW130641   2.022   5.539   3.792
 9914SOL    HW230642   1.911   5.456   3.879
 9915SOL     OW30643   6.152   5.637   3.715
 9915SOL    HW130644   6.115   5.631   3.808
 9915SOL    HW230645   6.201   5.552   3.693
 9916SOL     OW30646   1.568   3.430   0.753
 9916SOL    HW130647   1.613   3.488   0.684
 9916SOL    HW230648   1.530   3.488   0.825
 9917SOL     OW30649   1.879   3.978   4.352
 9917SOL    HW130650   1.870   4.051   4.284
 9917SOL    HW230651   1.961   3.924   4.332
 9918SOL     OW30652   1.936   2.035   3.744
 9918SOL    HW130653   1.875   2.053   3.667
 9918SOL    HW230654   2.001   2.111   3.754
 9919SOL     OW30655   0.928   6.124   1.500
 9919SOL    HW130656   0.838   6.081   1.497
 9919SOL    HW230657   0.932   6.198   1.433
 9920SOL     OW30658   3.040   0.943   3.278
 9920SOL    HW130659   3.011   0.957   3.373
 9920SOL    HW230660   3.113   0.875   3.276
 9921SOL     OW30661   4.865   0.680   2.294
 9921SOL    HW130662   4.860   0.583   2.269
 9921SOL    HW230663   4.957   0.701   2.326
 9922SOL     OW30664   6.441   2.974   2.183
 9922SOL    HW130665   6.402   3.046   2.126
 9922SOL    HW230666   6.377   2.951   2.256
 9923SOL     OW30667   5.679   6.767   6.511
 9923SOL    HW130668   5.747   6.710   6.465
 9923SOL    HW230669   5.725   6.837   6.564
 9924SOL     OW30670   5.722   0.067   3.608
 9924SOL    HW130671   5.697   0.071   3.511
 9924SOL    HW230672   5.659   0.007   3.657
 9925SOL     OW30673   4.079   2.140   4.974
 9925SOL    HW130674   4.106   2.236   4.985
 9925SOL    HW230675   4.026   2.111   5.054
 9926SOL     OW30676   1.590   1.393   5.963
 9926SOL    HW130677   1.584   1.308   5.911
 9926SOL    HW230678   1.563   1.377   6.058
 9927SOL     OW30679   2.226   4.012   4.199
 9927SOL    HW130680   2.277   4.053   4.124
 9927SOL    HW230681   2.242   4.065   4.282
 9928SOL     OW30682   6.693   2.825   2.988
 9928SOL    HW130683   6.702   2.809   3.086
 9928SOL    HW230684   6.598   2.811   2.960
 9929SOL     OW30685   1.261   5.121   5.306
 9929SOL    HW130686   1.330   5.051   5.284
 9929SOL    HW230687   1.182   5.077   5.349
 9930SOL     OW30688   6.505   6.234   6.618
 9930SOL    HW130689   6.544   6.291   6.545
 9930SOL    HW230690   6.491   6.141   6.585
 9931SOL     OW30691   1.424   4.176   0.057
 9931SOL    HW130692   1.466   4.108   7.015
 9931SOL    HW230693   1.474   4.177   0.144
 9932SOL     OW30694   1.707   1.745   1.221
 9932SOL    HW130695   1.649   1.746   1.140
 9932SOL    HW230696   1.672   1.677   1.286
 9933SOL     OW30697   1.713   2.067   3.591
 9933SOL    HW130698   1.679   2.161   3.592
 9933SOL    HW230699   1.641   2.005   3.624
 9934SOL     OW30700   5.265   0.189   5.897
 9934SOL    HW130701   5.282   0.254   5.823
 9934SOL    HW230702   5.187   0.220   5.951
 9935SOL     OW30703   3.368   2.909   0.208
 9935SOL    HW130704   3.444   2.869   0.156
 9935SOL    HW230705   3.281   2.876   0.170
 9936SOL     OW30706   4.622   5.936   0.295
 9936SOL    HW130707   4.612   6.024   0.342
 9936SOL    HW230708   4.674   5.874   0.354
 9937SOL     OW30709   1.528   0.453   5.036
 9937SOL    HW130710   1.455   0.425   5.097
 9937SOL    HW230711   1.501   0.437   4.941
 9938SOL     OW30712   0.885   1.728   3.230
 9938SOL    HW130713   0.891   1.661   3.304
 9938SOL    HW230714   0.837   1.809   3.263
 9939SOL     OW30715   2.965   3.794   0.907
 9939SOL    HW130716   3.002   3.702   0.915
 9939SOL    HW230717   2.953   3.818   0.811
 9940SOL     OW30718   6.647   1.162   2.855
 9940SOL    HW130719   6.619   1.091   2.920
 9940SOL    HW230720   6.660   1.122   2.765
 9941SOL     OW30721   6.069   3.358   0.456
 9941SOL    HW130722   6.113   3.439   0.419
 9941SOL    HW230723   6.050   3.371   0.553
 9942SOL     OW30724   5.550   4.943   2.717
 9942SOL    HW130725   5.450   4.935   2.710
 9942SOL    HW230726   5.589   4.950   2.625
 9943SOL     OW30727   1.197   4.677   5.374
 9943SOL    HW130728   1.285   4.639   5.345
 9943SOL    HW230729   1.156   4.616   5.442
 9944SOL     OW30730   2.194   5.325   6.588
 9944SOL    HW130731   2.235   5.265   6.656
 9944SOL    HW230732   2.255   5.401   6.568
 9945SOL     OW30733   6.229   3.296   5.671
 9945SOL    HW130734   6.209   3.345   5.586
 9945SOL    HW230735   6.144   3.262   5.711
 9946SOL     OW30736   5.967   1.884   0.738
 9946SOL    HW130737   6.024   1.966   0.745
 9946SOL    HW230738   6.020   1.810   0.696
 9947SOL     OW30739   0.072   0.164   3.054
 9947SOL    HW130740   0.105   0.243   3.106
 9947SOL    HW230741   0.012   0.109   3.111
 9948SOL     OW30742   4.873   1.130   5.479
 9948SOL    HW130743   4.845   1.082   5.396
 9948SOL    HW230744   4.964   1.099   5.507
 9949SOL     OW30745   6.652   2.991   2.406
 9949SOL    HW130746   6.626   2.981   2.310
 9949SOL    HW230747   6.717   3.066   2.415
 9950SOL     OW30748   5.675   3.968   6.650
 9950SOL    HW130749   5.590   4.020   6.653
 9950SOL    HW230750   5.741   4.010   6.712
 9951SOL     OW30751   6.602   2.306   2.496
 9951SOL    HW130752   6.610   2.386   2.437
 9951SOL    HW230753   6.616   2.332   2.591
 9952SOL     OW30754   1.341   4.832   1.162
 9952SOL    HW130755   1.422   4.792   1.203
 9952SOL    HW230756   1.367   4.916   1.112
 9953SOL     OW30757   6.316   4.285   5.049
 9953SOL    HW130758   6.272   4.276   4.959
 9953SOL    HW230759   6.259   4.342   5.108
 9954SOL     OW30760   4.265   2.033   1.597
 9954SOL    HW130761   4.247   1.978   1.678
 9954SOL    HW230762   4.199   2.010   1.526
 9955SOL     OW30763   6.188   5.256   2.066
 9955SOL    HW130764   6.207   5.162   2.037
 9955SOL    HW230765   6.274   5.300   2.091
 9956SOL     OW30766   0.885   4.614   3.505
 9956SOL    HW130767   0.983   4.594   3.499
 9956SOL    HW230768   0.861   4.684   3.438
 9957SOL     OW30769   5.903   6.829   0.743
 9957SOL    HW130770   5.838   6.881   0.688
 9957SOL    HW230771   5.860   6.743   0.771
 9958SOL     OW30772   6.243   6.237   5.422
 9958SOL    HW130773   6.202   6.214   5.511
 9958SOL    HW230774   6.227   6.334   5.402
 9959SOL     OW30775   6.579   5.436   6.934
 9959SOL    HW130776   6.513   5.419   7.007
 9959SOL    HW230777   6.655   5.372   6.943
 9960SOL     OW30778   6.456   0.111   6.199
 9960SOL    HW130779   6.491   0.166   6.124
 9960SOL    HW230780   6.518   0.116   6.277
 9961SOL     OW30781   3.046   6.721   0.315
 9961SOL    HW130782   3.142   6.694   0.313
 9961SOL    HW230783   2.998   6.670   0.386
 9962SOL     OW30784   3.578   0.858   1.372
 9962SOL    HW130785   3.583   0.940   1.314
 9962SOL    HW230786   3.489   0.854   1.417
 9963SOL     OW30787   0.387   0.199   6.658
 9963SOL    HW130788   0.362   0.270   6.591
 9963SOL    HW230789   0.307   0.143   6.678
 9964SOL     OW30790   4.740   5.490   5.245
 9964SOL    HW130791   4.677   5.442   5.305
 9964SOL    HW230792   4.778   5.570   5.293
 9965SOL     OW30793   2.276   5.449   4.827
 9965SOL    HW130794   2.255   5.462   4.730
 9965SOL    HW230795   2.369   5.414   4.837
 9966SOL     OW30796   1.876   4.294   1.907
 9966SOL    HW130797   1.867   4.347   1.991
 9966SOL    HW230798   1.793   4.241   1.891
 9967SOL     OW30799   6.474   0.377   2.821
 9967SOL    HW130800   6.564   0.401   2.785
 9967SOL    HW230801   6.404   0.396   2.751
 9968SOL     OW30802   4.292   6.207   0.715
 9968SOL    HW130803   4.265   6.155   0.634
 9968SOL    HW230804   4.367   6.159   0.761
 9969SOL     OW30805   0.523   6.739   3.148
 9969SOL    HW130806   0.538   6.735   3.247
 9969SOL    HW230807   0.478   6.825   3.124
 9970SOL     OW30808   0.890   3.173   1.496
 9970SOL    HW130809   0.852   3.234   1.427
 9970SOL    HW230810   0.931   3.227   1.570
 9971SOL     OW30811   0.232   5.470   5.808
 9971SOL    HW130812   0.186   5.486   5.895
 9971SOL    HW230813   0.263   5.557   5.770
 9972SOL     OW30814   3.082   4.526   5.737
 9972SOL    HW130815   3.152   4.471   5.781
 9972SOL    HW230816   3.120   4.569   5.655
 9973SOL     OW30817   2.998   2.215   2.614
 9973SOL    HW130818   3.015   2.261   2.527
 9973SOL    HW230819   3.080   2.164   2.641
 9974SOL     OW30820   0.639   3.580   3.296
 9974SOL    HW130821   0.639   3.493   3.246
 9974SOL    HW230822   0.562   3.636   3.264
 9975SOL     OW30823   1.261   4.718   6.747
 9975SOL    HW130824   1.260   4.640   6.685
 9975SOL    HW230825   1.171   4.728   6.790
 9976SOL     OW30826   4.450   5.826   4.937
 9976SOL    HW130827   4.364   5.861   4.899
 9976SOL    HW230828   4.511   5.902   4.958
 9977SOL     OW30829   4.160   0.305   5.979
 9977SOL    HW130830   4.206   0.358   5.907
 9977SOL    HW230831   4.214   0.223   5.999
 9978SOL     OW30832   6.237   3.071   6.993
 9978SOL    HW130833   6.146   3.109   6.977
 9978SOL    HW230834   6.303   3.145   7.000
 9979SOL     OW30835   3.797   3.975   3.498
 9979SOL    HW130836   3.766   3.879   3.498
 9979SOL    HW230837   3.830   3.999   3.590
 9980SOL     OW30838   0.250   6.553   6.564
 9980SOL    HW130839   0.296   6.471   6.598
 9980SOL    HW230840   0.317   6.625   6.550
 9981SOL     OW30841   5.521   0.770   1.055
 9981SOL    HW130842   5.530   0.806   1.148
 9981SOL    HW230843   5.499   0.672   1.059
 9982SOL     OW30844   2.501   1.870   5.200
 9982SOL    HW130845   2.486   1.910   5.109
 9982SOL    HW230846   2.513   1.771   5.192
 9983SOL     OW30847   0.813   2.854   2.017
 9983SOL    HW130848   0.818   2.895   1.926
 9983SOL    HW230849   0.737   2.894   2.067
 9984SOL     OW30850   1.125   4.714   1.321
 9984SOL    HW130851   1.118   4.640   1.254
 9984SOL    HW230852   1.200   4.775   1.295
 9985SOL     OW30853   5.051   4.655   5.717
 9985SOL    HW130854   5.088   4.744   5.742
 9985SOL    HW230855   5.065   4.591   5.793
 9986SOL     OW30856   5.826   4.120   6.839
 9986SOL    HW130857   5.920   4.139   6.868
 9986SOL    HW230858   5.782   4.206   6.812
 9987SOL     OW30859   5.082   1.656   0.398
 9987SOL    HW130860   5.020   1.723   0.358
 9987SOL    HW230861   5.048   1.629   0.488
 9988SOL     OW30862   5.565   6.733   3.902
 9988SOL    HW130863   5.558   6.795   3.823
 9988SOL    HW230864   5.658   6.736   3.938
 9989SOL     OW30865   6.445   5.421   2.109
 9989SOL    HW130866   6.485   5.437   2.019
 9989SOL    HW230867   6.516   5.426   2.179
 9990SOL     OW30868   0.108   5.842   3.168
 9990SOL    HW130869   0.111   5.810   3.074
 9990SOL    HW230870   0.013   5.841   3.200
 9991SOL     OW30871   2.121   3.477   1.680
 9991SOL    HW130872   2.048   3.544   1.692
 9991SOL    HW230873   2.188   3.487   1.754
 9992SOL     OW30874   1.995   4.184   0.510
 9992SOL    HW130875   2.084   4.146   0.536
 9992SOL    HW230876   1.928   4.165   0.582
 9993SOL     OW30877   3.666   0.081   4.258
 9993SOL    HW130878   3.609   0.161   4.239
 9993SOL    HW230879   3.758   0.112   4.283
 9994SOL     OW30880   5.943   4.855   5.388
 9994SOL    HW130881   5.861   4.817   5.345
 9994SOL    HW230882   6.021   4.841   5.327
 9995SOL     OW30883   4.379   2.001   6.396
 9995SOL    HW130884   4.356   2.097   6.382
 9995SOL    HW230885   4.442   1.992   6.473
 9996SOL     OW30886   2.228   4.836   1.215
 9996SOL    HW130887   2.199   4.851   1.309
 9996SOL    HW230888   2.311   4.889   1.197
 9997SOL     OW30889   5.479   0.372   2.958
 9997SOL    HW130890   5.458   0.286   2.912
 9997SOL    HW230891   5.400   0.433   2.953
 9998SOL     OW30892   5.365   3.521   2.369
 9998SOL    HW130893   5.312   3.549   2.289
 9998SOL    HW230894   5.399   3.602   2.417
 9999SOL     OW30895   0.477   0.260   4.920
 9999SOL    HW130896   0.382   0.283   4.899
 9999SOL    HW230897   0.531   0.344   4.928
10000SOL     OW30898   4.415   3.180   1.686
10000SOL    HW130899   4.488   3.163   1.752
10000SOL    HW230900   4.448   3.244   1.616
10001SOL     OW30901   3.896   6.803   1.309
10001SOL    HW130902   3.904   6.704   1.323
10001SOL    HW230903   3.960   6.850   1.370
10002SOL     OW30904   2.158   6.593   3.175
10002SOL    HW130905   2.126   6.551   3.259
10002SOL    HW230906   2.080   6.633   3.125
10003SOL     OW30907   0.259   1.525   2.636
10003SOL    HW130908   0.183   1.583   2.663
10003SOL    HW230909   0.311   1.499   2.717
10004SOL     OW30910   7.014   2.738   3.220
10004SOL    HW130911   0.077   2.796   3.218
10004SOL    HW230912   0.003   2.666   3.151
10005SOL     OW30913   2.841   6.054   2.386
10005SOL    HW130914   2.755   6.030   2.431
10005SOL    HW230915   2.834   6.146   2.347
10006SOL     OW30916   5.610   1.916   6.107
10006SOL    HW130917   5.663   1.902   6.023
10006SOL    HW230918   5.535   1.850   6.109
10007SOL     OW30919   1.587   5.050   3.460
10007SOL    HW130920   1.652   4.994   3.511
10007SOL    HW230921   1.592   5.145   3.492
10008SOL     OW30922   3.974   0.834   5.998
10008SOL    HW130923   4.024   0.891   6.064
10008SOL    HW230924   4.033   0.759   5.967
10009SOL     OW30925   1.308   5.343   2.077
10009SOL    HW130926   1.393   5.336   2.025
10009SOL    HW230927   1.287   5.255   2.120
10010SOL     OW30928   2.059   4.962   0.738
10010SOL    HW130929   2.138   4.932   0.790
10010SOL    HW230930   1.976   4.945   0.791
10011SOL     OW30931   3.214   3.525   0.006
10011SOL    HW130932   3.236   3.569   0.093
10011SOL    HW230933   3.172   3.592   6.963
10012SOL     OW30934   5.904   1.705   3.039
10012SOL    HW130935   5.875   1.719   3.133
10012SOL    HW230936   6.004   1.709   3.034
10013SOL     OW30937   0.156   6.200   5.848
10013SOL    HW130938   0.240   6.160   5.884
10013SOL    HW230939   0.157   6.194   5.748
10014SOL     OW30940   1.407   1.076   3.090
10014SOL    HW130941   1.309   1.092   3.102
10014SOL    HW230942   1.432   1.091   2.995
10015SOL     OW30943   4.140   0.708   6.916
10015SOL    HW130944   4.119   0.676   7.008
10015SOL    HW230945   4.112   0.803   6.906
10016SOL     OW30946   2.798   1.011   4.809
10016SOL    HW130947   2.860   1.020   4.731
10016SOL    HW230948   2.717   1.068   4.794
10017SOL     OW30949   3.428   1.676   2.917
10017SOL    HW130950   3.387   1.662   3.007
10017SOL    HW230951   3.482   1.760   2.918
10018SOL     OW30952   0.272   4.814   5.264
10018SOL    HW130953   0.330   4.878   5.214
10018SOL    HW230954   0.324   4.776   5.341
10019SOL     OW30955   6.739   1.665   2.228
10019SOL    HW130956   6.792   1.668   2.313
10019SOL    HW230957   6.745   1.573   2.189
10020SOL     OW30958   6.609   1.023   3.088
10020SOL    HW130959   6.523   1.048   3.132
10020SOL    HW230960   6.682   1.084   3.121
10021SOL     OW30961   2.158   3.739   1.415
10021SOL    HW130962   2.193   3.647   1.396
10021SOL    HW230963   2.115   3.740   1.505
10022SOL     OW30964   1.095   6.756   6.193
10022SOL    HW130965   1.024   6.800   6.138
10022SOL    HW230966   1.161   6.711   6.132
10023SOL     OW30967   0.802   1.274   5.127
10023SOL    HW130968   0.765   1.302   5.039
10023SOL    HW230969   0.901   1.292   5.129
10024SOL     OW30970   2.014   4.254   3.500
10024SOL    HW130971   1.970   4.194   3.434
10024SOL    HW230972   2.015   4.209   3.590
10025SOL     OW30973   0.629   2.864   1.345
10025SOL    HW130974   0.605   2.952   1.385
10025SOL    HW230975   0.728   2.850   1.352
10026SOL     OW30976   6.590   1.055   4.451
10026SOL    HW130977   6.517   1.008   4.402
10026SOL    HW230978   6.571   1.153   4.454
10027SOL     OW30979   3.347   1.280   5.990
10027SOL    HW130980   3.292   1.336   5.929
10027SOL    HW230981   3.289   1.208   6.031
10028SOL     OW30982   3.736   6.639   2.091
10028SOL    HW130983   3.782   6.689   2.018
10028SOL    HW230984   3.795   6.637   2.172
10029SOL     OW30985   6.996   5.392   4.388
10029SOL    HW130986   6.945   5.456   4.330
10029SOL    HW230987   0.027   5.327   4.330
10030SOL     OW30988   3.121   0.015   4.266
10030SOL    HW130989   3.174   6.964   4.216
10030SOL    HW230990   3.067   6.989   4.336
10031SOL     OW30991   1.534   6.887   3.821
10031SOL    HW130992   1.464   6.942   3.775
10031SOL    HW230993   1.547   6.921   3.914
10032SOL     OW30994   2.850   5.910   4.678
10032SOL    HW130995   2.838   5.811   4.669
10032SOL    HW230996   2.921   5.929   4.745
10033SOL     OW30997   2.284   1.266   4.903
10033SOL    HW130998   2.381   1.274   4.926
10033SOL    HW230999   2.273   1.263   4.804
10034SOL     OW31000   2.457   1.116   1.986
10034SOL    HW131001   2.446   1.160   2.075
10034SOL    HW231002   2.524   1.167   1.931
10035SOL     OW31003   0.593   2.944   2.137
10035SOL    HW131004   0.628   3.010   2.203
10035SOL    HW231005   0.535   2.991   2.071
10036SOL     OW31006   0.516   1.512   0.201
10036SOL    HW131007   0.461   1.582   0.247
10036SOL    HW231008   0.613   1.534   0.210
10037SOL     OW31009   6.193   0.522   6.108
10037SOL    HW131010   6.240   0.553   6.191
10037SOL    HW231011   6.137   0.596   6.072
10038SOL     OW31012   4.730   0.021   6.725
10038SOL    HW131013   4.664   6.980   6.681
10038SOL    HW231014   4.819   0.012   6.680
10039SOL     OW31015   0.170   5.315   1.341
10039SOL    HW131016   0.166   5.339   1.438
10039SOL    HW231017   0.089   5.262   1.316
10040SOL     OW31018   2.924   0.546   0.511
10040SOL    HW131019   2.992   0.615   0.534
10040SOL    HW231020   2.845   0.590   0.469
10041SOL     OW31021   5.977   4.466   5.634
10041SOL    HW131022   5.965   4.439   5.538
10041SOL    HW231023   5.927   4.403   5.693
10042SOL     OW31024   6.299   0.744   5.015
10042SOL    HW131025   6.210   0.704   4.994
10042SOL    HW231026   6.339   0.696   5.093
10043SOL     OW31027   0.713   0.546   2.779
10043SOL    HW131028   0.617   0.521   2.763
10043SOL    HW231029   0.770   0.505   2.708
10044SOL     OW31030   3.159   2.320   6.798
10044SOL    HW131031   3.203   2.308   6.709
10044SOL    HW231032   3.229   2.335   6.868
10045SOL     OW31033   4.027   6.745   4.440
10045SOL    HW131034   4.008   6.647   4.456
10045SOL    HW231035   4.092   6.754   4.365
10046SOL     OW31036   6.737   2.152   1.403
10046SOL    HW131037   6.795   2.135   1.483
10046SOL    HW231038   6.660   2.210   1.429
10047SOL     OW31039   1.054   3.022   3.116
10047SOL    HW131040   0.963   3.061   3.128
10047SOL    HW231041   1.102   3.023   3.204
10048SOL     OW31042   3.367   2.132   1.852
10048SOL    HW131043   3.404   2.058   1.907
10048SOL    HW231044   3.438   2.200   1.833
10049SOL     OW31045   1.268   5.546   4.880
10049SOL    HW131046   1.212   5.464   4.868
10049SOL    HW231047   1.348   5.525   4.936
10050SOL     OW31048   5.946   1.228   5.363
10050SOL    HW131049   5.993   1.160   5.308
10050SOL    HW231050   5.860   1.255   5.318
10051SOL     OW31051   6.106   1.676   0.630
10051SOL    HW131052   6.199   1.713   0.626
10051SOL    HW231053   6.066   1.675   0.538
10052SOL     OW31054   1.851   5.250   0.986
10052SOL    HW131055   1.808   5.161   0.971
10052SOL    HW231056   1.904   5.275   0.905
10053SOL     OW31057   2.930   6.406   3.577
10053SOL    HW131058   2.882   6.452   3.502
10053SOL    HW231059   2.879   6.324   3.602
10054SOL     OW31060   4.625   4.574   3.751
10054SOL    HW131061   4.555   4.596   3.683
10054SOL    HW231062   4.592   4.502   3.811
10055SOL     OW31063   5.059   3.173   6.942
10055SOL    HW131064   4.960   3.175   6.930
10055SOL    HW231065   5.098   3.097   6.889
10056SOL     OW31066   4.839   3.826   3.101
10056SOL    HW131067   4.794   3.817   3.190
10056SOL    HW231068   4.899   3.748   3.086
10057SOL     OW31069   2.436   2.667   2.710
10057SOL    HW131070   2.404   2.748   2.758
10057SOL    HW231071   2.364   2.631   2.652
10058SOL     OW31072   1.088   5.012   4.100
10058SOL    HW131073   1.097   4.946   4.175
10058SOL    HW231074   1.046   5.096   4.135
10059SOL     OW31075   4.673   6.535   1.924
10059SOL    HW131076   4.662   6.634   1.912
10059SOL    HW231077   4.616   6.487   1.858
10060SOL     OW31078   2.345   2.355   2.144
10060SOL    HW131079   2.410   2.338   2.217
10060SOL    HW231080   2.379   2.315   2.058
10061SOL     OW31081   7.016   1.708   5.839
10061SOL    HW131082   6.983   1.796   5.804
10061SOL    HW231083   7.018   1.642   5.764
10062SOL     OW31084   5.181   5.942   3.053
10062SOL    HW131085   5.180   5.850   3.091
10062SOL    HW231086   5.186   5.938   2.953
10063SOL     OW31087   0.746   2.594   1.937
10063SOL    HW131088   0.648   2.596   1.917
10063SOL    HW231089   0.773   2.681   1.979
10064SOL     OW31090   4.963   4.941   5.548
10064SOL    HW131091   4.923   4.915   5.459
10064SOL    HW231092   5.019   4.867   5.583
10065SOL     OW31093   6.934   0.450   2.970
10065SOL    HW131094   6.974   0.464   2.880
10065SOL    HW231095   6.944   0.354   2.997
10066SOL     OW31096   6.940   0.639   3.998
10066SOL    HW131097   6.864   0.582   3.965
10066SOL    HW231098   6.952   0.624   4.096
10067SOL     OW31099   4.788   6.398   3.387
10067SOL    HW131100   4.865   6.366   3.331
10067SOL    HW231101   4.722   6.323   3.399
10068SOL     OW31102   5.233   3.388   5.357
10068SOL    HW131103   5.325   3.354   5.341
10068SOL    HW231104   5.186   3.329   5.422
10069SOL     OW31105   4.893   1.747   4.077
10069SOL    HW131106   4.825   1.700   4.022
10069SOL    HW231107   4.904   1.700   4.165
10070SOL     OW31108   1.366   0.285   4.316
10070SOL    HW131109   1.312   0.364   4.288
10070SOL    HW231110   1.355   0.271   4.415
10071SOL     OW31111   5.120   4.534   4.978
10071SOL    HW131112   5.092   4.467   5.046
10071SOL    HW231113   5.207   4.506   4.937
10072SOL     OW31114   1.050   6.450   3.936
10072SOL    HW131115   1.046   6.531   3.994
10072SOL    HW231116   1.137   6.402   3.952
10073SOL     OW31117   6.765   6.026   6.328
10073SOL    HW131118   6.710   5.966   6.270
10073SOL    HW231119   6.729   6.119   6.323
10074SOL     OW31120   2.007   0.157   4.766
10074SOL    HW131121   1.931   0.197   4.817
10074SOL    HW231122   2.091   0.207   4.787
10075SOL     OW31123   1.028   2.736   4.403
10075SOL    HW131124   1.018   2.650   4.353
10075SOL    HW231125   1.060   2.717   4.496
10076SOL     OW31126   6.094   6.894   3.683
10076SOL    HW131127   6.085   6.979   3.631
10076SOL    HW231128   6.169   6.840   3.645
10077SOL     OW31129   2.918   1.629   5.585
10077SOL    HW131130   2.930   1.726   5.560
10077SOL    HW231131   2.844   1.621   5.651
10078SOL     OW31132   5.261   6.420   5.240
10078SOL    HW131133   5.315   6.493   5.196
10078SOL    HW231134   5.289   6.412   5.335
10079SOL     OW31135   0.544   2.955   6.020
10079SOL    HW131136   0.603   2.956   5.939
10079SOL    HW231137   0.573   2.882   6.082
10080SOL     OW31138   1.365   2.818   5.492
10080SOL    HW131139   1.363   2.831   5.393
10080SOL    HW231140   1.410   2.731   5.513
10081SOL     OW31141   0.562   1.096   0.456
10081SOL    HW131142   0.611   1.009   0.450
10081SOL    HW231143   0.464   1.078   0.469
10082SOL     OW31144   6.667   0.553   0.440
10082SOL    HW131145   6.665   0.507   0.351
10082SOL    HW231146   6.753   0.531   0.487
10083SOL     OW31147   5.242   1.387   4.386
10083SOL    HW131148   5.338   1.375   4.411
10083SOL    HW231149   5.185   1.325   4.440
10084SOL     OW31150   2.416   0.415   6.276
10084SOL    HW131151   2.378   0.505   6.299
10084SOL    HW231152   2.507   0.427   6.237
10085SOL     OW31153   1.248   4.952   2.611
10085SOL    HW131154   1.218   5.044   2.588
10085SOL    HW231155   1.332   4.956   2.665
10086SOL     OW31156   0.012   3.037   1.955
10086SOL    HW131157   7.003   3.096   2.031
10086SOL    HW231158   6.979   3.062   1.873
10087SOL     OW31159   1.974   0.873   3.328
10087SOL    HW131160   2.066   0.902   3.301
10087SOL    HW231161   1.921   0.851   3.246
10088SOL     OW31162   5.621   0.190   4.750
10088SOL    HW131163   5.592   0.142   4.667
10088SOL    HW231164   5.721   0.197   4.752
10089SOL     OW31165   2.224   2.560   1.865
10089SOL    HW131166   2.223   2.571   1.965
10089SOL    HW231167   2.130   2.555   1.831
10090SOL     OW31168   0.782   5.452   2.203
10090SOL    HW131169   0.705   5.445   2.140
10090SOL    HW231170   0.797   5.547   2.227
10091SOL     OW31171   0.544   1.651   4.297
10091SOL    HW131172   0.505   1.572   4.345
10091SOL    HW231173   0.641   1.636   4.281
10092SOL     OW31174   2.005   2.839   5.721
10092SOL    HW131175   2.058   2.859   5.639
10092SOL    HW231176   1.969   2.746   5.715
10093SOL     OW31177   6.784   6.344   5.992
10093SOL    HW131178   6.785   6.297   6.080
10093SOL    HW231179   6.878   6.357   5.961
10094SOL     OW31180   1.396   0.318   1.834
10094SOL    HW131181   1.323   0.289   1.895
10094SOL    HW231182   1.421   0.413   1.853
10095SOL     OW31183   0.346   2.120   5.237
10095SOL    HW131184   0.391   2.125   5.148
10095SOL    HW231185   0.294   2.203   5.253
10096SOL     OW31186   6.809   5.548   2.638
10096SOL    HW131187   6.870   5.605   2.583
10096SOL    HW231188   6.714   5.573   2.620
10097SOL     OW31189   1.210   2.735   5.855
10097SOL    HW131190   1.124   2.769   5.895
10097SOL    HW231191   1.202   2.738   5.755
10098SOL     OW31192   3.497   5.414   6.519
10098SOL    HW131193   3.570   5.427   6.452
10098SOL    HW231194   3.507   5.481   6.593
10099SOL     OW31195   0.528   4.337   4.397
10099SOL    HW131196   0.566   4.424   4.364
10099SOL    HW231197   0.554   4.264   4.333
10100SOL     OW31198   4.940   0.170   5.699
10100SOL    HW131199   5.002   0.249   5.704
10100SOL    HW231200   4.992   0.086   5.715
10101SOL     OW31201   6.890   4.246   2.555
10101SOL    HW131202   6.955   4.306   2.603
10101SOL    HW231203   6.797   4.268   2.584
10102SOL     OW31204   3.947   0.950   4.076
10102SOL    HW131205   3.958   1.022   4.145
10102SOL    HW231206   4.034   0.905   4.060
10103SOL     OW31207   0.717   2.648   0.418
10103SOL    HW131208   0.640   2.702   0.453
10103SOL    HW231209   0.683   2.562   0.381
10104SOL     OW31210   2.333   6.066   5.646
10104SOL    HW131211   2.283   5.982   5.625
10104SOL    HW231212   2.382   6.097   5.565
10105SOL     OW31213   3.416   0.532   6.850
10105SOL    HW131214   3.354   0.602   6.883
10105SOL    HW231215   3.448   0.476   6.926
10106SOL     OW31216   4.510   5.365   1.012
10106SOL    HW131217   4.510   5.267   1.032
10106SOL    HW231218   4.563   5.414   1.081
10107SOL     OW31219   5.551   0.949   5.999
10107SOL    HW131220   5.537   0.985   5.907
10107SOL    HW231221   5.497   1.003   6.064
10108SOL     OW31222   5.024   6.303   6.226
10108SOL    HW131223   5.048   6.322   6.131
10108SOL    HW231224   5.098   6.253   6.270
10109SOL     OW31225   4.671   5.674   3.000
10109SOL    HW131226   4.679   5.733   2.920
10109SOL    HW231227   4.575   5.670   3.028
10110SOL     OW31228   3.348   1.879   5.894
10110SOL    HW131229   3.324   1.885   5.797
10110SOL    HW231230   3.348   1.970   5.934
10111SOL     OW31231   6.743   2.505   1.338
10111SOL    HW131232   6.762   2.594   1.380
10111SOL    HW231233   6.741   2.515   1.239
10112SOL     OW31234   4.515   3.466   6.114
10112SOL    HW131235   4.416   3.471   6.131
10112SOL    HW231236   4.532   3.471   6.016
10113SOL     OW31237   3.381   6.724   0.897
10113SOL    HW131238   3.388   6.818   0.930
10113SOL    HW231239   3.472   6.690   0.874
10114SOL     OW31240   4.840   1.469   1.887
10114SOL    HW131241   4.879   1.552   1.927
10114SOL    HW231242   4.747   1.455   1.923
10115SOL     OW31243   1.229   1.928   4.573
10115SOL    HW131244   1.245   2.019   4.612
10115SOL    HW231245   1.245   1.859   4.643
10116SOL     OW31246   0.291   0.479   0.886
10116SOL    HW131247   0.362   0.409   0.892
10116SOL    HW231248   0.221   0.461   0.954
10117SOL     OW31249   4.431   6.982   5.900
10117SOL    HW131250   4.461   0.045   5.852
10117SOL    HW231251   4.462   6.985   5.995
10118SOL     OW31252   5.916   5.353   2.471
10118SOL    HW131253   5.920   5.286   2.397
10118SOL    HW231254   5.889   5.307   2.556
10119SOL     OW31255   1.947   0.144   6.319
10119SOL    HW131256   1.995   0.059   6.297
10119SOL    HW231257   1.855   0.141   6.279
10120SOL     OW31258   5.687   3.823   3.516
10120SOL    HW131259   5.647   3.845   3.427
10120SOL    HW231260   5.779   3.864   3.522
10121SOL     OW31261   6.033   4.790   3.886
10121SOL    HW131262   6.000   4.730   3.958
10121SOL    HW231263   6.087   4.864   3.926
10122SOL     OW31264   5.257   2.658   0.635
10122SOL    HW131265   5.179   2.613   0.679
10122SOL    HW231266   5.289   2.601   0.559
10123SOL     OW31267   0.474   6.714   6.810
10123SOL    HW131268   0.376   6.698   6.805
10123SOL    HW231269   0.502   6.772   6.733
10124SOL     OW31270   3.052   4.019   0.756
10124SOL    HW131271   3.130   3.963   0.783
10124SOL    HW231272   2.992   3.966   0.696
10125SOL     OW31273   2.431   0.358   0.295
10125SOL    HW131274   2.404   0.452   0.275
10125SOL    HW231275   2.517   0.338   0.250
10126SOL     OW31276   5.960   5.283   6.043
10126SOL    HW131277   6.024   5.352   6.079
10126SOL    HW231278   5.968   5.278   5.944
10127SOL     OW31279   4.079   4.810   5.150
10127SOL    HW131280   4.045   4.779   5.239
10127SOL    HW231281   4.006   4.858   5.101
10128SOL     OW31282   1.090   1.332   1.210
10128SOL    HW131283   1.062   1.299   1.120
10128SOL    HW231284   1.141   1.259   1.257
10129SOL     OW31285   5.611   2.666   2.837
10129SOL    HW131286   5.655   2.579   2.813
10129SOL    HW231287   5.534   2.682   2.776
10130SOL     OW31288   6.049   5.889   1.366
10130SOL    HW131289   5.980   5.939   1.419
10130SOL    HW231290   6.013   5.868   1.276
10131SOL     OW31291   0.250   0.182   0.276
10131SOL    HW131292   0.347   0.168   0.259
10131SOL    HW231293   0.235   0.203   0.372
10132SOL     OW31294   2.387   6.727   2.654
10132SOL    HW131295   2.311   6.665   2.636
10132SOL    HW231296   2.435   6.748   2.569
10133SOL     OW31297   6.269   4.483   2.802
10133SOL    HW131298   6.270   4.580   2.823
10133SOL    HW231299   6.175   4.451   2.795
10134SOL     OW31300   0.390   1.430   1.689
10134SOL    HW131301   0.367   1.527   1.683
10134SOL    HW231302   0.322   1.376   1.639
10135SOL     OW31303   3.162   5.890   2.848
10135SOL    HW131304   3.137   5.926   2.938
10135SOL    HW231305   3.102   5.928   2.778
10136SOL     OW31306   6.240   6.485   2.570
10136SOL    HW131307   6.202   6.415   2.631
10136SOL    HW231308   6.263   6.445   2.482
10137SOL     OW31309   5.524   4.997   4.530
10137SOL    HW131310   5.499   5.017   4.624
10137SOL    HW231311   5.441   4.987   4.474
10138SOL     OW31312   6.293   2.997   5.833
10138SOL    HW131313   6.314   3.071   5.897
10138SOL    HW231314   6.221   2.939   5.871
10139SOL     OW31315   3.947   3.160   3.304
10139SOL    HW131316   3.933   3.143   3.401
10139SOL    HW231317   3.860   3.150   3.256
10140SOL     OW31318   1.084   4.914   4.473
10140SOL    HW131319   1.154   4.981   4.448
10140SOL    HW231320   1.018   4.956   4.535
10141SOL     OW31321   2.171   0.656   3.834
10141SOL    HW131322   2.186   0.753   3.819
10141SOL    HW231323   2.079   0.631   3.803
10142SOL     OW31324   5.172   5.768   4.517
10142SOL    HW131325   5.231   5.774   4.437
10142SOL    HW231326   5.078   5.787   4.491
10143SOL     OW31327   4.479   6.262   1.478
10143SOL    HW131328   4.467   6.360   1.466
10143SOL    HW231329   4.476   6.217   1.389
10144SOL     OW31330   2.690   4.679   2.749
10144SOL    HW131331   2.677   4.673   2.650
10144SOL    HW231332   2.742   4.762   2.770
10145SOL     OW31333   2.674   0.392   6.196
10145SOL    HW131334   2.719   0.326   6.256
10145SOL    HW231335   2.741   0.429   6.131
10146SOL     OW31336   4.609   5.018   4.307
10146SOL    HW131337   4.520   5.001   4.265
10146SOL    HW231338   4.652   4.931   4.330
10147SOL     OW31339   4.891   6.174   4.254
10147SOL    HW131340   4.895   6.263   4.301
10147SOL    HW231341   4.801   6.163   4.212
10148SOL     OW31342   6.543   5.594   0.894
10148SOL    HW131343   6.449   5.564   0.908
10148SOL    HW231344   6.594   5.524   0.843
10149SOL     OW31345   3.944   2.802   1.576
10149SOL    HW131346   3.933   2.807   1.477
10149SOL    HW231347   3.861   2.835   1.620
10150SOL     OW31348   5.603   4.329   0.683
10150SOL    HW131349   5.697   4.358   0.704
10150SOL    HW231350   5.552   4.319   0.768
10151SOL     OW31351   0.539   5.217   5.932
10151SOL    HW131352   0.619   5.171   5.971
10151SOL    HW231353   0.569   5.281   5.861
10152SOL     OW31354   0.776   5.678   4.104
10152SOL    HW131355   0.849   5.719   4.159
10152SOL    HW231356   0.807   5.668   4.010
10153SOL     OW31357   5.114   5.379   3.970
10153SOL    HW131358   5.192   5.434   3.942
10153SOL    HW231359   5.032   5.436   3.976
10154SOL     OW31360   6.653   5.980   5.835
10154SOL    HW131361   6.615   5.920   5.765
10154SOL    HW231362   6.595   6.061   5.845
10155SOL     OW31363   3.617   1.364   5.958
10155SOL    HW131364   3.525   1.324   5.964
10155SOL    HW231365   3.609   1.462   5.938
10156SOL     OW31366   5.511   0.179   2.489
10156SOL    HW131367   5.471   0.258   2.535
10156SOL    HW231368   5.562   0.209   2.409
10157SOL     OW31369   5.075   0.714   3.760
10157SOL    HW131370   5.122   0.690   3.675
10157SOL    HW231371   5.127   0.678   3.837
10158SOL     OW31372   4.596   3.102   6.046
10158SOL    HW131373   4.654   3.110   6.127
10158SOL    HW231374   4.501   3.120   6.071
10159SOL     OW31375   1.536   0.893   6.126
10159SOL    HW131376   1.563   0.987   6.144
10159SOL    HW231377   1.582   0.832   6.191
10160SOL     OW31378   0.381   5.932   3.941
10160SOL    HW131379   0.394   5.959   3.846
10160SOL    HW231380   0.458   5.966   3.996
10161SOL     OW31381   2.990   5.783   5.051
10161SOL    HW131382   3.059   5.760   5.119
10161SOL    HW231383   2.900   5.785   5.095
10162SOL     OW31384   3.222   2.820   6.377
10162SOL    HW131385   3.259   2.739   6.332
10162SOL    HW231386   3.271   2.902   6.346
10163SOL     OW31387   0.834   3.441   5.569
10163SOL    HW131388   0.760   3.471   5.631
10163SOL    HW231389   0.882   3.521   5.534
10164SOL     OW31390   1.663   2.487   6.274
10164SOL    HW131391   1.564   2.497   6.282
10164SOL    HW231392   1.708   2.565   6.319
10165SOL     OW31393   0.098   2.128   3.079
10165SOL    HW131394   0.058   2.087   3.161
10165SOL    HW231395   0.198   2.125   3.085
10166SOL     OW31396   0.590   1.095   2.381
10166SOL    HW131397   0.567   1.142   2.466
10166SOL    HW231398   0.566   1.153   2.303
10167SOL     OW31399   5.142   0.665   0.746
10167SOL    HW131400   5.075   0.718   0.798
10167SOL    HW231401   5.232   0.708   0.754
10168SOL     OW31402   6.696   4.747   4.634
10168SOL    HW131403   6.716   4.778   4.727
10168SOL    HW231404   6.603   4.774   4.609
10169SOL     OW31405   6.645   4.186   4.985
10169SOL    HW131406   6.580   4.257   4.958
10169SOL    HW231407   6.700   4.219   5.063
10170SOL     OW31408   1.456   4.481   5.027
10170SOL    HW131409   1.382   4.506   4.965
10170SOL    HW231410   1.538   4.460   4.974
10171SOL     OW31411   5.698   2.633   6.380
10171SOL    HW131412   5.623   2.697   6.363
10171SOL    HW231413   5.674   2.543   6.344
10172SOL     OW31414   4.730   0.609   4.478
10172SOL    HW131415   4.689   0.554   4.551
10172SOL    HW231416   4.826   0.628   4.501
10173SOL     OW31417   1.917   2.672   2.805
10173SOL    HW131418   1.886   2.690   2.898
10173SOL    HW231419   1.938   2.758   2.759
10174SOL     OW31420   6.703   4.247   1.255
10174SOL    HW131421   6.694   4.317   1.326
10174SOL    HW231422   6.648   4.273   1.175
10175SOL     OW31423   5.679   2.568   5.595
10175SOL    HW131424   5.680   2.491   5.660
10175SOL    HW231425   5.671   2.533   5.502
10176SOL     OW31426   2.394   3.327   0.809
10176SOL    HW131427   2.444   3.362   0.730
10176SOL    HW231428   2.441   3.353   0.893
10177SOL     OW31429   1.791   0.260   5.178
10177SOL    HW131430   1.814   0.291   5.270
10177SOL    HW231431   1.876   0.240   5.128
10178SOL     OW31432   5.536   3.107   4.859
10178SOL    HW131433   5.449   3.090   4.906
10178SOL    HW231434   5.553   3.035   4.793
10179SOL     OW31435   0.005   2.939   0.068
10179SOL    HW131436   6.935   2.987   0.070
10179SOL    HW231437   7.009   2.844   0.042
10180SOL     OW31438   2.065   6.667   6.060
10180SOL    HW131439   2.130   6.737   6.032
10180SOL    HW231440   1.976   6.709   6.078
10181SOL     OW31441   6.131   3.543   2.254
10181SOL    HW131442   6.091   3.456   2.283
10181SOL    HW231443   6.126   3.608   2.330
10182SOL     OW31444   4.281   1.672   0.651
10182SOL    HW131445   4.188   1.641   0.630
10182SOL    HW231446   4.335   1.675   0.567
10183SOL     OW31447   1.798   1.533   6.037
10183SOL    HW131448   1.877   1.497   5.988
10183SOL    HW231449   1.715   1.491   6.001
10184SOL     OW31450   4.771   0.349   0.018
10184SOL    HW131451   4.833   0.411   6.988
10184SOL    HW231452   4.707   0.308   6.970
10185SOL     OW31453   4.425   0.993   0.453
10185SOL    HW131454   4.346   1.027   0.402
10185SOL    HW231455   4.440   0.897   0.431
10186SOL     OW31456   4.793   2.292   2.896
10186SOL    HW131457   4.806   2.340   2.809
10186SOL    HW231458   4.764   2.198   2.877
10187SOL     OW31459   0.834   2.399   2.471
10187SOL    HW131460   0.858   2.402   2.568
10187SOL    HW231461   0.899   2.454   2.419
10188SOL     OW31462   4.096   5.368   0.399
10188SOL    HW131463   4.017   5.341   0.454
10188SOL    HW231464   4.115   5.465   0.413
10189SOL     OW31465   1.351   6.847   5.028
10189SOL    HW131466   1.396   6.822   5.114
10189SOL    HW231467   1.420   6.879   4.963
10190SOL     OW31468   5.634   2.859   6.915
10190SOL    HW131469   5.629   2.959   6.910
10190SOL    HW231470   5.621   2.821   6.823
10191SOL     OW31471   0.000   4.602   6.557
10191SOL    HW131472   0.069   4.624   6.627
10191SOL    HW231473   6.928   4.630   6.589
10192SOL     OW31474   3.565   1.729   0.066
10192SOL    HW131475   3.519   1.703   0.151
10192SOL    HW231476   3.664   1.729   0.080
10193SOL     OW31477   4.792   4.463   0.706
10193SOL    HW131478   4.781   4.363   0.704
10193SOL    HW231479   4.723   4.505   0.648
10194SOL     OW31480   5.068   2.495   5.005
10194SOL    HW131481   4.999   2.428   4.977
10194SOL    HW231482   5.034   2.546   5.084
10195SOL     OW31483   5.705   4.313   2.456
10195SOL    HW131484   5.775   4.250   2.488
10195SOL    HW231485   5.740   4.406   2.458
10196SOL     OW31486   0.358   1.856   4.374
10196SOL    HW131487   0.423   1.801   4.322
10196SOL    HW231488   0.355   1.948   4.336
10197SOL     OW31489   5.739   0.260   0.007
10197SOL    HW131490   5.748   0.360   0.001
10197SOL    HW231491   5.643   0.236   0.020
10198SOL     OW31492   4.253   0.093   3.080
10198SOL    HW131493   4.170   0.055   3.119
10198SOL    HW231494   4.291   0.028   3.013
10199SOL     OW31495   0.701   2.327   5.653
10199SOL    HW131496   0.605   2.349   5.672
10199SOL    HW231497   0.757   2.361   5.729
10200SOL     OW31498   5.407   2.396   1.884
10200SOL    HW131499   5.500   2.406   1.850
10200SOL    HW231500   5.349   2.358   1.812
10201SOL     OW31501   2.113   3.715   0.530
10201SOL    HW131502   2.077   3.647   0.466
10201SOL    HW231503   2.137   3.671   0.616
10202SOL     OW31504   5.256   0.606   3.548
10202SOL    HW131505   5.280   0.601   3.452
10202SOL    HW231506   5.230   0.515   3.582
10203SOL     OW31507   0.136   2.813   5.484
10203SOL    HW131508   0.130   2.910   5.461
10203SOL    HW231509   0.047   2.780   5.513
10204SOL     OW31510   5.197   4.408   6.412
10204SOL    HW131511   5.110   4.369   6.380
10204SOL    HW231512   5.194   4.507   6.403
10205SOL     OW31513   0.253   1.403   6.690
10205SOL    HW131514   0.285   1.372   6.600
10205SOL    HW231515   0.240   1.502   6.688
10206SOL     OW31516   1.736   1.928   4.424
10206SOL    HW131517   1.824   1.884   4.404
10206SOL    HW231518   1.712   1.990   4.350
10207SOL     OW31519   2.446   2.405   5.833
10207SOL    HW131520   2.376   2.475   5.814
10207SOL    HW231521   2.516   2.409   5.762
10208SOL     OW31522   6.825   0.172   5.877
10208SOL    HW131523   6.840   0.087   5.827
10208SOL    HW231524   6.886   0.176   5.956
10209SOL     OW31525   6.788   6.395   5.191
10209SOL    HW131526   6.802   6.310   5.242
10209SOL    HW231527   6.776   6.471   5.256
10210SOL     OW31528   3.706   0.841   1.806
10210SOL    HW131529   3.721   0.866   1.902
10210SOL    HW231530   3.770   0.891   1.748
10211SOL     OW31531   5.073   5.244   6.166
10211SOL    HW131532   5.078   5.181   6.243
10211SOL    HW231533   5.084   5.338   6.198
10212SOL     OW31534   0.441   0.740   6.844
10212SOL    HW131535   0.342   0.746   6.835
10212SOL    HW231536   0.465   0.661   6.901
10213SOL     OW31537   6.772   3.041   1.434
10213SOL    HW131538   6.822   3.053   1.348
10213SOL    HW231539   6.827   3.078   1.509
10214SOL     OW31540   1.431   2.734   0.213
10214SOL    HW131541   1.520   2.772   0.188
10214SOL    HW231542   1.422   2.642   0.173
10215SOL     OW31543   3.447   3.907   2.194
10215SOL    HW131544   3.528   3.856   2.164
10215SOL    HW231545   3.447   3.913   2.294
10216SOL     OW31546   0.162   6.610   1.902
10216SOL    HW131547   0.228   6.665   1.851
10216SOL    HW231548   0.111   6.668   1.965
10217SOL     OW31549   4.150   1.664   4.934
10217SOL    HW131550   4.060   1.709   4.936
10217SOL    HW231551   4.213   1.714   4.994
10218SOL     OW31552   0.972   2.731   3.052
10218SOL    HW131553   1.063   2.750   3.090
10218SOL    HW231554   0.949   2.802   2.985
10219SOL     OW31555   6.520   6.187   2.717
10219SOL    HW131556   6.439   6.180   2.659
10219SOL    HW231557   6.527   6.280   2.754
10220SOL     OW31558   3.476   3.470   6.897
10220SOL    HW131559   3.388   3.472   6.944
10220SOL    HW231560   3.523   3.557   6.911
10221SOL     OW31561   1.407   5.286   2.955
10221SOL    HW131562   1.315   5.261   2.985
10221SOL    HW231563   1.406   5.305   2.856
10222SOL     OW31564   3.075   3.745   3.564
10222SOL    HW131565   3.036   3.757   3.473
10222SOL    HW231566   3.009   3.699   3.623
10223SOL     OW31567   2.519   6.929   0.804
10223SOL    HW131568   2.471   6.842   0.816
10223SOL    HW231569   2.602   6.931   0.860
10224SOL     OW31570   0.041   3.137   3.052
10224SOL    HW131571   6.998   3.067   3.015
10224SOL    HW231572   0.086   3.102   3.134
10225SOL     OW31573   1.726   3.861   5.939
10225SOL    HW131574   1.752   3.947   5.895
10225SOL    HW231575   1.792   3.840   6.011
10226SOL     OW31576   4.282   4.288   6.994
10226SOL    HW131577   4.226   4.291   0.059
10226SOL    HW231578   4.343   4.368   6.991
10227SOL     OW31579   5.176   4.070   0.955
10227SOL    HW131580   5.211   4.137   0.890
10227SOL    HW231581   5.216   4.088   1.046
10228SOL     OW31582   5.523   0.528   0.300
10228SOL    HW131583   5.456   0.602   0.292
10228SOL    HW231584   5.487   0.457   0.360
10229SOL     OW31585   0.544   1.767   4.592
10229SOL    HW131586   0.503   1.787   4.504
10229SOL    HW231587   0.473   1.736   4.656
10230SOL     OW31588   6.649   6.113   1.614
10230SOL    HW131589   6.619   6.145   1.704
10230SOL    HW231590   6.697   6.026   1.625
10231SOL     OW31591   0.667   4.057   2.374
10231SOL    HW131592   0.752   4.108   2.389
10231SOL    HW231593   0.602   4.114   2.324
10232SOL     OW31594   4.630   4.700   2.415
10232SOL    HW131595   4.685   4.678   2.334
10232SOL    HW231596   4.690   4.711   2.494
10233SOL     OW31597   3.136   3.812   5.886
10233SOL    HW131598   3.103   3.719   5.875
10233SOL    HW231599   3.147   3.855   5.796
10234SOL     OW31600   0.590   0.823   2.264
10234SOL    HW131601   0.574   0.915   2.301
10234SOL    HW231602   0.594   0.757   2.338
10235SOL     OW31603   1.108   1.096   2.898
10235SOL    HW131604   1.199   1.115   2.862
10235SOL    HW231605   1.087   0.999   2.885
10236SOL     OW31606   0.671   0.806   2.887
10236SOL    HW131607   0.712   0.716   2.881
10236SOL    HW231608   0.651   0.840   2.795
10237SOL     OW31609   6.811   3.889   5.575
10237SOL    HW131610   6.895   3.892   5.521
10237SOL    HW231611   6.747   3.958   5.540
10238SOL     OW31612   3.065   6.874   1.335
10238SOL    HW131613   3.010   6.927   1.270
10238SOL    HW231614   3.077   6.927   1.419
10239SOL     OW31615   1.070   2.426   5.313
10239SOL    HW131616   1.076   2.392   5.407
10239SOL    HW231617   0.980   2.467   5.298
10240SOL     OW31618   1.957   6.070   1.385
10240SOL    HW131619   2.029   6.110   1.328
10240SOL    HW231620   1.892   6.142   1.411
10241SOL     OW31621   4.237   3.623   1.774
10241SOL    HW131622   4.282   3.704   1.738
10241SOL    HW231623   4.169   3.650   1.843
10242SOL     OW31624   0.203   3.414   1.295
10242SOL    HW131625   0.129   3.455   1.241
10242SOL    HW231626   0.290   3.453   1.265
10243SOL     OW31627   3.480   5.369   2.120
10243SOL    HW131628   3.542   5.292   2.107
10243SOL    HW231629   3.498   5.439   2.051
10244SOL     OW31630   2.381   5.250   1.615
10244SOL    HW131631   2.465   5.202   1.642
10244SOL    HW231632   2.317   5.252   1.691
10245SOL     OW31633   6.384   4.186   1.306
10245SOL    HW131634   6.449   4.249   1.348
10245SOL    HW231635   6.374   4.105   1.364
10246SOL     OW31636   3.697   3.369   3.605
10246SOL    HW131637   3.766   3.423   3.556
10246SOL    HW231638   3.611   3.420   3.610
10247SOL     OW31639   0.778   3.386   4.925
10247SOL    HW131640   0.800   3.469   4.875
10247SOL    HW231641   0.684   3.358   4.905
10248SOL     OW31642   0.403   1.464   4.435
10248SOL    HW131643   0.345   1.444   4.514
10248SOL    HW231644   0.446   1.379   4.403
10249SOL     OW31645   2.742   4.335   5.563
10249SOL    HW131646   2.805   4.329   5.640
10249SOL    HW231647   2.764   4.263   5.496
10250SOL     OW31648   3.023   2.882   0.398
10250SOL    HW131649   3.100   2.831   0.436
10250SOL    HW231650   3.019   2.973   0.439
10251SOL     OW31651   1.097   0.584   4.755
10251SOL    HW131652   1.093   0.518   4.680
10251SOL    HW231653   1.017   0.643   4.752
10252SOL     OW31654   5.025   4.411   6.094
10252SOL    HW131655   5.001   4.349   6.168
10252SOL    HW231656   5.096   4.370   6.037
10253SOL     OW31657   3.663   5.854   6.788
10253SOL    HW131658   3.637   5.760   6.812
10253SOL    HW231659   3.590   5.897   6.735
10254SOL     OW31660   6.422   1.381   6.461
10254SOL    HW131661   6.521   1.364   6.458
10254SOL    HW231662   6.393   1.390   6.556
10255SOL     OW31663   4.060   4.608   1.740
10255SOL    HW131664   4.118   4.689   1.734
10255SOL    HW231665   4.117   4.526   1.738
10256SOL     OW31666   2.720   1.495   4.688
10256SOL    HW131667   2.674   1.577   4.721
10256SOL    HW231668   2.816   1.515   4.669
10257SOL     OW31669   3.221   5.694   3.372
10257SOL    HW131670   3.290   5.764   3.390
10257SOL    HW231671   3.130   5.731   3.393
10258SOL     OW31672   2.923   1.734   2.355
10258SOL    HW131673   2.921   1.809   2.288
10258SOL    HW231674   2.894   1.650   2.311
10259SOL     OW31675   1.402   4.264   3.870
10259SOL    HW131676   1.461   4.183   3.875
10259SOL    HW231677   1.343   4.267   3.951
10260SOL     OW31678   0.460   0.523   3.435
10260SOL    HW131679   0.449   0.511   3.337
10260SOL    HW231680   0.447   0.435   3.481
10261SOL     OW31681   0.133   3.956   1.209
10261SOL    HW131682   0.034   3.964   1.195
10261SOL    HW231683   0.156   3.860   1.224
10262SOL     OW31684   3.819   0.729   0.051
10262SOL    HW131685   3.861   0.718   6.979
10262SOL    HW231686   3.891   0.733   0.121
10263SOL     OW31687   5.335   0.079   3.189
10263SOL    HW131688   5.425   0.120   3.200
10263SOL    HW231689   5.270   0.148   3.158
10264SOL     OW31690   6.654   0.612   6.109
10264SOL    HW131691   6.643   0.623   6.208
10264SOL    HW231692   6.752   0.607   6.087
10265SOL     OW31693   1.784   1.224   2.512
10265SOL    HW131694   1.876   1.193   2.538
10265SOL    HW231695   1.768   1.203   2.416
10266SOL     OW31696   2.734   3.852   1.323
10266SOL    HW131697   2.795   3.783   1.363
10266SOL    HW231698   2.704   3.916   1.394
10267SOL     OW31699   6.538   0.517   0.799
10267SOL    HW131700   6.506   0.440   0.744
10267SOL    HW231701   6.633   0.502   0.826
10268SOL     OW31702   3.196   5.467   2.568
10268SOL    HW131703   3.117   5.430   2.519
10268SOL    HW231704   3.280   5.444   2.519
10269SOL     OW31705   2.282   1.428   0.016
10269SOL    HW131706   2.378   1.401   0.029
10269SOL    HW231707   2.277   1.525   7.011
10270SOL     OW31708   2.508   0.047   3.877
10270SOL    HW131709   2.452   0.128   3.856
10270SOL    HW231710   2.555   0.017   3.794
10271SOL     OW31711   2.044   1.307   6.896
10271SOL    HW131712   1.999   1.264   6.975
10271SOL    HW231713   2.137   1.333   6.921
10272SOL     OW31714   5.723   6.495   5.029
10272SOL    HW131715   5.771   6.412   5.001
10272SOL    HW231716   5.757   6.525   5.118
10273SOL     OW31717   1.946   5.602   3.107
10273SOL    HW131718   1.852   5.566   3.103
10273SOL    HW231719   1.994   5.580   3.022
10274SOL     OW31720   0.958   3.875   5.338
10274SOL    HW131721   0.913   3.899   5.424
10274SOL    HW231722   0.899   3.902   5.262
10275SOL     OW31723   0.046   0.784   2.032
10275SOL    HW131724   6.978   0.822   1.997
10275SOL    HW231725   0.120   0.809   1.970
10276SOL     OW31726   3.136   4.804   5.484
10276SOL    HW131727   3.074   4.873   5.447
10276SOL    HW231728   3.160   4.827   5.578
10277SOL     OW31729   0.775   5.477   3.711
10277SOL    HW131730   0.794   5.447   3.805
10277SOL    HW231731   0.742   5.399   3.658
10278SOL     OW31732   6.378   6.921   4.573
10278SOL    HW131733   6.283   6.920   4.602
10278SOL    HW231734   6.384   6.950   4.478
10279SOL     OW31735   1.449   4.747   4.228
10279SOL    HW131736   1.381   4.751   4.154
10279SOL    HW231737   1.485   4.838   4.246
10280SOL     OW31738   6.467   5.405   0.666
10280SOL    HW131739   6.501   5.330   0.722
10280SOL    HW231740   6.370   5.393   0.649
10281SOL     OW31741   6.121   0.183   4.906
10281SOL    HW131742   6.141   0.265   4.960
10281SOL    HW231743   6.207   0.140   4.877
10282SOL     OW31744   4.630   2.694   3.087
10282SOL    HW131745   4.582   2.615   3.126
10282SOL    HW231746   4.725   2.694   3.119
10283SOL     OW31747   0.371   2.245   0.686
10283SOL    HW131748   0.415   2.169   0.734
10283SOL    HW231749   0.318   2.299   0.751
10284SOL     OW31750   0.692   4.809   5.018
10284SOL    HW131751   0.630   4.793   4.941
10284SOL    HW231752   0.764   4.741   5.018
10285SOL     OW31753   6.918   6.427   6.386
10285SOL    HW131754   6.939   6.494   6.457
10285SOL    HW231755   6.940   6.465   6.296
10286SOL     OW31756   2.975   1.104   2.075
10286SOL    HW131757   2.892   1.098   2.130
10286SOL    HW231758   3.055   1.109   2.136
10287SOL     OW31759   0.309   5.946   2.606
10287SOL    HW131760   0.323   5.986   2.516
10287SOL    HW231761   0.371   5.989   2.671
10288SOL     OW31762   4.041   6.014   4.264
10288SOL    HW131763   4.050   6.068   4.181
10288SOL    HW231764   3.979   5.938   4.248
10289SOL     OW31765   4.033   6.142   6.794
10289SOL    HW131766   4.087   6.211   6.745
10289SOL    HW231767   4.093   6.068   6.824
10290SOL     OW31768   3.150   3.431   2.387
10290SOL    HW131769   3.177   3.520   2.351
10290SOL    HW231770   3.231   3.377   2.408
10291SOL     OW31771   3.035   2.137   2.329
10291SOL    HW131772   3.123   2.107   2.366
10291SOL    HW231773   3.040   2.138   2.229
10292SOL     OW31774   0.129   0.403   5.723
10292SOL    HW131775   0.111   0.459   5.803
10292SOL    HW231776   0.227   0.387   5.715
10293SOL     OW31777   1.316   3.189   5.242
10293SOL    HW131778   1.337   3.273   5.292
10293SOL    HW231779   1.267   3.211   5.157
10294SOL     OW31780   1.596   6.783   1.877
10294SOL    HW131781   1.665   6.775   1.949
10294SOL    HW231782   1.640   6.802   1.790
10295SOL     OW31783   1.812   1.116   0.865
10295SOL    HW131784   1.878   1.121   0.790
10295SOL    HW231785   1.836   1.042   0.927
10296SOL     OW31786   6.504   2.608   5.247
10296SOL    HW131787   6.495   2.644   5.154
10296SOL    HW231788   6.597   2.623   5.280
10297SOL     OW31789   4.685   1.042   0.958
10297SOL    HW131790   4.640   1.002   0.878
10297SOL    HW231791   4.747   1.115   0.928
10298SOL     OW31792   0.962   1.808   1.750
10298SOL    HW131793   0.946   1.881   1.683
10298SOL    HW231794   1.035   1.749   1.717
10299SOL     OW31795   5.072   0.007   2.216
10299SOL    HW131796   5.014   6.945   2.229
10299SOL    HW231797   5.166   7.003   2.245
10300SOL     OW31798   1.189   2.823   0.849
10300SOL    HW131799   1.219   2.919   0.853
10300SOL    HW231800   1.124   2.805   0.922
10301SOL     OW31801   3.844   1.464   0.228
10301SOL    HW131802   3.860   1.439   0.133
10301SOL    HW231803   3.805   1.386   0.277
10302SOL     OW31804   3.465   6.002   5.693
10302SOL    HW131805   3.384   6.004   5.633
10302SOL    HW231806   3.544   5.973   5.640
10303SOL     OW31807   0.736   4.603   5.280
10303SOL    HW131808   0.670   4.573   5.212
10303SOL    HW231809   0.815   4.542   5.280
10304SOL     OW31810   5.126   6.287   1.512
10304SOL    HW131811   5.208   6.344   1.507
10304SOL    HW231812   5.103   6.253   1.421
10305SOL     OW31813   2.778   3.641   5.267
10305SOL    HW131814   2.760   3.622   5.364
10305SOL    HW231815   2.832   3.565   5.229
10306SOL     OW31816   4.303   0.882   1.058
10306SOL    HW131817   4.305   0.892   1.158
10306SOL    HW231818   4.322   0.971   1.016
10307SOL     OW31819   1.875   0.371   4.920
10307SOL    HW131820   1.805   0.375   4.849
10307SOL    HW231821   1.878   0.459   4.968
10308SOL     OW31822   2.757   4.682   1.692
10308SOL    HW131823   2.657   4.675   1.695
10308SOL    HW231824   2.797   4.624   1.764
10309SOL     OW31825   0.170   0.908   5.035
10309SOL    HW131826   0.085   0.931   5.082
10309SOL    HW231827   0.187   0.973   4.961
10310SOL     OW31828   3.519   4.010   6.177
10310SOL    HW131829   3.427   3.984   6.147
10310SOL    HW231830   3.537   3.969   6.266
10311SOL     OW31831   5.737   6.065   6.912
10311SOL    HW131832   5.729   6.161   6.940
10311SOL    HW231833   5.786   6.059   6.825
10312SOL     OW31834   3.211   6.948   2.473
10312SOL    HW131835   3.191   6.994   2.387
10312SOL    HW231836   3.231   6.852   2.456
10313SOL     OW31837   5.012   6.682   2.970
10313SOL    HW131838   4.983   6.646   3.059
10313SOL    HW231839   5.091   6.631   2.938
10314SOL     OW31840   0.960   6.784   0.755
10314SOL    HW131841   1.017   6.840   0.816
10314SOL    HW231842   1.020   6.728   0.696
10315SOL     OW31843   5.011   4.572   3.739
10315SOL    HW131844   4.939   4.607   3.799
10315SOL    HW231845   5.098   4.572   3.787
10316SOL     OW31846   1.347   1.844   0.431
10316SOL    HW131847   1.360   1.941   0.451
10316SOL    HW231848   1.434   1.802   0.407
10317SOL     OW31849   4.092   6.312   4.868
10317SOL    HW131850   4.077   6.270   4.958
10317SOL    HW231851   4.131   6.403   4.880
10318SOL     OW31852   6.391   6.973   0.188
10318SOL    HW131853   6.382   6.999   0.284
10318SOL    HW231854   6.488   6.978   0.161
10319SOL     OW31855   0.867   4.622   4.221
10319SOL    HW131856   0.854   4.720   4.237
10319SOL    HW231857   0.953   4.592   4.263
10320SOL     OW31858   6.397   0.103   2.696
10320SOL    HW131859   6.361   0.041   2.766
10320SOL    HW231860   6.463   0.165   2.738
10321SOL     OW31861   5.769   2.412   2.897
10321SOL    HW131862   5.752   2.314   2.908
10321SOL    HW231863   5.741   2.440   2.805
10322SOL     OW31864   4.593   4.436   4.918
10322SOL    HW131865   4.632   4.346   4.936
10322SOL    HW231866   4.522   4.455   4.986
10323SOL     OW31867   1.452   4.497   6.078
10323SOL    HW131868   1.474   4.578   6.023
10323SOL    HW231869   1.525   4.430   6.068
10324SOL     OW31870   2.912   3.334   3.059
10324SOL    HW131871   2.819   3.357   3.028
10324SOL    HW231872   2.975   3.338   2.981
10325SOL     OW31873   5.402   6.044   4.692
10325SOL    HW131874   5.371   6.123   4.745
10325SOL    HW231875   5.334   5.971   4.698
10326SOL     OW31876   5.492   3.626   0.173
10326SOL    HW131877   5.513   3.579   0.087
10326SOL    HW231878   5.435   3.706   0.155
10327SOL     OW31879   1.810   5.363   6.587
10327SOL    HW131880   1.719   5.379   6.547
10327SOL    HW231881   1.860   5.297   6.531
10328SOL     OW31882   5.673   2.327   2.107
10328SOL    HW131883   5.693   2.362   2.015
10328SOL    HW231884   5.600   2.382   2.148
10329SOL     OW31885   3.347   1.888   1.545
10329SOL    HW131886   3.432   1.933   1.573
10329SOL    HW231887   3.269   1.947   1.568
10330SOL     OW31888   5.076   6.902   1.612
10330SOL    HW131889   5.020   6.921   1.693
10330SOL    HW231890   5.156   6.962   1.612
10331SOL     OW31891   5.233   5.287   5.954
10331SOL    HW131892   5.181   5.283   6.039
10331SOL    HW231893   5.219   5.203   5.902
10332SOL     OW31894   1.840   1.884   6.492
10332SOL    HW131895   1.839   1.976   6.531
10332SOL    HW231896   1.748   1.844   6.498
10333SOL     OW31897   1.440   3.709   4.338
10333SOL    HW131898   1.530   3.720   4.380
10333SOL    HW231899   1.452   3.676   4.244
10334SOL     OW31900   3.330   1.181   4.408
10334SOL    HW131901   3.327   1.280   4.418
10334SOL    HW231902   3.295   1.155   4.318
10335SOL     OW31903   2.133   3.276   4.521
10335SOL    HW131904   2.106   3.316   4.608
10335SOL    HW231905   2.182   3.190   4.537
10336SOL     OW31906   5.675   6.354   3.956
10336SOL    HW131907   5.642   6.405   3.876
10336SOL    HW231908   5.597   6.328   4.013
10337SOL     OW31909   6.416   6.296   0.121
10337SOL    HW131910   6.452   6.321   0.031
10337SOL    HW231911   6.490   6.293   0.187
10338SOL     OW31912   0.987   6.501   1.827
10338SOL    HW131913   0.986   6.579   1.889
10338SOL    HW231914   0.931   6.521   1.747
10339SOL     OW31915   5.302   2.564   5.479
10339SOL    HW131916   5.322   2.662   5.469
10339SOL    HW231917   5.363   2.511   5.420
10340SOL     OW31918   2.769   4.432   6.218
10340SOL    HW131919   2.820   4.418   6.133
10340SOL    HW231920   2.829   4.473   6.287
10341SOL     OW31921   2.704   4.709   3.510
10341SOL    HW131922   2.709   4.782   3.442
10341SOL    HW231923   2.649   4.741   3.588
10342SOL     OW31924   0.781   1.052   3.665
10342SOL    HW131925   0.708   1.116   3.640
10342SOL    HW231926   0.740   0.964   3.690
10343SOL     OW31927   3.992   5.118   1.948
10343SOL    HW131928   3.912   5.058   1.940
10343SOL    HW231929   3.975   5.202   1.896
10344SOL     OW31930   5.062   6.757   6.484
10344SOL    HW131931   5.098   6.784   6.394
10344SOL    HW231932   5.108   6.810   6.555
10345SOL     OW31933   1.129   3.885   4.822
10345SOL    HW131934   1.204   3.930   4.773
10345SOL    HW231935   1.150   3.788   4.832
10346SOL     OW31936   0.506   5.956   0.258
10346SOL    HW131937   0.487   5.998   0.346
10346SOL    HW231938   0.504   5.856   0.268
10347SOL     OW31939   6.259   1.905   4.930
10347SOL    HW131940   6.229   1.905   5.026
10347SOL    HW231941   6.323   1.980   4.915
10348SOL     OW31942   0.471   5.175   0.897
10348SOL    HW131943   0.432   5.201   0.985
10348SOL    HW231944   0.569   5.193   0.897
10349SOL     OW31945   0.030   6.473   6.771
10349SOL    HW131946   0.004   6.380   6.745
10349SOL    HW231947   7.013   6.537   6.702
10350SOL     OW31948   4.085   0.433   6.208
10350SOL    HW131949   4.086   0.533   6.198
10350SOL    HW231950   4.097   0.391   6.118
10351SOL     OW31951   4.366   5.923   5.787
10351SOL    HW131952   4.457   5.956   5.813
10351SOL    HW231953   4.334   5.974   5.707
10352SOL     OW31954   4.114   5.221   6.288
10352SOL    HW131955   4.085   5.126   6.304
10352SOL    HW231956   4.045   5.267   6.232
10353SOL     OW31957   0.756   3.538   5.256
10353SOL    HW131958   0.767   3.446   5.219
10353SOL    HW231959   0.677   3.582   5.213
10354SOL     OW31960   5.270   1.925   0.548
10354SOL    HW131961   5.325   1.877   0.479
10354SOL    HW231962   5.198   1.865   0.581
10355SOL     OW31963   0.986   4.003   2.886
10355SOL    HW131964   1.040   3.932   2.931
10355SOL    HW231965   1.008   4.092   2.928
10356SOL     OW31966   0.308   2.733   4.965
10356SOL    HW131967   0.340   2.800   4.898
10356SOL    HW231968   0.348   2.644   4.943
10357SOL     OW31969   2.844   2.970   6.118
10357SOL    HW131970   2.868   2.902   6.188
10357SOL    HW231971   2.776   2.931   6.056
10358SOL     OW31972   0.501   0.625   2.433
10358SOL    HW131973   0.493   0.565   2.513
10358SOL    HW231974   0.527   0.570   2.353
10359SOL     OW31975   1.039   1.261   0.942
10359SOL    HW131976   0.976   1.184   0.940
10359SOL    HW231977   1.122   1.238   0.891
10360SOL     OW31978   6.993   4.831   3.781
10360SOL    HW131979   6.894   4.820   3.796
10360SOL    HW231980   0.002   4.925   3.802
10361SOL     OW31981   2.399   5.399   0.691
10361SOL    HW131982   2.443   5.364   0.608
10361SOL    HW231983   2.469   5.424   0.758
10362SOL     OW31984   1.043   4.513   5.551
10362SOL    HW131985   0.956   4.550   5.584
10362SOL    HW231986   1.089   4.464   5.624
10363SOL     OW31987   5.311   0.324   4.544
10363SOL    HW131988   5.380   0.365   4.483
10363SOL    HW231989   5.257   0.257   4.492
10364SOL     OW31990   1.415   4.148   0.750
10364SOL    HW131991   1.451   4.165   0.658
10364SOL    HW231992   1.487   4.111   0.808
10365SOL     OW31993   5.396   5.157   0.096
10365SOL    HW131994   5.470   5.091   0.105
10365SOL    HW231995   5.349   5.143   0.009
10366SOL     OW31996   4.256   6.860   4.283
10366SOL    HW131997   4.352   6.886   4.271
10366SOL    HW231998   4.239   6.773   4.237
10367SOL     OW31999   6.397   1.294   2.877
10367SOL    HW132000   6.481   1.243   2.858
10367SOL    HW232001   6.420   1.388   2.904
10368SOL     OW32002   2.290   0.074   1.254
10368SOL    HW132003   2.204   0.091   1.204
10368SOL    HW232004   2.343   0.005   1.204
10369SOL     OW32005   4.170   2.753   6.418
10369SOL    HW132006   4.255   2.787   6.378
10369SOL    HW232007   4.159   2.793   6.510
10370SOL     OW32008   3.024   0.734   5.591
10370SOL    HW132009   2.970   0.673   5.532
10370SOL    HW232010   3.121   0.707   5.585
10371SOL     OW32011   4.545   6.874   5.163
10371SOL    HW132012   4.567   6.868   5.261
10371SOL    HW232013   4.521   6.784   5.129
10372SOL     OW32014   0.395   0.786   3.576
10372SOL    HW132015   0.361   0.720   3.508
10372SOL    HW232016   0.460   0.849   3.531
10373SOL     OW32017   1.353   6.179   5.349
10373SOL    HW132018   1.346   6.088   5.392
10373SOL    HW232019   1.399   6.241   5.412
10374SOL     OW32020   3.521   1.602   3.316
10374SOL    HW132021   3.560   1.661   3.246
10374SOL    HW232022   3.425   1.626   3.331
10375SOL     OW32023   7.010   2.055   0.971
10375SOL    HW132024   6.954   2.101   1.040
10375SOL    HW232025   0.029   1.970   1.009
10376SOL     OW32026   6.004   0.459   4.194
10376SOL    HW132027   6.008   0.367   4.233
10376SOL    HW232028   5.958   0.455   4.105
10377SOL     OW32029   6.957   6.514   3.604
10377SOL    HW132030   6.985   6.422   3.629
10377SOL    HW232031   6.892   6.510   3.528
10378SOL     OW32032   5.918   6.398   5.756
10378SOL    HW132033   5.987   6.326   5.748
10378SOL    HW232034   5.910   6.447   5.669
10379SOL     OW32035   4.173   1.402   3.798
10379SOL    HW132036   4.228   1.469   3.848
10379SOL    HW232037   4.106   1.361   3.861
10380SOL     OW32038   3.484   0.338   4.160
10380SOL    HW132039   3.435   0.271   4.215
10380SOL    HW232040   3.427   0.420   4.149
10381SOL     OW32041   3.782   5.360   4.657
10381SOL    HW132042   3.847   5.285   4.666
10381SOL    HW232043   3.700   5.329   4.610
10382SOL     OW32044   0.169   5.389   1.606
10382SOL    HW132045   0.098   5.455   1.628
10382SOL    HW232046   0.258   5.434   1.608
10383SOL     OW32047   5.689   3.410   0.942
10383SOL    HW132048   5.643   3.496   0.961
10383SOL    HW232049   5.710   3.364   1.029
10384SOL     OW32050   5.481   0.905   6.845
10384SOL    HW132051   5.447   0.830   6.901
10384SOL    HW232052   5.512   0.869   6.757
10385SOL     OW32053   0.288   2.838   6.740
10385SOL    HW132054   0.273   2.937   6.748
10385SOL    HW232055   0.381   2.816   6.769
10386SOL     OW32056   0.170   1.887   5.984
10386SOL    HW132057   0.135   1.825   5.914
10386SOL    HW232058   0.188   1.836   6.068
10387SOL     OW32059   1.745   3.852   2.683
10387SOL    HW132060   1.781   3.759   2.682
10387SOL    HW232061   1.653   3.852   2.723
10388SOL     OW32062   1.523   4.729   2.357
10388SOL    HW132063   1.450   4.731   2.426
10388SOL    HW232064   1.532   4.820   2.316
10389SOL     OW32065   1.600   5.489   3.366
10389SOL    HW132066   1.550   5.412   3.404
10389SOL    HW232067   1.598   5.566   3.431
10390SOL     OW32068   1.946   3.484   3.387
10390SOL    HW132069   1.956   3.508   3.484
10390SOL    HW232070   2.016   3.531   3.333
10391SOL     OW32071   3.779   5.706   4.347
10391SOL    HW132072   3.860   5.683   4.400
10391SOL    HW232073   3.805   5.762   4.269
10392SOL     OW32074   6.881   5.589   5.880
10392SOL    HW132075   6.857   5.505   5.831
10392SOL    HW232076   6.842   5.667   5.832
10393SOL     OW32077   0.823   1.604   4.292
10393SOL    HW132078   0.878   1.685   4.313
10393SOL    HW232079   0.809   1.550   4.375
10394SOL     OW32080   2.893   0.241   0.860
10394SOL    HW132081   2.917   0.269   0.767
10394SOL    HW232082   2.794   0.229   0.868
10395SOL     OW32083   1.606   0.525   3.751
10395SOL    HW132084   1.599   0.454   3.681
10395SOL    HW232085   1.576   0.613   3.712
10396SOL     OW32086   0.409   0.522   4.996
10396SOL    HW132087   0.354   0.501   4.915
10396SOL    HW232088   0.410   0.621   5.010
10397SOL     OW32089   4.266   2.334   2.431
10397SOL    HW132090   4.280   2.430   2.405
10397SOL    HW232091   4.220   2.286   2.356
10398SOL     OW32092   6.842   2.675   2.216
10398SOL    HW132093   6.882   2.706   2.302
10398SOL    HW232094   6.915   2.663   2.148
10399SOL     OW32095   6.749   3.183   5.857
10399SOL    HW132096   6.661   3.230   5.860
10399SOL    HW232097   6.741   3.096   5.907
10400SOL     OW32098   1.789   5.185   2.695
10400SOL    HW132099   1.870   5.234   2.728
10400SOL    HW232100   1.741   5.144   2.773
10401SOL     OW32101   1.422   5.637   1.358
10401SOL    HW132102   1.392   5.564   1.296
10401SOL    HW232103   1.364   5.638   1.439
10402SOL     OW32104   1.122   2.029   4.343
10402SOL    HW132105   1.192   2.076   4.289
10402SOL    HW232106   1.163   1.992   4.426
10403SOL     OW32107   5.496   1.249   3.143
10403SOL    HW132108   5.445   1.316   3.090
10403SOL    HW232109   5.435   1.206   3.210
10404SOL     OW32110   6.384   0.325   4.529
10404SOL    HW132111   6.299   0.284   4.497
10404SOL    HW232112   6.367   0.421   4.554
10405SOL     OW32113   3.089   6.951   6.546
10405SOL    HW132114   3.165   6.900   6.587
10405SOL    HW232115   3.006   6.894   6.547
10406SOL     OW32116   1.195   6.430   4.785
10406SOL    HW132117   1.251   6.460   4.709
10406SOL    HW232118   1.172   6.509   4.843
10407SOL     OW32119   3.375   1.030   6.807
10407SOL    HW132120   3.303   1.086   6.766
10407SOL    HW232121   3.375   0.939   6.765
10408SOL     OW32122   3.114   0.146   2.848
10408SOL    HW132123   3.181   0.080   2.883
10408SOL    HW232124   3.031   0.142   2.904
10409SOL     OW32125   0.128   5.010   2.206
10409SOL    HW132126   0.222   4.977   2.209
10409SOL    HW232127   0.113   5.073   2.282
10410SOL     OW32128   5.294   5.812   0.543
10410SOL    HW132129   5.362   5.783   0.476
10410SOL    HW232130   5.340   5.839   0.627
10411SOL     OW32131   2.541   4.882   2.088
10411SOL    HW132132   2.540   4.944   2.167
10411SOL    HW232133   2.619   4.903   2.030
10412SOL     OW32134   0.643   3.275   6.272
10412SOL    HW132135   0.604   3.287   6.181
10412SOL    HW232136   0.708   3.199   6.270
10413SOL     OW32137   6.345   0.942   4.280
10413SOL    HW132138   6.256   0.969   4.316
10413SOL    HW232139   6.371   0.854   4.320
10414SOL     OW32140   5.627   6.053   5.409
10414SOL    HW132141   5.708   6.100   5.373
10414SOL    HW232142   5.656   5.980   5.471
10415SOL     OW32143   0.166   4.710   3.102
10415SOL    HW132144   0.136   4.658   3.182
10415SOL    HW232145   0.087   4.755   3.060
10416SOL     OW32146   5.041   0.610   0.285
10416SOL    HW132147   5.134   0.646   0.289
10416SOL    HW232148   5.041   0.514   0.312
10417SOL     OW32149   4.643   4.682   4.698
10417SOL    HW132150   4.655   4.726   4.609
10417SOL    HW232151   4.584   4.603   4.688
10418SOL     OW32152   5.831   3.222   0.411
10418SOL    HW132153   5.852   3.128   0.437
10418SOL    HW232154   5.885   3.285   0.467
10419SOL     OW32155   1.132   0.064   4.765
10419SOL    HW132156   1.218   0.089   4.810
10419SOL    HW232157   1.104   6.991   4.794
10420SOL     OW32158   6.504   4.324   3.809
10420SOL    HW132159   6.417   4.360   3.843
10420SOL    HW232160   6.519   4.355   3.715
10421SOL     OW32161   0.259   3.490   4.125
10421SOL    HW132162   0.184   3.425   4.114
10421SOL    HW232163   0.287   3.494   4.221
10422SOL     OW32164   6.008   3.180   5.780
10422SOL    HW132165   5.983   3.244   5.854
10422SOL    HW232166   5.995   3.086   5.812
10423SOL     OW32167   2.509   5.589   1.854
10423SOL    HW132168   2.592   5.533   1.861
10423SOL    HW232169   2.515   5.649   1.774
10424SOL     OW32170   4.767   0.736   1.945
10424SOL    HW132171   4.808   0.758   2.034
10424SOL    HW232172   4.687   0.793   1.930
10425SOL     OW32173   0.338   4.392   0.507
10425SOL    HW132174   0.415   4.340   0.468
10425SOL    HW232175   0.282   4.331   0.563
10426SOL     OW32176   6.730   1.949   0.123
10426SOL    HW132177   6.810   1.998   0.090
10426SOL    HW232178   6.648   2.006   0.111
10427SOL     OW32179   6.150   0.206   4.397
10427SOL    HW132180   6.056   0.224   4.428
10427SOL    HW232181   6.149   0.187   4.298
10428SOL     OW32182   1.676   0.667   4.644
10428SOL    HW132183   1.775   0.659   4.636
10428SOL    HW232184   1.652   0.725   4.722
10429SOL     OW32185   1.868   4.670   1.827
10429SOL    HW132186   1.942   4.722   1.870
10429SOL    HW232187   1.906   4.596   1.772
10430SOL     OW32188   3.163   0.752   4.354
10430SOL    HW132189   3.194   0.792   4.441
10430SOL    HW232190   3.150   0.825   4.287
10431SOL     OW32191   4.362   2.274   3.471
10431SOL    HW132192   4.396   2.341   3.537
10431SOL    HW232193   4.369   2.312   3.379
10432SOL     OW32194   0.998   4.478   0.921
10432SOL    HW132195   0.949   4.427   0.850
10432SOL    HW232196   1.034   4.415   0.989
10433SOL     OW32197   3.246   6.381   4.596
10433SOL    HW132198   3.218   6.447   4.527
10433SOL    HW232199   3.310   6.315   4.557
10434SOL     OW32200   4.402   2.049   0.579
10434SOL    HW132201   4.424   1.972   0.639
10434SOL    HW232202   4.337   2.019   0.509
10435SOL     OW32203   2.748   1.503   1.549
10435SOL    HW132204   2.686   1.448   1.493
10435SOL    HW232205   2.824   1.446   1.579
10436SOL     OW32206   1.416   3.895   5.396
10436SOL    HW132207   1.476   3.972   5.416
10436SOL    HW232208   1.341   3.925   5.336
10437SOL     OW32209   6.752   6.870   5.005
10437SOL    HW132210   6.733   6.797   4.940
10437SOL    HW232211   6.847   6.900   4.995
10438SOL     OW32212   6.833   5.878   6.530
10438SOL    HW132213   6.795   5.943   6.465
10438SOL    HW232214   6.928   5.858   6.506
10439SOL     OW32215   5.595   5.242   5.098
10439SOL    HW132216   5.635   5.320   5.050
10439SOL    HW232217   5.660   5.166   5.098
10440SOL     OW32218   6.385   2.566   1.636
10440SOL    HW132219   6.449   2.491   1.624
10440SOL    HW232220   6.294   2.530   1.655
10441SOL     OW32221   5.252   1.397   5.919
10441SOL    HW132222   5.165   1.431   5.882
10441SOL    HW232223   5.325   1.461   5.895
10442SOL     OW32224   2.067   0.831   5.789
10442SOL    HW132225   2.123   0.757   5.826
10442SOL    HW232226   2.071   0.829   5.689
10443SOL     OW32227   0.587   0.922   0.139
10443SOL    HW132228   0.668   0.980   0.148
10443SOL    HW232229   0.529   0.957   0.066
10444SOL     OW32230   4.381   5.349   3.744
10444SOL    HW132231   4.290   5.366   3.706
10444SOL    HW232232   4.379   5.264   3.797
10445SOL     OW32233   1.355   3.924   3.698
10445SOL    HW132234   1.438   3.906   3.751
10445SOL    HW232235   1.354   3.865   3.617
10446SOL     OW32236   2.771   4.920   4.947
10446SOL    HW132237   2.672   4.929   4.948
10446SOL    HW232238   2.796   4.824   4.966
10447SOL     OW32239   1.587   2.021   2.941
10447SOL    HW132240   1.628   1.930   2.938
10447SOL    HW232241   1.498   2.019   2.895
10448SOL     OW32242   0.998   4.861   2.736
10448SOL    HW132243   0.951   4.934   2.784
10448SOL    HW232244   1.088   4.893   2.706
10449SOL     OW32245   3.783   5.166   4.148
10449SOL    HW132246   3.838   5.098   4.098
10449SOL    HW232247   3.700   5.123   4.182
10450SOL     OW32248   0.211   2.247   4.505
10450SOL    HW132249   0.128   2.304   4.504
10450SOL    HW232250   0.208   2.182   4.428
10451SOL     OW32251   2.192   1.775   5.077
10451SOL    HW132252   2.216   1.680   5.056
10451SOL    HW232253   2.267   1.835   5.048
10452SOL     OW32254   7.016   2.420   4.484
10452SOL    HW132255   6.923   2.426   4.521
10452SOL    HW232256   0.039   2.511   4.482
10453SOL     OW32257   2.984   5.963   4.154
10453SOL    HW132258   3.011   6.005   4.242
10453SOL    HW232259   3.064   5.919   4.113
10454SOL     OW32260   6.831   1.423   6.814
10454SOL    HW132261   6.841   1.514   6.773
10454SOL    HW232262   6.887   1.417   6.896
10455SOL     OW32263   0.853   5.778   2.824
10455SOL    HW132264   0.787   5.757   2.896
10455SOL    HW232265   0.945   5.761   2.857
10456SOL     OW32266   1.038   5.404   6.071
10456SOL    HW132267   1.129   5.378   6.040
10456SOL    HW232268   1.008   5.485   6.022
10457SOL     OW32269   4.578   1.572   1.053
10457SOL    HW132270   4.549   1.525   0.970
10457SOL    HW232271   4.591   1.669   1.034
10458SOL     OW32272   1.741   6.701   0.014
10458SOL    HW132273   1.724   6.800   0.015
10458SOL    HW232274   1.801   6.677   0.091
10459SOL     OW32275   4.861   6.117   0.894
10459SOL    HW132276   4.851   6.211   0.861
10459SOL    HW232277   4.945   6.078   0.857
10460SOL     OW32278   6.691   1.069   6.242
10460SOL    HW132279   6.781   1.048   6.205
10460SOL    HW232280   6.628   0.995   6.222
10461SOL     OW32281   6.807   3.897   5.875
10461SOL    HW132282   6.858   3.862   5.797
10461SOL    HW232283   6.816   3.996   5.880
10462SOL     OW32284   4.338   3.770   0.275
10462SOL    HW132285   4.317   3.868   0.274
10462SOL    HW232286   4.289   3.725   0.200
10463SOL     OW32287   4.760   2.773   4.992
10463SOL    HW132288   4.731   2.802   5.083
10463SOL    HW232289   4.837   2.829   4.963
10464SOL     OW32290   6.350   4.777   1.838
10464SOL    HW132291   6.268   4.835   1.843
10464SOL    HW232292   6.323   4.683   1.814
10465SOL     OW32293   5.256   4.312   0.785
10465SOL    HW132294   5.194   4.279   0.715
10465SOL    HW232295   5.217   4.392   0.830
10466SOL     OW32296   6.155   3.841   5.839
10466SOL    HW132297   6.168   3.835   5.938
10466SOL    HW232298   6.236   3.803   5.793
10467SOL     OW32299   0.600   3.470   6.962
10467SOL    HW132300   0.623   3.523   6.881
10467SOL    HW232301   0.506   3.491   6.990
10468SOL     OW32302   1.082   4.213   3.854
10468SOL    HW132303   1.174   4.181   3.876
10468SOL    HW232304   1.050   4.167   3.771
10469SOL     OW32305   1.139   0.909   3.730
10469SOL    HW132306   1.216   0.850   3.753
10469SOL    HW232307   1.167   1.005   3.732
10470SOL     OW32308   2.711   3.983   1.578
10470SOL    HW132309   2.798   3.935   1.590
10470SOL    HW232310   2.638   3.930   1.619
10471SOL     OW32311   2.146   4.474   6.015
10471SOL    HW132312   2.205   4.548   6.047
10471SOL    HW232313   2.067   4.465   6.076
10472SOL     OW32314   3.646   5.227   6.014
10472SOL    HW132315   3.745   5.246   6.018
10472SOL    HW232316   3.615   5.197   6.104
10473SOL     OW32317   6.029   5.489   0.608
10473SOL    HW132318   6.087   5.430   0.552
10473SOL    HW232319   6.083   5.563   0.646
10474SOL     OW32320   6.254   5.927   5.115
10474SOL    HW132321   6.285   6.022   5.117
10474SOL    HW232322   6.154   5.925   5.108
10475SOL     OW32323   0.096   6.016   1.629
10475SOL    HW132324   0.040   6.090   1.664
10475SOL    HW232325   0.042   5.960   1.566
10476SOL     OW32326   5.025   6.518   1.634
10476SOL    HW132327   5.069   6.446   1.581
10476SOL    HW232328   5.095   6.581   1.668
10477SOL     OW32329   6.925   5.943   3.571
10477SOL    HW132330   7.012   5.908   3.538
10477SOL    HW232331   6.939   5.999   3.653
10478SOL     OW32332   6.745   1.006   6.969
10478SOL    HW132333   6.802   1.035   0.028
10478SOL    HW232334   6.740   0.906   6.966
10479SOL     OW32335   6.876   4.408   2.966
10479SOL    HW132336   6.897   4.396   3.063
10479SOL    HW232337   6.787   4.369   2.945
10480SOL     OW32338   2.364   0.887   3.272
10480SOL    HW132339   2.366   0.806   3.214
10480SOL    HW232340   2.406   0.866   3.360
10481SOL     OW32341   6.516   0.603   1.865
10481SOL    HW132342   6.445   0.644   1.922
10481SOL    HW232343   6.482   0.594   1.771
10482SOL     OW32344   4.690   4.238   4.470
10482SOL    HW132345   4.636   4.248   4.553
10482SOL    HW232346   4.767   4.178   4.487
10483SOL     OW32347   6.029   0.666   6.523
10483SOL    HW132348   6.009   0.732   6.595
10483SOL    HW232349   6.014   0.573   6.556
10484SOL     OW32350   6.188   0.390   1.962
10484SOL    HW132351   6.095   0.424   1.975
10484SOL    HW232352   6.253   0.467   1.969
10485SOL     OW32353   5.577   3.358   6.127
10485SOL    HW132354   5.641   3.392   6.196
10485SOL    HW232355   5.619   3.367   6.036
10486SOL     OW32356   6.119   3.252   2.688
10486SOL    HW132357   6.075   3.168   2.720
10486SOL    HW232358   6.185   3.230   2.617
10487SOL     OW32359   3.789   6.813   2.864
10487SOL    HW132360   3.832   6.892   2.820
10487SOL    HW232361   3.860   6.753   2.900
10488SOL     OW32362   3.947   4.050   6.309
10488SOL    HW132363   4.006   4.105   6.251
10488SOL    HW232364   3.998   4.022   6.391
10489SOL     OW32365   1.837   5.344   5.193
10489SOL    HW132366   1.900   5.274   5.227
10489SOL    HW232367   1.888   5.428   5.173
10490SOL     OW32368   5.924   0.078   4.728
10490SOL    HW132369   5.969   0.163   4.753
10490SOL    HW232370   5.910   0.022   4.809
10491SOL     OW32371   6.633   5.777   4.886
10491SOL    HW132372   6.628   5.683   4.852
10491SOL    HW232373   6.543   5.821   4.875
10492SOL     OW32374   5.264   3.918   5.779
10492SOL    HW132375   5.278   3.968   5.694
10492SOL    HW232376   5.322   3.837   5.780
10493SOL     OW32377   3.407   1.653   0.297
10493SOL    HW132378   3.370   1.703   0.375
10493SOL    HW232379   3.340   1.583   0.268
10494SOL     OW32380   5.302   1.593   5.358
10494SOL    HW132381   5.334   1.687   5.358
10494SOL    HW232382   5.343   1.543   5.281
10495SOL     OW32383   1.036   0.186   6.699
10495SOL    HW132384   1.078   0.102   6.735
10495SOL    HW232385   0.947   0.164   6.660
10496SOL     OW32386   6.742   6.630   5.338
10496SOL    HW132387   6.675   6.702   5.320
10496SOL    HW232388   6.813   6.665   5.399
10497SOL     OW32389   2.202   1.230   6.650
10497SOL    HW132390   2.292   1.259   6.683
10497SOL    HW232391   2.142   1.310   6.645
10498SOL     OW32392   3.128   5.451   5.488
10498SOL    HW132393   3.058   5.443   5.418
10498SOL    HW232394   3.218   5.461   5.444
10499SOL     OW32395   3.195   5.627   2.977
10499SOL    HW132396   3.150   5.642   3.065
10499SOL    HW232397   3.206   5.714   2.929
10500SOL     OW32398   2.255   1.714   6.941
10500SOL    HW132399   2.210   1.781   7.000
10500SOL    HW232400   2.353   1.734   6.937
10501SOL     OW32401   1.695   3.655   3.280
10501SOL    HW132402   1.677   3.564   3.317
10501SOL    HW232403   1.632   3.674   3.205
10502SOL     OW32404   3.073   6.728   4.878
10502SOL    HW132405   3.151   6.724   4.940
10502SOL    HW232406   3.028   6.817   4.886
10503SOL     OW32407   2.539   3.243   6.743
10503SOL    HW132408   2.558   3.180   6.817
10503SOL    HW232409   2.505   3.193   6.663
10504SOL     OW32410   1.945   3.449   0.480
10504SOL    HW132411   1.882   3.411   0.412
10504SOL    HW232412   2.022   3.387   0.493
10505SOL     OW32413   0.405   5.994   0.018
10505SOL    HW132414   0.308   5.971   0.009
10505SOL    HW232415   0.438   5.964   0.108
10506SOL     OW32416   0.020   5.124   5.512
10506SOL    HW132417   6.969   5.102   5.581
10506SOL    HW232418   0.065   5.210   5.536
10507SOL     OW32419   2.941   1.073   3.501
10507SOL    HW132420   2.913   1.144   3.438
10507SOL    HW232421   2.863   1.043   3.556
10508SOL     OW32422   5.438   5.326   2.998
10508SOL    HW132423   5.412   5.416   2.961
10508SOL    HW232424   5.384   5.307   3.080
10509SOL     OW32425   2.301   1.039   5.425
10509SOL    HW132426   2.344   1.118   5.469
10509SOL    HW232427   2.345   1.021   5.337
10510SOL     OW32428   5.760   0.432   6.521
10510SOL    HW132429   5.735   0.524   6.549
10510SOL    HW232430   5.754   0.424   6.421
10511SOL     OW32431   6.849   2.652   1.725
10511SOL    HW132432   6.944   2.682   1.718
10511SOL    HW232433   6.791   2.728   1.754
10512SOL     OW32434   2.223   0.257   6.640
10512SOL    HW132435   2.230   0.356   6.631
10512SOL    HW232436   2.314   0.217   6.627
10513SOL     OW32437   0.264   2.458   0.853
10513SOL    HW132438   0.263   2.394   0.930
10513SOL    HW232439   0.242   2.550   0.885
10514SOL     OW32440   1.924   3.019   1.426
10514SOL    HW132441   1.857   3.088   1.453
10514SOL    HW232442   1.903   2.932   1.471
10515SOL     OW32443   0.397   3.217   4.978
10515SOL    HW132444   0.429   3.250   5.066
10515SOL    HW232445   0.308   3.172   4.989
10516SOL     OW32446   2.569   6.890   0.522
10516SOL    HW132447   2.544   6.899   0.618
10516SOL    HW232448   2.665   6.913   0.509
10517SOL     OW32449   0.460   2.499   3.765
10517SOL    HW132450   0.552   2.498   3.805
10517SOL    HW232451   0.454   2.427   3.696
10518SOL     OW32452   0.714   6.460   3.082
10518SOL    HW132453   0.696   6.519   3.003
10518SOL    HW232454   0.636   6.400   3.097
10519SOL     OW32455   3.904   2.867   5.564
10519SOL    HW132456   3.847   2.819   5.498
10519SOL    HW232457   3.907   2.814   5.649
10520SOL     OW32458   3.068   4.707   6.614
10520SOL    HW132459   3.052   4.712   6.712
10520SOL    HW232460   3.119   4.625   6.592
10521SOL     OW32461   6.483   5.273   2.614
10521SOL    HW132462   6.493   5.369   2.641
10521SOL    HW232463   6.531   5.258   2.528
10522SOL     OW32464   6.175   6.786   2.458
10522SOL    HW132465   6.198   6.700   2.502
10522SOL    HW232466   6.113   6.839   2.517
10523SOL     OW32467   5.807   6.555   6.389
10523SOL    HW132468   5.898   6.589   6.414
10523SOL    HW232469   5.805   6.456   6.401
10524SOL     OW32470   5.042   1.136   5.044
10524SOL    HW132471   5.045   1.129   5.143
10524SOL    HW232472   4.988   1.060   5.007
10525SOL     OW32473   2.153   6.901   5.225
10525SOL    HW132474   2.087   6.851   5.281
10525SOL    HW232475   2.109   6.981   5.185
10526SOL     OW32476   4.459   5.849   2.638
10526SOL    HW132477   4.435   5.756   2.665
10526SOL    HW232478   4.396   5.881   2.567
10527SOL     OW32479   2.115   2.649   4.247
10527SOL    HW132480   2.029   2.680   4.287
10527SOL    HW232481   2.167   2.599   4.315
10528SOL     OW32482   5.910   4.609   6.008
10528SOL    HW132483   5.860   4.561   6.080
10528SOL    HW232484   5.966   4.681   6.048
10529SOL     OW32485   6.886   5.812   4.826
10529SOL    HW132486   6.790   5.804   4.852
10529SOL    HW232487   6.929   5.722   4.830
10530SOL     OW32488   1.485   1.578   4.978
10530SOL    HW132489   1.501   1.645   4.906
10530SOL    HW232490   1.521   1.489   4.950
10531SOL     OW32491   2.560   2.509   4.657
10531SOL    HW132492   2.539   2.575   4.585
10531SOL    HW232493   2.634   2.449   4.627
10532SOL     OW32494   3.433   3.340   4.289
10532SOL    HW132495   3.515   3.364   4.238
10532SOL    HW232496   3.396   3.422   4.333
10533SOL     OW32497   3.704   0.562   6.162
10533SOL    HW132498   3.773   0.598   6.225
10533SOL    HW232499   3.711   0.462   6.158
10534SOL     OW32500   5.860   4.297   1.960
10534SOL    HW132501   5.826   4.266   2.050
10534SOL    HW232502   5.794   4.271   1.890
10535SOL     OW32503   0.290   1.078   1.708
10535SOL    HW132504   0.365   1.080   1.642
10535SOL    HW232505   0.221   1.145   1.682
10536SOL     OW32506   5.663   5.954   3.289
10536SOL    HW132507   5.692   5.866   3.326
10536SOL    HW232508   5.565   5.951   3.269
10537SOL     OW32509   6.182   5.398   1.782
10537SOL    HW132510   6.100   5.392   1.725
10537SOL    HW232511   6.159   5.374   1.876
10538SOL     OW32512   4.404   3.448   6.953
10538SOL    HW132513   4.362   3.517   7.013
10538SOL    HW232514   4.347   3.437   6.872
10539SOL     OW32515   1.035   2.779   4.976
10539SOL    HW132516   1.105   2.719   5.015
10539SOL    HW232517   1.075   2.831   4.900
10540SOL     OW32518   3.635   0.881   0.623
10540SOL    HW132519   3.637   0.921   0.715
10540SOL    HW232520   3.719   0.829   0.608
10541SOL     OW32521   3.218   2.387   1.700
10541SOL    HW132522   3.203   2.302   1.651
10541SOL    HW232523   3.146   2.400   1.768
10542SOL     OW32524   1.663   2.047   0.489
10542SOL    HW132525   1.582   2.100   0.516
10542SOL    HW232526   1.634   1.969   0.433
10543SOL     OW32527   2.492   0.440   4.315
10543SOL    HW132528   2.566   0.392   4.362
10543SOL    HW232529   2.521   0.464   4.222
10544SOL     OW32530   0.255   2.029   1.093
10544SOL    HW132531   0.263   1.989   1.184
10544SOL    HW232532   0.190   2.105   1.095
10545SOL     OW32533   3.958   1.366   2.956
10545SOL    HW132534   3.865   1.389   2.986
10545SOL    HW232535   3.987   1.280   2.999
10546SOL     OW32536   4.755   0.849   5.621
10546SOL    HW132537   4.776   0.759   5.583
10546SOL    HW232538   4.718   0.908   5.549
10547SOL     OW32539   4.675   6.196   1.945
10547SOL    HW132540   4.600   6.226   1.885
10547SOL    HW232541   4.758   6.245   1.921
10548SOL     OW32542   4.561   4.133   5.262
10548SOL    HW132543   4.615   4.071   5.205
10548SOL    HW232544   4.603   4.223   5.262
10549SOL     OW32545   0.686   1.521   1.781
10549SOL    HW132546   0.763   1.457   1.772
10549SOL    HW232547   0.654   1.546   1.689
10550SOL     OW32548   4.560   0.136   5.174
10550SOL    HW132549   4.484   0.191   5.208
10550SOL    HW232550   4.546   0.040   5.198
10551SOL     OW32551   1.681   3.048   6.358
10551SOL    HW132552   1.673   2.997   6.444
10551SOL    HW232553   1.776   3.077   6.345
10552SOL     OW32554   3.281   1.403   5.318
10552SOL    HW132555   3.209   1.393   5.388
10552SOL    HW232556   3.355   1.458   5.355
10553SOL     OW32557   2.635   4.582   6.530
10553SOL    HW132558   2.583   4.635   6.464
10553SOL    HW232559   2.597   4.596   6.622
10554SOL     OW32560   6.102   3.465   6.272
10554SOL    HW132561   6.123   3.368   6.263
10554SOL    HW232562   6.124   3.512   6.187
10555SOL     OW32563   3.271   2.460   1.325
10555SOL    HW132564   3.312   2.369   1.326
10555SOL    HW232565   3.317   2.518   1.392
10556SOL     OW32566   1.558   4.631   3.942
10556SOL    HW132567   1.562   4.728   3.918
10556SOL    HW232568   1.529   4.621   4.037
10557SOL     OW32569   5.589   1.553   3.112
10557SOL    HW132570   5.644   1.478   3.076
10557SOL    HW232571   5.539   1.597   3.038
10558SOL     OW32572   5.695   5.865   5.603
10558SOL    HW132573   5.665   5.873   5.698
10558SOL    HW232574   5.786   5.823   5.600
10559SOL     OW32575   4.277   2.815   1.292
10559SOL    HW132576   4.353   2.753   1.271
10559SOL    HW232577   4.307   2.884   1.357
10560SOL     OW32578   0.004   2.012   4.135
10560SOL    HW132579   0.060   1.931   4.124
10560SOL    HW232580   0.007   2.066   4.050
10561SOL     OW32581   2.185   3.821   6.467
10561SOL    HW132582   2.151   3.865   6.384
10561SOL    HW232583   2.275   3.860   6.490
10562SOL     OW32584   4.618   1.871   0.685
10562SOL    HW132585   4.565   1.910   0.760
10562SOL    HW232586   4.661   1.786   0.715
10563SOL     OW32587   1.377   2.688   2.654
10563SOL    HW132588   1.465   2.733   2.670
10563SOL    HW232589   1.326   2.738   2.585
10564SOL     OW32590   6.927   1.811   2.473
10564SOL    HW132591   6.986   1.735   2.445
10564SOL    HW232592   6.964   1.897   2.438
10565SOL     OW32593   5.196   1.691   4.982
10565SOL    HW132594   5.257   1.624   4.941
10565SOL    HW232595   5.249   1.766   5.021
10566SOL     OW32596   4.960   5.524   6.901
10566SOL    HW132597   4.909   5.507   6.817
10566SOL    HW232598   5.037   5.461   6.906
10567SOL     OW32599   2.572   5.665   4.771
10567SOL    HW132600   2.499   5.711   4.721
10567SOL    HW232601   2.645   5.639   4.708
10568SOL     OW32602   3.522   0.664   3.451
10568SOL    HW132603   3.425   0.644   3.462
10568SOL    HW232604   3.561   0.687   3.540
10569SOL     OW32605   6.508   2.180   3.814
10569SOL    HW132606   6.538   2.090   3.846
10569SOL    HW232607   6.574   2.249   3.843
10570SOL     OW32608   0.975   3.843   1.026
10570SOL    HW132609   0.881   3.854   0.992
10570SOL    HW232610   1.005   3.749   1.012
10571SOL     OW32611   6.708   6.692   4.812
10571SOL    HW132612   6.744   6.687   4.719
10571SOL    HW232613   6.770   6.643   4.874
10572SOL     OW32614   6.431   3.701   2.275
10572SOL    HW132615   6.511   3.759   2.260
10572SOL    HW232616   6.455   3.627   2.338
10573SOL     OW32617   6.284   5.189   5.377
10573SOL    HW132618   6.276   5.170   5.279
10573SOL    HW232619   6.266   5.106   5.429
10574SOL     OW32620   0.817   2.134   2.406
10574SOL    HW132621   0.824   2.233   2.416
10574SOL    HW232622   0.868   2.089   2.479
10575SOL     OW32623   7.010   6.666   6.224
10575SOL    HW132624   6.971   6.678   6.133
10575SOL    HW232625   6.950   6.707   6.292
10576SOL     OW32626   0.913   5.755   3.381
10576SOL    HW132627   0.814   5.770   3.382
10576SOL    HW232628   0.932   5.660   3.404
10577SOL     OW32629   0.046   2.768   6.141
10577SOL    HW132630   6.965   2.779   6.151
10577SOL    HW232631   0.072   2.785   6.046
10578SOL     OW32632   5.005   0.790   5.243
10578SOL    HW132633   4.964   0.725   5.180
10578SOL    HW232634   5.090   0.825   5.204
10579SOL     OW32635   5.680   6.350   1.259
10579SOL    HW132636   5.708   6.358   1.355
10579SOL    HW232637   5.761   6.344   1.201
10580SOL     OW32638   0.753   5.369   0.087
10580SOL    HW132639   0.687   5.407   0.021
10580SOL    HW232640   0.807   5.444   0.125
10581SOL     OW32641   4.180   2.301   2.996
10581SOL    HW132642   4.206   2.324   2.902
10581SOL    HW232643   4.250   2.241   3.035
10582SOL     OW32644   3.588   4.423   6.607
10582SOL    HW132645   3.599   4.334   6.651
10582SOL    HW232646   3.499   4.462   6.632
10583SOL     OW32647   4.933   1.281   1.177
10583SOL    HW132648   4.883   1.196   1.196
10583SOL    HW232649   4.894   1.355   1.231
10584SOL     OW32650   5.441   6.753   1.536
10584SOL    HW132651   5.404   6.837   1.496
10584SOL    HW232652   5.374   6.715   1.599
10585SOL     OW32653   2.798   4.550   6.845
10585SOL    HW132654   2.859   4.629   6.854
10585SOL    HW232655   2.850   4.472   6.811
10586SOL     OW32656   4.969   2.245   1.515
10586SOL    HW132657   4.974   2.279   1.421
10586SOL    HW232658   4.976   2.322   1.578
10587SOL     OW32659   0.128   2.986   0.323
10587SOL    HW132660   0.191   3.064   0.318
10587SOL    HW232661   0.110   2.952   0.232
10588SOL     OW32662   1.567   5.311   3.586
10588SOL    HW132663   1.509   5.268   3.655
10588SOL    HW232664   1.663   5.303   3.614
10589SOL     OW32665   6.058   0.944   4.363
10589SOL    HW132666   6.068   0.914   4.268
10589SOL    HW232667   5.970   0.990   4.374
10590SOL     OW32668   1.313   0.284   5.131
10590SOL    HW132669   1.279   0.285   5.037
10590SOL    HW232670   1.245   0.326   5.191
10591SOL     OW32671   1.421   2.279   1.665
10591SOL    HW132672   1.390   2.206   1.604
10591SOL    HW232673   1.349   2.299   1.732
10592SOL     OW32674   5.063   1.212   6.218
10592SOL    HW132675   5.145   1.255   6.180
10592SOL    HW232676   5.066   1.113   6.201
10593SOL     OW32677   1.625   3.832   2.305
10593SOL    HW132678   1.710   3.783   2.284
10593SOL    HW232679   1.577   3.786   2.380
10594SOL     OW32680   1.136   1.587   4.538
10594SOL    HW132681   1.134   1.624   4.446
10594SOL    HW232682   1.054   1.532   4.554
10595SOL     OW32683   1.575   5.643   4.563
10595SOL    HW132684   1.552   5.641   4.466
10595SOL    HW232685   1.595   5.551   4.595
10596SOL     OW32686   2.921   1.132   1.335
10596SOL    HW132687   2.912   1.198   1.259
10596SOL    HW232688   2.915   1.039   1.299
10597SOL     OW32689   1.503   1.078   3.812
10597SOL    HW132690   1.591   1.088   3.764
10597SOL    HW232691   1.518   1.032   3.900
10598SOL     OW32692   2.771   0.751   0.881
10598SOL    HW132693   2.751   0.679   0.947
10598SOL    HW232694   2.722   0.733   0.796
10599SOL     OW32695   5.069   0.256   6.101
10599SOL    HW132696   4.997   0.195   6.066
10599SOL    HW232697   5.112   0.214   6.180
10600SOL     OW32698   1.731   3.121   4.865
10600SOL    HW132699   1.699   3.132   4.959
10600SOL    HW232700   1.652   3.114   4.804
10601SOL     OW32701   3.959   6.019   5.292
10601SOL    HW132702   3.962   5.929   5.336
10601SOL    HW232703   3.959   6.090   5.363
10602SOL     OW32704   4.732   2.385   1.786
10602SOL    HW132705   4.745   2.393   1.687
10602SOL    HW232706   4.641   2.416   1.810
10603SOL     OW32707   0.652   5.721   5.356
10603SOL    HW132708   0.744   5.682   5.366
10603SOL    HW232709   0.587   5.649   5.334
10604SOL     OW32710   0.345   4.354   6.277
10604SOL    HW132711   0.413   4.343   6.350
10604SOL    HW232712   0.280   4.426   6.303
10605SOL     OW32713   1.233   5.527   6.454
10605SOL    HW132714   1.135   5.515   6.438
10605SOL    HW232715   1.279   5.554   6.370
10606SOL     OW32716   1.241   1.301   1.965
10606SOL    HW132717   1.322   1.259   1.923
10606SOL    HW232718   1.262   1.329   2.058
10607SOL     OW32719   6.005   3.790   6.827
10607SOL    HW132720   5.918   3.739   6.829
10607SOL    HW232721   6.031   3.807   6.733
10608SOL     OW32722   5.503   6.164   2.759
10608SOL    HW132723   5.508   6.072   2.721
10608SOL    HW232724   5.533   6.162   2.854
10609SOL     OW32725   4.083   6.448   2.803
10609SOL    HW132726   4.079   6.459   2.704
10609SOL    HW232727   4.175   6.417   2.829
10610SOL     OW32728   2.187   4.414   5.038
10610SOL    HW132729   2.164   4.359   4.958
10610SOL    HW232730   2.201   4.354   5.117
10611SOL     OW32731   4.874   2.113   5.858
10611SOL    HW132732   4.860   2.108   5.957
10611SOL    HW232733   4.895   2.207   5.832
10612SOL     OW32734   2.560   0.376   1.700
10612SOL    HW132735   2.494   0.427   1.645
10612SOL    HW232736   2.638   0.435   1.722
10613SOL     OW32737   1.233   6.496   6.877
10613SOL    HW132738   1.143   6.527   6.845
10613SOL    HW232739   1.282   6.574   6.916
10614SOL     OW32740   0.509   1.016   2.952
10614SOL    HW132741   0.575   0.941   2.949
10614SOL    HW232742   0.419   0.982   2.925
10615SOL     OW32743   0.264   6.587   5.765
10615SOL    HW132744   0.190   6.552   5.708
10615SOL    HW232745   0.228   6.611   5.856
10616SOL     OW32746   3.685   5.794   1.774
10616SOL    HW132747   3.653   5.818   1.682
10616SOL    HW232748   3.691   5.877   1.830
10617SOL     OW32749   6.541   1.776   6.686
10617SOL    HW132750   6.444   1.793   6.705
10617SOL    HW232751   6.582   1.731   6.765
10618SOL     OW32752   6.408   3.944   0.830
10618SOL    HW132753   6.339   3.875   0.811
10618SOL    HW232754   6.443   3.932   0.922
10619SOL     OW32755   0.113   3.368   3.319
10619SOL    HW132756   0.147   3.426   3.392
10619SOL    HW232757   0.104   3.274   3.351
10620SOL     OW32758   1.500   5.206   3.842
10620SOL    HW132759   1.460   5.296   3.861
10620SOL    HW232760   1.428   5.137   3.845
10621SOL     OW32761   3.831   0.675   0.585
10621SOL    HW132762   3.787   0.620   0.514
10621SOL    HW232763   3.850   0.617   0.665
10622SOL     OW32764   3.868   2.065   0.473
10622SOL    HW132765   3.893   2.135   0.540
10622SOL    HW232766   3.881   2.101   0.381
10623SOL     OW32767   0.468   1.259   4.258
10623SOL    HW132768   0.384   1.296   4.218
10623SOL    HW232769   0.539   1.253   4.188
10624SOL     OW32770   2.639   1.445   4.245
10624SOL    HW132771   2.544   1.457   4.217
10624SOL    HW232772   2.698   1.500   4.187
10625SOL     OW32773   1.091   2.873   1.164
10625SOL    HW132774   1.106   2.970   1.179
10625SOL    HW232775   1.152   2.820   1.223
10626SOL     OW32776   0.695   2.509   3.126
10626SOL    HW132777   0.671   2.475   3.035
10626SOL    HW232778   0.791   2.488   3.146
10627SOL     OW32779   3.951   5.504   4.464
10627SOL    HW132780   3.920   5.454   4.545
10627SOL    HW232781   3.964   5.439   4.388
10628SOL     OW32782   6.876   6.552   5.001
10628SOL    HW132783   6.835   6.490   5.068
10628SOL    HW232784   6.966   6.582   5.033
10629SOL     OW32785   2.932   4.360   6.676
10629SOL    HW132786   2.908   4.315   6.590
10629SOL    HW232787   3.031   4.369   6.683
10630SOL     OW32788   5.535   1.437   1.677
10630SOL    HW132789   5.451   1.489   1.659
10630SOL    HW232790   5.511   1.347   1.714
10631SOL     OW32791   1.380   0.039   4.217
10631SOL    HW132792   1.477   0.017   4.204
10631SOL    HW232793   1.372   0.126   4.266
10632SOL     OW32794   6.603   2.656   0.013
10632SOL    HW132795   6.516   2.649   0.062
10632SOL    HW232796   6.585   2.668   6.934
10633SOL     OW32797   1.420   5.043   6.854
10633SOL    HW132798   1.370   5.130   6.846
10633SOL    HW232799   1.451   5.032   6.949
10634SOL     OW32800   3.462   6.682   2.040
10634SOL    HW132801   3.444   6.734   1.957
10634SOL    HW232802   3.560   6.679   2.057
10635SOL     OW32803   0.961   0.551   1.199
10635SOL    HW132804   1.012   0.609   1.263
10635SOL    HW232805   0.864   0.552   1.225
10636SOL     OW32806   5.047   1.993   6.933
10636SOL    HW132807   5.123   2.052   6.959
10636SOL    HW232808   4.991   1.972   7.013
10637SOL     OW32809   3.282   3.789   6.469
10637SOL    HW132810   3.368   3.793   6.419
10637SOL    HW232811   3.225   3.867   6.443
10638SOL     OW32812   6.643   1.186   5.689
10638SOL    HW132813   6.581   1.167   5.765
10638SOL    HW232814   6.614   1.270   5.643
10639SOL     OW32815   3.515   1.962   4.868
10639SOL    HW132816   3.422   1.930   4.887
10639SOL    HW232817   3.513   2.031   4.796
10640SOL     OW32818   4.689   6.545   0.688
10640SOL    HW132819   4.620   6.615   0.707
10640SOL    HW232820   4.716   6.550   0.592
10641SOL     OW32821   3.280   6.647   6.856
10641SOL    HW132822   3.374   6.618   6.872
10641SOL    HW232823   3.228   6.639   6.940
10642SOL     OW32824   0.471   5.821   1.717
10642SOL    HW132825   0.503   5.762   1.643
10642SOL    HW232826   0.545   5.837   1.782
10643SOL     OW32827   3.458   3.451   5.813
10643SOL    HW132828   3.432   3.485   5.723
10643SOL    HW232829   3.376   3.421   5.862
10644SOL     OW32830   3.986   1.236   5.833
10644SOL    HW132831   4.004   1.334   5.833
10644SOL    HW232832   4.073   1.186   5.827
10645SOL     OW32833   1.864   0.595   3.672
10645SOL    HW132834   1.796   0.568   3.740
10645SOL    HW232835   1.891   0.515   3.618
10646SOL     OW32836   6.637   5.257   6.401
10646SOL    HW132837   6.674   5.241   6.492
10646SOL    HW232838   6.578   5.338   6.403
10647SOL     OW32839   6.829   5.999   1.028
10647SOL    HW132840   6.907   5.946   1.061
10647SOL    HW232841   6.817   5.984   0.930
10648SOL     OW32842   4.881   4.001   6.429
10648SOL    HW132843   4.880   3.932   6.357
10648SOL    HW232844   4.822   3.971   6.504
10649SOL     OW32845   6.737   5.083   6.220
10649SOL    HW132846   6.698   5.161   6.268
10649SOL    HW232847   6.836   5.095   6.211
10650SOL     OW32848   1.870   6.936   5.769
10650SOL    HW132849   1.938   6.863   5.760
10650SOL    HW232850   1.846   6.947   5.866
10651SOL     OW32851   1.737   1.019   5.548
10651SOL    HW132852   1.791   1.102   5.533
10651SOL    HW232853   1.709   1.015   5.644
10652SOL     OW32854   4.906   0.211   0.219
10652SOL    HW132855   4.867   0.256   0.138
10652SOL    HW232856   4.981   0.151   0.190
10653SOL     OW32857   5.945   3.756   4.419
10653SOL    HW132858   5.941   3.829   4.351
10653SOL    HW232859   5.943   3.667   4.373
10654SOL     OW32860   4.761   0.197   1.176
10654SOL    HW132861   4.785   0.170   1.083
10654SOL    HW232862   4.741   0.295   1.179
10655SOL     OW32863   2.633   6.005   1.106
10655SOL    HW132864   2.695   6.032   1.179
10655SOL    HW232865   2.685   5.963   1.032
10656SOL     OW32866   6.659   2.523   6.171
10656SOL    HW132867   6.653   2.530   6.271
10656SOL    HW232868   6.733   2.461   6.146
10657SOL     OW32869   6.072   0.137   0.497
10657SOL    HW132870   6.048   0.170   0.588
10657SOL    HW232871   6.070   0.213   0.432
10658SOL     OW32872   0.130   6.452   4.039
10658SOL    HW132873   0.032   6.473   4.047
10658SOL    HW232874   0.162   6.410   4.123
10659SOL     OW32875   5.598   1.107   1.530
10659SOL    HW132876   5.655   1.148   1.458
10659SOL    HW232877   5.502   1.114   1.504
10660SOL     OW32878   4.818   4.998   5.316
10660SOL    HW132879   4.842   5.017   5.221
10660SOL    HW232880   4.740   4.935   5.319
10661SOL     OW32881   6.816   1.032   2.010
10661SOL    HW132882   6.800   1.078   1.923
10661SOL    HW232883   6.779   0.939   2.006
10662SOL     OW32884   0.803   1.718   0.769
10662SOL    HW132885   0.710   1.686   0.754
10662SOL    HW232886   0.852   1.655   0.829
10663SOL     OW32887   1.231   2.551   1.695
10663SOL    HW132888   1.157   2.540   1.628
10663SOL    HW232889   1.233   2.473   1.757
10664SOL     OW32890   2.317   5.212   6.356
10664SOL    HW132891   2.268   5.247   6.436
10664SOL    HW232892   2.395   5.158   6.385
10665SOL     OW32893   5.536   2.091   6.665
10665SOL    HW132894   5.541   2.147   6.582
10665SOL    HW232895   5.590   2.134   6.738
10666SOL     OW32896   0.574   6.638   0.396
10666SOL    HW132897   0.494   6.680   0.441
10666SOL    HW232898   0.606   6.698   0.323
10667SOL     OW32899   3.159   2.145   5.473
10667SOL    HW132900   3.080   2.084   5.477
10667SOL    HW232901   3.185   2.158   5.377
10668SOL     OW32902   1.392   0.405   6.294
10668SOL    HW132903   1.416   0.412   6.197
10668SOL    HW232904   1.351   0.491   6.325
10669SOL     OW32905   2.377   5.528   6.420
10669SOL    HW132906   2.378   5.627   6.427
10669SOL    HW232907   2.299   5.500   6.363
10670SOL     OW32908   5.922   4.228   4.904
10670SOL    HW132909   5.905   4.130   4.888
10670SOL    HW232910   6.001   4.257   4.851
10671SOL     OW32911   2.318   2.804   3.645
10671SOL    HW132912   2.393   2.739   3.633
10671SOL    HW232913   2.319   2.841   3.738
10672SOL     OW32914   6.860   2.324   0.414
10672SOL    HW132915   6.785   2.258   0.417
10672SOL    HW232916   6.897   2.328   0.321
10673SOL     OW32917   3.313   4.145   3.501
10673SOL    HW132918   3.339   4.049   3.515
10673SOL    HW232919   3.251   4.174   3.574
10674SOL     OW32920   4.254   1.262   2.500
10674SOL    HW132921   4.171   1.299   2.541
10674SOL    HW232922   4.280   1.178   2.548
10675SOL     OW32923   1.162   1.745   5.489
10675SOL    HW132924   1.199   1.826   5.534
10675SOL    HW232925   1.064   1.757   5.474
10676SOL     OW32926   5.984   0.866   6.684
10676SOL    HW132927   5.900   0.921   6.682
10676SOL    HW232928   5.982   0.805   6.762
10677SOL     OW32929   4.849   1.257   6.640
10677SOL    HW132930   4.854   1.329   6.709
10677SOL    HW232931   4.916   1.276   6.568
10678SOL     OW32932   2.053   5.137   4.007
10678SOL    HW132933   2.125   5.074   4.035
10678SOL    HW232934   1.964   5.093   4.018
10679SOL     OW32935   5.845   5.446   3.987
10679SOL    HW132936   5.791   5.497   3.921
10679SOL    HW232937   5.791   5.369   4.021
10680SOL     OW32938   0.180   2.684   3.596
10680SOL    HW132939   0.239   2.608   3.569
10680SOL    HW232940   0.086   2.651   3.607
10681SOL     OW32941   0.830   3.378   6.888
10681SOL    HW132942   0.834   3.356   6.791
10681SOL    HW232943   0.735   3.371   6.920
10682SOL     OW32944   6.208   2.014   3.811
10682SOL    HW132945   6.228   2.112   3.808
10682SOL    HW232946   6.241   1.976   3.897
10683SOL     OW32947   0.604   0.386   4.483
10683SOL    HW132948   0.696   0.368   4.520
10683SOL    HW232949   0.551   0.302   4.484
10684SOL     OW32950   5.067   5.930   0.404
10684SOL    HW132951   4.992   5.929   0.470
10684SOL    HW232952   5.148   5.888   0.444
10685SOL     OW32953   6.452   2.359   3.219
10685SOL    HW132954   6.454   2.286   3.150
10685SOL    HW232955   6.439   2.318   3.310
10686SOL     OW32956   5.256   4.393   1.273
10686SOL    HW132957   5.211   4.331   1.337
10686SOL    HW232958   5.188   4.457   1.236
10687SOL     OW32959   0.322   5.324   1.124
10687SOL    HW132960   0.275   5.322   1.213
10687SOL    HW232961   0.360   5.415   1.109
10688SOL     OW32962   1.248   4.623   0.847
10688SOL    HW132963   1.318   4.601   0.915
10688SOL    HW232964   1.158   4.610   0.887
10689SOL     OW32965   0.431   0.451   1.568
10689SOL    HW132966   0.492   0.472   1.645
10689SOL    HW232967   0.394   0.358   1.579
10690SOL     OW32968   3.818   0.684   3.095
10690SOL    HW132969   3.874   0.622   3.039
10690SOL    HW232970   3.743   0.632   3.136
10691SOL     OW32971   5.640   1.372   1.430
10691SOL    HW132972   5.712   1.440   1.422
10691SOL    HW232973   5.585   1.391   1.511
10692SOL     OW32974   5.892   6.204   3.820
10692SOL    HW132975   5.832   6.236   3.893
10692SOL    HW232976   5.838   6.178   3.740
10693SOL     OW32977   4.579   2.460   4.421
10693SOL    HW132978   4.654   2.403   4.454
10693SOL    HW232979   4.497   2.405   4.413
10694SOL     OW32980   3.129   6.222   0.115
10694SOL    HW132981   3.031   6.204   0.111
10694SOL    HW232982   3.173   6.153   0.173
10695SOL     OW32983   6.199   2.729   5.730
10695SOL    HW132984   6.231   2.816   5.693
10695SOL    HW232985   6.264   2.657   5.707
10696SOL     OW32986   6.254   0.507   0.815
10696SOL    HW132987   6.263   0.506   0.715
10696SOL    HW232988   6.344   0.501   0.857
10697SOL     OW32989   2.838   5.709   2.704
10697SOL    HW132990   2.920   5.748   2.664
10697SOL    HW232991   2.811   5.762   2.784
10698SOL     OW32992   3.892   6.899   4.021
10698SOL    HW132993   3.923   6.991   4.045
10698SOL    HW232994   3.970   6.845   3.989
10699SOL     OW32995   0.031   3.823   3.726
10699SOL    HW132996   0.042   3.912   3.681
10699SOL    HW232997   0.121   3.783   3.744
10700SOL     OW32998   0.838   3.192   2.768
10700SOL    HW132999   0.793   3.115   2.814
10700SOL    HW233000   0.937   3.188   2.785
10701SOL     OW33001   2.565   6.803   1.408
10701SOL    HW133002   2.572   6.903   1.406
10701SOL    HW233003   2.654   6.763   1.390
10702SOL     OW33004   5.018   2.231   0.913
10702SOL    HW133005   4.940   2.262   0.859
10702SOL    HW233006   4.989   2.214   1.007
10703SOL     OW33007   3.758   3.664   4.209
10703SOL    HW133008   3.763   3.678   4.110
10703SOL    HW233009   3.759   3.566   4.229
10704SOL     OW33010   5.370   5.322   1.426
10704SOL    HW133011   5.408   5.245   1.374
10704SOL    HW233012   5.441   5.362   1.483
10705SOL     OW33013   1.333   3.163   6.824
10705SOL    HW133014   1.289   3.252   6.840
10705SOL    HW233015   1.263   3.096   6.801
10706SOL     OW33016   3.117   3.412   0.741
10706SOL    HW133017   3.094   3.315   0.746
10706SOL    HW233018   3.035   3.467   0.757
10707SOL     OW33019   6.403   0.367   6.374
10707SOL    HW133020   6.339   0.332   6.306
10707SOL    HW233021   6.479   0.302   6.386
10708SOL     OW33022   4.738   2.985   1.438
10708SOL    HW133023   4.721   3.078   1.408
10708SOL    HW233024   4.775   2.986   1.531
10709SOL     OW33025   1.130   1.398   6.489
10709SOL    HW133026   1.078   1.386   6.574
10709SOL    HW233027   1.151   1.308   6.450
10710SOL     OW33028   6.995   6.804   3.577
10710SOL    HW133029   6.952   6.748   3.647
10710SOL    HW233030   0.059   6.847   3.615
10711SOL     OW33031   1.942   3.927   5.342
10711SOL    HW133032   1.905   3.858   5.405
10711SOL    HW233033   2.038   3.905   5.321
10712SOL     OW33034   3.958   2.243   6.105
10712SOL    HW133035   3.922   2.157   6.068
10712SOL    HW233036   4.046   2.225   6.149
10713SOL     OW33037   2.979   0.303   0.249
10713SOL    HW133038   2.938   0.216   0.273
10713SOL    HW233039   3.064   0.316   0.301
10714SOL     OW33040   4.932   5.929   4.399
10714SOL    HW133041   4.949   5.997   4.328
10714SOL    HW233042   4.855   5.871   4.373
10715SOL     OW33043   5.477   6.839   2.790
10715SOL    HW133044   5.537   6.891   2.729
10715SOL    HW233045   5.385   6.835   2.751
10716SOL     OW33046   6.563   2.076   2.330
10716SOL    HW133047   6.571   2.154   2.392
10716SOL    HW233048   6.588   1.992   2.379
10717SOL     OW33049   0.579   6.663   1.520
10717SOL    HW133050   0.539   6.747   1.556
10717SOL    HW233051   0.533   6.639   1.434
10718SOL     OW33052   6.802   5.024   5.081
10718SOL    HW133053   6.774   5.117   5.108
10718SOL    HW233054   6.878   4.995   5.138
10719SOL     OW33055   3.395   6.155   3.324
10719SOL    HW133056   3.443   6.225   3.377
10719SOL    HW233057   3.410   6.171   3.227
10720SOL     OW33058   0.882   3.216   5.922
10720SOL    HW133059   0.806   3.271   5.886
10720SOL    HW233060   0.959   3.275   5.944
10721SOL     OW33061   5.358   1.312   4.070
10721SOL    HW133062   5.302   1.329   4.151
10721SOL    HW233063   5.307   1.337   3.988
10722SOL     OW33064   0.770   5.222   0.853
10722SOL    HW133065   0.744   5.142   0.800
10722SOL    HW233066   0.866   5.244   0.835
10723SOL     OW33067   0.064   3.994   6.006
10723SOL    HW133068   0.040   4.016   5.911
10723SOL    HW233069   0.108   3.904   6.009
10724SOL     OW33070   3.829   6.340   5.829
10724SOL    HW133071   3.740   6.380   5.807
10724SOL    HW233072   3.899   6.411   5.827
10725SOL     OW33073   6.893   0.446   5.187
10725SOL    HW133074   6.984   0.486   5.189
10725SOL    HW233075   6.897   0.357   5.141
10726SOL     OW33076   6.699   0.428   3.448
10726SOL    HW133077   6.606   0.422   3.485
10726SOL    HW233078   6.704   0.505   3.383
10727SOL     OW33079   5.101   5.510   6.254
10727SOL    HW133080   5.145   5.583   6.202
10727SOL    HW233081   5.103   5.532   6.352
10728SOL     OW33082   5.170   6.431   4.400
10728SOL    HW133083   5.220   6.407   4.317
10728SOL    HW233084   5.236   6.452   4.473
10729SOL     OW33085   6.413   3.132   4.278
10729SOL    HW133086   6.350   3.136   4.356
10729SOL    HW233087   6.466   3.047   4.283
10730SOL     OW33088   1.273   6.067   4.028
10730SOL    HW133089   1.191   6.056   3.973
10730SOL    HW233090   1.252   6.123   4.108
10731SOL     OW33091   4.972   4.140   5.016
10731SOL    HW133092   4.950   4.191   5.099
10731SOL    HW233093   4.941   4.191   4.936
10732SOL     OW33094   5.577   5.918   2.718
10732SOL    HW133095   5.620   5.858   2.786
10732SOL    HW233096   5.571   5.869   2.631
10733SOL     OW33097   0.919   1.945   5.750
10733SOL    HW133098   0.836   1.947   5.805
10733SOL    HW233099   0.976   1.868   5.778
10734SOL     OW33100   0.486   0.648   4.571
10734SOL    HW133101   0.509   0.550   4.574
10734SOL    HW233102   0.568   0.702   4.589
10735SOL     OW33103   0.292   0.832   2.371
10735SOL    HW133104   0.215   0.783   2.331
10735SOL    HW233105   0.369   0.769   2.383
10736SOL     OW33106   5.295   6.044   4.266
10736SOL    HW133107   5.292   5.944   4.274
10736SOL    HW233108   5.293   6.070   4.170
10737SOL     OW33109   5.991   1.017   0.357
10737SOL    HW133110   6.048   1.087   0.400
10737SOL    HW233111   5.917   0.992   0.420
10738SOL     OW33112   0.539   6.195   2.038
10738SOL    HW133113   0.499   6.224   1.951
10738SOL    HW233114   0.617   6.254   2.059
10739SOL     OW33115   5.159   2.547   3.885
10739SOL    HW133116   5.123   2.455   3.894
10739SOL    HW233117   5.109   2.609   3.945
10740SOL     OW33118   3.062   0.803   6.476
10740SOL    HW133119   3.073   0.718   6.526
10740SOL    HW233120   3.151   0.835   6.444
10741SOL     OW33121   2.362   2.757   4.182
10741SOL    HW133122   2.374   2.839   4.238
10741SOL    HW233123   2.266   2.731   4.181
10742SOL     OW33124   6.983   0.402   2.217
10742SOL    HW133125   6.933   0.395   2.303
10742SOL    HW233126   0.015   0.317   2.200
10743SOL     OW33127   3.719   2.531   5.625
10743SOL    HW133128   3.683   2.597   5.691
10743SOL    HW233129   3.660   2.531   5.543
10744SOL     OW33130   1.577   1.117   0.612
10744SOL    HW133131   1.540   1.202   0.649
10744SOL    HW233132   1.676   1.116   0.625
10745SOL     OW33133   3.888   5.443   2.121
10745SOL    HW133134   3.829   5.363   2.129
10745SOL    HW233135   3.961   5.424   2.056
10746SOL     OW33136   2.637   5.541   6.088
10746SOL    HW133137   2.543   5.516   6.110
10746SOL    HW233138   2.644   5.640   6.081
10747SOL     OW33139   6.560   0.328   4.744
10747SOL    HW133140   6.516   0.327   4.654
10747SOL    HW233141   6.652   0.291   4.737
10748SOL     OW33142   3.725   6.413   2.647
10748SOL    HW133143   3.688   6.496   2.605
10748SOL    HW233144   3.822   6.403   2.622
10749SOL     OW33145   5.176   2.574   2.399
10749SOL    HW133146   5.189   2.523   2.314
10749SOL    HW233147   5.202   2.516   2.477
10750SOL     OW33148   3.231   1.422   4.482
10750SOL    HW133149   3.167   1.421   4.406
10750SOL    HW233150   3.281   1.509   4.484
10751SOL     OW33151   6.097   6.067   3.633
10751SOL    HW133152   6.061   6.137   3.694
10751SOL    HW233153   6.048   6.070   3.546
10752SOL     OW33154   0.255   6.028   6.560
10752SOL    HW133155   0.222   6.069   6.475
10752SOL    HW233156   0.177   5.996   6.614
10753SOL     OW33157   4.621   6.894   4.825
10753SOL    HW133158   4.699   6.942   4.865
10753SOL    HW233159   4.536   6.931   4.862
10754SOL     OW33160   6.637   5.714   2.133
10754SOL    HW133161   6.621   5.621   2.166
10754SOL    HW233162   6.643   5.776   2.211
10755SOL     OW33163   0.975   1.747   2.024
10755SOL    HW133164   0.884   1.719   2.054
10755SOL    HW233165   0.970   1.779   1.929
10756SOL     OW33166   0.713   0.208   6.994
10756SOL    HW133167   0.805   0.246   6.982
10756SOL    HW233168   0.651   0.249   6.927
10757SOL     OW33169   0.043   2.378   1.882
10757SOL    HW133170   6.987   2.328   1.839
10757SOL    HW233171   0.095   2.428   1.812
10758SOL     OW33172   0.152   1.395   0.838
10758SOL    HW133173   0.127   1.480   0.884
10758SOL    HW233174   0.176   1.414   0.743
10759SOL     OW33175   3.398   5.219   5.182
10759SOL    HW133176   3.495   5.204   5.163
10759SOL    HW233177   3.350   5.131   5.180
10760SOL     OW33178   0.960   4.549   6.890
10760SOL    HW133179   1.033   4.521   6.953
10760SOL    HW233180   0.872   4.519   6.927
10761SOL     OW33181   1.622   1.577   6.423
10761SOL    HW133182   1.621   1.675   6.442
10761SOL    HW233183   1.711   1.540   6.449
10762SOL     OW33184   1.497   6.141   1.245
10762SOL    HW133185   1.437   6.134   1.324
10762SOL    HW233186   1.446   6.115   1.162
10763SOL     OW33187   4.888   1.462   2.354
10763SOL    HW133188   4.966   1.503   2.401
10763SOL    HW233189   4.805   1.513   2.374
10764SOL     OW33190   5.290   6.839   3.847
10764SOL    HW133191   5.327   6.928   3.823
10764SOL    HW233192   5.365   6.772   3.852
10765SOL     OW33193   6.868   3.143   1.659
10765SOL    HW133194   6.796   3.208   1.685
10765SOL    HW233195   6.957   3.187   1.667
10766SOL     OW33196   3.390   5.544   6.812
10766SOL    HW133197   3.362   5.539   6.908
10766SOL    HW233198   3.320   5.592   6.759
10767SOL     OW33199   1.436   5.432   6.588
10767SOL    HW133200   1.353   5.466   6.544
10767SOL    HW233201   1.464   5.345   6.547
10768SOL     OW33202   5.888   5.947   0.123
10768SOL    HW133203   5.969   5.961   0.067
10768SOL    HW233204   5.807   5.977   0.072
10769SOL     OW33205   3.232   3.768   4.719
10769SOL    HW133206   3.247   3.836   4.791
10769SOL    HW233207   3.320   3.732   4.688
10770SOL     OW33208   4.502   0.402   4.216
10770SOL    HW133209   4.502   0.324   4.277
10770SOL    HW233210   4.538   0.375   4.127
10771SOL     OW33211   4.956   6.274   5.627
10771SOL    HW133212   4.898   6.324   5.564
10771SOL    HW233213   4.966   6.326   5.712
10772SOL     OW33214   5.064   3.035   4.200
10772SOL    HW133215   5.092   3.129   4.181
10772SOL    HW233216   4.974   3.017   4.160
10773SOL     OW33217   1.020   3.764   0.530
10773SOL    HW133218   1.067   3.818   0.461
10773SOL    HW233219   0.957   3.822   0.581
10774SOL     OW33220   6.561   2.993   0.495
10774SOL    HW133221   6.502   3.064   0.532
10774SOL    HW233222   6.576   2.922   0.564
10775SOL     OW33223   1.950   4.574   6.241
10775SOL    HW133224   1.856   4.580   6.274
10775SOL    HW233225   2.008   4.530   6.310
10776SOL     OW33226   6.909   3.750   3.236
10776SOL    HW133227   6.933   3.826   3.296
10776SOL    HW233228   6.896   3.667   3.291
10777SOL     OW33229   0.805   6.120   2.273
10777SOL    HW133230   0.841   6.064   2.199
10777SOL    HW233231   0.847   6.211   2.270
10778SOL     OW33232   5.125   6.870   3.497
10778SOL    HW133233   5.077   6.847   3.412
10778SOL    HW233234   5.082   6.823   3.573
10779SOL     OW33235   5.787   2.823   5.317
10779SOL    HW133236   5.784   2.915   5.279
10779SOL    HW233237   5.879   2.803   5.352
10780SOL     OW33238   0.994   5.652   4.793
10780SOL    HW133239   1.071   5.592   4.816
10780SOL    HW233240   0.922   5.642   4.862
10781SOL     OW33241   6.019   2.336   5.774
10781SOL    HW133242   6.022   2.408   5.844
10781SOL    HW233243   6.057   2.252   5.812
10782SOL     OW33244   1.445   3.275   4.958
10782SOL    HW133245   1.508   3.233   5.024
10782SOL    HW233246   1.369   3.318   5.008
10783SOL     OW33247   1.493   3.824   3.957
10783SOL    HW133248   1.405   3.859   3.989
10783SOL    HW233249   1.507   3.731   3.992
10784SOL     OW33250   4.820   5.203   4.044
10784SOL    HW133251   4.877   5.236   3.968
10784SOL    HW233252   4.725   5.197   4.014
10785SOL     OW33253   1.730   5.646   1.901
10785SOL    HW133254   1.794   5.569   1.901
10785SOL    HW233255   1.637   5.613   1.913
10786SOL     OW33256   4.955   1.296   2.587
10786SOL    HW133257   4.950   1.247   2.500
10786SOL    HW233258   4.870   1.346   2.602
10787SOL     OW33259   3.030   1.183   3.746
10787SOL    HW133260   3.040   1.096   3.698
10787SOL    HW233261   2.970   1.243   3.694
10788SOL     OW33262   1.543   3.091   6.643
10788SOL    HW133263   1.486   3.115   6.722
10788SOL    HW233264   1.549   3.170   6.582
10789SOL     OW33265   6.895   2.328   2.776
10789SOL    HW133266   6.818   2.390   2.790
10789SOL    HW233267   6.886   2.249   2.836
10790SOL     OW33268   6.816   2.793   5.085
10790SOL    HW133269   6.802   2.886   5.118
10790SOL    HW233270   6.900   2.788   5.031
10791SOL     OW33271   2.249   2.976   3.144
10791SOL    HW133272   2.210   2.990   3.235
10791SOL    HW233273   2.188   2.918   3.090
10792SOL     OW33274   3.852   1.035   2.348
10792SOL    HW133275   3.919   0.962   2.337
10792SOL    HW233276   3.878   1.113   2.290
10793SOL     OW33277   3.746   2.054   3.809
10793SOL    HW133278   3.656   2.091   3.834
10793SOL    HW233279   3.791   2.020   3.891
10794SOL     OW33280   4.344   2.774   0.121
10794SOL    HW133281   4.384   2.866   0.120
10794SOL    HW233282   4.389   2.719   0.191
10795SOL     OW33283   6.328   2.662   3.237
10795SOL    HW133284   6.380   2.579   3.216
10795SOL    HW233285   6.238   2.636   3.274
10796SOL     OW33286   6.584   2.061   6.626
10796SOL    HW133287   6.565   1.964   6.637
10796SOL    HW233288   6.620   2.098   6.712
10797SOL     OW33289   5.679   4.365   6.793
10797SOL    HW133290   5.602   4.380   6.731
10797SOL    HW233291   5.755   4.425   6.767
10798SOL     OW33292   2.387   5.710   0.626
10798SOL    HW133293   2.354   5.749   0.712
10798SOL    HW233294   2.343   5.621   0.610
10799SOL     OW33295   1.980   1.134   3.110
10799SOL    HW133296   1.973   1.183   3.197
10799SOL    HW233297   2.003   1.199   3.037
10800SOL     OW33298   1.063   0.374   5.274
10800SOL    HW133299   1.053   0.275   5.280
10800SOL    HW233300   0.972   0.416   5.274
10801SOL     OW33301   3.221   6.105   6.906
10801SOL    HW133302   3.213   6.154   6.993
10801SOL    HW233303   3.129   6.088   6.869
10802SOL     OW33304   0.767   4.875   3.435
10802SOL    HW133305   0.712   4.955   3.415
10802SOL    HW233306   0.774   4.862   3.534
10803SOL     OW33307   0.424   3.890   4.699
10803SOL    HW133308   0.400   3.941   4.616
10803SOL    HW233309   0.510   3.926   4.736
10804SOL     OW33310   4.540   5.255   6.497
10804SOL    HW133311   4.477   5.295   6.430
10804SOL    HW233312   4.528   5.156   6.499
10805SOL     OW33313   5.451   5.628   6.954
10805SOL    HW133314   5.352   5.630   6.965
10805SOL    HW233315   5.486   5.721   6.949
10806SOL     OW33316   6.326   3.015   5.211
10806SOL    HW133317   6.298   3.098   5.259
10806SOL    HW233318   6.424   3.002   5.221
10807SOL     OW33319   4.539   2.464   5.090
10807SOL    HW133320   4.560   2.541   5.150
10807SOL    HW233321   4.582   2.478   5.001
10808SOL     OW33322   0.673   2.584   0.961
10808SOL    HW133323   0.756   2.637   0.946
10808SOL    HW233324   0.620   2.625   1.035
10809SOL     OW33325   0.740   1.218   2.967
10809SOL    HW133326   0.795   1.199   3.049
10809SOL    HW233327   0.662   1.156   2.965
10810SOL     OW33328   1.929   2.134   6.523
10810SOL    HW133329   1.873   2.216   6.513
10810SOL    HW233330   1.966   2.107   6.434
10811SOL     OW33331   4.337   5.413   6.325
10811SOL    HW133332   4.254   5.356   6.320
10811SOL    HW233333   4.316   5.497   6.375
10812SOL     OW33334   6.926   3.211   2.187
10812SOL    HW133335   6.852   3.196   2.122
10812SOL    HW233336   6.892   3.264   2.265
10813SOL     OW33337   3.279   6.517   2.112
10813SOL    HW133338   3.356   6.573   2.081
10813SOL    HW233339   3.245   6.461   2.036
10814SOL     OW33340   1.753   5.897   4.275
10814SOL    HW133341   1.671   5.944   4.308
10814SOL    HW233342   1.729   5.834   4.202
10815SOL     OW33343   5.482   2.756   5.741
10815SOL    HW133344   5.563   2.798   5.782
10815SOL    HW233345   5.510   2.693   5.668
10816SOL     OW33346   2.427   2.577   1.208
10816SOL    HW133347   2.477   2.584   1.295
10816SOL    HW233348   2.368   2.657   1.197
10817SOL     OW33349   3.576   1.452   1.797
10817SOL    HW133350   3.603   1.534   1.746
10817SOL    HW233351   3.503   1.475   1.861
10818SOL     OW33352   4.294   3.626   5.364
10818SOL    HW133353   4.277   3.685   5.285
10818SOL    HW233354   4.381   3.578   5.352
10819SOL     OW33355   2.075   3.228   5.164
10819SOL    HW133356   2.168   3.198   5.187
10819SOL    HW233357   2.078   3.321   5.128
10820SOL     OW33358   0.604   6.207   5.073
10820SOL    HW133359   0.695   6.248   5.071
10820SOL    HW233360   0.565   6.216   5.165
10821SOL     OW33361   6.974   0.640   6.841
10821SOL    HW133362   6.884   0.684   6.842
10821SOL    HW233363   6.971   0.560   6.901
10822SOL     OW33364   0.101   5.387   5.581
10822SOL    HW133365   0.101   5.422   5.674
10822SOL    HW233366   0.180   5.425   5.531
10823SOL     OW33367   2.603   2.488   0.602
10823SOL    HW133368   2.554   2.429   0.537
10823SOL    HW233369   2.626   2.435   0.684
10824SOL     OW33370   4.811   1.418   4.610
10824SOL    HW133371   4.770   1.373   4.690
10824SOL    HW233372   4.838   1.511   4.636
10825SOL     OW33373   4.648   1.459   2.092
10825SOL    HW133374   4.606   1.386   2.144
10825SOL    HW233375   4.627   1.547   2.133
10826SOL     OW33376   0.422   3.340   0.961
10826SOL    HW133377   0.510   3.312   0.998
10826SOL    HW233378   0.375   3.399   1.027
10827SOL     OW33379   6.866   2.510   5.036
10827SOL    HW133380   6.856   2.602   5.073
10827SOL    HW233381   6.960   2.497   5.004
10828SOL     OW33382   3.091   4.412   7.018
10828SOL    HW133383   3.145   4.492   6.992
10828SOL    HW233384   3.074   4.414   0.098
10829SOL     OW33385   1.670   3.671   1.018
10829SOL    HW133386   1.722   3.631   0.943
10829SOL    HW233387   1.718   3.653   1.104
10830SOL     OW33388   6.102   0.208   4.099
10830SOL    HW133389   6.171   0.182   4.031
10830SOL    HW233390   6.015   0.164   4.077
10831SOL     OW33391   5.693   2.863   2.592
10831SOL    HW133392   5.595   2.882   2.596
10831SOL    HW233393   5.717   2.796   2.663
10832SOL     OW33394   1.630   3.016   2.165
10832SOL    HW133395   1.730   3.008   2.170
10832SOL    HW233396   1.594   2.946   2.103
10833SOL     OW33397   3.295   7.003   4.847
10833SOL    HW133398   3.343   0.030   4.923
10833SOL    HW233399   3.362   6.954   4.791
10834SOL     OW33400   6.797   2.282   5.654
10834SOL    HW133401   6.704   2.249   5.670
10834SOL    HW233402   6.828   2.252   5.564
10835SOL     OW33403   0.775   1.026   0.669
10835SOL    HW133404   0.742   0.974   0.590
10835SOL    HW233405   0.808   1.115   0.639
10836SOL     OW33406   6.908   1.418   1.238
10836SOL    HW133407   6.823   1.430   1.290
10836SOL    HW233408   6.887   1.380   1.148
10837SOL     OW33409   1.483   5.518   0.628
10837SOL    HW133410   1.572   5.498   0.670
10837SOL    HW233411   1.430   5.434   0.621
10838SOL     OW33412   6.452   6.244   1.205
10838SOL    HW133413   6.537   6.295   1.215
10838SOL    HW233414   6.450   6.200   1.116
10839SOL     OW33415   2.530   1.557   6.657
10839SOL    HW133416   2.551   1.586   6.750
10839SOL    HW233417   2.599   1.594   6.595
10840SOL     OW33418   0.935   1.084   3.122
10840SOL    HW133419   0.968   1.061   3.030
10840SOL    HW233420   1.010   1.120   3.176
10841SOL     OW33421   4.575   4.555   0.496
10841SOL    HW133422   4.483   4.529   0.522
10841SOL    HW233423   4.597   4.516   0.406
10842SOL     OW33424   5.722   1.797   1.811
10842SOL    HW133425   5.687   1.808   1.718
10842SOL    HW233426   5.745   1.702   1.828
10843SOL     OW33427   0.917   1.904   1.447
10843SOL    HW133428   0.874   1.952   1.371
10843SOL    HW233429   1.013   1.886   1.426
10844SOL     OW33430   4.438   6.796   3.953
10844SOL    HW133431   4.446   6.895   3.967
10844SOL    HW233432   4.512   6.749   4.001
10845SOL     OW33433   2.465   3.670   0.989
10845SOL    HW133434   2.529   3.719   0.930
10845SOL    HW233435   2.385   3.642   0.935
10846SOL     OW33436   3.203   2.155   1.523
10846SOL    HW133437   3.277   2.166   1.457
10846SOL    HW233438   3.115   2.162   1.476
10847SOL     OW33439   5.035   1.815   5.467
10847SOL    HW133440   5.129   1.845   5.482
10847SOL    HW233441   5.006   1.843   5.375
10848SOL     OW33442   2.152   0.656   6.602
10848SOL    HW133443   2.126   0.623   6.693
10848SOL    HW233444   2.146   0.756   6.600
10849SOL     OW33445   0.684   4.152   5.070
10849SOL    HW133446   0.775   4.179   5.039
10849SOL    HW233447   0.692   4.078   5.137
10850SOL     OW33448   5.863   0.744   3.034
10850SOL    HW133449   5.811   0.813   3.085
10850SOL    HW233450   5.928   0.789   2.974
10851SOL     OW33451   4.722   3.043   0.369
10851SOL    HW133452   4.798   2.986   0.400
10851SOL    HW233453   4.704   3.114   0.437
10852SOL     OW33454   5.920   1.441   5.872
10852SOL    HW133455   5.928   1.441   5.772
10852SOL    HW233456   5.835   1.396   5.899
10853SOL     OW33457   1.664   6.863   5.573
10853SOL    HW133458   1.752   6.890   5.613
10853SOL    HW233459   1.591   6.883   5.638
10854SOL     OW33460   5.638   6.826   6.875
10854SOL    HW133461   5.637   6.755   6.945
10854SOL    HW233462   5.722   6.820   6.822
10855SOL     OW33463   1.018   5.811   0.075
10855SOL    HW133464   0.970   5.884   0.123
10855SOL    HW233465   0.995   5.815   6.996
10856SOL     OW33466   4.862   6.993   6.400
10856SOL    HW133467   4.892   6.909   6.354
10856SOL    HW233468   4.768   6.980   6.435
10857SOL     OW33469   5.892   6.480   4.633
10857SOL    HW133470   5.856   6.394   4.668
10857SOL    HW233471   5.950   6.523   4.703
10858SOL     OW33472   1.924   2.898   1.164
10858SOL    HW133473   1.933   2.959   1.243
10858SOL    HW233474   1.882   2.812   1.193
10859SOL     OW33475   2.276   5.220   1.868
10859SOL    HW133476   2.375   5.207   1.866
10859SOL    HW233477   2.254   5.304   1.916
10860SOL     OW33478   5.563   1.466   2.101
10860SOL    HW133479   5.597   1.374   2.116
10860SOL    HW233480   5.506   1.494   2.178
10861SOL     OW33481   2.644   4.801   0.967
10861SOL    HW133482   2.576   4.775   0.899
10861SOL    HW233483   2.736   4.784   0.930
10862SOL     OW33484   3.985   4.711   5.391
10862SOL    HW133485   3.896   4.681   5.355
10862SOL    HW233486   3.994   4.680   5.486
10863SOL     OW33487   0.129   6.756   4.413
10863SOL    HW133488   0.222   6.743   4.379
10863SOL    HW233489   0.120   6.712   4.502
10864SOL     OW33490   3.002   3.482   2.806
10864SOL    HW133491   2.968   3.518   2.719
10864SOL    HW233492   3.008   3.556   2.873
10865SOL     OW33493   3.463   1.987   2.098
10865SOL    HW133494   3.507   2.072   2.069
10865SOL    HW233495   3.531   1.926   2.138
10866SOL     OW33496   0.549   3.708   5.178
10866SOL    HW133497   0.471   3.717   5.240
10866SOL    HW233498   0.515   3.690   5.085
10867SOL     OW33499   5.218   3.432   0.268
10867SOL    HW133500   5.199   3.522   0.307
10867SOL    HW233501   5.272   3.378   0.332
10868SOL     OW33502   0.084   0.490   5.984
10868SOL    HW133503   0.073   0.392   5.998
10868SOL    HW233504   0.015   0.539   6.036
10869NA      NA33505   6.563   1.100   6.881
10870NA      NA33506   4.745   4.644   4.916
10871NA      NA33507   0.933   4.584   3.025
10872NA      NA33508   6.602   3.398   3.609
10873NA      NA33509   4.357   2.349   5.164
10874NA      NA33510   2.553   3.456   6.825
10875NA      NA33511   1.580   5.425   0.182
10876NA      NA33512   4.292   4.849   1.979
10877NA      NA33513   5.469   3.692   1.158
10878NA      NA33514   3.466   2.059   0.364
10879NA      NA33515   5.040   6.176   1.704
10880NA      NA33516   2.594   6.441   4.575
10881NA      NA33517   3.208   5.445   2.805
10882NA      NA33518   4.542   4.932   5.806
   7.01822   7.01822   7.01822
