Generated by trjconv : CNT in water t= 129.00000
33518
    1C        C    1   2.839   2.768   4.745
    1C        C    2   2.895   2.718   4.864
    1C        C    3   2.839   2.772   4.981
    1C        C    4   2.842   2.769   4.260
    1C        C    5   2.895   2.721   4.382
    1C        C    6   2.839   2.768   4.503
    1C        C    7   3.007   2.635   4.626
    1C        C    8   2.892   2.717   4.624
    1C        C    9   3.070   2.592   4.745
    1C        C   10   3.003   2.627   4.864
    1C        C   11   3.181   2.488   4.976
    1C        C   12   3.060   2.558   4.972
    1C        C   13   2.848   2.766   3.770
    1C        C   14   2.897   2.720   3.894
    1C        C   15   2.845   2.771   4.016
    1C        C   16   3.017   2.648   4.141
    1C        C   17   2.897   2.722   4.138
    1C        C   18   3.078   2.614   4.264
    1C        C   19   3.014   2.646   4.386
    1C        C   20   3.206   2.554   4.502
    1C        C   21   3.072   2.599   4.506
    1C        C   22   3.275   2.535   4.624
    1C        C   23   3.202   2.540   4.745
    1C        C   24   3.411   2.477   4.864
    1C        C   25   3.269   2.498   4.863
    1C        C   26   3.489   2.480   4.980
    1C        C   27   2.849   2.764   3.282
    1C        C   28   2.903   2.720   3.404
    1C        C   29   2.848   2.767   3.526
    1C        C   30   3.016   2.637   3.652
    1C        C   31   2.902   2.721   3.648
    1C        C   32   3.077   2.604   3.775
    1C        C   33   3.012   2.639   3.896
    1C        C   34   3.205   2.553   4.017
    1C        C   35   3.076   2.611   4.018
    1C        C   36   3.274   2.531   4.138
    1C        C   37   3.207   2.556   4.260
    1C        C   38   3.414   2.506   4.381
    1C        C   39   3.275   2.533   4.381
    1C        C   40   3.485   2.506   4.503
    1C        C   41   3.414   2.510   4.625
    1C        C   42   3.628   2.487   4.744
    1C        C   43   3.486   2.484   4.744
    1C        C   44   3.704   2.489   4.863
    1C        C   45   3.628   2.480   4.981
    1C        C   46   2.833   2.745   2.791
    1C        C   47   2.891   2.705   2.913
    1C        C   48   2.837   2.752   3.035
    1C        C   49   3.011   2.633   3.161
    1C        C   50   2.895   2.714   3.158
    1C        C   51   3.076   2.603   3.284
    1C        C   52   3.016   2.635   3.408
    1C        C   53   3.209   2.550   3.527
    1C        C   54   3.077   2.600   3.530
    1C        C   55   3.275   2.531   3.650
    1C        C   56   3.207   2.549   3.772
    1C        C   57   3.414   2.510   3.892
    1C        C   58   3.274   2.532   3.895
    1C        C   59   3.484   2.504   4.014
    1C        C   60   3.413   2.509   4.137
    1C        C   61   3.626   2.507   4.259
    1C        C   62   3.485   2.503   4.259
    1C        C   63   3.696   2.514   4.381
    1C        C   64   3.626   2.505   4.504
    1C        C   65   3.835   2.549   4.622
    1C        C   66   3.699   2.510   4.624
    1C        C   67   3.903   2.567   4.744
    1C        C   68   3.839   2.528   4.864
    1C        C   69   4.054   2.584   4.978
    1C        C   70   3.925   2.529   4.975
    1C        C   71   2.820   2.729   2.307
    1C        C   72   2.881   2.689   2.427
    1C        C   73   2.829   2.740   2.548
    1C        C   74   3.005   2.620   2.672
    1C        C   75   2.886   2.696   2.670
    1C        C   76   3.069   2.587   2.794
    1C        C   77   3.008   2.626   2.915
    1C        C   78   3.202   2.544   3.038
    1C        C   79   3.072   2.600   3.038
    1C        C   80   3.273   2.530   3.159
    1C        C   81   3.208   2.553   3.282
    1C        C   82   3.415   2.506   3.402
    1C        C   83   3.275   2.528   3.404
    1C        C   84   3.484   2.501   3.525
    1C        C   85   3.415   2.508   3.648
    1C        C   86   3.626   2.503   3.769
    1C        C   87   3.485   2.498   3.770
    1C        C   88   3.696   2.514   3.891
    1C        C   89   3.625   2.506   4.013
    1C        C   90   3.834   2.538   4.135
    1C        C   91   3.695   2.513   4.135
    1C        C   92   3.901   2.566   4.257
    1C        C   93   3.835   2.543   4.379
    1C        C   94   4.030   2.632   4.498
    1C        C   95   3.904   2.567   4.500
    1C        C   96   4.088   2.671   4.620
    1C        C   97   4.033   2.625   4.742
    1C        C   98   4.198   2.760   4.861
    1C        C   99   4.104   2.652   4.862
    1C        C  100   4.221   2.837   4.976
    1C        C  101   2.818   2.723   2.069
    1C        C  102   2.991   2.590   2.191
    1C        C  103   2.877   2.676   2.187
    1C        C  104   3.064   2.573   2.311
    1C        C  105   3.002   2.615   2.431
    1C        C  106   3.202   2.536   2.549
    1C        C  107   3.071   2.590   2.551
    1C        C  108   3.269   2.521   2.672
    1C        C  109   3.200   2.534   2.795
    1C        C  110   3.409   2.495   2.914
    1C        C  111   3.269   2.518   2.917
    1C        C  112   3.482   2.491   3.034
    1C        C  113   3.412   2.503   3.156
    1C        C  114   3.623   2.503   3.279
    1C        C  115   3.482   2.496   3.279
    1C        C  116   3.692   2.512   3.402
    1C        C  117   3.625   2.507   3.526
    1C        C  118   3.835   2.543   3.645
    1C        C  119   3.697   2.515   3.647
    1C        C  120   3.900   2.566   3.769
    1C        C  121   3.834   2.544   3.892
    1C        C  122   4.028   2.628   4.013
    1C        C  123   3.902   2.564   4.014
    1C        C  124   4.089   2.666   4.134
    1C        C  125   4.027   2.630   4.256
    1C        C  126   4.199   2.759   4.374
    1C        C  127   4.090   2.669   4.376
    1C        C  128   4.242   2.815   4.497
    1C        C  129   4.195   2.764   4.619
    1C        C  130   4.323   2.936   4.738
    1C        C  131   4.245   2.817   4.740
    1C        C  132   4.350   3.005   4.858
    1C        C  133   4.281   2.963   4.972
    1C        C  134   3.174   2.468   2.079
    1C        C  135   3.041   2.509   2.083
    1C        C  136   3.262   2.485   2.187
    1C        C  137   3.197   2.522   2.307
    1C        C  138   3.408   2.483   2.425
    1C        C  139   3.269   2.509   2.428
    1C        C  140   3.479   2.485   2.547
    1C        C  141   3.408   2.497   2.669
    1C        C  142   3.619   2.500   2.790
    1C        C  143   3.478   2.489   2.791
    1C        C  144   3.691   2.509   2.911
    1C        C  145   3.623   2.499   3.035
    1C        C  146   3.833   2.533   3.155
    1C        C  147   3.695   2.506   3.157
    1C        C  148   3.901   2.560   3.277
    1C        C  149   3.830   2.543   3.398
    1C        C  150   4.027   2.621   3.521
    1C        C  151   3.897   2.564   3.520
    1C        C  152   4.087   2.662   3.642
    1C        C  153   4.025   2.630   3.765
    1C        C  154   4.189   2.762   3.888
    1C        C  155   4.082   2.669   3.889
    1C        C  156   4.242   2.811   4.010
    1C        C  157   4.195   2.760   4.133
    1C        C  158   4.334   2.924   4.252
    1C        C  159   4.248   2.812   4.253
    1C        C  160   4.368   2.986   4.374
    1C        C  161   4.328   2.928   4.496
    1C        C  162   4.435   3.116   4.614
    1C        C  163   4.365   2.993   4.616
    1C        C  164   4.467   3.182   4.734
    1C        C  165   4.432   3.121   4.856
    1C        C  166   4.517   3.317   4.969
    1C        C  167   4.471   3.186   4.974
    1C        C  168   3.478   2.429   2.073
    1C        C  169   3.399   2.455   2.187
    1C        C  170   3.619   2.462   2.305
    1C        C  171   3.477   2.462   2.304
    1C        C  172   3.692   2.485   2.425
    1C        C  173   3.620   2.485   2.547
    1C        C  174   3.828   2.533   2.668
    1C        C  175   3.691   2.502   2.668
    1C        C  176   3.898   2.556   2.788
    1C        C  177   3.829   2.536   2.910
    1C        C  178   4.024   2.621   3.031
    1C        C  179   3.896   2.562   3.032
    1C        C  180   4.085   2.661   3.152
    1C        C  181   4.025   2.627   3.276
    1C        C  182   4.197   2.747   3.399
    1C        C  183   4.086   2.659   3.399
    1C        C  184   4.246   2.799   3.521
    1C        C  185   4.195   2.754   3.644
    1C        C  186   4.333   2.916   3.764
    1C        C  187   4.242   2.808   3.766
    1C        C  188   4.371   2.978   3.885
    1C        C  189   4.332   2.920   4.008
    1C        C  190   4.445   3.102   4.127
    1C        C  191   4.377   2.978   4.129
    1C        C  192   4.471   3.169   4.249
    1C        C  193   4.439   3.108   4.372
    1C        C  194   4.509   3.313   4.490
    1C        C  195   4.470   3.177   4.491
    1C        C  196   4.519   3.387   4.610
    1C        C  197   4.507   3.319   4.733
    1C        C  198   4.550   3.534   4.849
    1C        C  199   4.530   3.392   4.852
    1C        C  200   4.583   3.616   4.961
    1C        C  201   3.617   2.414   2.071
    1C        C  202   3.827   2.510   2.181
    1C        C  203   3.692   2.462   2.183
    1C        C  204   3.898   2.538   2.300
    1C        C  205   3.827   2.523   2.422
    1C        C  206   4.020   2.611   2.541
    1C        C  207   3.894   2.546   2.544
    1C        C  208   4.080   2.653   2.661
    1C        C  209   4.025   2.617   2.787
    1C        C  210   4.193   2.747   2.906
    1C        C  211   4.087   2.654   2.908
    1C        C  212   4.245   2.796   3.028
    1C        C  213   4.197   2.746   3.152
    1C        C  214   4.327   2.910   3.271
    1C        C  215   4.247   2.793   3.275
    1C        C  216   4.363   2.972   3.392
    1C        C  217   4.329   2.914   3.516
    1C        C  218   4.430   3.098   3.635
    1C        C  219   4.368   2.971   3.639
    1C        C  220   4.457   3.165   3.757
    1C        C  221   4.437   3.103   3.883
    1C        C  222   4.503   3.305   4.003
    1C        C  223   4.469   3.168   4.004
    1C        C  224   4.515   3.376   4.124
    1C        C  225   4.506   3.306   4.247
    1C        C  226   4.518   3.522   4.366
    1C        C  227   4.514   3.381   4.366
    1C        C  228   4.516   3.596   4.486
    1C        C  229   4.531   3.528   4.608
    1C        C  230   4.503   3.743   4.724
    1C        C  231   4.535   3.605   4.726
    1C        C  232   4.496   3.818   4.844
    1C        C  233   4.546   3.751   4.957
    1C        C  234   4.012   2.614   2.060
    1C        C  235   3.891   2.546   2.061
    1C        C  236   4.083   2.646   2.177
    1C        C  237   4.025   2.603   2.298
    1C        C  238   4.196   2.732   2.420
    1C        C  239   4.085   2.644   2.419
    1C        C  240   4.250   2.783   2.540
    1C        C  241   4.190   2.742   2.661
    1C        C  242   4.335   2.900   2.782
    1C        C  243   4.241   2.794   2.782
    1C        C  244   4.372   2.963   2.902
    1C        C  245   4.333   2.906   3.026
    1C        C  246   4.431   3.094   3.146
    1C        C  247   4.367   2.968   3.148
    1C        C  248   4.452   3.162   3.269
    1C        C  249   4.425   3.099   3.393
    1C        C  250   4.491   3.302   3.512
    1C        C  251   4.458   3.164   3.514
    1C        C  252   4.500   3.372   3.634
    1C        C  253   4.489   3.302   3.757
    1C        C  254   4.521   3.512   3.878
    1C        C  255   4.507   3.371   3.878
    1C        C  256   4.516   3.586   3.998
    1C        C  257   4.517   3.517   4.122
    1C        C  258   4.489   3.730   4.240
    1C        C  259   4.515   3.591   4.242
    1C        C  260   4.469   3.802   4.360
    1C        C  261   4.489   3.735   4.483
    1C        C  262   4.425   3.941   4.601
    1C        C  263   4.479   3.810   4.602
    1C        C  264   4.399   4.006   4.723
    1C        C  265   4.433   3.944   4.846
    1C        C  266   4.321   4.130   4.958
    1C        C  267   4.391   4.009   4.963
    1C        C  268   4.262   2.771   2.060
    1C        C  269   4.199   2.726   2.177
    1C        C  270   4.342   2.886   2.298
    1C        C  271   4.248   2.780   2.298
    1C        C  272   4.382   2.951   2.417
    1C        C  273   4.339   2.894   2.539
    1C        C  274   4.441   3.083   2.658
    1C        C  275   4.375   2.958   2.659
    1C        C  276   4.468   3.151   2.779
    1C        C  277   4.436   3.089   2.901
    1C        C  278   4.495   3.292   3.022
    1C        C  279   4.464   3.155   3.023
    1C        C  280   4.504   3.363   3.144
    1C        C  281   4.492   3.297   3.268
    1C        C  282   4.511   3.511   3.387
    1C        C  283   4.505   3.370   3.389
    1C        C  284   4.509   3.581   3.509
    1C        C  285   4.509   3.513   3.633
    1C        C  286   4.493   3.722   3.752
    1C        C  287   4.516   3.583   3.756
    1C        C  288   4.475   3.792   3.874
    1C        C  289   4.490   3.725   3.997
    1C        C  290   4.426   3.931   4.115
    1C        C  291   4.472   3.797   4.117
    1C        C  292   4.404   4.002   4.234
    1C        C  293   4.425   3.936   4.357
    1C        C  294   4.325   4.126   4.480
    1C        C  295   4.390   4.001   4.478
    1C        C  296   4.281   4.184   4.601
    1C        C  297   4.323   4.126   4.722
    1C        C  298   4.193   4.306   4.836
    1C        C  299   4.273   4.188   4.840
    1C        C  300   4.165   4.398   4.942
    1C        C  301   4.353   2.877   2.059
    1C        C  302   4.470   3.062   2.179
    1C        C  303   4.393   2.941   2.177
    1C        C  304   4.488   3.138   2.297
    1C        C  305   4.448   3.076   2.418
    1C        C  306   4.508   3.285   2.536
    1C        C  307   4.474   3.147   2.537
    1C        C  308   4.513   3.358   2.657
    1C        C  309   4.506   3.287   2.779
    1C        C  310   4.519   3.501   2.896
    1C        C  311   4.515   3.360   2.900
    1C        C  312   4.516   3.572   3.018
    1C        C  313   4.514   3.504   3.142
    1C        C  314   4.491   3.718   3.262
    1C        C  315   4.513   3.578   3.263
    1C        C  316   4.473   3.788   3.383
    1C        C  317   4.491   3.721   3.506
    1C        C  318   4.430   3.923   3.626
    1C        C  319   4.479   3.791   3.629
    1C        C  320   4.397   3.986   3.748
    1C        C  321   4.428   3.925   3.871
    1C        C  322   4.315   4.108   3.991
    1C        C  323   4.395   3.992   3.991
    1C        C  324   4.271   4.165   4.113
    1C        C  325   4.326   4.121   4.235
    1C        C  326   4.188   4.284   4.353
    1C        C  327   4.286   4.182   4.356
    1C        C  328   4.136   4.339   4.472
    1C        C  329   4.189   4.291   4.594
    1C        C  330   4.022   4.433   4.713
    1C        C  331   4.136   4.348   4.712
    1C        C  332   3.971   4.496   4.829
    1C        C  333   4.052   4.481   4.943
    1C        C  334   4.548   3.265   2.062
    1C        C  335   4.527   3.126   2.064
    1C        C  336   4.537   3.348   2.174
    1C        C  337   4.514   3.278   2.294
    1C        C  338   4.521   3.495   2.410
    1C        C  339   4.520   3.354   2.413
    1C        C  340   4.523   3.569   2.530
    1C        C  341   4.522   3.499   2.653
    1C        C  342   4.491   3.712   2.772
    1C        C  343   4.512   3.572   2.774
    1C        C  344   4.473   3.781   2.894
    1C        C  345   4.491   3.711   3.015
    1C        C  346   4.425   3.913   3.138
    1C        C  347   4.469   3.779   3.136
    1C        C  348   4.400   3.984   3.257
    1C        C  349   4.428   3.922   3.381
    1C        C  350   4.323   4.104   3.502
    1C        C  351   4.402   3.987   3.503
    1C        C  352   4.280   4.163   3.623
    1C        C  353   4.319   4.104   3.745
    1C        C  354   4.178   4.265   3.864
    1C        C  355   4.274   4.161   3.866
    1C        C  356   4.121   4.312   3.985
    1C        C  357   4.175   4.268   4.108
    1C        C  358   4.010   4.397   4.228
    1C        C  359   4.130   4.324   4.230
    1C        C  360   3.950   4.439   4.349
    1C        C  361   4.017   4.415   4.471
    1C        C  362   3.826   4.512   4.590
    1C        C  363   3.956   4.457   4.591
    1C        C  364   3.759   4.540   4.711
    1C        C  365   3.836   4.535   4.829
    1C        C  366   3.624   4.587   4.945
    1C        C  367   3.761   4.566   4.944
    1C        C  368   4.508   3.562   2.050
    1C        C  369   4.523   3.489   2.169
    1C        C  370   4.502   3.706   2.286
    1C        C  371   4.516   3.565   2.287
    1C        C  372   4.484   3.778   2.406
    1C        C  373   4.501   3.708   2.527
    1C        C  374   4.427   3.909   2.649
    1C        C  375   4.480   3.778   2.648
    1C        C  376   4.396   3.976   2.770
    1C        C  377   4.425   3.914   2.893
    1C        C  378   4.320   4.099   3.014
    1C        C  379   4.393   3.978   3.016
    1C        C  380   4.273   4.154   3.135
    1C        C  381   4.320   4.101   3.257
    1C        C  382   4.175   4.255   3.376
    1C        C  383   4.276   4.156   3.379
    1C        C  384   4.122   4.304   3.498
    1C        C  385   4.179   4.262   3.621
    1C        C  386   4.007   4.388   3.740
    1C        C  387   4.123   4.309   3.742
    1C        C  388   3.945   4.428   3.860
    1C        C  389   4.002   4.388   3.983
    1C        C  390   3.815   4.483   4.105
    1C        C  391   3.944   4.426   4.106
    1C        C  392   3.750   4.514   4.227
    1C        C  393   3.819   4.491   4.348
    1C        C  394   3.615   4.550   4.471
    1C        C  395   3.754   4.524   4.469
    1C        C  396   3.542   4.557   4.592
    1C        C  397   3.618   4.558   4.710
    1C        C  398   3.406   4.547   4.838
    1C        C  399   3.545   4.570   4.830
    1C        C  400   3.340   4.519   4.958
    1C        C  401   4.496   3.700   2.049
    1C        C  402   4.453   3.915   2.163
    1C        C  403   4.487   3.777   2.165
    1C        C  404   4.414   3.977   2.283
    1C        C  405   4.435   3.911   2.406
    1C        C  406   4.322   4.092   2.525
    1C        C  407   4.398   3.974   2.527
    1C        C  408   4.275   4.149   2.645
    1C        C  409   4.317   4.093   2.768
    1C        C  410   4.173   4.247   2.888
    1C        C  411   4.277   4.151   2.890
    1C        C  412   4.117   4.292   3.009
    1C        C  413   4.171   4.252   3.133
    1C        C  414   4.000   4.377   3.251
    1C        C  415   4.118   4.299   3.255
    1C        C  416   3.939   4.411   3.374
    1C        C  417   4.002   4.377   3.496
    1C        C  418   3.810   4.470   3.617
    1C        C  419   3.939   4.412   3.618
    1C        C  420   3.745   4.499   3.739
    1C        C  421   3.814   4.481   3.861
    1C        C  422   3.608   4.532   3.986
    1C        C  423   3.747   4.504   3.983
    1C        C  424   3.536   4.539   4.107
    1C        C  425   3.610   4.537   4.228
    1C        C  426   3.401   4.551   4.355
    1C        C  427   3.542   4.554   4.350
    1C        C  428   3.328   4.543   4.476
    1C        C  429   3.401   4.555   4.596
    1C        C  430   3.192   4.512   4.722
    1C        C  431   3.331   4.542   4.719
    1C        C  432   3.125   4.490   4.846
    1C        C  433   3.204   4.489   4.961
    1C        C  434   4.378   4.119   2.047
    1C        C  435   4.447   3.997   2.050
    1C        C  436   4.301   4.161   2.160
    1C        C  437   4.335   4.095   2.281
    1C        C  438   4.186   4.251   2.402
    1C        C  439   4.287   4.153   2.401
    1C        C  440   4.123   4.294   2.521
    1C        C  441   4.172   4.246   2.644
    1C        C  442   4.001   4.373   2.764
    1C        C  443   4.117   4.292   2.766
    1C        C  444   3.938   4.407   2.886
    1C        C  445   4.000   4.372   3.008
    1C        C  446   3.808   4.465   3.128
    1C        C  447   3.938   4.411   3.129
    1C        C  448   3.743   4.486   3.252
    1C        C  449   3.810   4.468   3.376
    1C        C  450   3.604   4.527   3.495
    1C        C  451   3.743   4.499   3.496
    1C        C  452   3.536   4.539   3.618
    1C        C  453   3.607   4.530   3.740
    1C        C  454   3.398   4.544   3.862
    1C        C  455   3.539   4.545   3.863
    1C        C  456   3.329   4.534   3.985
    1C        C  457   3.395   4.541   4.109
    1C        C  458   3.191   4.507   4.235
    1C        C  459   3.329   4.538   4.234
    1C        C  460   3.122   4.485   4.356
    1C        C  461   3.190   4.512   4.477
    1C        C  462   2.995   4.434   4.603
    1C        C  463   3.124   4.490   4.600
    1C        C  464   2.927   4.403   4.723
    1C        C  465   2.992   4.439   4.844
    1C        C  466   2.802   4.333   4.959
    1C        C  467   2.905   4.427   4.958
    1C        C  468   4.122   4.282   2.042
    1C        C  469   4.186   4.246   2.161
    1C        C  470   4.005   4.366   2.277
    1C        C  471   4.128   4.295   2.281
    1C        C  472   3.937   4.395   2.398
    1C        C  473   4.004   4.370   2.519
    1C        C  474   3.810   4.458   2.641
    1C        C  475   3.942   4.407   2.641
    1C        C  476   3.741   4.480   2.762
    1C        C  477   3.809   4.465   2.885
    1C        C  478   3.601   4.511   3.009
    1C        C  479   3.740   4.487   3.006
    1C        C  480   3.531   4.523   3.131
    1C        C  481   3.605   4.514   3.252
    1C        C  482   3.393   4.538   3.375
    1C        C  483   3.533   4.528   3.373
    1C        C  484   3.325   4.532   3.499
    1C        C  485   3.395   4.543   3.621
    1C        C  486   3.186   4.505   3.746
    1C        C  487   3.323   4.538   3.742
    1C        C  488   3.122   4.477   3.868
    1C        C  489   3.192   4.499   3.989
    1C        C  490   2.999   4.420   4.114
    1C        C  491   3.125   4.484   4.113
    1C        C  492   2.937   4.385   4.236
    1C        C  493   2.996   4.422   4.359
    1C        C  494   2.829   4.298   4.485
    1C        C  495   2.934   4.392   4.482
    1C        C  496   2.771   4.253   4.606
    1C        C  497   2.814   4.316   4.724
    1C        C  498   2.662   4.163   4.845
    1C        C  499   2.750   4.274   4.843
    1C        C  500   2.599   4.113   4.960
    1C        C  501   4.003   4.354   2.041
    1C        C  502   3.812   4.461   2.153
    1C        C  503   3.939   4.399   2.157
    1C        C  504   3.743   4.480   2.275
    1C        C  505   3.808   4.452   2.397
    1C        C  506   3.604   4.510   2.521
    1C        C  507   3.741   4.478   2.519
    1C        C  508   3.532   4.521   2.643
    1C        C  509   3.603   4.511   2.764
    1C        C  510   3.391   4.528   2.886
    1C        C  511   3.532   4.519   2.886
    1C        C  512   3.320   4.525   3.008
    1C        C  513   3.390   4.528   3.130
    1C        C  514   3.184   4.494   3.255
    1C        C  515   3.321   4.527   3.253
    1C        C  516   3.120   4.472   3.379
    1C        C  517   3.189   4.495   3.501
    1C        C  518   2.994   4.416   3.626
    1C        C  519   3.120   4.480   3.623
    1C        C  520   2.939   4.373   3.749
    1C        C  521   2.996   4.413   3.871
    1C        C  522   2.829   4.284   3.995
    1C        C  523   2.940   4.372   3.995
    1C        C  524   2.782   4.236   4.119
    1C        C  525   2.830   4.292   4.239
    1C        C  526   2.697   4.131   4.364
    1C        C  527   2.782   4.244   4.363
    1C        C  528   2.649   4.077   4.485
    1C        C  529   2.684   4.142   4.605
    1C        C  530   2.580   3.959   4.728
    1C        C  531   2.639   4.089   4.728
    1C        C  532   2.536   3.900   4.849
    1C        C  533   2.526   3.994   4.957
    1C        C  534   3.616   4.557   2.042
    1C        C  535   3.748   4.510   2.039
    1C        C  536   3.534   4.535   2.158
    1C        C  537   3.604   4.510   2.279
    1C        C  538   3.391   4.516   2.396
    1C        C  539   3.532   4.518   2.400
    1C        C  540   3.320   4.508   2.518
    1C        C  541   3.391   4.518   2.640
    1C        C  542   3.183   4.488   2.766
    1C        C  543   3.321   4.517   2.763
    1C        C  544   3.117   4.465   2.888
    1C        C  545   3.183   4.489   3.011
    1C        C  546   2.991   4.404   3.136
    1C        C  547   3.115   4.471   3.134
    1C        C  548   2.937   4.363   3.259
    1C        C  549   2.994   4.407   3.381
    1C        C  550   2.828   4.282   3.506
    1C        C  551   2.936   4.373   3.505
    1C        C  552   2.776   4.234   3.628
    1C        C  553   2.830   4.282   3.749
    1C        C  554   2.695   4.122   3.874
    1C        C  555   2.779   4.236   3.872
    1C        C  556   2.659   4.064   3.997
    1C        C  557   2.699   4.122   4.120
    1C        C  558   2.596   3.941   4.245
    1C        C  559   2.657   4.068   4.244
    1C        C  560   2.567   3.878   4.368
    1C        C  561   2.585   3.951   4.487
    1C        C  562   2.530   3.746   4.613
    1C        C  563   2.566   3.883   4.610
    1C        C  564   2.516   3.682   4.738
    1C        C  565   2.519   3.758   4.858
    1C        C  566   2.529   3.545   4.978
    1C        C  567   2.520   3.684   4.977
    1C        C  568   3.328   4.468   2.041
    1C        C  569   3.394   4.509   2.157
    1C        C  570   3.179   4.477   2.280
    1C        C  571   3.317   4.509   2.276
    1C        C  572   3.111   4.460   2.402
    1C        C  573   3.183   4.478   2.523
    1C        C  574   2.986   4.402   2.647
    1C        C  575   3.114   4.461   2.645
    1C        C  576   2.925   4.368   2.770
    1C        C  577   2.989   4.404   2.891
    1C        C  578   2.824   4.273   3.014
    1C        C  579   2.931   4.366   3.014
    1C        C  580   2.777   4.222   3.137
    1C        C  581   2.828   4.273   3.259
    1C        C  582   2.698   4.113   3.382
    1C        C  583   2.781   4.227   3.384
    1C        C  584   2.659   4.058   3.506
    1C        C  585   2.692   4.120   3.629
    1C        C  586   2.599   3.931   3.753
    1C        C  587   2.658   4.059   3.753
    1C        C  588   2.574   3.869   3.878
    1C        C  589   2.600   3.936   4.000
    1C        C  590   2.537   3.737   4.124
    1C        C  591   2.572   3.873   4.123
    1C        C  592   2.525   3.670   4.248
    1C        C  593   2.536   3.740   4.370
    1C        C  594   2.514   3.532   4.496
    1C        C  595   2.521   3.673   4.493
    1C        C  596   2.517   3.464   4.619
    1C        C  597   2.518   3.540   4.739
    1C        C  598   2.533   3.328   4.862
    1C        C  599   2.526   3.469   4.861
    1C        C  600   2.532   3.252   4.979
    1C        C  601   3.195   4.432   2.040
    1C        C  602   2.981   4.394   2.156
    1C        C  603   3.118   4.436   2.158
    1C        C  604   2.924   4.359   2.282
    1C        C  605   2.985   4.395   2.404
    1C        C  606   2.816   4.271   2.526
    1C        C  607   2.926   4.359   2.527
    1C        C  608   2.767   4.224   2.650
    1C        C  609   2.818   4.276   2.771
    1C        C  610   2.687   4.109   2.893
    1C        C  611   2.772   4.222   2.893
    1C        C  612   2.655   4.048   3.016
    1C        C  613   2.694   4.108   3.138
    1C        C  614   2.592   3.926   3.264
    1C        C  615   2.653   4.054   3.262
    1C        C  616   2.572   3.862   3.389
    1C        C  617   2.602   3.929   3.509
    1C        C  618   2.534   3.729   3.635
    1C        C  619   2.572   3.865   3.631
    1C        C  620   2.521   3.663   3.759
    1C        C  621   2.532   3.734   3.880
    1C        C  622   2.514   3.523   4.005
    1C        C  623   2.524   3.664   4.003
    1C        C  624   2.516   3.457   4.130
    1C        C  625   2.516   3.529   4.252
    1C        C  626   2.537   3.319   4.377
    1C        C  627   2.516   3.459   4.374
    1C        C  628   2.552   3.252   4.500
    1C        C  629   2.539   3.325   4.621
    1C        C  630   2.595   3.119   4.744
    1C        C  631   2.549   3.254   4.743
    1C        C  632   2.615   3.049   4.866
    1C        C  633   2.560   3.114   4.981
    1C        C  634   2.778   4.301   2.051
    1C        C  635   2.892   4.383   2.045
    1C        C  636   2.746   4.229   2.167
    1C        C  637   2.812   4.272   2.285
    1C        C  638   2.678   4.106   2.409
    1C        C  639   2.760   4.221   2.406
    1C        C  640   2.645   4.045   2.532
    1C        C  641   2.683   4.111   2.651
    1C        C  642   2.590   3.919   2.776
    1C        C  643   2.647   4.048   2.772
    1C        C  644   2.565   3.854   2.899
    1C        C  645   2.591   3.922   3.020
    1C        C  646   2.530   3.722   3.148
    1C        C  647   2.565   3.859   3.143
    1C        C  648   2.516   3.652   3.270
    1C        C  649   2.531   3.727   3.389
    1C        C  650   2.521   3.517   3.514
    1C        C  651   2.524   3.658   3.512
    1C        C  652   2.521   3.449   3.638
    1C        C  653   2.520   3.522   3.759
    1C        C  654   2.539   3.313   3.886
    1C        C  655   2.520   3.453   3.883
    1C        C  656   2.558   3.249   4.010
    1C        C  657   2.537   3.317   4.132
    1C        C  658   2.598   3.117   4.255
    1C        C  659   2.546   3.248   4.255
    1C        C  660   2.632   3.057   4.378
    1C        C  661   2.599   3.119   4.501
    1C        C  662   2.707   2.937   4.620
    1C        C  663   2.627   3.054   4.623
    1C        C  664   2.744   2.873   4.740
    1C        C  665   2.698   2.933   4.861
    1C        C  666   2.742   2.871   4.979
    1C        C  667   2.671   4.024   2.053
    1C        C  668   2.678   4.106   2.167
    1C        C  669   2.587   3.912   2.286
    1C        C  670   2.639   4.045   2.288
    1C        C  671   2.564   3.847   2.409
    1C        C  672   2.586   3.917   2.530
    1C        C  673   2.524   3.717   2.660
    1C        C  674   2.562   3.853   2.654
    1C        C  675   2.507   3.645   2.781
    1C        C  676   2.528   3.718   2.900
    1C        C  677   2.518   3.511   3.026
    1C        C  678   2.521   3.652   3.025
    1C        C  679   2.515   3.441   3.148
    1C        C  680   2.506   3.511   3.270
    1C        C  681   2.536   3.304   3.400
    1C        C  682   2.517   3.444   3.394
    1C        C  683   2.549   3.234   3.522
    1C        C  684   2.533   3.308   3.642
    1C        C  685   2.598   3.108   3.769
    1C        C  686   2.551   3.242   3.765
    1C        C  687   2.629   3.043   3.891
    1C        C  688   2.599   3.114   4.009
    1C        C  689   2.706   2.934   4.138
    1C        C  690   2.630   3.053   4.133
    1C        C  691   2.751   2.877   4.259
    1C        C  692   2.708   2.939   4.379
    1C        C  693   2.748   2.876   4.499
    1C        C  694   2.622   3.893   2.051
    1C        C  695   2.527   3.701   2.172
    1C        C  696   2.573   3.835   2.169
    1C        C  697   2.509   3.637   2.297
    1C        C  698   2.525   3.712   2.416
    1C        C  699   2.496   3.504   2.541
    1C        C  700   2.510   3.644   2.539
    1C        C  701   2.505   3.431   2.662
    1C        C  702   2.501   3.504   2.783
    1C        C  703   2.533   3.296   2.908
    1C        C  704   2.515   3.436   2.906
    1C        C  705   2.550   3.231   3.032
    1C        C  706   2.535   3.301   3.154
    1C        C  707   2.603   3.104   3.278
    1C        C  708   2.551   3.235   3.278
    1C        C  709   2.630   3.039   3.401
    1C        C  710   2.601   3.103   3.524
    1C        C  711   2.705   2.923   3.648
    1C        C  712   2.630   3.043   3.648
    1C        C  713   2.751   2.870   3.770
    1C        C  714   2.710   2.927   3.892
    1C        C  715   2.752   2.876   4.017
    1C        C  716   2.446   3.499   2.066
    1C        C  717   2.495   3.630   2.056
    1C        C  718   2.467   3.419   2.183
    1C        C  719   2.492   3.496   2.300
    1C        C  720   2.518   3.287   2.421
    1C        C  721   2.494   3.427   2.423
    1C        C  722   2.538   3.220   2.543
    1C        C  723   2.531   3.292   2.665
    1C        C  724   2.594   3.092   2.790
    1C        C  725   2.544   3.224   2.787
    1C        C  726   2.622   3.028   2.913
    1C        C  727   2.595   3.097   3.033
    1C        C  728   2.699   2.914   3.157
    1C        C  729   2.630   3.037   3.157
    1C        C  730   2.749   2.864   3.280
    1C        C  731   2.706   2.920   3.402
    1C        C  732   2.747   2.866   3.526
    1C        C  733   2.492   3.192   2.070
    1C        C  734   2.489   3.278   2.181
    1C        C  735   2.586   3.083   2.304
    1C        C  736   2.528   3.213   2.302
    1C        C  737   2.609   3.016   2.426
    1C        C  738   2.585   3.087   2.546
    1C        C  739   2.699   2.907   2.668
    1C        C  740   2.620   3.025   2.668
    1C        C  741   2.738   2.850   2.791
    1C        C  742   2.693   2.906   2.912
    1C        C  743   2.740   2.855   3.035
    1C        C  744   2.538   3.061   2.073
    1C        C  745   2.683   2.892   2.182
    1C        C  746   2.604   3.009   2.185
    1C        C  747   2.725   2.835   2.304
    1C        C  748   2.687   2.898   2.424
    1C        C  749   2.741   2.850   2.546
    1C        C  750   2.736   2.835   2.065
    1C        C  751   3.667   2.291   2.006
    1C        O  752   3.681   2.180   2.063
    1C        O  753   3.636   2.289   1.869
    1C        C  754   4.603   3.049   1.963
    1C        O  755   4.576   3.047   1.840
    1C        O  756   4.733   3.002   1.985
    1C        C  757   4.431   4.213   1.945
    1C        O  758   4.508   4.307   1.979
    1C        O  759   4.431   4.192   1.807
    1C        C  760   3.602   4.689   1.977
    1C        O  761   3.614   4.798   2.039
    1C        O  762   3.637   4.707   1.843
    1C        C  763   2.881   4.490   1.943
    1C        O  764   2.878   4.465   1.820
    1C        O  765   2.847   4.620   1.980
    1C        C  766   2.326   3.476   1.983
    1C        O  767   2.336   3.409   1.877
    1C        O  768   2.212   3.556   1.966
    1C        C  769   4.704   3.590   5.044
    1C        O  770   4.709   3.565   5.167
    1C        O  771   4.835   3.615   5.001
    1C        C  772   4.262   4.433   5.048
    1C        O  773   4.268   4.374   5.159
    1C        O  774   4.323   4.559   5.054
    1C        C  775   4.145   2.514   5.071
    1C        O  776   4.174   2.392   5.057
    1C        O  777   4.168   2.565   5.200
    1C        C  778   2.867   4.556   5.019
    1C        O  779   2.761   4.616   4.986
    1C        O  780   2.934   4.595   5.136
    1C        C  781   2.486   3.042   5.088
    1C        O  782   2.366   3.007   5.072
    1C        O  783   2.536   3.046   5.218
    1C        C  784   2.392   4.006   5.019
    1C        O  785   2.308   4.088   4.975
    1C        O  786   2.388   4.012   5.159
    1C        C  787   2.959   2.444   1.979
    1C        O  788   2.962   2.475   1.857
    1C        O  789   2.901   2.319   2.002
    1C        C  790   3.178   2.356   5.042
    1C        O  791   3.094   2.268   5.007
    1C        O  792   3.199   2.341   5.180
    1C        H  793   4.312   3.004   5.066
    1C        H  794   4.205   2.794   5.073
    1C        H  795   4.520   3.118   5.041
    1C        H  796   4.538   3.366   5.062
    1C        H  797   4.551   3.809   5.046
    1C        H  798   4.367   3.948   5.047
    1C        H  799   4.261   4.153   5.044
    1C        H  800   4.053   4.558   5.016
    1C        H  801   3.814   4.588   5.034
    1C        H  802   3.585   4.648   5.024
    1C        H  803   3.399   4.462   5.028
    1C        H  804   3.166   4.458   5.057
    1C        H  805   3.886   2.520   5.074
    1C        H  806   3.679   2.453   5.071
    1C        H  807   2.997   2.544   5.057
    1C        H  808   3.445   2.525   5.066
    1C        H  809   2.902   2.781   5.067
    1C        H  810   2.698   2.905   5.071
    1C        H  811   2.477   3.292   5.061
    1C        H  812   2.592   3.508   5.057
    1C        H  813   2.523   3.731   5.073
    1C        H  814   2.605   4.163   5.054
    1C        H  815   2.779   4.288   5.054
    1C        H  816   2.735   2.895   1.977
    1C        H  817   2.802   2.654   1.989
    1C        H  818   3.215   2.426   1.989
    1C        H  819   3.437   2.441   1.975
    1C        H  820   3.831   2.551   1.973
    1C        H  821   4.065   2.604   1.968
    1C        H  822   4.277   2.699   1.982
    1C        H  823   4.414   2.877   1.971
    1C        H  824   4.622   3.298   1.992
    1C        H  825   4.483   3.507   1.961
    1C        H  826   4.514   3.748   1.955
    1C        H  827   3.801   4.515   1.946
    1C        H  828   3.949   4.354   1.948
    1C        H  829   4.156   4.238   1.950
    1C        H  830   4.512   3.976   1.968
    1C        H  831   2.612   3.849   1.954
    1C        H  832   2.703   4.067   1.961
    1C        H  833   2.733   4.280   1.956
    1C        H  834   3.374   4.450   1.946
    1C        H  835   3.160   4.369   1.961
    1C        H  836   2.498   2.994   2.000
    1C        H  837   2.471   3.234   1.974
    1C        H  838   2.478   3.684   1.964
    2V3OU   H29  839   2.807   3.543   1.556
    2V3OU   C27  840   2.782   3.504   1.658
    2V3OU   H27  841   2.723   3.583   1.711
    2V3OU   H28  842   2.719   3.413   1.642
    2V3OU   O11  843   2.907   3.474   1.721
    2V3OU   C15  844   2.923   3.391   1.829
    2V3OU   C13  845   3.053   3.371   1.882
    2V3OU   C14  846   3.074   3.270   1.978
    2V3OU   C16  847   2.967   3.194   2.023
    2V3OU    H6  848   2.988   3.098   2.072
    2V3OU   C12  849   3.211   3.232   2.019
    2V3OU    O2  850   3.234   3.129   2.087
    2V3OU   C10  851   3.320   3.306   1.953
    2V3OU    C8  852   3.451   3.265   1.976
    2V3OU   O10  853   3.483   3.148   2.037
    2V3OU   H26  854   3.397   3.110   2.060
    2V3OU    C6  855   3.563   3.348   1.943
    2V3OU    C5  856   3.536   3.465   1.874
    2V3OU    C4  857   3.701   3.292   1.932
    2V3OU    H4  858   3.721   3.227   2.022
    2V3OU    H5  859   3.703   3.224   1.842
    2V3OU    C2  860   3.817   3.392   1.932
    2V3OU    O6  861   3.809   3.472   2.050
    2V3OU   H21  862   3.771   3.557   2.025
    2V3OU    C3  863   3.781   3.492   1.822
    2V3OU    H2  864   3.856   3.575   1.815
    2V3OU    H3  865   3.785   3.444   1.720
    2V3OU   C25  866   3.954   3.327   1.915
    2V3OU    O7  867   4.005   3.292   1.808
    2V3OU   C26  868   4.028   3.292   2.043
    2V3OU   H22  869   4.058   3.384   2.099
    2V3OU   H23  870   4.112   3.220   2.021
    2V3OU    O8  871   3.953   3.210   2.130
    2V3OU   H24  872   3.930   3.264   2.207
    2V3OU    C1  873   3.647   3.560   1.842
    2V3OU    H1  874   3.625   3.617   1.747
    2V3OU    O3  875   3.663   3.659   1.944
    2V3OU   C19  876   3.616   3.793   1.924
    2V3OU    H9  877   3.513   3.793   1.878
    2V3OU    O4  878   3.710   3.857   1.841
    2V3OU   C20  879   3.842   3.875   1.893
    2V3OU   H10  880   3.897   3.776   1.904
    2V3OU   C24  881   3.612   3.856   2.063
    2V3OU   H16  882   3.547   3.793   2.129
    2V3OU   H17  883   3.563   3.956   2.051
    2V3OU   C23  884   3.751   3.871   2.126
    2V3OU   H15  885   3.792   3.766   2.141
    2V3OU    N1  886   3.730   3.949   2.247
    2V3OU   H19  887   3.798   3.922   2.315
    2V3OU   H20  888   3.644   3.934   2.295
    2V3OU   C21  889   3.844   3.948   2.027
    2V3OU   H11  890   3.947   3.931   2.072
    2V3OU    O5  891   3.822   4.088   2.024
    2V3OU   H18  892   3.778   4.102   2.110
    2V3OU   C22  893   3.912   3.949   1.780
    2V3OU   H12  894   3.860   4.046   1.763
    2V3OU   H13  895   3.903   3.891   1.685
    2V3OU   H14  896   4.021   3.959   1.802
    2V3OU   C11  897   3.160   3.467   1.855
    2V3OU    O1  898   3.133   3.585   1.822
    2V3OU    C9  899   3.300   3.428   1.884
    2V3OU    C7  900   3.404   3.508   1.839
    2V3OU    O9  901   3.382   3.611   1.750
    2V3OU   H25  902   3.288   3.633   1.758
    2V3OU   C17  903   2.817   3.310   1.875
    2V3OU    H7  904   2.716   3.336   1.846
    2V3OU   C18  905   2.840   3.212   1.971
    2V3OU    H8  906   2.765   3.142   2.011
    3SOL     OW  907   2.253   4.234   0.915
    3SOL    HW1  908   2.300   4.154   0.878
    3SOL    HW2  909   2.317   4.310   0.922
    4SOL     OW  910   7.016   6.425   2.038
    4SOL    HW1  911   6.998   6.352   1.972
    4SOL    HW2  912   6.933   6.445   2.091
    5SOL     OW  913   4.131   1.356   1.867
    5SOL    HW1  914   4.141   1.454   1.886
    5SOL    HW2  915   4.045   1.340   1.820
    6SOL     OW  916   3.691   1.985   2.244
    6SOL    HW1  917   3.608   1.989   2.300
    6SOL    HW2  918   3.708   2.075   2.204
    7SOL     OW  919   6.180   2.350   2.008
    7SOL    HW1  920   6.155   2.255   1.987
    7SOL    HW2  921   6.189   2.361   2.107
    8SOL     OW  922   2.235   6.523   5.089
    8SOL    HW1  923   2.259   6.504   4.994
    8SOL    HW2  924   2.304   6.581   5.130
    9SOL     OW  925   1.397   5.698   6.002
    9SOL    HW1  926   1.421   5.783   6.049
    9SOL    HW2  927   1.378   5.627   6.070
   10SOL     OW  928   0.188   4.575   6.310
   10SOL    HW1  929   0.280   4.592   6.346
   10SOL    HW2  930   0.162   4.481   6.330
   11SOL     OW  931   2.988   0.207   0.562
   11SOL    HW1  932   3.039   0.136   0.513
   11SOL    HW2  933   2.906   0.167   0.603
   12SOL     OW  934   4.473   6.000   3.326
   12SOL    HW1  935   4.566   5.966   3.341
   12SOL    HW2  936   4.447   5.984   3.231
   13SOL     OW  937   3.185   6.158   4.270
   13SOL    HW1  938   3.136   6.135   4.186
   13SOL    HW2  939   3.282   6.175   4.250
   14SOL     OW  940   3.549   5.849   6.217
   14SOL    HW1  941   3.528   5.752   6.224
   14SOL    HW2  942   3.611   5.875   6.291
   15SOL     OW  943   1.619   6.122   0.451
   15SOL    HW1  944   1.605   6.037   0.401
   15SOL    HW2  945   1.653   6.102   0.543
   16SOL     OW  946   6.489   2.023   5.849
   16SOL    HW1  947   6.480   2.012   5.948
   16SOL    HW2  948   6.461   1.939   5.803
   17SOL     OW  949   5.263   5.990   4.475
   17SOL    HW1  950   5.198   5.985   4.399
   17SOL    HW2  951   5.237   6.065   4.536
   18SOL     OW  952   2.994   2.084   6.352
   18SOL    HW1  953   2.997   2.182   6.368
   18SOL    HW2  954   3.064   2.058   6.286
   19SOL     OW  955   0.144   0.159   3.249
   19SOL    HW1  956   0.106   0.188   3.161
   19SOL    HW2  957   0.176   0.065   3.242
   20SOL     OW  958   3.449   0.915   4.241
   20SOL    HW1  959   3.377   0.881   4.301
   20SOL    HW2  960   3.513   0.841   4.220
   21SOL     OW  961   2.970   1.935   2.489
   21SOL    HW1  962   2.992   1.893   2.401
   21SOL    HW2  963   2.874   1.963   2.489
   22SOL     OW  964   1.740   0.602   6.930
   22SOL    HW1  965   1.720   0.517   6.882
   22SOL    HW2  966   1.835   0.629   6.915
   23SOL     OW  967   4.599   6.860   3.474
   23SOL    HW1  968   4.526   6.797   3.501
   23SOL    HW2  969   4.569   6.954   3.489
   24SOL     OW  970   5.174   1.332   4.366
   24SOL    HW1  971   5.091   1.386   4.351
   24SOL    HW2  972   5.254   1.393   4.367
   25SOL     OW  973   2.997   5.979   6.594
   25SOL    HW1  974   3.081   6.005   6.641
   25SOL    HW2  975   3.009   5.888   6.554
   26SOL     OW  976   6.248   0.995   1.530
   26SOL    HW1  977   6.194   0.910   1.530
   26SOL    HW2  978   6.261   1.026   1.436
   27SOL     OW  979   0.088   0.510   2.309
   27SOL    HW1  980   0.002   0.497   2.357
   27SOL    HW2  981   0.072   0.558   2.223
   28SOL     OW  982   4.517   0.767   6.918
   28SOL    HW1  983   4.534   0.856   6.962
   28SOL    HW2  984   4.435   0.774   6.861
   29SOL     OW  985   5.186   2.394   2.274
   29SOL    HW1  986   5.225   2.387   2.182
   29SOL    HW2  987   5.137   2.481   2.283
   30SOL     OW  988   2.816   6.910   5.944
   30SOL    HW1  989   2.835   7.008   5.946
   30SOL    HW2  990   2.901   6.861   5.923
   31SOL     OW  991   0.705   1.145   5.836
   31SOL    HW1  992   0.764   1.221   5.862
   31SOL    HW2  993   0.752   1.090   5.766
   32SOL     OW  994   0.396   2.596   2.957
   32SOL    HW1  995   0.464   2.667   2.943
   32SOL    HW2  996   0.436   2.522   3.010
   33SOL     OW  997   1.931   3.021   6.227
   33SOL    HW1  998   1.999   3.079   6.184
   33SOL    HW2  999   1.962   2.993   6.318
   34SOL     OW 1000   1.862   0.508   4.898
   34SOL    HW1 1001   1.810   0.590   4.873
   34SOL    HW2 1002   1.855   0.441   4.824
   35SOL     OW 1003   4.518   2.383   6.035
   35SOL    HW1 1004   4.530   2.404   5.938
   35SOL    HW2 1005   4.604   2.398   6.083
   36SOL     OW 1006   0.696   0.547   6.329
   36SOL    HW1 1007   0.697   0.645   6.309
   36SOL    HW2 1008   0.633   0.501   6.267
   37SOL     OW 1009   2.347   6.659   0.986
   37SOL    HW1 1010   2.408   6.586   0.955
   37SOL    HW2 1011   2.372   6.687   1.078
   38SOL     OW 1012   0.169   6.209   2.943
   38SOL    HW1 1013   0.177   6.301   2.981
   38SOL    HW2 1014   0.105   6.210   2.866
   39SOL     OW 1015   6.386   3.987   6.315
   39SOL    HW1 1016   6.371   3.902   6.365
   39SOL    HW2 1017   6.441   4.050   6.370
   40SOL     OW 1018   6.412   2.134   2.400
   40SOL    HW1 1019   6.436   2.125   2.304
   40SOL    HW2 1020   6.406   2.231   2.424
   41SOL     OW 1021   1.649   6.327   4.282
   41SOL    HW1 1022   1.747   6.308   4.277
   41SOL    HW2 1023   1.630   6.419   4.247
   42SOL     OW 1024   3.106   6.860   5.832
   42SOL    HW1 1025   3.122   6.886   5.927
   42SOL    HW2 1026   3.184   6.889   5.775
   43SOL     OW 1027   6.025   5.784   6.261
   43SOL    HW1 1028   5.997   5.731   6.341
   43SOL    HW2 1029   5.948   5.791   6.197
   44SOL     OW 1030   6.920   2.600   6.346
   44SOL    HW1 1031   6.829   2.636   6.366
   44SOL    HW2 1032   6.957   2.646   6.265
   45SOL     OW 1033   3.572   0.445   2.849
   45SOL    HW1 1034   3.494   0.384   2.860
   45SOL    HW2 1035   3.629   0.441   2.932
   46SOL     OW 1036   0.677   3.699   4.550
   46SOL    HW1 1037   0.596   3.698   4.491
   46SOL    HW2 1038   0.740   3.770   4.519
   47SOL     OW 1039   6.383   3.379   3.976
   47SOL    HW1 1040   6.393   3.460   3.919
   47SOL    HW2 1041   6.412   3.298   3.925
   48SOL     OW 1042   0.467   2.317   5.093
   48SOL    HW1 1043   0.441   2.322   5.190
   48SOL    HW2 1044   0.458   2.407   5.051
   49SOL     OW 1045   4.715   3.919   1.692
   49SOL    HW1 1046   4.728   4.016   1.671
   49SOL    HW2 1047   4.774   3.893   1.768
   50SOL     OW 1048   6.870   3.249   4.666
   50SOL    HW1 1049   6.897   3.238   4.762
   50SOL    HW2 1050   6.850   3.345   4.648
   51SOL     OW 1051   3.005   5.427   2.414
   51SOL    HW1 1052   2.931   5.367   2.383
   51SOL    HW2 1053   3.091   5.376   2.414
   52SOL     OW 1054   3.525   1.786   3.257
   52SOL    HW1 1055   3.447   1.808   3.199
   52SOL    HW2 1056   3.531   1.687   3.269
   53SOL     OW 1057   4.591   0.612   3.631
   53SOL    HW1 1058   4.674   0.643   3.583
   53SOL    HW2 1059   4.606   0.521   3.668
   54SOL     OW 1060   2.913   4.851   6.509
   54SOL    HW1 1061   2.816   4.844   6.483
   54SOL    HW2 1062   2.933   4.784   6.581
   55SOL     OW 1063   3.848   1.330   6.075
   55SOL    HW1 1064   3.823   1.408   6.132
   55SOL    HW2 1065   3.914   1.273   6.124
   56SOL     OW 1066   1.802   0.408   1.780
   56SOL    HW1 1067   1.830   0.504   1.779
   56SOL    HW2 1068   1.720   0.396   1.724
   57SOL     OW 1069   5.045   0.290   0.875
   57SOL    HW1 1070   5.075   0.383   0.853
   57SOL    HW2 1071   4.948   0.292   0.899
   58SOL     OW 1072   0.678   5.546   6.534
   58SOL    HW1 1073   0.748   5.586   6.594
   58SOL    HW2 1074   0.722   5.494   6.461
   59SOL     OW 1075   1.836   0.873   6.254
   59SOL    HW1 1076   1.878   0.825   6.331
   59SOL    HW2 1077   1.796   0.959   6.285
   60SOL     OW 1078   4.914   0.721   6.079
   60SOL    HW1 1079   4.894   0.655   6.151
   60SOL    HW2 1080   4.887   0.812   6.108
   61SOL     OW 1081   5.000   0.702   4.320
   61SOL    HW1 1082   4.992   0.731   4.224
   61SOL    HW2 1083   4.990   0.782   4.380
   62SOL     OW 1084   0.571   0.915   3.717
   62SOL    HW1 1085   0.633   0.994   3.718
   62SOL    HW2 1086   0.480   0.945   3.687
   63SOL     OW 1087   6.643   1.928   3.497
   63SOL    HW1 1088   6.614   1.896   3.407
   63SOL    HW2 1089   6.657   1.850   3.558
   64SOL     OW 1090   6.710   3.617   6.443
   64SOL    HW1 1091   6.616   3.647   6.430
   64SOL    HW2 1092   6.717   3.568   6.530
   65SOL     OW 1093   6.369   4.064   5.346
   65SOL    HW1 1094   6.456   4.113   5.344
   65SOL    HW2 1095   6.329   4.071   5.438
   66SOL     OW 1096   3.288   0.991   6.596
   66SOL    HW1 1097   3.301   0.901   6.553
   66SOL    HW2 1098   3.251   0.980   6.688
   67SOL     OW 1099   5.470   6.172   5.542
   67SOL    HW1 1100   5.567   6.188   5.557
   67SOL    HW2 1101   5.438   6.100   5.603
   68SOL     OW 1102   6.278   1.076   6.591
   68SOL    HW1 1103   6.365   1.096   6.637
   68SOL    HW2 1104   6.210   1.144   6.619
   69SOL     OW 1105   1.422   4.111   6.068
   69SOL    HW1 1106   1.344   4.153   6.115
   69SOL    HW2 1107   1.447   4.165   5.988
   70SOL     OW 1108   6.756   5.607   2.838
   70SOL    HW1 1109   6.835   5.560   2.878
   70SOL    HW2 1110   6.731   5.562   2.752
   71SOL     OW 1111   2.938   2.294   3.252
   71SOL    HW1 1112   2.908   2.324   3.343
   71SOL    HW2 1113   2.959   2.374   3.196
   72SOL     OW 1114   2.775   6.044   4.614
   72SOL    HW1 1115   2.676   6.053   4.626
   72SOL    HW2 1116   2.817   6.134   4.613
   73SOL     OW 1117   3.261   2.411   6.893
   73SOL    HW1 1118   3.235   2.353   6.816
   73SOL    HW2 1119   3.195   2.400   6.967
   74SOL     OW 1120   5.180   6.988   0.359
   74SOL    HW1 1121   5.237   6.914   0.396
   74SOL    HW2 1122   5.093   6.951   0.327
   75SOL     OW 1123   3.256   5.443   5.160
   75SOL    HW1 1124   3.292   5.382   5.090
   75SOL    HW2 1125   3.327   5.459   5.230
   76SOL     OW 1126   2.108   2.788   1.556
   76SOL    HW1 1127   2.187   2.727   1.564
   76SOL    HW2 1128   2.034   2.754   1.615
   77SOL     OW 1129   5.050   5.480   4.592
   77SOL    HW1 1130   5.079   5.412   4.524
   77SOL    HW2 1131   5.073   5.571   4.559
   78SOL     OW 1132   6.961   6.788   6.324
   78SOL    HW1 1133   0.024   6.825   6.366
   78SOL    HW2 1134   6.984   6.708   6.269
   79SOL     OW 1135   2.812   6.983   0.628
   79SOL    HW1 1136   2.900   6.961   0.669
   79SOL    HW2 1137   2.795   6.921   0.551
   80SOL     OW 1138   6.402   0.599   4.518
   80SOL    HW1 1139   6.365   0.548   4.440
   80SOL    HW2 1140   6.498   0.575   4.532
   81SOL     OW 1141   2.365   0.516   2.754
   81SOL    HW1 1142   2.404   0.605   2.777
   81SOL    HW2 1143   2.286   0.529   2.693
   82SOL     OW 1144   6.664   5.424   0.208
   82SOL    HW1 1145   6.584   5.468   0.248
   82SOL    HW2 1146   6.725   5.391   0.280
   83SOL     OW 1147   6.597   6.949   0.943
   83SOL    HW1 1148   6.662   6.902   0.883
   83SOL    HW2 1149   6.509   6.957   0.896
   84SOL     OW 1150   4.885   3.590   2.897
   84SOL    HW1 1151   4.845   3.517   2.842
   84SOL    HW2 1152   4.855   3.580   2.992
   85SOL     OW 1153   0.429   1.426   5.169
   85SOL    HW1 1154   0.378   1.400   5.087
   85SOL    HW2 1155   0.406   1.521   5.194
   86SOL     OW 1156   1.011   0.283   5.579
   86SOL    HW1 1157   0.922   0.239   5.566
   86SOL    HW2 1158   1.008   0.375   5.539
   87SOL     OW 1159   4.525   2.665   0.501
   87SOL    HW1 1160   4.489   2.727   0.571
   87SOL    HW2 1161   4.457   2.653   0.429
   88SOL     OW 1162   4.609   1.754   0.298
   88SOL    HW1 1163   4.581   1.765   0.202
   88SOL    HW2 1164   4.574   1.831   0.351
   89SOL     OW 1165   1.677   2.602   0.140
   89SOL    HW1 1166   1.692   2.606   0.239
   89SOL    HW2 1167   1.766   2.605   0.094
   90SOL     OW 1168   5.224   0.225   3.995
   90SOL    HW1 1169   5.301   0.162   4.010
   90SOL    HW2 1170   5.163   0.186   3.926
   91SOL     OW 1171   4.994   4.956   4.108
   91SOL    HW1 1172   4.992   4.862   4.074
   91SOL    HW2 1173   4.945   5.015   4.045
   92SOL     OW 1174   2.844   5.273   0.342
   92SOL    HW1 1175   2.837   5.349   0.406
   92SOL    HW2 1176   2.933   5.275   0.297
   93SOL     OW 1177   2.737   4.449   5.897
   93SOL    HW1 1178   2.813   4.429   5.960
   93SOL    HW2 1179   2.758   4.412   5.807
   94SOL     OW 1180   2.921   5.577   6.648
   94SOL    HW1 1181   2.942   5.656   6.591
   94SOL    HW2 1182   2.833   5.538   6.620
   95SOL     OW 1183   0.403   1.916   3.757
   95SOL    HW1 1184   0.420   2.014   3.752
   95SOL    HW2 1185   0.305   1.899   3.748
   96SOL     OW 1186   2.527   0.090   5.971
   96SOL    HW1 1187   2.536   0.128   5.880
   96SOL    HW2 1188   2.502   7.014   5.965
   97SOL     OW 1189   7.003   3.832   5.262
   97SOL    HW1 1190   6.950   3.894   5.204
   97SOL    HW2 1191   0.071   3.814   5.220
   98SOL     OW 1192   6.005   3.514   6.708
   98SOL    HW1 1193   6.096   3.554   6.697
   98SOL    HW2 1194   5.946   3.578   6.758
   99SOL     OW 1195   4.328   3.442   1.000
   99SOL    HW1 1196   4.290   3.352   1.021
   99SOL    HW2 1197   4.382   3.475   1.078
  100SOL     OW 1198   0.605   6.923   6.249
  100SOL    HW1 1199   0.631   6.868   6.328
  100SOL    HW2 1200   0.686   6.941   6.193
  101SOL     OW 1201   0.736   5.790   2.669
  101SOL    HW1 1202   0.820   5.750   2.635
  101SOL    HW2 1203   0.677   5.719   2.707
  102SOL     OW 1204   4.511   1.372   2.793
  102SOL    HW1 1205   4.494   1.434   2.870
  102SOL    HW2 1206   4.433   1.374   2.730
  103SOL     OW 1207   4.497   1.666   1.795
  103SOL    HW1 1208   4.553   1.671   1.878
  103SOL    HW2 1209   4.504   1.575   1.755
  104SOL     OW 1210   0.075   5.942   2.717
  104SOL    HW1 1211   0.157   5.892   2.744
  104SOL    HW2 1212   7.015   5.883   2.729
  105SOL     OW 1213   6.399   1.480   6.638
  105SOL    HW1 1214   6.491   1.469   6.675
  105SOL    HW2 1215   6.332   1.469   6.712
  106SOL     OW 1216   3.435   6.947   5.985
  106SOL    HW1 1217   3.344   6.915   6.012
  106SOL    HW2 1218   3.494   6.954   6.065
  107SOL     OW 1219   1.716   2.232   1.859
  107SOL    HW1 1220   1.780   2.307   1.875
  107SOL    HW2 1221   1.764   2.154   1.818
  108SOL     OW 1222   5.227   4.643   0.046
  108SOL    HW1 1223   5.179   4.581   7.005
  108SOL    HW2 1224   5.198   4.625   0.140
  109SOL     OW 1225   0.623   0.343   1.092
  109SOL    HW1 1226   0.581   0.373   1.006
  109SOL    HW2 1227   0.562   0.279   1.139
  110SOL     OW 1228   4.051   6.379   5.484
  110SOL    HW1 1229   4.115   6.390   5.408
  110SOL    HW2 1230   3.970   6.436   5.468
  111SOL     OW 1231   4.119   0.566   4.085
  111SOL    HW1 1232   4.125   0.527   4.177
  111SOL    HW2 1233   4.163   0.504   4.019
  112SOL     OW 1234   5.775   5.990   6.141
  112SOL    HW1 1235   5.682   6.021   6.163
  112SOL    HW2 1236   5.770   5.901   6.095
  113SOL     OW 1237   6.623   4.370   3.393
  113SOL    HW1 1238   6.649   4.466   3.404
  113SOL    HW2 1239   6.549   4.362   3.326
  114SOL     OW 1240   1.021   0.305   0.472
  114SOL    HW1 1241   0.984   0.247   0.545
  114SOL    HW2 1242   1.074   0.380   0.512
  115SOL     OW 1243   4.268   1.251   4.244
  115SOL    HW1 1244   4.281   1.154   4.264
  115SOL    HW2 1245   4.270   1.266   4.146
  116SOL     OW 1246   6.181   5.352   2.225
  116SOL    HW1 1247   6.139   5.339   2.136
  116SOL    HW2 1248   6.165   5.272   2.282
  117SOL     OW 1249   0.671   1.380   6.494
  117SOL    HW1 1250   0.667   1.299   6.435
  117SOL    HW2 1251   0.750   1.374   6.554
  118SOL     OW 1252   0.287   1.663   2.218
  118SOL    HW1 1253   0.203   1.610   2.206
  118SOL    HW2 1254   0.267   1.760   2.205
  119SOL     OW 1255   0.550   2.269   6.538
  119SOL    HW1 1256   0.548   2.208   6.617
  119SOL    HW2 1257   0.609   2.231   6.467
  120SOL     OW 1258   6.696   6.721   1.333
  120SOL    HW1 1259   6.668   6.652   1.400
  120SOL    HW2 1260   6.782   6.693   1.291
  121SOL     OW 1261   2.567   3.812   0.147
  121SOL    HW1 1262   2.625   3.756   0.088
  121SOL    HW2 1263   2.591   3.797   0.243
  122SOL     OW 1264   1.445   4.252   5.821
  122SOL    HW1 1265   1.387   4.331   5.799
  122SOL    HW2 1266   1.424   4.178   5.757
  123SOL     OW 1267   0.540   2.008   1.418
  123SOL    HW1 1268   0.575   1.915   1.403
  123SOL    HW2 1269   0.583   2.070   1.353
  124SOL     OW 1270   5.697   3.116   0.005
  124SOL    HW1 1271   5.792   3.115   0.038
  124SOL    HW2 1272   5.683   3.196   6.967
  125SOL     OW 1273   2.231   1.617   2.874
  125SOL    HW1 1274   2.187   1.543   2.926
  125SOL    HW2 1275   2.229   1.595   2.777
  126SOL     OW 1276   2.730   4.906   1.067
  126SOL    HW1 1277   2.818   4.858   1.075
  126SOL    HW2 1278   2.688   4.913   1.157
  127SOL     OW 1279   0.171   4.952   6.234
  127SOL    HW1 1280   0.223   4.890   6.175
  127SOL    HW2 1281   0.132   4.901   6.310
  128SOL     OW 1282   4.304   2.748   1.708
  128SOL    HW1 1283   4.311   2.651   1.732
  128SOL    HW2 1284   4.395   2.784   1.689
  129SOL     OW 1285   4.219   3.511   5.903
  129SOL    HW1 1286   4.306   3.515   5.951
  129SOL    HW2 1287   4.213   3.426   5.851
  130SOL     OW 1288   0.761   0.709   4.424
  130SOL    HW1 1289   0.681   0.686   4.368
  130SOL    HW2 1290   0.844   0.676   4.378
  131SOL     OW 1291   4.870   1.143   2.322
  131SOL    HW1 1292   4.800   1.073   2.330
  131SOL    HW2 1293   4.924   1.146   2.406
  132SOL     OW 1294   1.852   3.299   0.724
  132SOL    HW1 1295   1.810   3.273   0.811
  132SOL    HW2 1296   1.941   3.253   0.716
  133SOL     OW 1297   5.439   6.842   3.303
  133SOL    HW1 1298   5.538   6.861   3.301
  133SOL    HW2 1299   5.404   6.840   3.210
  134SOL     OW 1300   5.925   2.592   2.860
  134SOL    HW1 1301   5.945   2.504   2.815
  134SOL    HW2 1302   5.827   2.612   2.849
  135SOL     OW 1303   5.220   2.323   2.854
  135SOL    HW1 1304   5.172   2.393   2.802
  135SOL    HW2 1305   5.299   2.365   2.901
  136SOL     OW 1306   4.413   4.058   6.911
  136SOL    HW1 1307   4.402   3.972   6.962
  136SOL    HW2 1308   4.344   4.123   6.940
  137SOL     OW 1309   3.900   0.113   5.639
  137SOL    HW1 1310   3.962   0.044   5.676
  137SOL    HW2 1311   3.830   0.068   5.583
  138SOL     OW 1312   0.365   4.884   4.517
  138SOL    HW1 1313   0.442   4.898   4.455
  138SOL    HW2 1314   0.351   4.786   4.531
  139SOL     OW 1315   2.202   6.121   5.075
  139SOL    HW1 1316   2.296   6.123   5.042
  139SOL    HW2 1317   2.178   6.028   5.104
  140SOL     OW 1318   6.780   5.750   4.052
  140SOL    HW1 1319   6.751   5.706   3.968
  140SOL    HW2 1320   6.848   5.692   4.098
  141SOL     OW 1321   7.020   1.883   5.284
  141SOL    HW1 1322   6.920   1.885   5.289
  141SOL    HW2 1323   0.028   1.835   5.201
  142SOL     OW 1324   2.028   6.232   1.071
  142SOL    HW1 1325   2.049   6.279   0.986
  142SOL    HW2 1326   2.055   6.136   1.064
  143SOL     OW 1327   5.412   4.671   2.115
  143SOL    HW1 1328   5.373   4.756   2.078
  143SOL    HW2 1329   5.356   4.640   2.192
  144SOL     OW 1330   1.820   6.591   6.167
  144SOL    HW1 1331   1.739   6.595   6.107
  144SOL    HW2 1332   1.857   6.499   6.167
  145SOL     OW 1333   1.070   5.158   0.782
  145SOL    HW1 1334   1.001   5.096   0.821
  145SOL    HW2 1335   1.149   5.163   0.844
  146SOL     OW 1336   4.160   6.482   6.278
  146SOL    HW1 1337   4.065   6.463   6.254
  146SOL    HW2 1338   4.169   6.486   6.378
  147SOL     OW 1339   6.122   2.720   0.503
  147SOL    HW1 1340   6.128   2.807   0.552
  147SOL    HW2 1341   6.124   2.738   0.405
  148SOL     OW 1342   0.197   4.914   5.850
  148SOL    HW1 1343   0.222   4.844   5.917
  148SOL    HW2 1344   0.240   4.891   5.762
  149SOL     OW 1345   3.066   1.430   3.978
  149SOL    HW1 1346   3.144   1.435   4.039
  149SOL    HW2 1347   3.087   1.480   3.893
  150SOL     OW 1348   6.330   5.063   6.186
  150SOL    HW1 1349   6.401   5.110   6.133
  150SOL    HW2 1350   6.306   5.118   6.265
  151SOL     OW 1351   3.678   2.250   1.126
  151SOL    HW1 1352   3.756   2.230   1.067
  151SOL    HW2 1353   3.693   2.209   1.216
  152SOL     OW 1354   1.852   0.903   4.282
  152SOL    HW1 1355   1.753   0.907   4.290
  152SOL    HW2 1356   1.889   0.850   4.359
  153SOL     OW 1357   2.813   0.151   1.745
  153SOL    HW1 1358   2.829   0.241   1.784
  153SOL    HW2 1359   2.747   0.102   1.801
  154SOL     OW 1360   0.010   3.142   2.396
  154SOL    HW1 1361   0.038   3.046   2.387
  154SOL    HW2 1362   0.053   3.196   2.324
  155SOL     OW 1363   0.308   1.387   3.627
  155SOL    HW1 1364   0.234   1.449   3.599
  155SOL    HW2 1365   0.322   1.395   3.726
  156SOL     OW 1366   6.731   1.636   1.500
  156SOL    HW1 1367   6.787   1.680   1.570
  156SOL    HW2 1368   6.698   1.547   1.533
  157SOL     OW 1369   6.033   3.239   1.987
  157SOL    HW1 1370   6.023   3.336   2.010
  157SOL    HW2 1371   6.053   3.229   1.890
  158SOL     OW 1372   2.808   0.167   2.118
  158SOL    HW1 1373   2.763   0.078   2.125
  158SOL    HW2 1374   2.905   0.158   2.141
  159SOL     OW 1375   4.556   4.627   1.126
  159SOL    HW1 1376   4.617   4.655   1.052
  159SOL    HW2 1377   4.526   4.708   1.176
  160SOL     OW 1378   6.658   4.645   6.351
  160SOL    HW1 1379   6.594   4.721   6.344
  160SOL    HW2 1380   6.615   4.562   6.314
  161SOL     OW 1381   1.768   4.902   4.649
  161SOL    HW1 1382   1.749   4.873   4.556
  161SOL    HW2 1383   1.712   4.850   4.713
  162SOL     OW 1384   4.050   6.628   0.285
  162SOL    HW1 1385   4.131   6.653   0.232
  162SOL    HW2 1386   4.070   6.549   0.342
  163SOL     OW 1387   4.493   5.816   1.440
  163SOL    HW1 1388   4.529   5.779   1.526
  163SOL    HW2 1389   4.555   5.886   1.405
  164SOL     OW 1390   6.904   3.742   1.510
  164SOL    HW1 1391   6.855   3.753   1.597
  164SOL    HW2 1392   6.910   3.644   1.488
  165SOL     OW 1393   5.339   3.188   1.276
  165SOL    HW1 1394   5.260   3.186   1.337
  165SOL    HW2 1395   5.423   3.184   1.330
  166SOL     OW 1396   6.865   5.126   3.579
  166SOL    HW1 1397   6.784   5.185   3.578
  166SOL    HW2 1398   6.855   5.058   3.651
  167SOL     OW 1399   6.041   1.991   0.633
  167SOL    HW1 1400   6.019   1.916   0.695
  167SOL    HW2 1401   5.957   2.031   0.598
  168SOL     OW 1402   2.923   4.010   0.775
  168SOL    HW1 1403   2.857   3.936   0.769
  168SOL    HW2 1404   2.980   3.998   0.856
  169SOL     OW 1405   3.674   0.086   2.076
  169SOL    HW1 1406   3.592   0.116   2.028
  169SOL    HW2 1407   3.707   0.161   2.134
  170SOL     OW 1408   0.583   1.820   4.258
  170SOL    HW1 1409   0.588   1.920   4.256
  170SOL    HW2 1410   0.634   1.783   4.180
  171SOL     OW 1411   3.684   4.028   0.059
  171SOL    HW1 1412   3.727   4.007   0.147
  171SOL    HW2 1413   3.725   3.973   7.008
  172SOL     OW 1414   6.005   1.478   4.288
  172SOL    HW1 1415   5.916   1.443   4.318
  172SOL    HW2 1416   6.050   1.523   4.365
  173SOL     OW 1417   6.576   0.349   4.143
  173SOL    HW1 1418   6.618   0.437   4.165
  173SOL    HW2 1419   6.628   0.275   4.186
  174SOL     OW 1420   2.808   5.312   3.566
  174SOL    HW1 1421   2.783   5.290   3.661
  174SOL    HW2 1422   2.850   5.403   3.563
  175SOL     OW 1423   2.318   0.048   1.778
  175SOL    HW1 1424   2.361   0.043   1.868
  175SOL    HW2 1425   2.317   6.978   1.736
  176SOL     OW 1426   1.885   4.074   0.698
  176SOL    HW1 1427   1.939   4.018   0.761
  176SOL    HW2 1428   1.938   4.091   0.615
  177SOL     OW 1429   5.619   2.664   2.876
  177SOL    HW1 1430   5.652   2.718   2.953
  177SOL    HW2 1431   5.540   2.708   2.835
  178SOL     OW 1432   4.757   3.326   6.119
  178SOL    HW1 1433   4.787   3.300   6.027
  178SOL    HW2 1434   4.768   3.425   6.130
  179SOL     OW 1435   2.912   1.545   6.453
  179SOL    HW1 1436   2.818   1.526   6.480
  179SOL    HW2 1437   2.922   1.643   6.436
  180SOL     OW 1438   1.184   1.095   6.537
  180SOL    HW1 1439   1.101   1.039   6.534
  180SOL    HW2 1440   1.203   1.122   6.632
  181SOL     OW 1441   3.436   1.689   7.005
  181SOL    HW1 1442   3.386   1.772   6.979
  181SOL    HW2 1443   3.394   1.610   6.962
  182SOL     OW 1444   4.322   2.264   4.511
  182SOL    HW1 1445   4.323   2.308   4.601
  182SOL    HW2 1446   4.412   2.274   4.469
  183SOL     OW 1447   3.640   0.808   2.672
  183SOL    HW1 1448   3.686   0.837   2.756
  183SOL    HW2 1449   3.568   0.742   2.695
  184SOL     OW 1450   1.224   5.615   3.794
  184SOL    HW1 1451   1.227   5.689   3.862
  184SOL    HW2 1452   1.317   5.582   3.776
  185SOL     OW 1453   1.664   2.792   6.352
  185SOL    HW1 1454   1.639   2.759   6.261
  185SOL    HW2 1455   1.651   2.720   6.419
  186SOL     OW 1456   6.581   0.900   3.474
  186SOL    HW1 1457   6.547   0.959   3.547
  186SOL    HW2 1458   6.602   0.809   3.512
  187SOL     OW 1459   4.894   0.951   3.457
  187SOL    HW1 1460   4.900   1.031   3.515
  187SOL    HW2 1461   4.907   0.868   3.512
  188SOL     OW 1462   5.956   2.731   3.108
  188SOL    HW1 1463   5.936   2.678   3.025
  188SOL    HW2 1464   5.880   2.792   3.127
  189SOL     OW 1465   1.724   5.432   2.674
  189SOL    HW1 1466   1.775   5.511   2.710
  189SOL    HW2 1467   1.636   5.463   2.638
  190SOL     OW 1468   3.724   1.314   5.231
  190SOL    HW1 1469   3.732   1.394   5.289
  190SOL    HW2 1470   3.809   1.262   5.233
  191SOL     OW 1471   5.694   5.430   6.354
  191SOL    HW1 1472   5.636   5.383   6.420
  191SOL    HW2 1473   5.713   5.369   6.277
  192SOL     OW 1474   0.234   6.335   2.118
  192SOL    HW1 1475   0.319   6.358   2.071
  192SOL    HW2 1476   0.157   6.380   2.073
  193SOL     OW 1477   4.985   2.638   6.213
  193SOL    HW1 1478   4.909   2.685   6.258
  193SOL    HW2 1479   5.018   2.693   6.137
  194SOL     OW 1480   3.568   0.929   3.187
  194SOL    HW1 1481   3.610   0.842   3.214
  194SOL    HW2 1482   3.511   0.915   3.107
  195SOL     OW 1483   1.543   6.221   3.950
  195SOL    HW1 1484   1.558   6.160   4.028
  195SOL    HW2 1485   1.487   6.175   3.882
  196SOL     OW 1486   2.637   2.477   6.912
  196SOL    HW1 1487   2.667   2.387   6.945
  196SOL    HW2 1488   2.545   2.496   6.945
  197SOL     OW 1489   2.326   1.728   1.399
  197SOL    HW1 1490   2.340   1.761   1.306
  197SOL    HW2 1491   2.412   1.691   1.434
  198SOL     OW 1492   4.539   0.827   2.942
  198SOL    HW1 1493   4.544   0.920   2.978
  198SOL    HW2 1494   4.630   0.786   2.943
  199SOL     OW 1495   1.438   2.597   4.064
  199SOL    HW1 1496   1.475   2.508   4.038
  199SOL    HW2 1497   1.346   2.608   4.026
  200SOL     OW 1498   0.545   2.637   1.004
  200SOL    HW1 1499   0.606   2.690   1.063
  200SOL    HW2 1500   0.568   2.655   0.908
  201SOL     OW 1501   0.109   0.699   5.825
  201SOL    HW1 1502   0.108   0.734   5.918
  201SOL    HW2 1503   0.021   0.658   5.803
  202SOL     OW 1504   4.510   0.970   6.650
  202SOL    HW1 1505   4.441   0.981   6.721
  202SOL    HW2 1506   4.470   0.924   6.571
  203SOL     OW 1507   6.222   2.502   5.463
  203SOL    HW1 1508   6.290   2.498   5.537
  203SOL    HW2 1509   6.241   2.429   5.397
  204SOL     OW 1510   0.625   0.200   5.716
  204SOL    HW1 1511   0.666   0.113   5.743
  204SOL    HW2 1512   0.538   0.211   5.763
  205SOL     OW 1513   1.561   2.044   3.121
  205SOL    HW1 1514   1.650   2.008   3.150
  205SOL    HW2 1515   1.489   1.982   3.152
  206SOL     OW 1516   0.619   3.502   1.781
  206SOL    HW1 1517   0.578   3.474   1.868
  206SOL    HW2 1518   0.638   3.421   1.726
  207SOL     OW 1519   5.226   1.555   3.001
  207SOL    HW1 1520   5.253   1.593   3.090
  207SOL    HW2 1521   5.308   1.537   2.947
  208SOL     OW 1522   6.938   4.168   5.516
  208SOL    HW1 1523   7.014   4.217   5.473
  208SOL    HW2 1524   6.904   4.221   5.594
  209SOL     OW 1525   6.628   4.464   2.479
  209SOL    HW1 1526   6.641   4.384   2.420
  209SOL    HW2 1527   6.536   4.460   2.520
  210SOL     OW 1528   4.210   2.082   0.495
  210SOL    HW1 1529   4.134   2.107   0.554
  210SOL    HW2 1530   4.261   2.164   0.470
  211SOL     OW 1531   1.228   0.098   2.837
  211SOL    HW1 1532   1.327   0.113   2.837
  211SOL    HW2 1533   1.186   0.153   2.909
  212SOL     OW 1534   1.420   3.851   2.613
  212SOL    HW1 1535   1.416   3.950   2.626
  212SOL    HW2 1536   1.515   3.821   2.619
  213SOL     OW 1537   1.764   6.087   1.007
  213SOL    HW1 1538   1.753   6.141   1.091
  213SOL    HW2 1539   1.843   6.026   1.017
  214SOL     OW 1540   3.866   5.293   2.223
  214SOL    HW1 1541   3.925   5.275   2.301
  214SOL    HW2 1542   3.837   5.389   2.224
  215SOL     OW 1543   2.674   4.551   1.207
  215SOL    HW1 1544   2.585   4.589   1.181
  215SOL    HW2 1545   2.689   4.565   1.305
  216SOL     OW 1546   1.217   0.367   2.553
  216SOL    HW1 1547   1.184   0.460   2.537
  216SOL    HW2 1548   1.148   0.301   2.523
  217SOL     OW 1549   0.959   2.701   5.380
  217SOL    HW1 1550   0.973   2.786   5.431
  217SOL    HW2 1551   1.047   2.669   5.345
  218SOL     OW 1552   0.945   1.656   4.982
  218SOL    HW1 1553   0.943   1.671   4.884
  218SOL    HW2 1554   0.925   1.560   5.002
  219SOL     OW 1555   4.206   0.781   0.503
  219SOL    HW1 1556   4.181   0.796   0.598
  219SOL    HW2 1557   4.210   0.869   0.455
  220SOL     OW 1558   2.863   0.490   0.794
  220SOL    HW1 1559   2.952   0.445   0.804
  220SOL    HW2 1560   2.873   0.587   0.816
  221SOL     OW 1561   5.913   4.725   1.179
  221SOL    HW1 1562   5.823   4.746   1.141
  221SOL    HW2 1563   5.930   4.627   1.173
  222SOL     OW 1564   1.393   4.453   6.486
  222SOL    HW1 1565   1.487   4.486   6.498
  222SOL    HW2 1566   1.395   4.361   6.447
  223SOL     OW 1567   0.155   2.882   4.999
  223SOL    HW1 1568   0.166   2.817   5.074
  223SOL    HW2 1569   0.063   2.873   4.960
  224SOL     OW 1570   3.612   2.136   5.806
  224SOL    HW1 1571   3.708   2.160   5.791
  224SOL    HW2 1572   3.606   2.068   5.879
  225SOL     OW 1573   4.582   3.440   5.814
  225SOL    HW1 1574   4.536   3.372   5.870
  225SOL    HW2 1575   4.580   3.529   5.860
  226SOL     OW 1576   0.799   1.666   6.322
  226SOL    HW1 1577   0.890   1.637   6.352
  226SOL    HW2 1578   0.753   1.588   6.279
  227SOL     OW 1579   2.353   4.356   2.747
  227SOL    HW1 1580   2.368   4.263   2.714
  227SOL    HW2 1581   2.366   4.359   2.846
  228SOL     OW 1582   2.181   0.966   3.055
  228SOL    HW1 1583   2.121   1.023   2.998
  228SOL    HW2 1584   2.135   0.946   3.141
  229SOL     OW 1585   5.323   5.094   6.537
  229SOL    HW1 1586   5.269   5.092   6.622
  229SOL    HW2 1587   5.268   5.133   6.464
  230SOL     OW 1588   4.389   6.117   4.777
  230SOL    HW1 1589   4.395   6.082   4.871
  230SOL    HW2 1590   4.423   6.211   4.774
  231SOL     OW 1591   5.557   1.445   6.802
  231SOL    HW1 1592   5.540   1.462   6.705
  231SOL    HW2 1593   5.646   1.483   6.827
  232SOL     OW 1594   6.845   2.914   6.558
  232SOL    HW1 1595   6.803   2.855   6.490
  232SOL    HW2 1596   6.858   3.006   6.519
  233SOL     OW 1597   3.348   2.128   3.466
  233SOL    HW1 1598   3.446   2.120   3.451
  233SOL    HW2 1599   3.331   2.147   3.562
  234SOL     OW 1600   5.868   1.019   6.306
  234SOL    HW1 1601   5.826   1.070   6.231
  234SOL    HW2 1602   5.891   0.927   6.275
  235SOL     OW 1603   5.277   3.206   2.218
  235SOL    HW1 1604   5.198   3.252   2.177
  235SOL    HW2 1605   5.350   3.272   2.233
  236SOL     OW 1606   4.947   3.208   6.871
  236SOL    HW1 1607   5.017   3.146   6.836
  236SOL    HW2 1608   4.860   3.188   6.826
  237SOL     OW 1609   0.009   4.543   1.965
  237SOL    HW1 1610   7.001   4.638   1.973
  237SOL    HW2 1611   0.058   4.516   2.048
  238SOL     OW 1612   6.462   1.053   0.734
  238SOL    HW1 1613   6.398   0.978   0.746
  238SOL    HW2 1614   6.474   1.101   0.821
  239SOL     OW 1615   0.912   4.060   0.126
  239SOL    HW1 1616   0.973   4.004   0.070
  239SOL    HW2 1617   0.954   4.077   0.215
  240SOL     OW 1618   0.267   3.153   3.478
  240SOL    HW1 1619   0.275   3.241   3.431
  240SOL    HW2 1620   0.321   3.155   3.562
  241SOL     OW 1621   2.716   2.393   4.261
  241SOL    HW1 1622   2.684   2.389   4.355
  241SOL    HW2 1623   2.799   2.337   4.252
  242SOL     OW 1624   3.484   3.795   3.023
  242SOL    HW1 1625   3.443   3.835   3.105
  242SOL    HW2 1626   3.563   3.850   2.996
  243SOL     OW 1627   4.596   1.894   0.008
  243SOL    HW1 1628   4.515   1.835   0.009
  243SOL    HW2 1629   4.677   1.840   7.005
  244SOL     OW 1630   5.860   3.581   6.260
  244SOL    HW1 1631   5.824   3.583   6.167
  244SOL    HW2 1632   5.818   3.505   6.310
  245SOL     OW 1633   4.042   1.865   4.188
  245SOL    HW1 1634   4.063   1.947   4.242
  245SOL    HW2 1635   3.990   1.891   4.107
  246SOL     OW 1636   4.804   1.815   3.197
  246SOL    HW1 1637   4.887   1.765   3.222
  246SOL    HW2 1638   4.829   1.904   3.159
  247SOL     OW 1639   2.591   1.864   0.865
  247SOL    HW1 1640   2.580   1.951   0.817
  247SOL    HW2 1641   2.679   1.824   0.841
  248SOL     OW 1642   2.243   0.933   2.725
  248SOL    HW1 1643   2.158   0.882   2.717
  248SOL    HW2 1644   2.241   1.010   2.661
  249SOL     OW 1645   5.060   6.790   5.295
  249SOL    HW1 1646   5.134   6.724   5.311
  249SOL    HW2 1647   5.082   6.876   5.340
  250SOL     OW 1648   4.255   3.713   0.955
  250SOL    HW1 1649   4.292   3.761   1.035
  250SOL    HW2 1650   4.276   3.615   0.962
  251SOL     OW 1651   4.880   3.364   5.186
  251SOL    HW1 1652   4.833   3.325   5.266
  251SOL    HW2 1653   4.824   3.438   5.147
  252SOL     OW 1654   6.238   0.065   5.584
  252SOL    HW1 1655   6.226   0.147   5.527
  252SOL    HW2 1656   6.171   0.066   5.658
  253SOL     OW 1657   3.764   4.515   5.765
  253SOL    HW1 1658   3.749   4.508   5.864
  253SOL    HW2 1659   3.860   4.536   5.748
  254SOL     OW 1660   6.587   2.189   3.507
  254SOL    HW1 1661   6.521   2.205   3.580
  254SOL    HW2 1662   6.619   2.094   3.510
  255SOL     OW 1663   1.326   4.751   5.810
  255SOL    HW1 1664   1.404   4.695   5.779
  255SOL    HW2 1665   1.286   4.709   5.892
  256SOL     OW 1666   5.728   3.308   6.081
  256SOL    HW1 1667   5.676   3.388   6.110
  256SOL    HW2 1668   5.725   3.301   5.981
  257SOL     OW 1669   5.387   6.803   3.003
  257SOL    HW1 1670   5.402   6.706   3.021
  257SOL    HW2 1671   5.445   6.832   2.927
  258SOL     OW 1672   2.567   3.830   5.604
  258SOL    HW1 1673   2.529   3.737   5.611
  258SOL    HW2 1674   2.553   3.864   5.511
  259SOL     OW 1675   5.479   1.080   2.036
  259SOL    HW1 1676   5.476   1.106   2.132
  259SOL    HW2 1677   5.574   1.075   2.005
  260SOL     OW 1678   3.726   5.373   3.059
  260SOL    HW1 1679   3.711   5.388   2.962
  260SOL    HW2 1680   3.668   5.298   3.091
  261SOL     OW 1681   5.585   4.543   1.344
  261SOL    HW1 1682   5.653   4.472   1.327
  261SOL    HW2 1683   5.551   4.579   1.257
  262SOL     OW 1684   1.639   3.867   1.012
  262SOL    HW1 1685   1.656   3.835   0.919
  262SOL    HW2 1686   1.712   3.930   1.040
  263SOL     OW 1687   1.318   0.403   4.365
  263SOL    HW1 1688   1.266   0.320   4.344
  263SOL    HW2 1689   1.388   0.382   4.434
  264SOL     OW 1690   6.367   2.767   0.679
  264SOL    HW1 1691   6.350   2.860   0.711
  264SOL    HW2 1692   6.284   2.729   0.639
  265SOL     OW 1693   6.221   6.628   2.951
  265SOL    HW1 1694   6.153   6.688   2.993
  265SOL    HW2 1695   6.294   6.609   3.016
  266SOL     OW 1696   4.668   3.013   5.854
  266SOL    HW1 1697   4.633   2.934   5.805
  266SOL    HW2 1698   4.768   3.017   5.845
  267SOL     OW 1699   1.131   1.401   5.260
  267SOL    HW1 1700   1.100   1.352   5.178
  267SOL    HW2 1701   1.052   1.433   5.311
  268SOL     OW 1702   3.187   1.267   6.076
  268SOL    HW1 1703   3.113   1.313   6.126
  268SOL    HW2 1704   3.257   1.334   6.052
  269SOL     OW 1705   2.908   2.790   0.323
  269SOL    HW1 1706   2.966   2.771   0.244
  269SOL    HW2 1707   2.888   2.888   0.328
  270SOL     OW 1708   0.666   6.275   0.434
  270SOL    HW1 1709   0.581   6.231   0.463
  270SOL    HW2 1710   0.654   6.375   0.438
  271SOL     OW 1711   0.098   1.805   6.730
  271SOL    HW1 1712   0.130   1.773   6.820
  271SOL    HW2 1713   0.001   1.780   6.719
  272SOL     OW 1714   3.878   6.269   3.993
  272SOL    HW1 1715   3.967   6.245   3.953
  272SOL    HW2 1716   3.830   6.186   4.021
  273SOL     OW 1717   1.549   4.787   5.220
  273SOL    HW1 1718   1.593   4.796   5.131
  273SOL    HW2 1719   1.515   4.876   5.250
  274SOL     OW 1720   3.359   0.989   3.385
  274SOL    HW1 1721   3.432   1.001   3.317
  274SOL    HW2 1722   3.366   0.898   3.424
  275SOL     OW 1723   6.911   6.460   2.812
  275SOL    HW1 1724   6.879   6.548   2.849
  275SOL    HW2 1725   6.854   6.387   2.847
  276SOL     OW 1726   0.162   6.987   3.728
  276SOL    HW1 1727   0.138   6.891   3.716
  276SOL    HW2 1728   0.145   0.016   3.643
  277SOL     OW 1729   1.792   3.507   6.800
  277SOL    HW1 1730   1.888   3.535   6.802
  277SOL    HW2 1731   1.781   3.423   6.854
  278SOL     OW 1732   0.191   3.254   2.657
  278SOL    HW1 1733   0.122   3.229   2.725
  278SOL    HW2 1734   0.146   3.275   2.570
  279SOL     OW 1735   5.276   2.940   4.355
  279SOL    HW1 1736   5.304   2.848   4.382
  279SOL    HW2 1737   5.292   2.953   4.257
  280SOL     OW 1738   2.642   5.457   1.586
  280SOL    HW1 1739   2.582   5.521   1.636
  280SOL    HW2 1740   2.721   5.436   1.643
  281SOL     OW 1741   2.091   4.582   1.494
  281SOL    HW1 1742   2.001   4.538   1.494
  281SOL    HW2 1743   2.161   4.514   1.471
  282SOL     OW 1744   2.956   1.152   5.129
  282SOL    HW1 1745   2.987   1.089   5.058
  282SOL    HW2 1746   3.033   1.209   5.160
  283SOL     OW 1747   5.801   2.318   6.854
  283SOL    HW1 1748   5.810   2.293   6.758
  283SOL    HW2 1749   5.770   2.413   6.861
  284SOL     OW 1750   1.081   3.467   3.910
  284SOL    HW1 1751   0.992   3.422   3.907
  284SOL    HW2 1752   1.150   3.410   3.866
  285SOL     OW 1753   5.441   4.836   4.093
  285SOL    HW1 1754   5.396   4.922   4.068
  285SOL    HW2 1755   5.517   4.819   4.030
  286SOL     OW 1756   3.533   4.003   6.704
  286SOL    HW1 1757   3.454   4.040   6.753
  286SOL    HW2 1758   3.605   4.073   6.700
  287SOL     OW 1759   1.500   3.376   1.206
  287SOL    HW1 1760   1.523   3.446   1.139
  287SOL    HW2 1761   1.504   3.415   1.298
  288SOL     OW 1762   4.047   1.549   6.094
  288SOL    HW1 1763   4.100   1.528   6.176
  288SOL    HW2 1764   3.975   1.615   6.116
  289SOL     OW 1765   1.885   4.396   5.300
  289SOL    HW1 1766   1.829   4.420   5.221
  289SOL    HW2 1767   1.854   4.449   5.380
  290SOL     OW 1768   6.811   1.335   5.043
  290SOL    HW1 1769   6.826   1.303   5.137
  290SOL    HW2 1770   6.800   1.434   5.044
  291SOL     OW 1771   0.868   1.246   3.754
  291SOL    HW1 1772   0.873   1.232   3.853
  291SOL    HW2 1773   0.791   1.306   3.734
  292SOL     OW 1774   2.154   0.998   3.505
  292SOL    HW1 1775   2.165   1.012   3.406
  292SOL    HW2 1776   2.155   1.087   3.551
  293SOL     OW 1777   4.800   5.871   3.593
  293SOL    HW1 1778   4.899   5.877   3.589
  293SOL    HW2 1779   4.771   5.776   3.586
  294SOL     OW 1780   5.410   6.363   6.838
  294SOL    HW1 1781   5.376   6.296   6.903
  294SOL    HW2 1782   5.371   6.344   6.747
  295SOL     OW 1783   4.592   0.523   2.984
  295SOL    HW1 1784   4.685   0.548   3.008
  295SOL    HW2 1785   4.532   0.538   3.062
  296SOL     OW 1786   3.471   1.596   2.946
  296SOL    HW1 1787   3.526   1.515   2.967
  296SOL    HW2 1788   3.408   1.575   2.871
  297SOL     OW 1789   2.101   4.106   3.476
  297SOL    HW1 1790   2.116   4.034   3.408
  297SOL    HW2 1791   2.009   4.143   3.466
  298SOL     OW 1792   5.800   5.875   0.708
  298SOL    HW1 1793   5.756   5.831   0.630
  298SOL    HW2 1794   5.840   5.962   0.679
  299SOL     OW 1795   6.298   2.591   4.809
  299SOL    HW1 1796   6.290   2.622   4.903
  299SOL    HW2 1797   6.217   2.620   4.758
  300SOL     OW 1798   6.552   0.888   2.894
  300SOL    HW1 1799   6.517   0.904   2.986
  300SOL    HW2 1800   6.637   0.835   2.899
  301SOL     OW 1801   5.932   3.444   7.001
  301SOL    HW1 1802   5.844   3.413   6.964
  301SOL    HW2 1803   5.986   3.485   6.928
  302SOL     OW 1804   0.912   0.663   3.718
  302SOL    HW1 1805   0.818   0.646   3.747
  302SOL    HW2 1806   0.923   0.637   3.622
  303SOL     OW 1807   5.039   0.930   2.688
  303SOL    HW1 1808   5.047   0.975   2.777
  303SOL    HW2 1809   5.090   0.844   2.690
  304SOL     OW 1810   2.117   0.230   3.148
  304SOL    HW1 1811   2.091   0.306   3.208
  304SOL    HW2 1812   2.208   0.198   3.173
  305SOL     OW 1813   0.777   4.089   6.736
  305SOL    HW1 1814   0.759   4.012   6.674
  305SOL    HW2 1815   0.754   4.063   6.830
  306SOL     OW 1816   2.352   1.071   3.841
  306SOL    HW1 1817   2.284   1.002   3.817
  306SOL    HW2 1818   2.435   1.027   3.874
  307SOL     OW 1819   4.584   0.354   1.236
  307SOL    HW1 1820   4.617   0.261   1.250
  307SOL    HW2 1821   4.580   0.373   1.138
  308SOL     OW 1822   1.314   6.123   3.166
  308SOL    HW1 1823   1.215   6.112   3.157
  308SOL    HW2 1824   1.334   6.217   3.193
  309SOL     OW 1825   3.618   4.505   5.364
  309SOL    HW1 1826   3.549   4.575   5.344
  309SOL    HW2 1827   3.573   4.419   5.387
  310SOL     OW 1828   0.149   6.453   5.633
  310SOL    HW1 1829   0.076   6.416   5.691
  310SOL    HW2 1830   0.225   6.389   5.629
  311SOL     OW 1831   0.101   5.639   1.610
  311SOL    HW1 1832   0.161   5.703   1.657
  311SOL    HW2 1833   0.053   5.686   1.536
  312SOL     OW 1834   5.046   1.599   5.108
  312SOL    HW1 1835   5.126   1.539   5.097
  312SOL    HW2 1836   4.985   1.560   5.177
  313SOL     OW 1837   2.125   4.495   1.890
  313SOL    HW1 1838   2.040   4.445   1.875
  313SOL    HW2 1839   2.110   4.592   1.873
  314SOL     OW 1840   3.137   5.407   0.667
  314SOL    HW1 1841   3.120   5.459   0.583
  314SOL    HW2 1842   3.219   5.350   0.655
  315SOL     OW 1843   0.712   2.748   3.355
  315SOL    HW1 1844   0.643   2.802   3.404
  315SOL    HW2 1845   0.669   2.666   3.317
  316SOL     OW 1846   2.150   3.128   3.890
  316SOL    HW1 1847   2.129   3.112   3.794
  316SOL    HW2 1848   2.078   3.087   3.947
  317SOL     OW 1849   0.031   1.296   0.310
  317SOL    HW1 1850   0.050   1.382   0.357
  317SOL    HW2 1851   6.952   1.285   0.299
  318SOL     OW 1852   1.704   4.466   0.681
  318SOL    HW1 1853   1.724   4.554   0.637
  318SOL    HW2 1854   1.674   4.483   0.775
  319SOL     OW 1855   0.951   6.998   1.330
  319SOL    HW1 1856   0.923   0.005   1.422
  319SOL    HW2 1857   0.991   0.055   1.282
  320SOL     OW 1858   6.459   2.957   1.009
  320SOL    HW1 1859   6.531   3.026   1.016
  320SOL    HW2 1860   6.421   2.940   1.100
  321SOL     OW 1861   1.865   2.392   2.031
  321SOL    HW1 1862   1.888   2.336   2.110
  321SOL    HW2 1863   1.946   2.441   1.999
  322SOL     OW 1864   3.763   2.832   5.190
  322SOL    HW1 1865   3.809   2.848   5.102
  322SOL    HW2 1866   3.685   2.894   5.198
  323SOL     OW 1867   0.093   4.553   0.774
  323SOL    HW1 1868   0.100   4.518   0.867
  323SOL    HW2 1869   0.001   4.537   0.739
  324SOL     OW 1870   1.150   3.015   4.761
  324SOL    HW1 1871   1.102   2.970   4.836
  324SOL    HW2 1872   1.084   3.060   4.701
  325SOL     OW 1873   1.897   2.995   1.867
  325SOL    HW1 1874   1.942   3.084   1.875
  325SOL    HW2 1875   1.814   2.995   1.923
  326SOL     OW 1876   1.942   6.689   6.414
  326SOL    HW1 1877   1.898   6.615   6.465
  326SOL    HW2 1878   1.890   6.708   6.331
  327SOL     OW 1879   6.614   4.707   4.942
  327SOL    HW1 1880   6.676   4.781   4.915
  327SOL    HW2 1881   6.525   4.722   4.901
  328SOL     OW 1882   4.468   4.931   2.327
  328SOL    HW1 1883   4.539   4.938   2.257
  328SOL    HW2 1884   4.380   4.912   2.283
  329SOL     OW 1885   3.271   3.538   3.296
  329SOL    HW1 1886   3.299   3.456   3.246
  329SOL    HW2 1887   3.208   3.591   3.239
  330SOL     OW 1888   3.595   6.711   1.580
  330SOL    HW1 1889   3.575   6.724   1.483
  330SOL    HW2 1890   3.528   6.762   1.634
  331SOL     OW 1891   4.687   5.199   5.907
  331SOL    HW1 1892   4.760   5.158   5.853
  331SOL    HW2 1893   4.657   5.284   5.863
  332SOL     OW 1894   3.097   1.610   3.777
  332SOL    HW1 1895   3.002   1.587   3.759
  332SOL    HW2 1896   3.110   1.709   3.766
  333SOL     OW 1897   3.864   6.708   5.819
  333SOL    HW1 1898   3.941   6.652   5.850
  333SOL    HW2 1899   3.881   6.738   5.725
  334SOL     OW 1900   3.345   6.865   2.329
  334SOL    HW1 1901   3.362   6.941   2.392
  334SOL    HW2 1902   3.427   6.808   2.323
  335SOL     OW 1903   3.578   5.449   3.607
  335SOL    HW1 1904   3.522   5.425   3.686
  335SOL    HW2 1905   3.666   5.485   3.637
  336SOL     OW 1906   3.126   1.123   3.355
  336SOL    HW1 1907   3.199   1.061   3.383
  336SOL    HW2 1908   3.094   1.174   3.435
  337SOL     OW 1909   0.369   3.631   1.644
  337SOL    HW1 1910   0.461   3.637   1.682
  337SOL    HW2 1911   0.302   3.640   1.718
  338SOL     OW 1912   2.762   3.095   1.681
  338SOL    HW1 1913   2.749   3.172   1.743
  338SOL    HW2 1914   2.858   3.093   1.650
  339SOL     OW 1915   4.035   7.002   3.136
  339SOL    HW1 1916   3.935   7.009   3.144
  339SOL    HW2 1917   4.058   6.963   3.047
  340SOL     OW 1918   5.074   4.193   4.591
  340SOL    HW1 1919   5.144   4.238   4.646
  340SOL    HW2 1920   5.018   4.263   4.545
  341SOL     OW 1921   5.494   5.723   3.765
  341SOL    HW1 1922   5.543   5.793   3.817
  341SOL    HW2 1923   5.410   5.763   3.729
  342SOL     OW 1924   5.986   5.104   0.472
  342SOL    HW1 1925   5.903   5.086   0.418
  342SOL    HW2 1926   6.029   5.188   0.440
  343SOL     OW 1927   3.816   6.578   1.936
  343SOL    HW1 1928   3.821   6.631   1.852
  343SOL    HW2 1929   3.771   6.491   1.918
  344SOL     OW 1930   1.892   5.220   0.535
  344SOL    HW1 1931   1.825   5.270   0.591
  344SOL    HW2 1932   1.926   5.142   0.587
  345SOL     OW 1933   0.967   0.526   5.501
  345SOL    HW1 1934   0.993   0.620   5.523
  345SOL    HW2 1935   0.868   0.521   5.485
  346SOL     OW 1936   1.363   0.257   3.049
  346SOL    HW1 1937   1.336   0.329   2.985
  346SOL    HW2 1938   1.446   0.212   3.015
  347SOL     OW 1939   5.508   0.177   6.520
  347SOL    HW1 1940   5.488   0.273   6.500
  347SOL    HW2 1941   5.551   0.171   6.610
  348SOL     OW 1942   3.767   5.280   1.320
  348SOL    HW1 1943   3.790   5.276   1.223
  348SOL    HW2 1944   3.695   5.347   1.335
  349SOL     OW 1945   0.365   4.631   2.461
  349SOL    HW1 1946   0.390   4.575   2.540
  349SOL    HW2 1947   0.266   4.639   2.456
  350SOL     OW 1948   3.800   3.536   1.481
  350SOL    HW1 1949   3.746   3.612   1.518
  350SOL    HW2 1950   3.815   3.550   1.383
  351SOL     OW 1951   2.822   1.646   0.297
  351SOL    HW1 1952   2.781   1.708   0.363
  351SOL    HW2 1953   2.899   1.691   0.251
  352SOL     OW 1954   3.172   0.455   5.965
  352SOL    HW1 1955   3.191   0.430   5.870
  352SOL    HW2 1956   3.175   0.554   5.975
  353SOL     OW 1957   1.566   6.029   0.835
  353SOL    HW1 1958   1.492   5.972   0.870
  353SOL    HW2 1959   1.632   6.047   0.908
  354SOL     OW 1960   4.151   1.749   6.926
  354SOL    HW1 1961   4.136   1.794   6.838
  354SOL    HW2 1962   4.063   1.729   6.969
  355SOL     OW 1963   6.788   3.175   2.626
  355SOL    HW1 1964   6.856   3.202   2.557
  355SOL    HW2 1965   6.708   3.234   2.619
  356SOL     OW 1966   4.427   4.594   4.202
  356SOL    HW1 1967   4.475   4.559   4.283
  356SOL    HW2 1968   4.468   4.554   4.120
  357SOL     OW 1969   0.465   5.821   5.055
  357SOL    HW1 1970   0.401   5.865   5.118
  357SOL    HW2 1971   0.553   5.867   5.060
  358SOL     OW 1972   5.810   0.320   1.525
  358SOL    HW1 1973   5.845   0.276   1.442
  358SOL    HW2 1974   5.851   0.410   1.535
  359SOL     OW 1975   1.624   2.393   2.740
  359SOL    HW1 1976   1.637   2.374   2.643
  359SOL    HW2 1977   1.537   2.441   2.754
  360SOL     OW 1978   4.645   6.970   6.584
  360SOL    HW1 1979   4.698   6.895   6.624
  360SOL    HW2 1980   4.655   0.031   6.642
  361SOL     OW 1981   5.298   6.013   3.063
  361SOL    HW1 1982   5.396   6.019   3.041
  361SOL    HW2 1983   5.279   5.925   3.106
  362SOL     OW 1984   2.624   4.181   0.741
  362SOL    HW1 1985   2.685   4.204   0.665
  362SOL    HW2 1986   2.677   4.147   0.818
  363SOL     OW 1987   4.390   5.280   4.323
  363SOL    HW1 1988   4.402   5.180   4.321
  363SOL    HW2 1989   4.447   5.319   4.395
  364SOL     OW 1990   1.345   5.763   5.530
  364SOL    HW1 1991   1.410   5.751   5.455
  364SOL    HW2 1992   1.374   5.707   5.608
  365SOL     OW 1993   5.393   5.990   2.380
  365SOL    HW1 1994   5.394   5.946   2.290
  365SOL    HW2 1995   5.303   6.030   2.397
  366SOL     OW 1996   6.290   1.428   6.893
  366SOL    HW1 1997   6.345   1.373   6.957
  366SOL    HW2 1998   6.198   1.440   6.929
  367SOL     OW 1999   5.641   3.390   1.049
  367SOL    HW1 2000   5.651   3.321   0.977
  367SOL    HW2 2001   5.700   3.468   1.028
  368SOL     OW 2002   1.295   4.371   5.338
  368SOL    HW1 2003   1.297   4.450   5.277
  368SOL    HW2 2004   1.388   4.340   5.356
  369SOL     OW 2005   0.295   4.278   1.698
  369SOL    HW1 2006   0.324   4.193   1.741
  369SOL    HW2 2007   0.375   4.327   1.663
  370SOL     OW 2008   2.665   1.375   5.855
  370SOL    HW1 2009   2.585   1.326   5.822
  370SOL    HW2 2010   2.748   1.332   5.820
  371SOL     OW 2011   3.114   3.088   0.321
  371SOL    HW1 2012   3.130   3.015   0.254
  371SOL    HW2 2013   3.016   3.107   0.327
  372SOL     OW 2014   6.776   6.573   6.016
  372SOL    HW1 2015   6.711   6.649   6.015
  372SOL    HW2 2016   6.869   6.608   6.026
  373SOL     OW 2017   0.119   6.169   0.784
  373SOL    HW1 2018   0.167   6.215   0.709
  373SOL    HW2 2019   0.104   6.233   0.859
  374SOL     OW 2020   3.456   0.189   1.968
  374SOL    HW1 2021   3.412   0.145   1.889
  374SOL    HW2 2022   3.400   0.266   1.999
  375SOL     OW 2023   6.599   4.816   3.273
  375SOL    HW1 2024   6.676   4.753   3.280
  375SOL    HW2 2025   6.552   4.822   3.361
  376SOL     OW 2026   1.836   2.642   4.042
  376SOL    HW1 2027   1.910   2.579   4.067
  376SOL    HW2 2028   1.874   2.724   4.000
  377SOL     OW 2029   4.905   2.018   3.000
  377SOL    HW1 2030   4.987   2.051   2.954
  377SOL    HW2 2031   4.826   2.028   2.940
  378SOL     OW 2032   4.724   3.240   5.357
  378SOL    HW1 2033   4.689   3.279   5.442
  378SOL    HW2 2034   4.687   3.147   5.346
  379SOL     OW 2035   5.877   3.815   1.177
  379SOL    HW1 2036   5.931   3.867   1.111
  379SOL    HW2 2037   5.783   3.806   1.144
  380SOL     OW 2038   1.721   1.738   1.316
  380SOL    HW1 2039   1.711   1.835   1.335
  380SOL    HW2 2040   1.814   1.708   1.341
  381SOL     OW 2041   3.323   4.482   0.980
  381SOL    HW1 2042   3.352   4.391   0.952
  381SOL    HW2 2043   3.361   4.550   0.917
  382SOL     OW 2044   3.198   5.890   0.345
  382SOL    HW1 2045   3.142   5.825   0.293
  382SOL    HW2 2046   3.294   5.868   0.332
  383SOL     OW 2047   6.377   2.416   0.270
  383SOL    HW1 2048   6.434   2.497   0.283
  383SOL    HW2 2049   6.286   2.433   0.307
  384SOL     OW 2050   0.792   5.337   4.989
  384SOL    HW1 2051   0.821   5.244   4.969
  384SOL    HW2 2052   0.702   5.354   4.949
  385SOL     OW 2053   4.468   6.285   0.428
  385SOL    HW1 2054   4.491   6.188   0.419
  385SOL    HW2 2055   4.371   6.294   0.451
  386SOL     OW 2056   3.871   6.565   5.393
  386SOL    HW1 2057   3.778   6.538   5.370
  386SOL    HW2 2058   3.908   6.624   5.320
  387SOL     OW 2059   0.243   0.888   5.511
  387SOL    HW1 2060   0.335   0.917   5.538
  387SOL    HW2 2061   0.219   0.932   5.424
  388SOL     OW 2062   0.089   2.423   5.375
  388SOL    HW1 2063   0.139   2.455   5.456
  388SOL    HW2 2064   0.020   2.490   5.350
  389SOL     OW 2065   4.225   4.738   1.429
  389SOL    HW1 2066   4.287   4.699   1.497
  389SOL    HW2 2067   4.194   4.828   1.461
  390SOL     OW 2068   3.375   1.832   0.580
  390SOL    HW1 2069   3.355   1.894   0.656
  390SOL    HW2 2070   3.334   1.743   0.598
  391SOL     OW 2071   2.974   3.841   6.174
  391SOL    HW1 2072   3.032   3.882   6.245
  391SOL    HW2 2073   2.879   3.866   6.191
  392SOL     OW 2074   1.660   3.826   1.985
  392SOL    HW1 2075   1.680   3.801   2.079
  392SOL    HW2 2076   1.627   3.921   1.982
  393SOL     OW 2077   0.876   4.497   0.938
  393SOL    HW1 2078   0.815   4.482   1.016
  393SOL    HW2 2079   0.851   4.583   0.893
  394SOL     OW 2080   6.410   1.362   6.388
  394SOL    HW1 2081   6.398   1.410   6.475
  394SOL    HW2 2082   6.452   1.273   6.405
  395SOL     OW 2083   5.650   4.806   1.430
  395SOL    HW1 2084   5.627   4.718   1.389
  395SOL    HW2 2085   5.740   4.802   1.472
  396SOL     OW 2086   2.832   1.574   2.609
  396SOL    HW1 2087   2.768   1.619   2.547
  396SOL    HW2 2088   2.898   1.520   2.556
  397SOL     OW 2089   4.227   1.255   5.349
  397SOL    HW1 2090   4.208   1.325   5.281
  397SOL    HW2 2091   4.141   1.218   5.384
  398SOL     OW 2092   2.559   0.808   4.612
  398SOL    HW1 2093   2.632   0.774   4.671
  398SOL    HW2 2094   2.514   0.887   4.655
  399SOL     OW 2095   5.530   6.303   3.888
  399SOL    HW1 2096   5.485   6.248   3.958
  399SOL    HW2 2097   5.485   6.288   3.800
  400SOL     OW 2098   6.536   0.180   4.930
  400SOL    HW1 2099   6.626   0.144   4.906
  400SOL    HW2 2100   6.481   0.191   4.847
  401SOL     OW 2101   6.923   5.428   5.757
  401SOL    HW1 2102   6.884   5.465   5.672
  401SOL    HW2 2103   6.866   5.455   5.834
  402SOL     OW 2104   6.867   0.577   2.435
  402SOL    HW1 2105   6.851   0.533   2.523
  402SOL    HW2 2106   6.781   0.586   2.386
  403SOL     OW 2107   3.136   1.006   6.090
  403SOL    HW1 2108   3.050   1.009   6.038
  403SOL    HW2 2109   3.167   1.100   6.108
  404SOL     OW 2110   4.060   5.109   4.470
  404SOL    HW1 2111   4.113   5.042   4.417
  404SOL    HW2 2112   4.011   5.061   4.544
  405SOL     OW 2113   2.575   4.604   3.620
  405SOL    HW1 2114   2.587   4.661   3.701
  405SOL    HW2 2115   2.655   4.613   3.560
  406SOL     OW 2116   0.382   5.236   5.897
  406SOL    HW1 2117   0.364   5.329   5.866
  406SOL    HW2 2118   0.333   5.171   5.838
  407SOL     OW 2119   2.037   2.940   4.516
  407SOL    HW1 2120   2.123   2.934   4.568
  407SOL    HW2 2121   2.027   2.860   4.459
  408SOL     OW 2122   3.061   1.280   3.565
  408SOL    HW1 2123   2.988   1.342   3.535
  408SOL    HW2 2124   3.144   1.332   3.582
  409SOL     OW 2125   1.050   3.994   2.481
  409SOL    HW1 2126   0.967   4.050   2.481
  409SOL    HW2 2127   1.047   3.931   2.403
  410SOL     OW 2128   2.081   1.965   1.364
  410SOL    HW1 2129   2.136   2.046   1.384
  410SOL    HW2 2130   2.132   1.883   1.389
  411SOL     OW 2131   0.811   2.189   1.328
  411SOL    HW1 2132   0.897   2.223   1.289
  411SOL    HW2 2133   0.801   2.223   1.421
  412SOL     OW 2134   1.932   4.699   1.841
  412SOL    HW1 2135   1.864   4.626   1.828
  412SOL    HW2 2136   1.885   4.784   1.863
  413SOL     OW 2137   5.071   5.346   2.505
  413SOL    HW1 2138   5.098   5.396   2.423
  413SOL    HW2 2139   4.979   5.309   2.492
  414SOL     OW 2140   2.503   6.304   3.683
  414SOL    HW1 2141   2.433   6.368   3.652
  414SOL    HW2 2142   2.464   6.242   3.751
  415SOL     OW 2143   6.440   0.507   0.386
  415SOL    HW1 2144   6.479   0.438   0.324
  415SOL    HW2 2145   6.476   0.597   0.363
  416SOL     OW 2146   4.921   3.260   4.677
  416SOL    HW1 2147   4.976   3.294   4.601
  416SOL    HW2 2148   4.868   3.180   4.647
  417SOL     OW 2149   3.737   2.090   6.547
  417SOL    HW1 2150   3.693   2.162   6.600
  417SOL    HW2 2151   3.829   2.118   6.522
  418SOL     OW 2152   4.006   6.158   4.823
  418SOL    HW1 2153   3.910   6.139   4.800
  418SOL    HW2 2154   4.011   6.244   4.873
  419SOL     OW 2155   0.911   6.933   1.697
  419SOL    HW1 2156   0.926   7.018   1.747
  419SOL    HW2 2157   0.943   6.856   1.751
  420SOL     OW 2158   5.676   1.339   6.288
  420SOL    HW1 2159   5.646   1.417   6.233
  420SOL    HW2 2160   5.655   1.254   6.240
  421SOL     OW 2161   5.216   3.597   2.575
  421SOL    HW1 2162   5.281   3.521   2.573
  421SOL    HW2 2163   5.123   3.561   2.570
  422SOL     OW 2164   4.936   3.297   1.569
  422SOL    HW1 2165   4.900   3.223   1.626
  422SOL    HW2 2166   4.878   3.378   1.579
  423SOL     OW 2167   3.390   1.413   5.995
  423SOL    HW1 2168   3.361   1.470   5.918
  423SOL    HW2 2169   3.462   1.351   5.965
  424SOL     OW 2170   1.066   4.108   3.223
  424SOL    HW1 2171   1.095   4.025   3.271
  424SOL    HW2 2172   1.131   4.128   3.149
  425SOL     OW 2173   2.359   0.622   5.276
  425SOL    HW1 2174   2.354   0.719   5.253
  425SOL    HW2 2175   2.270   0.580   5.260
  426SOL     OW 2176   2.509   2.508   4.151
  426SOL    HW1 2177   2.592   2.459   4.179
  426SOL    HW2 2178   2.441   2.504   4.224
  427SOL     OW 2179   3.624   2.050   3.329
  427SOL    HW1 2180   3.590   1.957   3.323
  427SOL    HW2 2181   3.620   2.093   3.238
  428SOL     OW 2182   2.606   1.671   6.071
  428SOL    HW1 2183   2.637   1.720   6.154
  428SOL    HW2 2184   2.651   1.582   6.067
  429SOL     OW 2185   1.316   6.064   4.183
  429SOL    HW1 2186   1.406   6.022   4.198
  429SOL    HW2 2187   1.253   5.994   4.149
  430SOL     OW 2188   1.344   0.018   3.598
  430SOL    HW1 2189   1.328   6.941   3.607
  430SOL    HW2 2190   1.259   0.064   3.570
  431SOL     OW 2191   3.341   1.694   1.813
  431SOL    HW1 2192   3.274   1.737   1.873
  431SOL    HW2 2193   3.367   1.605   1.850
  432SOL     OW 2194   4.203   2.150   1.589
  432SOL    HW1 2195   4.237   2.231   1.541
  432SOL    HW2 2196   4.214   2.069   1.531
  433SOL     OW 2197   2.207   6.072   0.061
  433SOL    HW1 2198   2.202   6.144   0.130
  433SOL    HW2 2199   2.266   6.102   7.006
  434SOL     OW 2200   4.083   5.795   3.776
  434SOL    HW1 2201   4.119   5.875   3.728
  434SOL    HW2 2202   4.074   5.719   3.712
  435SOL     OW 2203   3.178   1.555   6.220
  435SOL    HW1 2204   3.201   1.572   6.315
  435SOL    HW2 2205   3.259   1.566   6.163
  436SOL     OW 2206   4.905   6.862   2.892
  436SOL    HW1 2207   4.970   6.932   2.864
  436SOL    HW2 2208   4.931   6.774   2.852
  437SOL     OW 2209   6.667   0.478   4.833
  437SOL    HW1 2210   6.722   0.464   4.750
  437SOL    HW2 2211   6.652   0.576   4.846
  438SOL     OW 2212   0.661   3.797   2.762
  438SOL    HW1 2213   0.722   3.858   2.813
  438SOL    HW2 2214   0.578   3.846   2.736
  439SOL     OW 2215   6.204   0.503   3.677
  439SOL    HW1 2216   6.238   0.516   3.770
  439SOL    HW2 2217   6.242   0.419   3.639
  440SOL     OW 2218   4.591   0.789   0.757
  440SOL    HW1 2219   4.595   0.692   0.783
  440SOL    HW2 2220   4.545   0.798   0.669
  441SOL     OW 2221   0.144   4.367   2.996
  441SOL    HW1 2222   0.125   4.269   2.989
  441SOL    HW2 2223   0.106   4.414   2.916
  442SOL     OW 2224   5.417   3.098   6.212
  442SOL    HW1 2225   5.423   3.171   6.144
  442SOL    HW2 2226   5.446   3.011   6.171
  443SOL     OW 2227   4.958   3.325   2.343
  443SOL    HW1 2228   4.947   3.412   2.296
  443SOL    HW2 2229   4.923   3.251   2.285
  444SOL     OW 2230   4.212   1.059   1.537
  444SOL    HW1 2231   4.115   1.083   1.542
  444SOL    HW2 2232   4.262   1.106   1.609
  445SOL     OW 2233   1.299   5.629   2.379
  445SOL    HW1 2234   1.316   5.721   2.412
  445SOL    HW2 2235   1.201   5.616   2.366
  446SOL     OW 2236   5.508   6.935   1.441
  446SOL    HW1 2237   5.483   6.864   1.374
  446SOL    HW2 2238   5.471   0.003   1.411
  447SOL     OW 2239   6.605   4.284   0.761
  447SOL    HW1 2240   6.624   4.215   0.691
  447SOL    HW2 2241   6.546   4.355   0.723
  448SOL     OW 2242   2.818   6.584   3.168
  448SOL    HW1 2243   2.842   6.489   3.188
  448SOL    HW2 2244   2.783   6.628   3.251
  449SOL     OW 2245   2.030   3.750   4.830
  449SOL    HW1 2246   1.938   3.751   4.868
  449SOL    HW2 2247   2.071   3.841   4.839
  450SOL     OW 2248   0.733   4.965   3.403
  450SOL    HW1 2249   0.793   4.970   3.483
  450SOL    HW2 2250   0.722   4.870   3.375
  451SOL     OW 2251   0.629   2.324   2.570
  451SOL    HW1 2252   0.708   2.379   2.543
  451SOL    HW2 2253   0.611   2.338   2.668
  452SOL     OW 2254   5.134   5.733   2.322
  452SOL    HW1 2255   5.110   5.830   2.320
  452SOL    HW2 2256   5.060   5.680   2.280
  453SOL     OW 2257   3.538   0.575   6.581
  453SOL    HW1 2258   3.548   0.599   6.677
  453SOL    HW2 2259   3.605   0.626   6.526
  454SOL     OW 2260   6.741   3.579   6.847
  454SOL    HW1 2261   6.745   3.513   6.772
  454SOL    HW2 2262   6.833   3.597   6.882
  455SOL     OW 2263   5.685   4.514   6.217
  455SOL    HW1 2264   5.651   4.579   6.285
  455SOL    HW2 2265   5.784   4.525   6.208
  456SOL     OW 2266   3.445   0.518   2.230
  456SOL    HW1 2267   3.542   0.544   2.226
  456SOL    HW2 2268   3.395   0.583   2.286
  457SOL     OW 2269   2.719   0.722   0.073
  457SOL    HW1 2270   2.658   0.701   0.149
  457SOL    HW2 2271   2.676   0.694   7.007
  458SOL     OW 2272   2.991   1.009   3.137
  458SOL    HW1 2273   3.036   1.065   3.206
  458SOL    HW2 2274   2.901   0.979   3.171
  459SOL     OW 2275   2.905   0.449   3.709
  459SOL    HW1 2276   2.986   0.500   3.680
  459SOL    HW2 2277   2.890   0.463   3.806
  460SOL     OW 2278   1.025   1.609   5.412
  460SOL    HW1 2279   0.963   1.683   5.387
  460SOL    HW2 2280   1.117   1.647   5.429
  461SOL     OW 2281   0.636   5.011   6.233
  461SOL    HW1 2282   0.611   4.997   6.329
  461SOL    HW2 2283   0.557   5.048   6.183
  462SOL     OW 2284   3.063   3.800   4.863
  462SOL    HW1 2285   3.043   3.897   4.853
  462SOL    HW2 2286   3.014   3.764   4.942
  463SOL     OW 2287   5.640   6.833   2.820
  463SOL    HW1 2288   5.616   6.787   2.734
  463SOL    HW2 2289   5.619   6.931   2.812
  464SOL     OW 2290   3.875   5.234   5.852
  464SOL    HW1 2291   3.857   5.292   5.772
  464SOL    HW2 2292   3.973   5.234   5.871
  465SOL     OW 2293   1.009   3.649   0.355
  465SOL    HW1 2294   1.048   3.557   0.357
  465SOL    HW2 2295   1.076   3.715   0.390
  466SOL     OW 2296   4.153   5.523   4.811
  466SOL    HW1 2297   4.099   5.559   4.735
  466SOL    HW2 2298   4.148   5.423   4.811
  467SOL     OW 2299   6.417   0.094   1.495
  467SOL    HW1 2300   6.373   0.180   1.520
  467SOL    HW2 2301   6.451   0.049   1.578
  468SOL     OW 2302   3.672   0.321   6.921
  468SOL    HW1 2303   3.665   0.295   6.825
  468SOL    HW2 2304   3.767   0.340   6.944
  469SOL     OW 2305   3.140   5.022   6.005
  469SOL    HW1 2306   3.126   5.058   5.913
  469SOL    HW2 2307   3.083   4.941   6.018
  470SOL     OW 2308   1.991   4.956   2.932
  470SOL    HW1 2309   1.933   4.974   3.011
  470SOL    HW2 2310   2.052   5.033   2.916
  471SOL     OW 2311   2.251   2.245   4.435
  471SOL    HW1 2312   2.306   2.308   4.488
  471SOL    HW2 2313   2.159   2.240   4.474
  472SOL     OW 2314   5.941   3.814   6.447
  472SOL    HW1 2315   5.958   3.857   6.358
  472SOL    HW2 2316   5.915   3.719   6.433
  473SOL     OW 2317   6.878   2.937   1.918
  473SOL    HW1 2318   6.853   3.003   1.989
  473SOL    HW2 2319   6.974   2.911   1.929
  474SOL     OW 2320   5.256   6.229   3.758
  474SOL    HW1 2321   5.176   6.270   3.714
  474SOL    HW2 2322   5.250   6.242   3.857
  475SOL     OW 2323   5.982   1.759   0.764
  475SOL    HW1 2324   6.041   1.700   0.819
  475SOL    HW2 2325   5.887   1.748   0.794
  476SOL     OW 2326   0.812   4.625   1.466
  476SOL    HW1 2327   0.863   4.692   1.520
  476SOL    HW2 2328   0.797   4.661   1.374
  477SOL     OW 2329   1.661   4.382   3.939
  477SOL    HW1 2330   1.670   4.293   3.893
  477SOL    HW2 2331   1.752   4.418   3.959
  478SOL     OW 2332   5.228   6.153   1.860
  478SOL    HW1 2333   5.298   6.177   1.927
  478SOL    HW2 2334   5.145   6.123   1.907
  479SOL     OW 2335   3.576   3.868   3.498
  479SOL    HW1 2336   3.627   3.946   3.461
  479SOL    HW2 2337   3.600   3.856   3.595
  480SOL     OW 2338   2.071   0.316   2.833
  480SOL    HW1 2339   2.165   0.299   2.802
  480SOL    HW2 2340   2.069   0.315   2.933
  481SOL     OW 2341   0.103   6.851   0.646
  481SOL    HW1 2342   0.083   6.753   0.647
  481SOL    HW2 2343   0.028   6.901   0.690
  482SOL     OW 2344   4.202   5.358   1.600
  482SOL    HW1 2345   4.295   5.358   1.562
  482SOL    HW2 2346   4.136   5.357   1.525
  483SOL     OW 2347   4.946   2.111   3.659
  483SOL    HW1 2348   5.038   2.133   3.626
  483SOL    HW2 2349   4.899   2.054   3.591
  484SOL     OW 2350   2.230   4.575   4.528
  484SOL    HW1 2351   2.212   4.670   4.503
  484SOL    HW2 2352   2.326   4.553   4.512
  485SOL     OW 2353   5.438   3.127   1.729
  485SOL    HW1 2354   5.423   3.224   1.713
  485SOL    HW2 2355   5.351   3.082   1.748
  486SOL     OW 2356   5.943   6.474   6.185
  486SOL    HW1 2357   6.010   6.413   6.228
  486SOL    HW2 2358   5.969   6.569   6.202
  487SOL     OW 2359   6.719   6.737   5.372
  487SOL    HW1 2360   6.784   6.662   5.358
  487SOL    HW2 2361   6.764   6.824   5.356
  488SOL     OW 2362   1.753   6.343   3.270
  488SOL    HW1 2363   1.728   6.253   3.235
  488SOL    HW2 2364   1.848   6.363   3.247
  489SOL     OW 2365   1.144   6.428   6.224
  489SOL    HW1 2366   1.133   6.333   6.250
  489SOL    HW2 2367   1.239   6.445   6.197
  490SOL     OW 2368   1.101   3.907   5.048
  490SOL    HW1 2369   1.071   3.829   4.993
  490SOL    HW2 2370   1.077   3.892   5.144
  491SOL     OW 2371   0.669   2.617   0.749
  491SOL    HW1 2372   0.629   2.602   0.658
  491SOL    HW2 2373   0.745   2.553   0.762
  492SOL     OW 2374   1.761   2.449   5.863
  492SOL    HW1 2375   1.694   2.484   5.929
  492SOL    HW2 2376   1.827   2.521   5.842
  493SOL     OW 2377   2.235   5.542   5.045
  493SOL    HW1 2378   2.259   5.497   4.959
  493SOL    HW2 2379   2.155   5.600   5.031
  494SOL     OW 2380   2.757   6.205   5.053
  494SOL    HW1 2381   2.850   6.184   5.023
  494SOL    HW2 2382   2.746   6.304   5.063
  495SOL     OW 2383   3.691   4.271   6.191
  495SOL    HW1 2384   3.662   4.357   6.149
  495SOL    HW2 2385   3.612   4.223   6.227
  496SOL     OW 2386   5.022   1.664   3.258
  496SOL    HW1 2387   4.982   1.572   3.263
  496SOL    HW2 2388   5.121   1.658   3.274
  497SOL     OW 2389   3.694   1.959   0.281
  497SOL    HW1 2390   3.694   2.003   0.370
  497SOL    HW2 2391   3.787   1.964   0.242
  498SOL     OW 2392   0.995   6.716   1.843
  498SOL    HW1 2393   0.963   6.633   1.798
  498SOL    HW2 2394   0.985   6.705   1.942
  499SOL     OW 2395   2.796   6.206   6.418
  499SOL    HW1 2396   2.839   6.279   6.471
  499SOL    HW2 2397   2.865   6.138   6.392
  500SOL     OW 2398   6.139   2.458   0.420
  500SOL    HW1 2399   6.126   2.553   0.447
  500SOL    HW2 2400   6.146   2.400   0.501
  501SOL     OW 2401   1.157   0.763   3.793
  501SOL    HW1 2402   1.169   0.860   3.768
  501SOL    HW2 2403   1.071   0.730   3.755
  502SOL     OW 2404   2.181   4.969   6.505
  502SOL    HW1 2405   2.183   4.877   6.465
  502SOL    HW2 2406   2.271   5.012   6.494
  503SOL     OW 2407   3.735   4.740   6.889
  503SOL    HW1 2408   3.762   4.651   6.854
  503SOL    HW2 2409   3.636   4.752   6.879
  504SOL     OW 2410   6.276   6.232   1.959
  504SOL    HW1 2411   6.361   6.202   2.003
  504SOL    HW2 2412   6.252   6.323   1.991
  505SOL     OW 2413   4.915   6.680   5.084
  505SOL    HW1 2414   4.972   6.716   5.158
  505SOL    HW2 2415   4.819   6.684   5.111
  506SOL     OW 2416   4.233   4.962   2.959
  506SOL    HW1 2417   4.141   5.000   2.954
  506SOL    HW2 2418   4.287   4.993   2.881
  507SOL     OW 2419   3.221   1.053   0.868
  507SOL    HW1 2420   3.170   0.976   0.828
  507SOL    HW2 2421   3.295   1.017   0.925
  508SOL     OW 2422   6.804   4.630   3.329
  508SOL    HW1 2423   6.830   4.597   3.420
  508SOL    HW2 2424   6.854   4.579   3.259
  509SOL     OW 2425   4.587   6.713   6.119
  509SOL    HW1 2426   4.512   6.692   6.181
  509SOL    HW2 2427   4.629   6.800   6.146
  510SOL     OW 2428   0.248   3.583   0.295
  510SOL    HW1 2429   0.310   3.619   0.364
  510SOL    HW2 2430   0.287   3.599   0.204
  511SOL     OW 2431   1.056   1.657   0.457
  511SOL    HW1 2432   1.007   1.699   0.381
  511SOL    HW2 2433   1.129   1.598   0.421
  512SOL     OW 2434   6.784   2.559   5.650
  512SOL    HW1 2435   6.834   2.627   5.597
  512SOL    HW2 2436   6.777   2.588   5.745
  513SOL     OW 2437   5.373   0.775   2.794
  513SOL    HW1 2438   5.429   0.720   2.856
  513SOL    HW2 2439   5.320   0.841   2.848
  514SOL     OW 2440   6.267   6.668   4.450
  514SOL    HW1 2441   6.267   6.613   4.533
  514SOL    HW2 2442   6.361   6.690   4.424
  515SOL     OW 2443   3.878   0.604   6.044
  515SOL    HW1 2444   3.900   0.506   6.051
  515SOL    HW2 2445   3.926   0.643   5.966
  516SOL     OW 2446   2.283   5.928   1.415
  516SOL    HW1 2447   2.310   5.967   1.504
  516SOL    HW2 2448   2.343   5.965   1.344
  517SOL     OW 2449   3.419   5.851   1.633
  517SOL    HW1 2450   3.347   5.883   1.571
  517SOL    HW2 2451   3.420   5.751   1.634
  518SOL     OW 2452   2.042   3.504   4.055
  518SOL    HW1 2453   2.019   3.461   3.968
  518SOL    HW2 2454   2.111   3.449   4.102
  519SOL     OW 2455   0.432   0.093   3.064
  519SOL    HW1 2456   0.344   0.045   3.053
  519SOL    HW2 2457   0.418   0.175   3.119
  520SOL     OW 2458   0.845   3.296   0.341
  520SOL    HW1 2459   0.940   3.324   0.349
  520SOL    HW2 2460   0.802   3.298   0.431
  521SOL     OW 2461   6.349   5.588   4.775
  521SOL    HW1 2462   6.360   5.651   4.852
  521SOL    HW2 2463   6.299   5.634   4.701
  522SOL     OW 2464   3.685   3.789   1.573
  522SOL    HW1 2465   3.602   3.834   1.539
  522SOL    HW2 2466   3.703   3.819   1.667
  523SOL     OW 2467   0.661   6.865   1.394
  523SOL    HW1 2468   0.729   6.793   1.410
  523SOL    HW2 2469   0.705   6.955   1.405
  524SOL     OW 2470   0.018   2.033   1.760
  524SOL    HW1 2471   0.109   1.992   1.748
  524SOL    HW2 2472   6.986   2.023   1.676
  525SOL     OW 2473   1.295   3.446   5.737
  525SOL    HW1 2474   1.338   3.467   5.650
  525SOL    HW2 2475   1.360   3.397   5.796
  526SOL     OW 2476   2.657   6.725   4.277
  526SOL    HW1 2477   2.644   6.638   4.325
  526SOL    HW2 2478   2.666   6.709   4.179
  527SOL     OW 2479   0.695   1.082   0.420
  527SOL    HW1 2480   0.748   1.164   0.395
  527SOL    HW2 2481   0.744   1.000   0.391
  528SOL     OW 2482   6.935   3.195   4.215
  528SOL    HW1 2483   6.906   3.231   4.304
  528SOL    HW2 2484   6.885   3.111   4.195
  529SOL     OW 2485   1.664   0.509   6.487
  529SOL    HW1 2486   1.674   0.588   6.547
  529SOL    HW2 2487   1.690   0.533   6.394
  530SOL     OW 2488   4.488   3.803   0.711
  530SOL    HW1 2489   4.562   3.870   0.709
  530SOL    HW2 2490   4.485   3.759   0.801
  531SOL     OW 2491   1.374   0.725   1.024
  531SOL    HW1 2492   1.383   0.690   0.930
  531SOL    HW2 2493   1.411   0.658   1.088
  532SOL     OW 2494   2.348   2.381   0.600
  532SOL    HW1 2495   2.438   2.405   0.637
  532SOL    HW2 2496   2.282   2.375   0.674
  533SOL     OW 2497   3.855   0.598   4.120
  533SOL    HW1 2498   3.948   0.626   4.097
  533SOL    HW2 2499   3.858   0.511   4.170
  534SOL     OW 2500   1.200   5.230   1.466
  534SOL    HW1 2501   1.237   5.183   1.546
  534SOL    HW2 2502   1.178   5.325   1.490
  535SOL     OW 2503   5.238   3.865   3.775
  535SOL    HW1 2504   5.236   3.845   3.873
  535SOL    HW2 2505   5.174   3.940   3.755
  536SOL     OW 2506   6.758   6.551   2.604
  536SOL    HW1 2507   6.799   6.501   2.680
  536SOL    HW2 2508   6.824   6.560   2.530
  537SOL     OW 2509   3.505   1.275   4.373
  537SOL    HW1 2510   3.483   1.372   4.379
  537SOL    HW2 2511   3.556   1.257   4.289
  538SOL     OW 2512   2.794   4.634   5.585
  538SOL    HW1 2513   2.845   4.720   5.590
  538SOL    HW2 2514   2.772   4.615   5.489
  539SOL     OW 2515   1.124   0.104   0.043
  539SOL    HW1 2516   1.078   0.187   0.011
  539SOL    HW2 2517   1.130   0.106   0.143
  540SOL     OW 2518   0.650   0.350   4.434
  540SOL    HW1 2519   0.579   0.417   4.408
  540SOL    HW2 2520   0.689   0.310   4.352
  541SOL     OW 2521   4.621   5.744   4.309
  541SOL    HW1 2522   4.541   5.701   4.352
  541SOL    HW2 2523   4.704   5.702   4.344
  542SOL     OW 2524   3.308   0.403   6.343
  542SOL    HW1 2525   3.349   0.352   6.419
  542SOL    HW2 2526   3.273   0.338   6.275
  543SOL     OW 2527   5.941   2.144   4.193
  543SOL    HW1 2528   5.935   2.219   4.127
  543SOL    HW2 2529   6.008   2.167   4.264
  544SOL     OW 2530   0.946   4.087   1.234
  544SOL    HW1 2531   0.974   4.039   1.151
  544SOL    HW2 2532   0.986   4.041   1.313
  545SOL     OW 2533   6.113   1.635   1.064
  545SOL    HW1 2534   6.050   1.625   1.141
  545SOL    HW2 2535   6.107   1.555   1.005
  546SOL     OW 2536   0.728   4.012   2.437
  546SOL    HW1 2537   0.727   4.018   2.337
  546SOL    HW2 2538   0.740   3.916   2.464
  547SOL     OW 2539   4.031   1.159   6.156
  547SOL    HW1 2540   3.976   1.128   6.078
  547SOL    HW2 2541   4.110   1.210   6.122
  548SOL     OW 2542   3.129   2.911   0.020
  548SOL    HW1 2543   3.092   2.997   7.007
  548SOL    HW2 2544   3.221   2.926   0.057
  549SOL     OW 2545   6.191   1.889   1.299
  549SOL    HW1 2546   6.186   1.936   1.211
  549SOL    HW2 2547   6.228   1.797   1.286
  550SOL     OW 2548   0.219   5.498   3.449
  550SOL    HW1 2549   0.277   5.419   3.469
  550SOL    HW2 2550   0.179   5.487   3.358
  551SOL     OW 2551   6.402   1.066   0.312
  551SOL    HW1 2552   6.428   1.010   0.233
  551SOL    HW2 2553   6.310   1.042   0.341
  552SOL     OW 2554   5.965   5.149   5.508
  552SOL    HW1 2555   5.973   5.178   5.603
  552SOL    HW2 2556   6.030   5.200   5.452
  553SOL     OW 2557   3.270   0.828   5.682
  553SOL    HW1 2558   3.264   0.869   5.591
  553SOL    HW2 2559   3.206   0.750   5.688
  554SOL     OW 2560   5.855   6.149   0.834
  554SOL    HW1 2561   5.769   6.175   0.789
  554SOL    HW2 2562   5.928   6.210   0.805
  555SOL     OW 2563   1.852   4.238   5.929
  555SOL    HW1 2564   1.827   4.161   5.870
  555SOL    HW2 2565   1.921   4.208   5.994
  556SOL     OW 2566   5.372   0.728   3.806
  556SOL    HW1 2567   5.371   0.776   3.893
  556SOL    HW2 2568   5.432   0.776   3.742
  557SOL     OW 2569   6.636   4.699   6.635
  557SOL    HW1 2570   6.651   4.685   6.537
  557SOL    HW2 2571   6.637   4.610   6.682
  558SOL     OW 2572   3.195   3.799   2.279
  558SOL    HW1 2573   3.234   3.743   2.352
  558SOL    HW2 2574   3.133   3.866   2.319
  559SOL     OW 2575   6.208   6.397   5.796
  559SOL    HW1 2576   6.278   6.406   5.725
  559SOL    HW2 2577   6.252   6.390   5.885
  560SOL     OW 2578   6.362   3.213   2.859
  560SOL    HW1 2579   6.447   3.256   2.830
  560SOL    HW2 2580   6.368   3.114   2.845
  561SOL     OW 2581   0.969   2.967   6.546
  561SOL    HW1 2582   0.984   3.044   6.608
  561SOL    HW2 2583   0.918   2.999   6.466
  562SOL     OW 2584   4.139   0.457   5.323
  562SOL    HW1 2585   4.153   0.383   5.258
  562SOL    HW2 2586   4.106   0.420   5.410
  563SOL     OW 2587   1.932   1.745   4.639
  563SOL    HW1 2588   1.899   1.685   4.711
  563SOL    HW2 2589   1.919   1.700   4.550
  564SOL     OW 2590   0.055   2.312   5.119
  564SOL    HW1 2591   0.014   2.400   5.092
  564SOL    HW2 2592   0.094   2.320   5.210
  565SOL     OW 2593   3.803   3.229   3.884
  565SOL    HW1 2594   3.790   3.256   3.789
  565SOL    HW2 2595   3.791   3.130   3.892
  566SOL     OW 2596   3.031   6.530   2.972
  566SOL    HW1 2597   2.999   6.525   2.877
  566SOL    HW2 2598   2.957   6.563   3.031
  567SOL     OW 2599   2.161   3.073   6.683
  567SOL    HW1 2600   2.239   3.053   6.625
  567SOL    HW2 2601   2.141   2.994   6.741
  568SOL     OW 2602   6.947   6.652   0.438
  568SOL    HW1 2603   7.007   6.655   0.358
  568SOL    HW2 2604   6.996   6.613   0.515
  569SOL     OW 2605   6.758   2.029   0.462
  569SOL    HW1 2606   6.706   1.970   0.400
  569SOL    HW2 2607   6.823   2.083   0.410
  570SOL     OW 2608   2.813   0.339   5.602
  570SOL    HW1 2609   2.802   0.310   5.507
  570SOL    HW2 2610   2.747   0.292   5.660
  571SOL     OW 2611   2.752   5.127   2.095
  571SOL    HW1 2612   2.733   5.034   2.065
  571SOL    HW2 2613   2.839   5.130   2.143
  572SOL     OW 2614   2.300   6.760   3.946
  572SOL    HW1 2615   2.241   6.735   4.022
  572SOL    HW2 2616   2.394   6.769   3.977
  573SOL     OW 2617   6.800   1.224   5.704
  573SOL    HW1 2618   6.764   1.152   5.645
  573SOL    HW2 2619   6.894   1.246   5.676
  574SOL     OW 2620   2.425   2.008   5.931
  574SOL    HW1 2621   2.398   1.973   5.842
  574SOL    HW2 2622   2.522   1.991   5.946
  575SOL     OW 2623   3.099   3.957   0.971
  575SOL    HW1 2624   3.121   3.861   0.952
  575SOL    HW2 2625   3.090   3.970   1.070
  576SOL     OW 2626   2.268   2.986   3.248
  576SOL    HW1 2627   2.170   2.967   3.246
  576SOL    HW2 2628   2.287   3.065   3.190
  577SOL     OW 2629   0.802   1.623   2.103
  577SOL    HW1 2630   0.729   1.646   2.039
  577SOL    HW2 2631   0.762   1.602   2.192
  578SOL     OW 2632   2.210   5.826   6.800
  578SOL    HW1 2633   2.142   5.835   6.872
  578SOL    HW2 2634   2.169   5.853   6.713
  579SOL     OW 2635   2.420   4.764   2.015
  579SOL    HW1 2636   2.344   4.793   1.957
  579SOL    HW2 2637   2.472   4.692   1.969
  580SOL     OW 2638   4.257   5.203   5.088
  580SOL    HW1 2639   4.310   5.118   5.097
  580SOL    HW2 2640   4.310   5.279   5.124
  581SOL     OW 2641   1.635   2.703   4.213
  581SOL    HW1 2642   1.544   2.676   4.182
  581SOL    HW2 2643   1.704   2.656   4.157
  582SOL     OW 2644   5.561   5.384   3.338
  582SOL    HW1 2645   5.577   5.390   3.437
  582SOL    HW2 2646   5.559   5.476   3.298
  583SOL     OW 2647   3.588   5.156   5.786
  583SOL    HW1 2648   3.685   5.132   5.793
  583SOL    HW2 2649   3.536   5.102   5.853
  584SOL     OW 2650   4.540   1.006   0.060
  584SOL    HW1 2651   4.553   1.081   7.015
  584SOL    HW2 2652   4.618   1.002   0.123
  585SOL     OW 2653   2.500   6.732   1.229
  585SOL    HW1 2654   2.559   6.660   1.193
  585SOL    HW2 2655   2.547   6.820   1.224
  586SOL     OW 2656   4.505   0.012   0.913
  586SOL    HW1 2657   4.543   6.943   0.890
  586SOL    HW2 2658   4.508   0.024   1.012
  587SOL     OW 2659   5.158   2.121   2.312
  587SOL    HW1 2660   5.213   2.109   2.395
  587SOL    HW2 2661   5.140   2.218   2.297
  588SOL     OW 2662   1.069   5.563   2.211
  588SOL    HW1 2663   1.070   5.609   2.122
  588SOL    HW2 2664   1.097   5.468   2.200
  589SOL     OW 2665   3.766   6.159   1.434
  589SOL    HW1 2666   3.754   6.256   1.457
  589SOL    HW2 2667   3.679   6.120   1.404
  590SOL     OW 2668   4.602   1.494   0.374
  590SOL    HW1 2669   4.683   1.456   0.418
  590SOL    HW2 2670   4.590   1.589   0.403
  591SOL     OW 2671   4.116   5.915   4.730
  591SOL    HW1 2672   4.104   5.935   4.633
  591SOL    HW2 2673   4.138   5.998   4.779
  592SOL     OW 2674   4.338   2.385   4.069
  592SOL    HW1 2675   4.275   2.326   4.119
  592SOL    HW2 2676   4.289   2.432   3.996
  593SOL     OW 2677   3.423   1.312   5.671
  593SOL    HW1 2678   3.446   1.247   5.599
  593SOL    HW2 2679   3.415   1.263   5.758
  594SOL     OW 2680   6.128   1.082   1.977
  594SOL    HW1 2681   6.069   1.139   1.920
  594SOL    HW2 2682   6.174   1.140   2.045
  595SOL     OW 2683   5.344   6.224   2.809
  595SOL    HW1 2684   5.327   6.135   2.765
  595SOL    HW2 2685   5.414   6.273   2.758
  596SOL     OW 2686   6.813   4.089   4.230
  596SOL    HW1 2687   6.826   4.025   4.154
  596SOL    HW2 2688   6.805   4.182   4.195
  597SOL     OW 2689   2.914   0.499   6.517
  597SOL    HW1 2690   2.997   0.536   6.475
  597SOL    HW2 2691   2.917   0.514   6.615
  598SOL     OW 2692   3.349   3.192   4.352
  598SOL    HW1 2693   3.288   3.153   4.422
  598SOL    HW2 2694   3.392   3.119   4.300
  599SOL     OW 2695   1.422   5.841   2.064
  599SOL    HW1 2696   1.493   5.882   2.122
  599SOL    HW2 2697   1.367   5.913   2.023
  600SOL     OW 2698   6.834   3.979   5.126
  600SOL    HW1 2699   6.773   3.899   5.120
  600SOL    HW2 2700   6.778   4.062   5.125
  601SOL     OW 2701   1.517   0.492   5.134
  601SOL    HW1 2702   1.448   0.536   5.191
  601SOL    HW2 2703   1.588   0.451   5.192
  602SOL     OW 2704   2.767   6.078   4.110
  602SOL    HW1 2705   2.752   6.020   4.030
  602SOL    HW2 2706   2.720   6.040   4.189
  603SOL     OW 2707   1.866   1.165   5.391
  603SOL    HW1 2708   1.767   1.173   5.380
  603SOL    HW2 2709   1.887   1.093   5.458
  604SOL     OW 2710   6.323   2.375   1.556
  604SOL    HW1 2711   6.357   2.396   1.648
  604SOL    HW2 2712   6.320   2.276   1.543
  605SOL     OW 2713   0.040   5.393   2.628
  605SOL    HW1 2714   0.003   5.363   2.539
  605SOL    HW2 2715   0.115   5.458   2.613
  606SOL     OW 2716   3.982   0.066   4.889
  606SOL    HW1 2717   4.009   0.073   4.985
  606SOL    HW2 2718   3.980   0.157   4.848
  607SOL     OW 2719   1.210   4.501   6.233
  607SOL    HW1 2720   1.231   4.517   6.330
  607SOL    HW2 2721   1.135   4.561   6.205
  608SOL     OW 2722   3.145   0.630   5.176
  608SOL    HW1 2723   3.053   0.618   5.213
  608SOL    HW2 2724   3.154   0.578   5.091
  609SOL     OW 2725   3.873   2.521   1.587
  609SOL    HW1 2726   3.971   2.524   1.608
  609SOL    HW2 2727   3.857   2.559   1.496
  610SOL     OW 2728   4.885   3.343   0.769
  610SOL    HW1 2729   4.908   3.324   0.864
  610SOL    HW2 2730   4.917   3.268   0.711
  611SOL     OW 2731   4.000   0.314   2.300
  611SOL    HW1 2732   4.041   0.397   2.339
  611SOL    HW2 2733   4.051   0.286   2.219
  612SOL     OW 2734   3.984   4.526   6.028
  612SOL    HW1 2735   3.957   4.457   5.960
  612SOL    HW2 2736   4.056   4.584   5.990
  613SOL     OW 2737   4.360   5.261   5.396
  613SOL    HW1 2738   4.274   5.214   5.415
  613SOL    HW2 2739   4.347   5.328   5.322
  614SOL     OW 2740   4.851   5.623   6.041
  614SOL    HW1 2741   4.921   5.555   6.061
  614SOL    HW2 2742   4.878   5.677   5.962
  615SOL     OW 2743   0.391   4.749   1.126
  615SOL    HW1 2744   0.315   4.809   1.099
  615SOL    HW2 2745   0.404   4.754   1.225
  616SOL     OW 2746   5.740   3.259   3.377
  616SOL    HW1 2747   5.703   3.205   3.302
  616SOL    HW2 2748   5.678   3.335   3.396
  617SOL     OW 2749   2.342   4.914   6.101
  617SOL    HW1 2750   2.261   4.945   6.149
  617SOL    HW2 2751   2.322   4.907   6.003
  618SOL     OW 2752   1.403   1.195   2.402
  618SOL    HW1 2753   1.306   1.209   2.421
  618SOL    HW2 2754   1.429   1.248   2.321
  619SOL     OW 2755   1.043   1.584   6.400
  619SOL    HW1 2756   1.042   1.484   6.402
  619SOL    HW2 2757   1.137   1.616   6.388
  620SOL     OW 2758   5.031   3.594   0.130
  620SOL    HW1 2759   5.116   3.543   0.142
  620SOL    HW2 2760   4.976   3.588   0.213
  621SOL     OW 2761   0.361   4.443   1.211
  621SOL    HW1 2762   0.276   4.492   1.231
  621SOL    HW2 2763   0.431   4.508   1.181
  622SOL     OW 2764   2.173   1.736   0.459
  622SOL    HW1 2765   2.271   1.737   0.440
  622SOL    HW2 2766   2.134   1.651   0.423
  623SOL     OW 2767   0.417   4.732   6.374
  623SOL    HW1 2768   0.363   4.720   6.458
  623SOL    HW2 2769   0.462   4.821   6.376
  624SOL     OW 2770   0.889   2.713   2.897
  624SOL    HW1 2771   0.912   2.708   2.994
  624SOL    HW2 2772   0.902   2.806   2.864
  625SOL     OW 2773   2.619   1.636   2.448
  625SOL    HW1 2774   2.545   1.611   2.386
  625SOL    HW2 2775   2.622   1.736   2.458
  626SOL     OW 2776   2.534   6.285   4.600
  626SOL    HW1 2777   2.581   6.354   4.654
  626SOL    HW2 2778   2.486   6.329   4.524
  627SOL     OW 2779   5.186   0.734   0.251
  627SOL    HW1 2780   5.267   0.695   0.208
  627SOL    HW2 2781   5.212   0.781   0.335
  628SOL     OW 2782   4.992   4.331   4.040
  628SOL    HW1 2783   5.070   4.391   4.056
  628SOL    HW2 2784   4.960   4.343   3.947
  629SOL     OW 2785   0.638   6.968   1.072
  629SOL    HW1 2786   0.705   6.912   1.120
  629SOL    HW2 2787   0.593   0.009   1.137
  630SOL     OW 2788   4.396   1.826   0.983
  630SOL    HW1 2789   4.366   1.920   0.964
  630SOL    HW2 2790   4.494   1.827   1.007
  631SOL     OW 2791   2.282   6.954   5.498
  631SOL    HW1 2792   2.313   0.014   5.448
  631SOL    HW2 2793   2.360   6.907   5.538
  632SOL     OW 2794   2.437   1.110   1.294
  632SOL    HW1 2795   2.355   1.105   1.352
  632SOL    HW2 2796   2.409   1.123   1.199
  633SOL     OW 2797   2.887   0.148   6.010
  633SOL    HW1 2798   2.950   0.141   6.088
  633SOL    HW2 2799   2.900   0.237   5.965
  634SOL     OW 2800   3.655   5.518   0.896
  634SOL    HW1 2801   3.691   5.589   0.836
  634SOL    HW2 2802   3.699   5.524   0.986
  635SOL     OW 2803   2.918   6.969   2.824
  635SOL    HW1 2804   2.970   6.993   2.742
  635SOL    HW2 2805   2.868   0.030   2.856
  636SOL     OW 2806   4.929   4.892   6.876
  636SOL    HW1 2807   4.981   4.827   6.931
  636SOL    HW2 2808   4.923   4.858   6.782
  637SOL     OW 2809   4.804   4.402   1.377
  637SOL    HW1 2810   4.814   4.304   1.395
  637SOL    HW2 2811   4.710   4.422   1.349
  638SOL     OW 2812   4.871   1.405   2.049
  638SOL    HW1 2813   4.838   1.482   1.993
  638SOL    HW2 2814   4.912   1.440   2.133
  639SOL     OW 2815   4.180   4.885   2.257
  639SOL    HW1 2816   4.197   4.831   2.174
  639SOL    HW2 2817   4.091   4.930   2.251
  640SOL     OW 2818   3.285   4.418   5.431
  640SOL    HW1 2819   3.189   4.444   5.430
  640SOL    HW2 2820   3.340   4.494   5.465
  641SOL     OW 2821   0.079   6.023   5.021
  641SOL    HW1 2822   0.160   6.057   4.974
  641SOL    HW2 2823   0.059   6.083   5.099
  642SOL     OW 2824   0.203   5.110   4.973
  642SOL    HW1 2825   0.293   5.153   4.979
  642SOL    HW2 2826   0.147   5.139   5.050
  643SOL     OW 2827   5.984   5.480   6.143
  643SOL    HW1 2828   5.941   5.397   6.107
  643SOL    HW2 2829   6.035   5.525   6.069
  644SOL     OW 2830   0.571   7.014   2.731
  644SOL    HW1 2831   0.592   6.927   2.775
  644SOL    HW2 2832   0.653   0.028   2.685
  645SOL     OW 2833   5.934   2.792   3.935
  645SOL    HW1 2834   5.910   2.863   4.001
  645SOL    HW2 2835   6.026   2.758   3.955
  646SOL     OW 2836   1.453   1.392   4.812
  646SOL    HW1 2837   1.459   1.299   4.848
  646SOL    HW2 2838   1.522   1.405   4.740
  647SOL     OW 2839   6.152   3.150   0.266
  647SOL    HW1 2840   6.232   3.100   0.234
  647SOL    HW2 2841   6.168   3.183   0.359
  648SOL     OW 2842   5.918   3.704   2.194
  648SOL    HW1 2843   5.870   3.700   2.281
  648SOL    HW2 2844   6.013   3.733   2.210
  649SOL     OW 2845   3.852   4.711   0.845
  649SOL    HW1 2846   3.873   4.808   0.837
  649SOL    HW2 2847   3.895   4.675   0.928
  650SOL     OW 2848   4.966   4.518   0.665
  650SOL    HW1 2849   4.966   4.615   0.685
  650SOL    HW2 2850   5.057   4.490   0.633
  651SOL     OW 2851   1.061   5.963   0.415
  651SOL    HW1 2852   1.082   6.057   0.387
  651SOL    HW2 2853   1.117   5.938   0.494
  652SOL     OW 2854   4.503   0.965   2.313
  652SOL    HW1 2855   4.452   0.916   2.384
  652SOL    HW2 2856   4.469   0.938   2.223
  653SOL     OW 2857   3.731   4.872   3.820
  653SOL    HW1 2858   3.657   4.918   3.869
  653SOL    HW2 2859   3.806   4.853   3.883
  654SOL     OW 2860   6.998   4.914   7.009
  654SOL    HW1 2861   6.899   4.903   7.011
  654SOL    HW2 2862   0.006   4.975   0.063
  655SOL     OW 2863   0.915   0.525   0.862
  655SOL    HW1 2864   0.872   0.609   0.895
  655SOL    HW2 2865   0.979   0.492   0.931
  656SOL     OW 2866   2.448   6.632   1.977
  656SOL    HW1 2867   2.543   6.617   1.948
  656SOL    HW2 2868   2.442   6.717   2.028
  657SOL     OW 2869   3.454   1.354   0.520
  657SOL    HW1 2870   3.475   1.328   0.426
  657SOL    HW2 2871   3.538   1.353   0.575
  658SOL     OW 2872   2.976   3.780   6.704
  658SOL    HW1 2873   2.972   3.848   6.777
  658SOL    HW2 2874   2.953   3.690   6.742
  659SOL     OW 2875   3.032   6.840   6.905
  659SOL    HW1 2876   2.980   6.841   6.819
  659SOL    HW2 2877   3.095   6.917   6.907
  660SOL     OW 2878   3.678   5.426   2.799
  660SOL    HW1 2879   3.718   5.388   2.715
  660SOL    HW2 2880   3.675   5.525   2.793
  661SOL     OW 2881   4.733   5.581   2.599
  661SOL    HW1 2882   4.711   5.494   2.643
  661SOL    HW2 2883   4.650   5.623   2.564
  662SOL     OW 2884   3.580   1.470   6.198
  662SOL    HW1 2885   3.549   1.565   6.198
  662SOL    HW2 2886   3.540   1.422   6.120
  663SOL     OW 2887   2.120   4.574   5.478
  663SOL    HW1 2888   2.068   4.579   5.563
  663SOL    HW2 2889   2.130   4.479   5.451
  664SOL     OW 2890   6.588   0.815   6.791
  664SOL    HW1 2891   6.627   0.723   6.790
  664SOL    HW2 2892   6.496   0.812   6.829
  665SOL     OW 2893   2.232   5.455   3.247
  665SOL    HW1 2894   2.168   5.473   3.172
  665SOL    HW2 2895   2.247   5.356   3.254
  666SOL     OW 2896   3.855   0.896   1.768
  666SOL    HW1 2897   3.882   0.843   1.848
  666SOL    HW2 2898   3.845   0.993   1.794
  667SOL     OW 2899   1.161   6.226   2.188
  667SOL    HW1 2900   1.070   6.252   2.220
  667SOL    HW2 2901   1.156   6.138   2.140
  668SOL     OW 2902   5.552   3.718   6.316
  668SOL    HW1 2903   5.597   3.798   6.277
  668SOL    HW2 2904   5.458   3.740   6.340
  669SOL     OW 2905   5.052   1.307   2.942
  669SOL    HW1 2906   4.977   1.334   2.883
  669SOL    HW2 2907   5.108   1.387   2.964
  670SOL     OW 2908   1.516   2.118   3.497
  670SOL    HW1 2909   1.435   2.168   3.468
  670SOL    HW2 2910   1.592   2.181   3.508
  671SOL     OW 2911   2.426   6.389   1.261
  671SOL    HW1 2912   2.462   6.302   1.296
  671SOL    HW2 2913   2.385   6.374   1.171
  672SOL     OW 2914   0.774   6.875   2.392
  672SOL    HW1 2915   0.807   6.854   2.485
  672SOL    HW2 2916   0.797   6.969   2.369
  673SOL     OW 2917   5.189   6.806   0.711
  673SOL    HW1 2918   5.175   6.904   0.728
  673SOL    HW2 2919   5.262   6.794   0.644
  674SOL     OW 2920   0.058   0.655   4.990
  674SOL    HW1 2921   0.112   0.654   5.075
  674SOL    HW2 2922   0.041   0.561   4.960
  675SOL     OW 2923   6.532   2.981   2.587
  675SOL    HW1 2924   6.538   2.969   2.686
  675SOL    HW2 2925   6.440   2.959   2.555
  676SOL     OW 2926   2.246   4.963   5.842
  676SOL    HW1 2927   2.245   5.063   5.847
  676SOL    HW2 2928   2.324   4.933   5.788
  677SOL     OW 2929   4.692   1.102   1.109
  677SOL    HW1 2930   4.606   1.152   1.120
  677SOL    HW2 2931   4.743   1.142   1.032
  678SOL     OW 2932   2.145   4.326   5.399
  678SOL    HW1 2933   2.236   4.303   5.365
  678SOL    HW2 2934   2.085   4.348   5.322
  679SOL     OW 2935   4.914   2.096   4.935
  679SOL    HW1 2936   4.862   2.075   4.853
  679SOL    HW2 2937   4.914   2.017   4.997
  680SOL     OW 2938   5.134   6.876   4.141
  680SOL    HW1 2939   5.168   6.965   4.172
  680SOL    HW2 2940   5.165   6.805   4.204
  681SOL     OW 2941   4.876   5.537   1.820
  681SOL    HW1 2942   4.938   5.565   1.893
  681SOL    HW2 2943   4.911   5.569   1.732
  682SOL     OW 2944   0.880   0.622   2.986
  682SOL    HW1 2945   0.806   0.635   2.920
  682SOL    HW2 2946   0.878   0.528   3.019
  683SOL     OW 2947   4.090   3.503   1.307
  683SOL    HW1 2948   4.066   3.512   1.404
  683SOL    HW2 2949   4.054   3.416   1.272
  684SOL     OW 2950   6.637   0.322   5.605
  684SOL    HW1 2951   6.548   0.319   5.559
  684SOL    HW2 2952   6.641   0.250   5.675
  685SOL     OW 2953   3.703   0.432   3.108
  685SOL    HW1 2954   3.793   0.412   3.070
  685SOL    HW2 2955   3.689   0.379   3.192
  686SOL     OW 2956   3.884   1.366   4.587
  686SOL    HW1 2957   3.950   1.402   4.521
  686SOL    HW2 2958   3.841   1.284   4.550
  687SOL     OW 2959   1.329   2.050   4.528
  687SOL    HW1 2960   1.396   1.983   4.498
  687SOL    HW2 2961   1.287   2.094   4.448
  688SOL     OW 2962   6.737   1.581   6.895
  688SOL    HW1 2963   6.803   1.528   6.949
  688SOL    HW2 2964   6.703   1.658   6.950
  689SOL     OW 2965   1.549   4.977   5.699
  689SOL    HW1 2966   1.462   4.932   5.677
  689SOL    HW2 2967   1.615   4.958   5.627
  690SOL     OW 2968   6.190   3.577   2.424
  690SOL    HW1 2969   6.250   3.510   2.379
  690SOL    HW2 2970   6.095   3.549   2.413
  691SOL     OW 2971   4.241   1.921   6.575
  691SOL    HW1 2972   4.302   1.848   6.606
  691SOL    HW2 2973   4.150   1.908   6.616
  692SOL     OW 2974   3.106   1.382   4.712
  692SOL    HW1 2975   3.194   1.395   4.759
  692SOL    HW2 2976   3.065   1.296   4.741
  693SOL     OW 2977   5.325   6.054   3.539
  693SOL    HW1 2978   5.311   6.108   3.456
  693SOL    HW2 2979   5.352   6.114   3.614
  694SOL     OW 2980   4.331   5.711   4.694
  694SOL    HW1 2981   4.267   5.787   4.686
  694SOL    HW2 2982   4.293   5.641   4.754
  695SOL     OW 2983   3.230   6.737   4.174
  695SOL    HW1 2984   3.138   6.710   4.203
  695SOL    HW2 2985   3.248   6.831   4.203
  696SOL     OW 2986   5.163   4.268   2.968
  696SOL    HW1 2987   5.185   4.346   2.909
  696SOL    HW2 2988   5.185   4.183   2.920
  697SOL     OW 2989   0.430   5.046   2.214
  697SOL    HW1 2990   0.435   4.956   2.258
  697SOL    HW2 2991   0.334   5.073   2.205
  698SOL     OW 2992   5.207   6.801   1.343
  698SOL    HW1 2993   5.235   6.850   1.261
  698SOL    HW2 2994   5.108   6.808   1.354
  699SOL     OW 2995   2.863   2.101   0.981
  699SOL    HW1 2996   2.782   2.104   0.921
  699SOL    HW2 2997   2.891   2.007   0.995
  700SOL     OW 2998   3.817   6.968   2.673
  700SOL    HW1 2999   3.820   0.003   2.590
  700SOL    HW2 3000   3.769   7.018   2.745
  701SOL     OW 3001   6.081   5.121   1.352
  701SOL    HW1 3002   6.005   5.114   1.415
  701SOL    HW2 3003   6.082   5.042   1.291
  702SOL     OW 3004   2.780   1.069   4.099
  702SOL    HW1 3005   2.743   1.148   4.148
  702SOL    HW2 3006   2.853   1.027   4.153
  703SOL     OW 3007   3.091   2.492   6.154
  703SOL    HW1 3008   3.053   2.535   6.072
  703SOL    HW2 3009   3.132   2.404   6.130
  704SOL     OW 3010   1.693   3.045   6.081
  704SOL    HW1 3011   1.780   3.019   6.123
  704SOL    HW2 3012   1.618   3.017   6.141
  705SOL     OW 3013   6.965   6.184   4.383
  705SOL    HW1 3014   6.868   6.177   4.404
  705SOL    HW2 3015   7.018   6.147   4.459
  706SOL     OW 3016   4.722   1.286   5.017
  706SOL    HW1 3017   4.810   1.238   5.018
  706SOL    HW2 3018   4.650   1.225   5.050
  707SOL     OW 3019   3.458   4.951   3.393
  707SOL    HW1 3020   3.535   4.916   3.340
  707SOL    HW2 3021   3.491   5.018   3.460
  708SOL     OW 3022   3.416   1.031   3.686
  708SOL    HW1 3023   3.410   1.041   3.587
  708SOL    HW2 3024   3.332   0.990   3.721
  709SOL     OW 3025   2.403   0.279   1.623
  709SOL    HW1 3026   2.401   0.197   1.680
  709SOL    HW2 3027   2.438   0.356   1.677
  710SOL     OW 3028   4.583   2.816   1.707
  710SOL    HW1 3029   4.593   2.891   1.773
  710SOL    HW2 3030   4.638   2.836   1.626
  711SOL     OW 3031   0.257   2.349   5.870
  711SOL    HW1 3032   0.278   2.273   5.932
  711SOL    HW2 3033   0.195   2.413   5.914
  712SOL     OW 3034   4.909   2.972   0.863
  712SOL    HW1 3035   5.002   3.005   0.881
  712SOL    HW2 3036   4.901   2.947   0.767
  713SOL     OW 3037   4.033   2.805   5.312
  713SOL    HW1 3038   4.087   2.733   5.268
  713SOL    HW2 3039   3.939   2.802   5.277
  714SOL     OW 3040   5.631   4.758   3.479
  714SOL    HW1 3041   5.637   4.854   3.451
  714SOL    HW2 3042   5.699   4.741   3.550
  715SOL     OW 3043   6.314   5.264   5.853
  715SOL    HW1 3044   6.370   5.337   5.893
  715SOL    HW2 3045   6.366   5.179   5.852
  716SOL     OW 3046   1.883   1.013   2.526
  716SOL    HW1 3047   1.809   0.976   2.470
  716SOL    HW2 3048   1.920   0.940   2.584
  717SOL     OW 3049   5.614   4.925   3.885
  717SOL    HW1 3050   5.567   4.847   3.844
  717SOL    HW2 3051   5.598   5.006   3.829
  718SOL     OW 3052   4.804   1.796   4.241
  718SOL    HW1 3053   4.859   1.878   4.222
  718SOL    HW2 3054   4.723   1.796   4.183
  719SOL     OW 3055   5.746   0.539   2.772
  719SOL    HW1 3056   5.664   0.482   2.781
  719SOL    HW2 3057   5.791   0.547   2.861
  720SOL     OW 3058   1.972   1.160   0.335
  720SOL    HW1 3059   2.058   1.209   0.337
  720SOL    HW2 3060   1.989   1.061   0.339
  721SOL     OW 3061   6.935   2.412   2.950
  721SOL    HW1 3062   6.963   2.364   2.867
  721SOL    HW2 3063   7.015   2.432   3.006
  722SOL     OW 3064   4.291   6.796   6.755
  722SOL    HW1 3065   4.197   6.796   6.790
  722SOL    HW2 3066   4.294   6.843   6.667
  723SOL     OW 3067   2.321   5.888   3.897
  723SOL    HW1 3068   2.373   5.808   3.926
  723SOL    HW2 3069   2.304   5.884   3.799
  724SOL     OW 3070   0.894   0.884   3.947
  724SOL    HW1 3071   0.858   0.804   3.900
  724SOL    HW2 3072   0.986   0.864   3.981
  725SOL     OW 3073   1.825   4.359   2.068
  725SOL    HW1 3074   1.770   4.384   1.988
  725SOL    HW2 3075   1.820   4.261   2.083
  726SOL     OW 3076   1.968   5.019   0.718
  726SOL    HW1 3077   1.943   4.987   0.809
  726SOL    HW2 3078   1.994   4.942   0.661
  727SOL     OW 3079   4.902   4.901   5.450
  727SOL    HW1 3080   4.861   4.814   5.424
  727SOL    HW2 3081   4.908   4.961   5.370
  728SOL     OW 3082   6.977   3.157   4.902
  728SOL    HW1 3083   6.935   3.120   4.985
  728SOL    HW2 3084   0.013   3.086   4.860
  729SOL     OW 3085   0.279   3.458   1.459
  729SOL    HW1 3086   0.270   3.514   1.377
  729SOL    HW2 3087   0.335   3.505   1.526
  730SOL     OW 3088   4.739   0.612   2.619
  730SOL    HW1 3089   4.729   0.711   2.629
  730SOL    HW2 3090   4.692   0.565   2.695
  731SOL     OW 3091   4.076   4.526   6.659
  731SOL    HW1 3092   4.057   4.619   6.692
  731SOL    HW2 3093   4.062   4.523   6.560
  732SOL     OW 3094   4.687   1.570   3.122
  732SOL    HW1 3095   4.719   1.659   3.155
  732SOL    HW2 3096   4.720   1.498   3.183
  733SOL     OW 3097   6.302   6.552   3.414
  733SOL    HW1 3098   6.330   6.564   3.509
  733SOL    HW2 3099   6.223   6.490   3.411
  734SOL     OW 3100   5.910   5.656   2.801
  734SOL    HW1 3101   5.889   5.749   2.771
  734SOL    HW2 3102   5.854   5.591   2.750
  735SOL     OW 3103   5.412   0.865   1.887
  735SOL    HW1 3104   5.478   0.884   1.815
  735SOL    HW2 3105   5.420   0.934   1.959
  736SOL     OW 3106   1.324   1.547   4.362
  736SOL    HW1 3107   1.261   1.623   4.347
  736SOL    HW2 3108   1.314   1.512   4.455
  737SOL     OW 3109   5.108   1.462   6.146
  737SOL    HW1 3110   5.112   1.367   6.178
  737SOL    HW2 3111   5.020   1.477   6.100
  738SOL     OW 3112   2.715   4.387   1.410
  738SOL    HW1 3113   2.680   4.298   1.382
  738SOL    HW2 3114   2.688   4.405   1.505
  739SOL     OW 3115   3.001   6.848   4.757
  739SOL    HW1 3116   2.921   6.850   4.817
  739SOL    HW2 3117   2.992   6.774   4.691
  740SOL     OW 3118   5.790   2.336   3.172
  740SOL    HW1 3119   5.745   2.300   3.089
  740SOL    HW2 3120   5.720   2.358   3.240
  741SOL     OW 3121   2.974   0.762   3.436
  741SOL    HW1 3122   3.065   0.731   3.407
  741SOL    HW2 3123   2.971   0.764   3.536
  742SOL     OW 3124   1.736   0.172   1.422
  742SOL    HW1 3125   1.830   0.159   1.453
  742SOL    HW2 3126   1.735   0.225   1.337
  743SOL     OW 3127   1.035   6.107   3.619
  743SOL    HW1 3128   0.978   6.061   3.551
  743SOL    HW2 3129   0.990   6.191   3.649
  744SOL     OW 3130   5.422   1.318   0.264
  744SOL    HW1 3131   5.334   1.273   0.253
  744SOL    HW2 3132   5.439   1.378   0.186
  745SOL     OW 3133   2.399   5.551   5.260
  745SOL    HW1 3134   2.345   5.565   5.178
  745SOL    HW2 3135   2.412   5.453   5.276
  746SOL     OW 3136   5.830   4.737   5.899
  746SOL    HW1 3137   5.750   4.679   5.911
  746SOL    HW2 3138   5.905   4.684   5.860
  747SOL     OW 3139   5.827   5.443   2.964
  747SOL    HW1 3140   5.842   5.462   3.061
  747SOL    HW2 3141   5.877   5.510   2.908
  748SOL     OW 3142   5.334   5.691   2.526
  748SOL    HW1 3143   5.254   5.713   2.472
  748SOL    HW2 3144   5.309   5.686   2.623
  749SOL     OW 3145   5.001   4.307   3.517
  749SOL    HW1 3146   4.973   4.379   3.452
  749SOL    HW2 3147   5.101   4.300   3.517
  750SOL     OW 3148   2.567   1.871   2.035
  750SOL    HW1 3149   2.619   1.787   2.048
  750SOL    HW2 3150   2.481   1.851   1.989
  751SOL     OW 3151   4.911   0.832   0.260
  751SOL    HW1 3152   5.005   0.806   0.282
  751SOL    HW2 3153   4.851   0.804   0.334
  752SOL     OW 3154   3.188   2.540   5.341
  752SOL    HW1 3155   3.090   2.556   5.352
  752SOL    HW2 3156   3.203   2.445   5.314
  753SOL     OW 3157   3.508   4.112   4.726
  753SOL    HW1 3158   3.449   4.036   4.752
  753SOL    HW2 3159   3.509   4.122   4.627
  754SOL     OW 3160   5.289   0.764   6.471
  754SOL    HW1 3161   5.195   0.757   6.503
  754SOL    HW2 3162   5.309   0.858   6.446
  755SOL     OW 3163   3.987   4.347   5.602
  755SOL    HW1 3164   3.910   4.295   5.567
  755SOL    HW2 3165   4.044   4.379   5.526
  756SOL     OW 3166   2.435   5.071   6.433
  756SOL    HW1 3167   2.518   5.085   6.486
  756SOL    HW2 3168   2.420   5.149   6.372
  757SOL     OW 3169   2.062   6.888   2.088
  757SOL    HW1 3170   2.093   6.977   2.055
  757SOL    HW2 3171   1.963   6.889   2.100
  758SOL     OW 3172   3.400   1.890   3.995
  758SOL    HW1 3173   3.320   1.915   3.940
  758SOL    HW2 3174   3.450   1.973   4.020
  759SOL     OW 3175   0.619   2.701   4.432
  759SOL    HW1 3176   0.659   2.704   4.340
  759SOL    HW2 3177   0.526   2.665   4.427
  760SOL     OW 3178   6.817   6.495   3.926
  760SOL    HW1 3179   6.821   6.420   3.859
  760SOL    HW2 3180   6.742   6.479   3.990
  761SOL     OW 3181   4.622   4.174   5.658
  761SOL    HW1 3182   4.523   4.163   5.644
  761SOL    HW2 3183   4.671   4.107   5.602
  762SOL     OW 3184   2.906   5.687   4.692
  762SOL    HW1 3185   2.840   5.711   4.763
  762SOL    HW2 3186   2.880   5.601   4.648
  763SOL     OW 3187   5.661   1.020   6.593
  763SOL    HW1 3188   5.749   0.978   6.611
  763SOL    HW2 3189   5.670   1.120   6.596
  764SOL     OW 3190   5.343   6.532   5.100
  764SOL    HW1 3191   5.334   6.614   5.044
  764SOL    HW2 3192   5.284   6.460   5.065
  765SOL     OW 3193   0.596   6.726   0.562
  765SOL    HW1 3194   0.496   6.729   0.555
  765SOL    HW2 3195   0.623   6.707   0.656
  766SOL     OW 3196   1.533   2.587   5.235
  766SOL    HW1 3197   1.547   2.612   5.140
  766SOL    HW2 3198   1.575   2.498   5.252
  767SOL     OW 3199   0.596   6.823   4.193
  767SOL    HW1 3200   0.557   6.871   4.115
  767SOL    HW2 3201   0.694   6.842   4.198
  768SOL     OW 3202   2.378   6.103   2.476
  768SOL    HW1 3203   2.334   6.069   2.559
  768SOL    HW2 3204   2.314   6.095   2.399
  769SOL     OW 3205   3.058   2.045   5.151
  769SOL    HW1 3206   2.963   2.061   5.176
  769SOL    HW2 3207   3.090   2.118   5.091
  770SOL     OW 3208   1.787   4.577   4.713
  770SOL    HW1 3209   1.712   4.635   4.745
  770SOL    HW2 3210   1.829   4.530   4.791
  771SOL     OW 3211   1.123   5.856   3.401
  771SOL    HW1 3212   1.165   5.769   3.427
  771SOL    HW2 3213   1.167   5.931   3.450
  772SOL     OW 3214   5.290   4.874   6.937
  772SOL    HW1 3215   5.281   4.800   7.003
  772SOL    HW2 3216   5.360   4.938   6.968
  773SOL     OW 3217   0.771   3.372   3.804
  773SOL    HW1 3218   0.735   3.314   3.877
  773SOL    HW2 3219   0.732   3.463   3.813
  774SOL     OW 3220   2.568   0.630   3.187
  774SOL    HW1 3221   2.488   0.677   3.151
  774SOL    HW2 3222   2.651   0.674   3.150
  775SOL     OW 3223   2.300   4.185   4.211
  775SOL    HW1 3224   2.233   4.240   4.162
  775SOL    HW2 3225   2.269   4.090   4.215
  776SOL     OW 3226   2.389   6.401   6.347
  776SOL    HW1 3227   2.421   6.428   6.256
  776SOL    HW2 3228   2.325   6.325   6.338
  777SOL     OW 3229   2.035   3.680   6.833
  777SOL    HW1 3230   1.993   3.767   6.806
  777SOL    HW2 3231   2.116   3.664   6.777
  778SOL     OW 3232   3.272   6.842   1.612
  778SOL    HW1 3233   3.186   6.871   1.654
  778SOL    HW2 3234   3.283   6.743   1.624
  779SOL     OW 3235   0.337   2.120   2.731
  779SOL    HW1 3236   0.324   2.214   2.698
  779SOL    HW2 3237   0.350   2.059   2.653
  780SOL     OW 3238   1.299   1.747   5.683
  780SOL    HW1 3239   1.323   1.711   5.773
  780SOL    HW2 3240   1.357   1.705   5.614
  781SOL     OW 3241   0.637   4.050   0.616
  781SOL    HW1 3242   0.730   4.050   0.578
  781SOL    HW2 3243   0.642   4.063   0.715
  782SOL     OW 3244   1.682   3.604   5.753
  782SOL    HW1 3245   1.756   3.668   5.731
  782SOL    HW2 3246   1.706   3.513   5.720
  783SOL     OW 3247   5.720   4.510   6.682
  783SOL    HW1 3248   5.740   4.601   6.718
  783SOL    HW2 3249   5.802   4.452   6.691
  784SOL     OW 3250   3.287   6.376   0.700
  784SOL    HW1 3251   3.199   6.417   0.679
  784SOL    HW2 3252   3.341   6.438   0.756
  785SOL     OW 3253   0.626   0.335   4.710
  785SOL    HW1 3254   0.642   0.315   4.614
  785SOL    HW2 3255   0.672   0.420   4.735
  786SOL     OW 3256   6.703   1.185   3.166
  786SOL    HW1 3257   6.798   1.209   3.184
  786SOL    HW2 3258   6.645   1.222   3.239
  787SOL     OW 3259   2.617   0.113   0.708
  787SOL    HW1 3260   2.676   0.035   0.690
  787SOL    HW2 3261   2.601   0.163   0.622
  788SOL     OW 3262   3.781   3.444   1.170
  788SOL    HW1 3263   3.839   3.364   1.180
  788SOL    HW2 3264   3.687   3.421   1.197
  789SOL     OW 3265   4.509   5.343   1.581
  789SOL    HW1 3266   4.502   5.368   1.678
  789SOL    HW2 3267   4.605   5.334   1.556
  790SOL     OW 3268   0.851   2.916   2.541
  790SOL    HW1 3269   0.904   2.965   2.471
  790SOL    HW2 3270   0.893   2.930   2.630
  791SOL     OW 3271   3.055   5.089   4.780
  791SOL    HW1 3272   2.977   5.119   4.834
  791SOL    HW2 3273   3.135   5.143   4.805
  792SOL     OW 3274   1.228   1.393   1.004
  792SOL    HW1 3275   1.137   1.356   0.985
  792SOL    HW2 3276   1.282   1.326   1.054
  793SOL     OW 3277   3.401   6.114   3.984
  793SOL    HW1 3278   3.344   6.051   4.037
  793SOL    HW2 3279   3.461   6.061   3.923
  794SOL     OW 3280   3.569   3.430   3.477
  794SOL    HW1 3281   3.503   3.504   3.479
  794SOL    HW2 3282   3.531   3.353   3.426
  795SOL     OW 3283   4.009   0.063   6.371
  795SOL    HW1 3284   3.929   0.051   6.313
  795SOL    HW2 3285   4.076   7.012   6.351
  796SOL     OW 3286   1.373   3.527   6.562
  796SOL    HW1 3287   1.274   3.520   6.573
  796SOL    HW2 3288   1.416   3.441   6.587
  797SOL     OW 3289   4.896   6.814   1.035
  797SOL    HW1 3290   4.959   6.892   1.028
  797SOL    HW2 3291   4.884   6.790   1.132
  798SOL     OW 3292   3.878   6.833   0.227
  798SOL    HW1 3293   3.893   6.932   0.229
  798SOL    HW2 3294   3.949   6.787   0.280
  799SOL     OW 3295   1.534   2.297   6.583
  799SOL    HW1 3296   1.586   2.381   6.570
  799SOL    HW2 3297   1.549   2.263   6.676
  800SOL     OW 3298   6.247   2.102   1.464
  800SOL    HW1 3299   6.269   2.029   1.529
  800SOL    HW2 3300   6.207   2.061   1.381
  801SOL     OW 3301   1.774   5.393   5.506
  801SOL    HW1 3302   1.725   5.400   5.593
  801SOL    HW2 3303   1.790   5.297   5.484
  802SOL     OW 3304   5.758   2.801   0.019
  802SOL    HW1 3305   5.695   2.878   0.014
  802SOL    HW2 3306   5.741   2.749   0.103
  803SOL     OW 3307   2.456   1.213   5.216
  803SOL    HW1 3308   2.382   1.179   5.158
  803SOL    HW2 3309   2.516   1.272   5.162
  804SOL     OW 3310   6.520   0.406   1.762
  804SOL    HW1 3311   6.561   0.457   1.838
  804SOL    HW2 3312   6.515   0.309   1.786
  805SOL     OW 3313   3.523   0.409   3.752
  805SOL    HW1 3314   3.563   0.318   3.744
  805SOL    HW2 3315   3.542   0.445   3.844
  806SOL     OW 3316   1.729   6.266   5.263
  806SOL    HW1 3317   1.797   6.328   5.225
  806SOL    HW2 3318   1.639   6.311   5.264
  807SOL     OW 3319   0.710   6.408   5.754
  807SOL    HW1 3320   0.633   6.468   5.775
  807SOL    HW2 3321   0.756   6.382   5.838
  808SOL     OW 3322   5.480   2.761   0.275
  808SOL    HW1 3323   5.521   2.852   0.280
  808SOL    HW2 3324   5.411   2.760   0.203
  809SOL     OW 3325   1.153   4.849   0.363
  809SOL    HW1 3326   1.211   4.799   0.299
  809SOL    HW2 3327   1.060   4.852   0.328
  810SOL     OW 3328   3.163   3.629   0.298
  810SOL    HW1 3329   3.248   3.681   0.297
  810SOL    HW2 3330   3.183   3.531   0.287
  811SOL     OW 3331   5.456   4.631   4.319
  811SOL    HW1 3332   5.521   4.693   4.362
  811SOL    HW2 3333   5.436   4.662   4.226
  812SOL     OW 3334   0.690   2.676   1.701
  812SOL    HW1 3335   0.663   2.763   1.658
  812SOL    HW2 3336   0.652   2.600   1.648
  813SOL     OW 3337   1.417   1.963   5.127
  813SOL    HW1 3338   1.380   2.035   5.068
  813SOL    HW2 3339   1.505   1.932   5.091
  814SOL     OW 3340   0.936   5.383   3.442
  814SOL    HW1 3341   0.994   5.305   3.418
  814SOL    HW2 3342   0.843   5.352   3.457
  815SOL     OW 3343   4.723   2.243   3.760
  815SOL    HW1 3344   4.810   2.200   3.738
  815SOL    HW2 3345   4.683   2.199   3.840
  816SOL     OW 3346   5.519   3.605   6.932
  816SOL    HW1 3347   5.487   3.561   6.847
  816SOL    HW2 3348   5.566   3.537   6.988
  817SOL     OW 3349   1.133   4.851   6.866
  817SOL    HW1 3350   1.163   4.765   6.824
  817SOL    HW2 3351   1.077   4.902   6.801
  818SOL     OW 3352   6.168   2.665   3.991
  818SOL    HW1 3353   6.144   2.601   3.918
  818SOL    HW2 3354   6.155   2.622   4.080
  819SOL     OW 3355   5.040   2.625   2.280
  819SOL    HW1 3356   5.092   2.703   2.245
  819SOL    HW2 3357   4.964   2.658   2.335
  820SOL     OW 3358   2.732   1.848   5.209
  820SOL    HW1 3359   2.781   1.780   5.153
  820SOL    HW2 3360   2.699   1.804   5.292
  821SOL     OW 3361   5.390   3.827   5.159
  821SOL    HW1 3362   5.327   3.789   5.092
  821SOL    HW2 3363   5.473   3.858   5.112
  822SOL     OW 3364   0.470   4.379   3.390
  822SOL    HW1 3365   0.504   4.354   3.481
  822SOL    HW2 3366   0.460   4.296   3.335
  823SOL     OW 3367   0.683   3.548   5.820
  823SOL    HW1 3368   0.677   3.501   5.908
  823SOL    HW2 3369   0.651   3.488   5.748
  824SOL     OW 3370   5.682   1.194   5.464
  824SOL    HW1 3371   5.699   1.249   5.383
  824SOL    HW2 3372   5.767   1.183   5.515
  825SOL     OW 3373   0.023   5.910   1.031
  825SOL    HW1 3374   0.018   6.005   1.063
  825SOL    HW2 3375   0.102   5.866   1.073
  826SOL     OW 3376   3.760   0.931   5.398
  826SOL    HW1 3377   3.777   0.959   5.493
  826SOL    HW2 3378   3.676   0.974   5.365
  827SOL     OW 3379   3.224   3.765   4.301
  827SOL    HW1 3380   3.169   3.685   4.281
  827SOL    HW2 3381   3.164   3.843   4.320
  828SOL     OW 3382   6.091   5.586   5.161
  828SOL    HW1 3383   6.029   5.579   5.083
  828SOL    HW2 3384   6.174   5.534   5.143
  829SOL     OW 3385   3.051   3.154   2.565
  829SOL    HW1 3386   3.073   3.112   2.653
  829SOL    HW2 3387   3.091   3.100   2.491
  830SOL     OW 3388   6.596   4.814   0.338
  830SOL    HW1 3389   6.694   4.795   0.348
  830SOL    HW2 3390   6.566   4.785   0.248
  831SOL     OW 3391   5.769   6.383   1.018
  831SOL    HW1 3392   5.746   6.293   0.981
  831SOL    HW2 3393   5.868   6.389   1.031
  832SOL     OW 3394   3.198   2.129   4.787
  832SOL    HW1 3395   3.210   2.030   4.789
  832SOL    HW2 3396   3.172   2.162   4.878
  833SOL     OW 3397   2.064   3.306   6.392
  833SOL    HW1 3398   2.082   3.395   6.352
  833SOL    HW2 3399   1.965   3.289   6.392
  834SOL     OW 3400   4.902   3.624   6.685
  834SOL    HW1 3401   4.904   3.615   6.784
  834SOL    HW2 3402   4.975   3.568   6.645
  835SOL     OW 3403   0.905   6.719   4.867
  835SOL    HW1 3404   0.908   6.725   4.967
  835SOL    HW2 3405   0.976   6.657   4.835
  836SOL     OW 3406   3.224   1.208   5.093
  836SOL    HW1 3407   3.226   1.297   5.047
  836SOL    HW2 3408   3.312   1.162   5.080
  837SOL     OW 3409   1.498   0.751   0.696
  837SOL    HW1 3410   1.464   0.662   0.726
  837SOL    HW2 3411   1.570   0.782   0.757
  838SOL     OW 3412   1.953   5.621   3.482
  838SOL    HW1 3413   2.040   5.634   3.435
  838SOL    HW2 3414   1.900   5.706   3.477
  839SOL     OW 3415   1.652   1.463   0.919
  839SOL    HW1 3416   1.574   1.474   0.857
  839SOL    HW2 3417   1.650   1.534   0.989
  840SOL     OW 3418   4.955   5.968   0.179
  840SOL    HW1 3419   5.004   6.040   0.130
  840SOL    HW2 3420   4.874   5.941   0.127
  841SOL     OW 3421   3.782   4.880   5.892
  841SOL    HW1 3422   3.737   4.941   5.958
  841SOL    HW2 3423   3.791   4.789   5.932
  842SOL     OW 3424   3.287   0.309   0.224
  842SOL    HW1 3425   3.320   0.305   0.129
  842SOL    HW2 3426   3.231   0.391   0.236
  843SOL     OW 3427   1.439   1.576   2.100
  843SOL    HW1 3428   1.514   1.511   2.114
  843SOL    HW2 3429   1.471   1.650   2.040
  844SOL     OW 3430   6.226   6.971   1.034
  844SOL    HW1 3431   6.297   6.988   1.103
  844SOL    HW2 3432   6.164   0.029   1.031
  845SOL     OW 3433   3.528   1.543   2.571
  845SOL    HW1 3434   3.474   1.607   2.625
  845SOL    HW2 3435   3.596   1.499   2.630
  846SOL     OW 3436   2.883   2.001   0.224
  846SOL    HW1 3437   2.946   1.924   0.214
  846SOL    HW2 3438   2.895   2.042   0.314
  847SOL     OW 3439   2.405   4.613   1.361
  847SOL    HW1 3440   2.362   4.538   1.412
  847SOL    HW2 3441   2.483   4.648   1.413
  848SOL     OW 3442   6.775   6.376   6.224
  848SOL    HW1 3443   6.757   6.438   6.147
  848SOL    HW2 3444   6.874   6.370   6.238
  849SOL     OW 3445   5.900   4.218   0.502
  849SOL    HW1 3446   5.969   4.268   0.554
  849SOL    HW2 3447   5.845   4.283   0.449
  850SOL     OW 3448   0.189   0.588   5.541
  850SOL    HW1 3449   0.223   0.678   5.568
  850SOL    HW2 3450   0.089   0.587   5.544
  851SOL     OW 3451   6.470   3.164   6.076
  851SOL    HW1 3452   6.482   3.255   6.115
  851SOL    HW2 3453   6.521   3.158   5.990
  852SOL     OW 3454   0.156   3.673   2.186
  852SOL    HW1 3455   0.194   3.624   2.265
  852SOL    HW2 3456   0.057   3.658   2.182
  853SOL     OW 3457   2.237   3.863   0.110
  853SOL    HW1 3458   2.331   3.832   0.103
  853SOL    HW2 3459   2.217   3.926   0.035
  854SOL     OW 3460   5.658   6.469   6.688
  854SOL    HW1 3461   5.745   6.426   6.712
  854SOL    HW2 3462   5.587   6.440   6.753
  855SOL     OW 3463   5.979   0.890   0.642
  855SOL    HW1 3464   5.911   0.832   0.599
  855SOL    HW2 3465   6.055   0.906   0.579
  856SOL     OW 3466   2.062   6.490   0.315
  856SOL    HW1 3467   1.998   6.443   0.254
  856SOL    HW2 3468   2.074   6.585   0.283
  857SOL     OW 3469   6.643   5.329   4.513
  857SOL    HW1 3470   6.560   5.338   4.568
  857SOL    HW2 3471   6.656   5.233   4.487
  858SOL     OW 3472   3.801   3.611   0.336
  858SOL    HW1 3473   3.775   3.643   0.427
  858SOL    HW2 3474   3.739   3.651   0.269
  859SOL     OW 3475   4.261   6.977   5.066
  859SOL    HW1 3476   4.285   6.940   4.976
  859SOL    HW2 3477   4.326   6.944   5.134
  860SOL     OW 3478   5.479   3.223   5.874
  860SOL    HW1 3479   5.554   3.270   5.829
  860SOL    HW2 3480   5.440   3.282   5.944
  861SOL     OW 3481   2.117   6.319   2.759
  861SOL    HW1 3482   2.068   6.354   2.839
  861SOL    HW2 3483   2.052   6.279   2.695
  862SOL     OW 3484   1.691   4.340   3.508
  862SOL    HW1 3485   1.691   4.298   3.599
  862SOL    HW2 3486   1.653   4.275   3.441
  863SOL     OW 3487   0.169   0.834   6.682
  863SOL    HW1 3488   0.254   0.881   6.708
  863SOL    HW2 3489   0.147   0.765   6.751
  864SOL     OW 3490   5.106   0.218   5.218
  864SOL    HW1 3491   5.147   0.308   5.232
  864SOL    HW2 3492   5.013   0.229   5.182
  865SOL     OW 3493   1.726   5.882   4.642
  865SOL    HW1 3494   1.690   5.962   4.594
  865SOL    HW2 3495   1.751   5.812   4.576
  866SOL     OW 3496   2.421   6.258   1.912
  866SOL    HW1 3497   2.421   6.320   1.991
  866SOL    HW2 3498   2.337   6.204   1.913
  867SOL     OW 3499   5.485   2.123   0.145
  867SOL    HW1 3500   5.556   2.157   0.082
  867SOL    HW2 3501   5.527   2.060   0.210
  868SOL     OW 3502   6.774   2.292   2.173
  868SOL    HW1 3503   6.857   2.248   2.140
  868SOL    HW2 3504   6.704   2.223   2.192
  869SOL     OW 3505   0.054   3.906   3.626
  869SOL    HW1 3506   0.129   3.969   3.602
  869SOL    HW2 3507   0.082   3.851   3.705
  870SOL     OW 3508   3.448   5.303   1.576
  870SOL    HW1 3509   3.407   5.262   1.657
  870SOL    HW2 3510   3.473   5.231   1.511
  871SOL     OW 3511   4.643   1.727   3.540
  871SOL    HW1 3512   4.551   1.695   3.565
  871SOL    HW2 3513   4.698   1.649   3.509
  872SOL     OW 3514   6.822   2.859   4.499
  872SOL    HW1 3515   6.782   2.890   4.585
  872SOL    HW2 3516   6.755   2.804   4.448
  873SOL     OW 3517   4.305   6.550   6.040
  873SOL    HW1 3518   4.277   6.554   6.135
  873SOL    HW2 3519   4.338   6.457   6.019
  874SOL     OW 3520   5.432   3.852   0.587
  874SOL    HW1 3521   5.426   3.769   0.531
  874SOL    HW2 3522   5.489   3.920   0.541
  875SOL     OW 3523   4.971   5.405   1.009
  875SOL    HW1 3524   5.066   5.433   0.995
  875SOL    HW2 3525   4.938   5.357   0.928
  876SOL     OW 3526   0.377   5.839   2.047
  876SOL    HW1 3527   0.300   5.859   2.107
  876SOL    HW2 3528   0.394   5.918   1.988
  877SOL     OW 3529   3.102   4.478   0.041
  877SOL    HW1 3530   3.178   4.536   0.011
  877SOL    HW2 3531   3.137   4.389   0.069
  878SOL     OW 3532   4.027   6.839   3.993
  878SOL    HW1 3533   4.001   6.761   4.050
  878SOL    HW2 3534   3.962   6.847   3.917
  879SOL     OW 3535   4.571   0.306   0.162
  879SOL    HW1 3536   4.474   0.329   0.163
  879SOL    HW2 3537   4.625   0.388   0.145
  880SOL     OW 3538   2.969   3.344   2.982
  880SOL    HW1 3539   2.959   3.369   3.078
  880SOL    HW2 3540   2.879   3.319   2.945
  881SOL     OW 3541   4.714   2.405   5.655
  881SOL    HW1 3542   4.634   2.457   5.627
  881SOL    HW2 3543   4.693   2.308   5.657
  882SOL     OW 3544   0.935   3.214   5.342
  882SOL    HW1 3545   0.988   3.295   5.364
  882SOL    HW2 3546   0.996   3.143   5.307
  883SOL     OW 3547   3.325   0.255   2.902
  883SOL    HW1 3548   3.279   0.304   2.828
  883SOL    HW2 3549   3.274   0.267   2.987
  884SOL     OW 3550   4.740   2.928   5.044
  884SOL    HW1 3551   4.782   3.018   5.033
  884SOL    HW2 3552   4.710   2.916   5.139
  885SOL     OW 3553   2.987   1.494   5.789
  885SOL    HW1 3554   2.973   1.555   5.867
  885SOL    HW2 3555   3.083   1.466   5.786
  886SOL     OW 3556   3.561   0.957   0.040
  886SOL    HW1 3557   3.558   1.057   0.031
  886SOL    HW2 3558   3.531   0.915   6.975
  887SOL     OW 3559   4.105   0.813   3.651
  887SOL    HW1 3560   4.182   0.756   3.622
  887SOL    HW2 3561   4.129   0.909   3.643
  888SOL     OW 3562   0.691   0.805   3.117
  888SOL    HW1 3563   0.766   0.753   3.078
  888SOL    HW2 3564   0.632   0.840   3.044
  889SOL     OW 3565   0.598   4.295   6.666
  889SOL    HW1 3566   0.518   4.276   6.722
  889SOL    HW2 3567   0.662   4.218   6.671
  890SOL     OW 3568   1.972   5.752   3.756
  890SOL    HW1 3569   1.907   5.772   3.683
  890SOL    HW2 3570   1.933   5.782   3.843
  891SOL     OW 3571   5.131   5.076   0.839
  891SOL    HW1 3572   5.145   5.002   0.773
  891SOL    HW2 3573   5.216   5.094   0.888
  892SOL     OW 3574   2.435   4.053   5.723
  892SOL    HW1 3575   2.341   4.020   5.713
  892SOL    HW2 3576   2.497   3.989   5.677
  893SOL     OW 3577   2.435   6.293   3.069
  893SOL    HW1 3578   2.511   6.317   3.008
  893SOL    HW2 3579   2.470   6.273   3.160
  894SOL     OW 3580   1.407   3.763   1.613
  894SOL    HW1 3581   1.369   3.764   1.520
  894SOL    HW2 3582   1.340   3.723   1.676
  895SOL     OW 3583   0.479   5.317   3.312
  895SOL    HW1 3584   0.488   5.414   3.290
  895SOL    HW2 3585   0.569   5.274   3.311
  896SOL     OW 3586   6.461   5.575   0.004
  896SOL    HW1 3587   6.473   5.493   6.968
  896SOL    HW2 3588   6.391   5.634   6.983
  897SOL     OW 3589   5.279   0.843   0.505
  897SOL    HW1 3590   5.245   0.789   0.582
  897SOL    HW2 3591   5.248   0.937   0.515
  898SOL     OW 3592   3.168   5.336   2.870
  898SOL    HW1 3593   3.264   5.354   2.893
  898SOL    HW2 3594   3.109   5.388   2.932
  899SOL     OW 3595   0.906   5.232   6.128
  899SOL    HW1 3596   0.893   5.202   6.223
  899SOL    HW2 3597   0.820   5.223   6.078
  900SOL     OW 3598   5.729   6.682   6.864
  900SOL    HW1 3599   5.755   6.649   6.955
  900SOL    HW2 3600   5.669   6.615   6.820
  901SOL     OW 3601   1.893   0.614   2.406
  901SOL    HW1 3602   1.895   0.517   2.382
  901SOL    HW2 3603   1.928   0.668   2.330
  902SOL     OW 3604   6.140   3.310   0.505
  902SOL    HW1 3605   6.069   3.376   0.478
  902SOL    HW2 3606   6.117   3.271   0.594
  903SOL     OW 3607   0.203   2.277   6.654
  903SOL    HW1 3608   0.208   2.198   6.593
  903SOL    HW2 3609   0.115   2.323   6.641
  904SOL     OW 3610   2.997   2.134   3.737
  904SOL    HW1 3611   2.941   2.106   3.659
  904SOL    HW2 3612   2.962   2.220   3.774
  905SOL     OW 3613   5.749   2.620   0.216
  905SOL    HW1 3614   5.656   2.607   0.250
  905SOL    HW2 3615   5.814   2.593   0.287
  906SOL     OW 3616   0.704   2.277   5.650
  906SOL    HW1 3617   0.755   2.215   5.710
  906SOL    HW2 3618   0.715   2.248   5.555
  907SOL     OW 3619   5.124   3.706   6.896
  907SOL    HW1 3620   5.109   3.660   6.984
  907SOL    HW2 3621   5.145   3.638   6.826
  908SOL     OW 3622   2.947   4.778   2.211
  908SOL    HW1 3623   2.912   4.708   2.149
  908SOL    HW2 3624   3.010   4.839   2.162
  909SOL     OW 3625   4.409   5.286   6.179
  909SOL    HW1 3626   4.501   5.248   6.190
  909SOL    HW2 3627   4.369   5.301   6.269
  910SOL     OW 3628   2.609   2.843   1.677
  910SOL    HW1 3629   2.649   2.932   1.657
  910SOL    HW2 3630   2.681   2.778   1.703
  911SOL     OW 3631   1.873   6.036   6.130
  911SOL    HW1 3632   1.971   6.025   6.109
  911SOL    HW2 3633   1.850   5.983   6.211
  912SOL     OW 3634   5.142   3.194   3.439
  912SOL    HW1 3635   5.131   3.265   3.369
  912SOL    HW2 3636   5.115   3.106   3.402
  913SOL     OW 3637   5.401   6.479   3.062
  913SOL    HW1 3638   5.429   6.497   3.156
  913SOL    HW2 3639   5.482   6.460   3.006
  914SOL     OW 3640   2.786   0.193   6.624
  914SOL    HW1 3641   2.874   0.239   6.616
  914SOL    HW2 3642   2.747   0.211   6.715
  915SOL     OW 3643   6.051   5.442   0.710
  915SOL    HW1 3644   5.981   5.510   0.730
  915SOL    HW2 3645   6.112   5.432   0.788
  916SOL     OW 3646   0.886   2.523   2.332
  916SOL    HW1 3647   0.831   2.578   2.395
  916SOL    HW2 3648   0.966   2.487   2.381
  917SOL     OW 3649   0.318   6.768   0.492
  917SOL    HW1 3650   0.321   6.804   0.398
  917SOL    HW2 3651   0.248   6.818   0.543
  918SOL     OW 3652   1.906   6.219   0.794
  918SOL    HW1 3653   1.867   6.188   0.881
  918SOL    HW2 3654   1.956   6.304   0.809
  919SOL     OW 3655   5.654   1.616   3.492
  919SOL    HW1 3656   5.646   1.703   3.442
  919SOL    HW2 3657   5.741   1.614   3.540
  920SOL     OW 3658   2.624   4.695   1.510
  920SOL    HW1 3659   2.702   4.651   1.555
  920SOL    HW2 3660   2.583   4.762   1.572
  921SOL     OW 3661   5.181   5.680   4.467
  921SOL    HW1 3662   5.196   5.644   4.375
  921SOL    HW2 3663   5.207   5.776   4.470
  922SOL     OW 3664   3.475   3.777   4.179
  922SOL    HW1 3665   3.396   3.796   4.238
  922SOL    HW2 3666   3.465   3.687   4.138
  923SOL     OW 3667   1.837   2.540   5.488
  923SOL    HW1 3668   1.899   2.511   5.415
  923SOL    HW2 3669   1.790   2.460   5.525
  924SOL     OW 3670   6.941   3.833   2.261
  924SOL    HW1 3671   7.020   3.861   2.316
  924SOL    HW2 3672   6.866   3.806   2.321
  925SOL     OW 3673   5.961   1.687   0.201
  925SOL    HW1 3674   5.913   1.705   0.287
  925SOL    HW2 3675   5.915   1.614   0.152
  926SOL     OW 3676   0.576   1.813   2.098
  926SOL    HW1 3677   0.505   1.879   2.074
  926SOL    HW2 3678   0.580   1.803   2.197
  927SOL     OW 3679   5.594   3.995   3.828
  927SOL    HW1 3680   5.512   4.052   3.836
  927SOL    HW2 3681   5.585   3.933   3.750
  928SOL     OW 3682   3.249   6.000   6.688
  928SOL    HW1 3683   3.226   5.917   6.740
  928SOL    HW2 3684   3.277   5.974   6.595
  929SOL     OW 3685   6.437   1.406   5.848
  929SOL    HW1 3686   6.486   1.437   5.767
  929SOL    HW2 3687   6.473   1.455   5.928
  930SOL     OW 3688   4.870   5.069   6.388
  930SOL    HW1 3689   4.917   4.981   6.395
  930SOL    HW2 3690   4.931   5.141   6.421
  931SOL     OW 3691   6.438   2.614   3.401
  931SOL    HW1 3692   6.473   2.539   3.345
  931SOL    HW2 3693   6.410   2.690   3.342
  932SOL     OW 3694   3.918   0.624   3.538
  932SOL    HW1 3695   3.896   0.585   3.628
  932SOL    HW2 3696   3.958   0.715   3.550
  933SOL     OW 3697   1.651   4.893   2.989
  933SOL    HW1 3698   1.711   4.952   3.043
  933SOL    HW2 3699   1.666   4.911   2.892
  934SOL     OW 3700   1.842   5.402   6.310
  934SOL    HW1 3701   1.919   5.355   6.353
  934SOL    HW2 3702   1.844   5.499   6.334
  935SOL     OW 3703   5.681   3.638   3.279
  935SOL    HW1 3704   5.614   3.712   3.272
  935SOL    HW2 3705   5.640   3.560   3.325
  936SOL     OW 3706   1.684   0.641   6.213
  936SOL    HW1 3707   1.713   0.736   6.226
  936SOL    HW2 3708   1.732   0.601   6.135
  937SOL     OW 3709   4.653   0.762   5.445
  937SOL    HW1 3710   4.724   0.727   5.506
  937SOL    HW2 3711   4.676   0.856   5.419
  938SOL     OW 3712   6.963   5.544   4.120
  938SOL    HW1 3713   0.000   5.484   4.175
  938SOL    HW2 3714   6.961   5.512   4.025
  939SOL     OW 3715   7.000   6.974   5.006
  939SOL    HW1 3716   0.032   6.934   5.082
  939SOL    HW2 3717   6.903   6.972   5.029
  940SOL     OW 3718   2.250   5.112   0.577
  940SOL    HW1 3719   2.191   5.166   0.637
  940SOL    HW2 3720   2.319   5.065   0.632
  941SOL     OW 3721   3.749   0.334   6.490
  941SOL    HW1 3722   3.757   0.237   6.465
  941SOL    HW2 3723   3.714   0.386   6.412
  942SOL     OW 3724   0.279   5.652   0.655
  942SOL    HW1 3725   0.191   5.604   0.656
  942SOL    HW2 3726   0.271   5.736   0.709
  943SOL     OW 3727   2.987   4.845   2.490
  943SOL    HW1 3728   2.895   4.838   2.528
  943SOL    HW2 3729   2.990   4.800   2.401
  944SOL     OW 3730   1.018   6.535   4.212
  944SOL    HW1 3731   1.010   6.600   4.136
  944SOL    HW2 3732   1.013   6.442   4.178
  945SOL     OW 3733   0.912   5.775   5.717
  945SOL    HW1 3734   0.973   5.780   5.639
  945SOL    HW2 3735   0.965   5.755   5.800
  946SOL     OW 3736   4.678   4.253   3.886
  946SOL    HW1 3737   4.710   4.231   3.978
  946SOL    HW2 3738   4.747   4.308   3.839
  947SOL     OW 3739   3.501   4.126   4.060
  947SOL    HW1 3740   3.440   4.167   4.128
  947SOL    HW2 3741   3.573   4.075   4.107
  948SOL     OW 3742   4.679   1.575   2.589
  948SOL    HW1 3743   4.650   1.600   2.682
  948SOL    HW2 3744   4.778   1.561   2.588
  949SOL     OW 3745   3.253   6.644   6.818
  949SOL    HW1 3746   3.173   6.693   6.854
  949SOL    HW2 3747   3.249   6.641   6.719
  950SOL     OW 3748   6.887   6.290   2.434
  950SOL    HW1 3749   6.830   6.226   2.486
  950SOL    HW2 3750   6.983   6.262   2.443
  951SOL     OW 3751   1.671   0.312   3.544
  951SOL    HW1 3752   1.690   0.218   3.572
  951SOL    HW2 3753   1.730   0.337   3.467
  952SOL     OW 3754   4.240   1.608   1.921
  952SOL    HW1 3755   4.182   1.686   1.945
  952SOL    HW2 3756   4.334   1.640   1.905
  953SOL     OW 3757   6.934   5.301   5.057
  953SOL    HW1 3758   6.940   5.248   5.141
  953SOL    HW2 3759   6.874   5.254   4.992
  954SOL     OW 3760   4.706   5.738   2.820
  954SOL    HW1 3761   4.731   5.664   2.758
  954SOL    HW2 3762   4.611   5.765   2.802
  955SOL     OW 3763   1.020   4.530   6.588
  955SOL    HW1 3764   1.047   4.434   6.578
  955SOL    HW2 3765   1.101   4.586   6.604
  956SOL     OW 3766   6.381   0.409   1.038
  956SOL    HW1 3767   6.362   0.388   0.942
  956SOL    HW2 3768   6.451   0.347   1.073
  957SOL     OW 3769   6.383   2.290   3.681
  957SOL    HW1 3770   6.333   2.296   3.767
  957SOL    HW2 3771   6.323   2.319   3.606
  958SOL     OW 3772   5.669   6.652   2.288
  958SOL    HW1 3773   5.671   6.669   2.189
  958SOL    HW2 3774   5.653   6.555   2.304
  959SOL     OW 3775   3.801   6.794   3.825
  959SOL    HW1 3776   3.714   6.816   3.870
  959SOL    HW2 3777   3.807   6.696   3.809
  960SOL     OW 3778   0.999   0.351   0.036
  960SOL    HW1 3779   0.974   0.390   0.124
  960SOL    HW2 3780   0.936   0.384   6.986
  961SOL     OW 3781   3.347   6.484   2.995
  961SOL    HW1 3782   3.292   6.494   2.912
  961SOL    HW2 3783   3.286   6.472   3.073
  962SOL     OW 3784   6.404   6.928   5.224
  962SOL    HW1 3785   6.388   6.830   5.218
  962SOL    HW2 3786   6.450   6.949   5.311
  963SOL     OW 3787   4.885   2.565   1.251
  963SOL    HW1 3788   4.906   2.654   1.213
  963SOL    HW2 3789   4.786   2.555   1.260
  964SOL     OW 3790   5.041   4.197   5.238
  964SOL    HW1 3791   5.035   4.164   5.144
  964SOL    HW2 3792   5.079   4.126   5.297
  965SOL     OW 3793   5.567   2.341   3.339
  965SOL    HW1 3794   5.516   2.308   3.259
  965SOL    HW2 3795   5.545   2.437   3.355
  966SOL     OW 3796   4.921   2.003   3.910
  966SOL    HW1 3797   4.980   1.944   3.965
  966SOL    HW2 3798   4.961   2.015   3.819
  967SOL     OW 3799   4.672   4.253   6.095
  967SOL    HW1 3800   4.574   4.236   6.082
  967SOL    HW2 3801   4.708   4.303   6.016
  968SOL     OW 3802   4.059   0.066   1.654
  968SOL    HW1 3803   4.098   0.151   1.687
  968SOL    HW2 3804   4.029   0.077   1.559
  969SOL     OW 3805   3.312   4.247   5.837
  969SOL    HW1 3806   3.379   4.306   5.792
  969SOL    HW2 3807   3.222   4.288   5.831
  970SOL     OW 3808   5.748   0.656   6.024
  970SOL    HW1 3809   5.754   0.562   6.059
  970SOL    HW2 3810   5.664   0.698   6.058
  971SOL     OW 3811   6.073   3.906   2.930
  971SOL    HW1 3812   6.156   3.903   2.875
  971SOL    HW2 3813   6.015   3.982   2.900
  972SOL     OW 3814   0.140   2.440   0.936
  972SOL    HW1 3815   0.058   2.393   0.902
  972SOL    HW2 3816   0.187   2.381   1.002
  973SOL     OW 3817   6.854   3.622   6.210
  973SOL    HW1 3818   6.813   3.585   6.293
  973SOL    HW2 3819   6.923   3.559   6.175
  974SOL     OW 3820   6.889   4.817   4.525
  974SOL    HW1 3821   6.962   4.750   4.538
  974SOL    HW2 3822   6.819   4.779   4.465
  975SOL     OW 3823   2.442   0.073   2.007
  975SOL    HW1 3824   2.487   0.028   2.084
  975SOL    HW2 3825   2.345   0.088   2.028
  976SOL     OW 3826   6.449   4.375   1.963
  976SOL    HW1 3827   6.417   4.320   2.040
  976SOL    HW2 3828   6.515   4.323   1.910
  977SOL     OW 3829   0.563   1.432   2.525
  977SOL    HW1 3830   0.534   1.502   2.591
  977SOL    HW2 3831   0.662   1.440   2.509
  978SOL     OW 3832   5.600   2.459   2.093
  978SOL    HW1 3833   5.561   2.523   2.159
  978SOL    HW2 3834   5.700   2.459   2.103
  979SOL     OW 3835   6.603   3.608   0.236
  979SOL    HW1 3836   6.663   3.530   0.250
  979SOL    HW2 3837   6.531   3.608   0.306
  980SOL     OW 3838   3.476   1.496   5.278
  980SOL    HW1 3839   3.516   1.524   5.191
  980SOL    HW2 3840   3.542   1.511   5.351
  981SOL     OW 3841   6.911   6.638   4.999
  981SOL    HW1 3842   6.913   6.648   4.899
  981SOL    HW2 3843   6.988   6.581   5.027
  982SOL     OW 3844   0.081   1.633   5.142
  982SOL    HW1 3845   0.112   1.539   5.155
  982SOL    HW2 3846   0.118   1.668   5.055
  983SOL     OW 3847   0.617   3.651   3.838
  983SOL    HW1 3848   0.662   3.715   3.776
  983SOL    HW2 3849   0.522   3.638   3.809
  984SOL     OW 3850   1.771   1.454   2.862
  984SOL    HW1 3851   1.712   1.398   2.920
  984SOL    HW2 3852   1.717   1.526   2.819
  985SOL     OW 3853   6.240   3.497   4.326
  985SOL    HW1 3854   6.267   3.591   4.305
  985SOL    HW2 3855   6.305   3.457   4.390
  986SOL     OW 3856   5.432   4.537   1.110
  986SOL    HW1 3857   5.414   4.556   1.013
  986SOL    HW2 3858   5.396   4.447   1.133
  987SOL     OW 3859   5.805   4.712   3.711
  987SOL    HW1 3860   5.881   4.739   3.653
  987SOL    HW2 3861   5.827   4.732   3.807
  988SOL     OW 3862   3.254   4.030   1.594
  988SOL    HW1 3863   3.261   4.129   1.602
  988SOL    HW2 3864   3.158   4.002   1.602
  989SOL     OW 3865   0.331   1.815   1.230
  989SOL    HW1 3866   0.247   1.856   1.195
  989SOL    HW2 3867   0.327   1.811   1.330
  990SOL     OW 3868   3.908   0.380   3.737
  990SOL    HW1 3869   3.813   0.389   3.768
  990SOL    HW2 3870   3.922   0.287   3.702
  991SOL     OW 3871   6.807   4.346   4.114
  991SOL    HW1 3872   6.872   4.406   4.160
  991SOL    HW2 3873   6.716   4.360   4.153
  992SOL     OW 3874   0.716   2.845   1.068
  992SOL    HW1 3875   0.663   2.914   1.019
  992SOL    HW2 3876   0.726   2.872   1.164
  993SOL     OW 3877   1.928   5.360   0.853
  993SOL    HW1 3878   1.865   5.284   0.869
  993SOL    HW2 3879   1.881   5.446   0.873
  994SOL     OW 3880   3.232   6.698   0.910
  994SOL    HW1 3881   3.272   6.785   0.884
  994SOL    HW2 3882   3.298   6.624   0.895
  995SOL     OW 3883   5.186   3.730   5.410
  995SOL    HW1 3884   5.118   3.695   5.346
  995SOL    HW2 3885   5.275   3.691   5.389
  996SOL     OW 3886   3.705   6.200   5.649
  996SOL    HW1 3887   3.688   6.160   5.559
  996SOL    HW2 3888   3.701   6.128   5.719
  997SOL     OW 3889   1.614   6.066   4.179
  997SOL    HW1 3890   1.676   6.011   4.234
  997SOL    HW2 3891   1.610   6.159   4.216
  998SOL     OW 3892   5.661   0.171   6.308
  998SOL    HW1 3893   5.690   0.078   6.289
  998SOL    HW2 3894   5.604   0.173   6.390
  999SOL     OW 3895   4.844   3.559   1.874
  999SOL    HW1 3896   4.849   3.462   1.898
  999SOL    HW2 3897   4.822   3.568   1.777
 1000SOL     OW 3898   3.855   1.714   1.642
 1000SOL    HW1 3899   3.790   1.709   1.566
 1000SOL    HW2 3900   3.899   1.804   1.642
 1001SOL     OW 3901   2.685   6.981   2.470
 1001SOL    HW1 3902   2.691   6.970   2.569
 1001SOL    HW2 3903   2.759   6.931   2.425
 1002SOL     OW 3904   5.832   2.986   1.257
 1002SOL    HW1 3905   5.783   2.911   1.212
 1002SOL    HW2 3906   5.882   2.951   1.336
 1003SOL     OW 3907   1.112   5.965   2.525
 1003SOL    HW1 3908   1.181   5.959   2.454
 1003SOL    HW2 3909   1.022   5.982   2.483
 1004SOL     OW 3910   5.165   1.884   3.752
 1004SOL    HW1 3911   5.244   1.829   3.725
 1004SOL    HW2 3912   5.160   1.889   3.852
 1005SOL     OW 3913   1.727   4.865   4.349
 1005SOL    HW1 3914   1.702   4.891   4.256
 1005SOL    HW2 3915   1.683   4.927   4.414
 1006SOL     OW 3916   2.210   3.710   0.516
 1006SOL    HW1 3917   2.149   3.763   0.456
 1006SOL    HW2 3918   2.299   3.756   0.522
 1007SOL     OW 3919   4.732   2.042   6.539
 1007SOL    HW1 3920   4.820   2.087   6.529
 1007SOL    HW2 3921   4.738   1.973   6.612
 1008SOL     OW 3922   0.584   4.329   5.157
 1008SOL    HW1 3923   0.629   4.244   5.130
 1008SOL    HW2 3924   0.495   4.334   5.113
 1009SOL     OW 3925   6.392   4.965   5.678
 1009SOL    HW1 3926   6.489   4.986   5.663
 1009SOL    HW2 3927   6.337   5.010   5.608
 1010SOL     OW 3928   2.335   3.509   1.209
 1010SOL    HW1 3929   2.368   3.503   1.303
 1010SOL    HW2 3930   2.280   3.592   1.199
 1011SOL     OW 3931   0.841   4.775   2.817
 1011SOL    HW1 3932   0.768   4.709   2.800
 1011SOL    HW2 3933   0.826   4.819   2.906
 1012SOL     OW 3934   5.960   0.436   2.504
 1012SOL    HW1 3935   5.869   0.462   2.471
 1012SOL    HW2 3936   6.013   0.518   2.523
 1013SOL     OW 3937   6.711   0.951   6.257
 1013SOL    HW1 3938   6.807   0.977   6.269
 1013SOL    HW2 3939   6.688   0.956   6.160
 1014SOL     OW 3940   0.998   4.744   4.325
 1014SOL    HW1 3941   0.986   4.654   4.282
 1014SOL    HW2 3942   0.919   4.802   4.304
 1015SOL     OW 3943   3.779   0.051   6.234
 1015SOL    HW1 3944   3.820   0.006   6.154
 1015SOL    HW2 3945   3.685   0.020   6.246
 1016SOL     OW 3946   5.280   4.150   1.545
 1016SOL    HW1 3947   5.225   4.070   1.570
 1016SOL    HW2 3948   5.323   4.188   1.627
 1017SOL     OW 3949   2.206   1.505   2.621
 1017SOL    HW1 3950   2.135   1.443   2.656
 1017SOL    HW2 3951   2.176   1.543   2.533
 1018SOL     OW 3952   0.383   4.917   3.700
 1018SOL    HW1 3953   0.418   4.993   3.646
 1018SOL    HW2 3954   0.305   4.948   3.755
 1019SOL     OW 3955   0.092   5.173   0.597
 1019SOL    HW1 3956   0.062   5.078   0.612
 1019SOL    HW2 3957   0.191   5.175   0.583
 1020SOL     OW 3958   6.964   0.109   1.019
 1020SOL    HW1 3959   6.884   0.063   1.057
 1020SOL    HW2 3960   0.002   0.142   1.093
 1021SOL     OW 3961   6.401   5.776   1.854
 1021SOL    HW1 3962   6.419   5.720   1.773
 1021SOL    HW2 3963   6.322   5.835   1.837
 1022SOL     OW 3964   2.802   6.381   6.100
 1022SOL    HW1 3965   2.828   6.284   6.106
 1022SOL    HW2 3966   2.760   6.398   6.010
 1023SOL     OW 3967   0.351   1.740   3.351
 1023SOL    HW1 3968   0.384   1.717   3.443
 1023SOL    HW2 3969   0.294   1.821   3.355
 1024SOL     OW 3970   1.391   2.102   4.889
 1024SOL    HW1 3971   1.382   2.202   4.892
 1024SOL    HW2 3972   1.464   2.077   4.826
 1025SOL     OW 3973   4.835   3.474   6.977
 1025SOL    HW1 3974   4.904   3.506   0.022
 1025SOL    HW2 3975   4.840   3.374   6.970
 1026SOL     OW 3976   2.949   2.584   1.243
 1026SOL    HW1 3977   2.960   2.664   1.303
 1026SOL    HW2 3978   2.869   2.531   1.273
 1027SOL     OW 3979   0.831   6.587   1.114
 1027SOL    HW1 3980   0.842   6.531   1.196
 1027SOL    HW2 3981   0.910   6.574   1.054
 1028SOL     OW 3982   0.657   6.052   2.989
 1028SOL    HW1 3983   0.626   6.042   3.083
 1028SOL    HW2 3984   0.577   6.060   2.929
 1029SOL     OW 3985   1.280   2.026   5.635
 1029SOL    HW1 3986   1.283   1.927   5.652
 1029SOL    HW2 3987   1.192   2.049   5.593
 1030SOL     OW 3988   3.075   3.596   1.515
 1030SOL    HW1 3989   3.121   3.512   1.487
 1030SOL    HW2 3990   3.018   3.578   1.596
 1031SOL     OW 3991   3.626   3.300   1.571
 1031SOL    HW1 3992   3.675   3.216   1.596
 1031SOL    HW2 3993   3.692   3.375   1.563
 1032SOL     OW 3994   1.856   1.635   6.004
 1032SOL    HW1 3995   1.913   1.692   6.063
 1032SOL    HW2 3996   1.776   1.688   5.975
 1033SOL     OW 3997   0.697   6.139   1.998
 1033SOL    HW1 3998   0.747   6.226   2.003
 1033SOL    HW2 3999   0.641   6.128   2.080
 1034SOL     OW 4000   3.469   6.930   4.671
 1034SOL    HW1 4001   3.371   6.947   4.682
 1034SOL    HW2 4002   3.521   7.000   4.721
 1035SOL     OW 4003   0.611   1.494   5.996
 1035SOL    HW1 4004   0.522   1.530   5.967
 1035SOL    HW2 4005   0.684   1.538   5.944
 1036SOL     OW 4006   5.067   1.768   0.949
 1036SOL    HW1 4007   5.048   1.754   0.852
 1036SOL    HW2 4008   5.137   1.839   0.959
 1037SOL     OW 4009   1.604   2.577   3.055
 1037SOL    HW1 4010   1.602   2.484   3.092
 1037SOL    HW2 4011   1.666   2.580   2.977
 1038SOL     OW 4012   3.008   0.340   6.758
 1038SOL    HW1 4013   3.104   0.366   6.760
 1038SOL    HW2 4014   2.974   0.330   6.851
 1039SOL     OW 4015   3.556   3.504   3.819
 1039SOL    HW1 4016   3.543   3.514   3.918
 1039SOL    HW2 4017   3.467   3.509   3.773
 1040SOL     OW 4018   3.981   0.936   2.696
 1040SOL    HW1 4019   3.909   0.901   2.756
 1040SOL    HW2 4020   4.059   0.874   2.697
 1041SOL     OW 4021   6.446   6.142   5.575
 1041SOL    HW1 4022   6.495   6.164   5.490
 1041SOL    HW2 4023   6.444   6.223   5.634
 1042SOL     OW 4024   4.936   4.389   2.188
 1042SOL    HW1 4025   4.872   4.414   2.261
 1042SOL    HW2 4026   4.995   4.467   2.167
 1043SOL     OW 4027   3.257   1.313   3.146
 1043SOL    HW1 4028   3.337   1.366   3.175
 1043SOL    HW2 4029   3.223   1.260   3.223
 1044SOL     OW 4030   5.881   4.845   1.614
 1044SOL    HW1 4031   5.941   4.814   1.540
 1044SOL    HW2 4032   5.862   4.769   1.676
 1045SOL     OW 4033   2.224   0.494   3.846
 1045SOL    HW1 4034   2.287   0.526   3.775
 1045SOL    HW2 4035   2.229   0.394   3.853
 1046SOL     OW 4036   3.411   1.455   1.084
 1046SOL    HW1 4037   3.501   1.497   1.078
 1046SOL    HW2 4038   3.413   1.367   1.036
 1047SOL     OW 4039   3.587   6.904   3.203
 1047SOL    HW1 4040   3.530   6.919   3.284
 1047SOL    HW2 4041   3.544   6.836   3.144
 1048SOL     OW 4042   1.610   6.001   2.250
 1048SOL    HW1 4043   1.685   5.939   2.270
 1048SOL    HW2 4044   1.646   6.091   2.228
 1049SOL     OW 4045   4.033   0.006   5.209
 1049SOL    HW1 4046   4.106   7.009   5.144
 1049SOL    HW2 4047   4.050   6.975   5.293
 1050SOL     OW 4048   3.195   5.010   3.816
 1050SOL    HW1 4049   3.203   4.934   3.880
 1050SOL    HW2 4050   3.218   4.979   3.724
 1051SOL     OW 4051   0.112   0.177   0.417
 1051SOL    HW1 4052   0.127   0.158   0.514
 1051SOL    HW2 4053   0.143   0.099   0.362
 1052SOL     OW 4054   3.820   0.504   6.684
 1052SOL    HW1 4055   3.902   0.463   6.722
 1052SOL    HW2 4056   3.782   0.444   6.613
 1053SOL     OW 4057   6.341   3.400   2.604
 1053SOL    HW1 4058   6.284   3.462   2.550
 1053SOL    HW2 4059   6.437   3.423   2.591
 1054SOL     OW 4060   3.471   4.191   0.396
 1054SOL    HW1 4061   3.469   4.121   0.325
 1054SOL    HW2 4062   3.540   4.167   0.464
 1055SOL     OW 4063   4.188   5.827   6.766
 1055SOL    HW1 4064   4.197   5.909   6.824
 1055SOL    HW2 4065   4.254   5.758   6.795
 1056SOL     OW 4066   2.484   4.376   0.080
 1056SOL    HW1 4067   2.518   4.366   7.007
 1056SOL    HW2 4068   2.516   4.300   0.135
 1057SOL     OW 4069   3.548   1.769   1.657
 1057SOL    HW1 4070   3.493   1.762   1.740
 1057SOL    HW2 4071   3.597   1.857   1.657
 1058SOL     OW 4072   3.169   2.012   2.773
 1058SOL    HW1 4073   3.123   1.925   2.788
 1058SOL    HW2 4074   3.163   2.038   2.676
 1059SOL     OW 4075   2.462   6.086   1.245
 1059SOL    HW1 4076   2.535   6.019   1.258
 1059SOL    HW2 4077   2.450   6.103   1.147
 1060SOL     OW 4078   6.948   5.877   5.445
 1060SOL    HW1 4079   6.878   5.909   5.381
 1060SOL    HW2 4080   0.014   5.864   5.395
 1061SOL     OW 4081   6.983   4.055   0.660
 1061SOL    HW1 4082   0.000   3.967   0.628
 1061SOL    HW2 4083   6.923   4.039   0.738
 1062SOL     OW 4084   3.634   6.436   5.301
 1062SOL    HW1 4085   3.541   6.428   5.265
 1062SOL    HW2 4086   3.694   6.372   5.253
 1063SOL     OW 4087   1.413   6.658   5.643
 1063SOL    HW1 4088   1.464   6.573   5.629
 1063SOL    HW2 4089   1.473   6.729   5.678
 1064SOL     OW 4090   0.546   4.652   0.930
 1064SOL    HW1 4091   0.492   4.583   0.882
 1064SOL    HW2 4092   0.499   4.677   1.014
 1065SOL     OW 4093   3.903   0.350   4.272
 1065SOL    HW1 4094   3.831   0.297   4.318
 1065SOL    HW2 4095   3.964   0.390   4.341
 1066SOL     OW 4096   4.724   0.168   2.310
 1066SOL    HW1 4097   4.774   0.253   2.328
 1066SOL    HW2 4098   4.747   0.135   2.218
 1067SOL     OW 4099   2.966   1.288   0.127
 1067SOL    HW1 4100   3.024   1.273   0.207
 1067SOL    HW2 4101   2.871   1.268   0.150
 1068SOL     OW 4102   6.005   3.274   1.345
 1068SOL    HW1 4103   6.090   3.288   1.294
 1068SOL    HW2 4104   5.940   3.345   1.321
 1069SOL     OW 4105   6.461   4.316   1.216
 1069SOL    HW1 4106   6.420   4.231   1.250
 1069SOL    HW2 4107   6.401   4.393   1.239
 1070SOL     OW 4108   1.439   0.844   2.175
 1070SOL    HW1 4109   1.368   0.780   2.145
 1070SOL    HW2 4110   1.428   0.862   2.272
 1071SOL     OW 4111   6.906   2.850   4.949
 1071SOL    HW1 4112   6.843   2.863   4.872
 1071SOL    HW2 4113   6.872   2.899   5.029
 1072SOL     OW 4114   2.873   0.971   2.266
 1072SOL    HW1 4115   2.942   1.035   2.300
 1072SOL    HW2 4116   2.853   0.903   2.336
 1073SOL     OW 4117   5.118   1.890   3.387
 1073SOL    HW1 4118   5.202   1.911   3.437
 1073SOL    HW2 4119   5.084   1.800   3.415
 1074SOL     OW 4120   3.354   5.220   1.828
 1074SOL    HW1 4121   3.254   5.217   1.820
 1074SOL    HW2 4122   3.385   5.137   1.875
 1075SOL     OW 4123   5.781   2.683   5.222
 1075SOL    HW1 4124   5.844   2.740   5.169
 1075SOL    HW2 4125   5.688   2.694   5.186
 1076SOL     OW 4126   2.058   4.013   4.861
 1076SOL    HW1 4127   2.148   4.049   4.885
 1076SOL    HW2 4128   1.999   4.088   4.831
 1077SOL     OW 4129   6.483   0.291   0.206
 1077SOL    HW1 4130   6.483   0.298   0.107
 1077SOL    HW2 4131   6.576   0.273   0.239
 1078SOL     OW 4132   6.755   6.226   3.793
 1078SOL    HW1 4133   6.774   6.162   3.867
 1078SOL    HW2 4134   6.830   6.222   3.726
 1079SOL     OW 4135   1.027   5.798   2.928
 1079SOL    HW1 4136   1.089   5.786   2.851
 1079SOL    HW2 4137   1.028   5.716   2.985
 1080SOL     OW 4138   2.120   4.963   5.298
 1080SOL    HW1 4139   2.118   4.863   5.304
 1080SOL    HW2 4140   2.175   4.991   5.219
 1081SOL     OW 4141   5.920   5.703   4.674
 1081SOL    HW1 4142   6.005   5.690   4.623
 1081SOL    HW2 4143   5.843   5.674   4.618
 1082SOL     OW 4144   5.721   6.874   6.264
 1082SOL    HW1 4145   5.741   6.810   6.339
 1082SOL    HW2 4146   5.774   6.847   6.183
 1083SOL     OW 4147   5.353   4.185   0.918
 1083SOL    HW1 4148   5.380   4.157   1.010
 1083SOL    HW2 4149   5.276   4.248   0.924
 1084SOL     OW 4150   0.126   0.020   6.554
 1084SOL    HW1 4151   0.042   7.015   6.602
 1084SOL    HW2 4152   0.103   0.052   6.462
 1085SOL     OW 4153   2.219   3.889   4.236
 1085SOL    HW1 4154   2.216   3.813   4.301
 1085SOL    HW2 4155   2.187   3.856   4.147
 1086SOL     OW 4156   6.189   4.568   6.787
 1086SOL    HW1 4157   6.195   4.527   6.696
 1086SOL    HW2 4158   6.271   4.623   6.804
 1087SOL     OW 4159   1.733   0.553   5.551
 1087SOL    HW1 4160   1.708   0.606   5.470
 1087SOL    HW2 4161   1.709   0.604   5.633
 1088SOL     OW 4162   6.866   4.494   3.556
 1088SOL    HW1 4163   6.886   4.414   3.612
 1088SOL    HW2 4164   6.919   4.572   3.588
 1089SOL     OW 4165   6.375   4.746   4.829
 1089SOL    HW1 4166   6.445   4.755   4.758
 1089SOL    HW2 4167   6.285   4.738   4.786
 1090SOL     OW 4168   5.102   1.391   4.766
 1090SOL    HW1 4169   5.109   1.403   4.865
 1090SOL    HW2 4170   5.119   1.479   4.720
 1091SOL     OW 4171   2.088   3.082   3.627
 1091SOL    HW1 4172   2.151   3.025   3.574
 1091SOL    HW2 4173   1.996   3.045   3.619
 1092SOL     OW 4174   0.791   4.893   0.516
 1092SOL    HW1 4175   0.776   4.902   0.614
 1092SOL    HW2 4176   0.796   4.984   0.475
 1093SOL     OW 4177   2.100   6.742   1.102
 1093SOL    HW1 4178   2.020   6.724   1.044
 1093SOL    HW2 4179   2.183   6.738   1.047
 1094SOL     OW 4180   1.269   0.156   3.268
 1094SOL    HW1 4181   1.313   0.211   3.197
 1094SOL    HW2 4182   1.271   0.060   3.242
 1095SOL     OW 4183   0.010   3.121   0.163
 1095SOL    HW1 4184   0.082   3.077   0.217
 1095SOL    HW2 4185   6.941   3.094   0.200
 1096SOL     OW 4186   2.978   5.312   1.387
 1096SOL    HW1 4187   2.965   5.219   1.420
 1096SOL    HW2 4188   2.897   5.340   1.334
 1097SOL     OW 4189   2.393   5.441   3.687
 1097SOL    HW1 4190   2.445   5.521   3.716
 1097SOL    HW2 4191   2.430   5.405   3.602
 1098SOL     OW 4192   6.099   4.890   0.354
 1098SOL    HW1 4193   6.190   4.870   0.390
 1098SOL    HW2 4194   6.055   4.960   0.410
 1099SOL     OW 4195   4.792   1.507   6.336
 1099SOL    HW1 4196   4.854   1.584   6.351
 1099SOL    HW2 4197   4.698   1.541   6.331
 1100SOL     OW 4198   3.749   1.248   3.562
 1100SOL    HW1 4199   3.657   1.253   3.600
 1100SOL    HW2 4200   3.800   1.330   3.589
 1101SOL     OW 4201   5.989   3.169   5.735
 1101SOL    HW1 4202   6.023   3.108   5.663
 1101SOL    HW2 4203   6.066   3.215   5.779
 1102SOL     OW 4204   2.146   0.915   4.624
 1102SOL    HW1 4205   2.167   1.013   4.624
 1102SOL    HW2 4206   2.167   0.877   4.715
 1103SOL     OW 4207   3.136   0.629   6.357
 1103SOL    HW1 4208   3.181   0.662   6.440
 1103SOL    HW2 4209   3.175   0.541   6.331
 1104SOL     OW 4210   0.543   3.875   3.195
 1104SOL    HW1 4211   0.608   3.812   3.152
 1104SOL    HW2 4212   0.470   3.898   3.130
 1105SOL     OW 4213   5.234   1.425   4.995
 1105SOL    HW1 4214   5.286   1.341   5.010
 1105SOL    HW2 4215   5.293   1.493   4.951
 1106SOL     OW 4216   0.608   1.430   0.625
 1106SOL    HW1 4217   0.604   1.458   0.529
 1106SOL    HW2 4218   0.700   1.398   0.647
 1107SOL     OW 4219   0.572   1.015   0.007
 1107SOL    HW1 4220   0.596   0.991   6.934
 1107SOL    HW2 4221   0.511   0.946   0.045
 1108SOL     OW 4222   3.039   6.112   4.045
 1108SOL    HW1 4223   2.946   6.085   4.072
 1108SOL    HW2 4224   3.036   6.204   4.005
 1109SOL     OW 4225   5.404   1.541   4.584
 1109SOL    HW1 4226   5.315   1.574   4.614
 1109SOL    HW2 4227   5.447   1.610   4.526
 1110SOL     OW 4228   3.693   0.481   2.596
 1110SOL    HW1 4229   3.772   0.540   2.584
 1110SOL    HW2 4230   3.664   0.482   2.692
 1111SOL     OW 4231   4.736   3.803   6.312
 1111SOL    HW1 4232   4.709   3.706   6.312
 1111SOL    HW2 4233   4.778   3.826   6.399
 1112SOL     OW 4234   5.686   0.676   2.346
 1112SOL    HW1 4235   5.654   0.598   2.399
 1112SOL    HW2 4236   5.637   0.679   2.259
 1113SOL     OW 4237   6.316   4.546   2.355
 1113SOL    HW1 4238   6.370   4.573   2.275
 1113SOL    HW2 4239   6.224   4.584   2.347
 1114SOL     OW 4240   4.522   2.793   5.762
 1114SOL    HW1 4241   4.432   2.772   5.724
 1114SOL    HW2 4242   4.531   2.749   5.851
 1115SOL     OW 4243   2.627   3.958   6.073
 1115SOL    HW1 4244   2.679   3.930   5.993
 1115SOL    HW2 4245   2.562   3.885   6.098
 1116SOL     OW 4246   4.767   0.644   6.304
 1116SOL    HW1 4247   4.683   0.604   6.268
 1116SOL    HW2 4248   4.746   0.708   6.377
 1117SOL     OW 4249   1.005   2.783   1.598
 1117SOL    HW1 4250   1.093   2.801   1.553
 1117SOL    HW2 4251   0.961   2.704   1.553
 1118SOL     OW 4252   3.218   5.111   0.142
 1118SOL    HW1 4253   3.223   5.159   0.229
 1118SOL    HW2 4254   3.129   5.066   0.133
 1119SOL     OW 4255   4.078   5.112   3.758
 1119SOL    HW1 4256   4.083   5.206   3.793
 1119SOL    HW2 4257   4.167   5.085   3.722
 1120SOL     OW 4258   6.850   5.751   0.915
 1120SOL    HW1 4259   6.807   5.781   0.830
 1120SOL    HW2 4260   6.913   5.822   0.947
 1121SOL     OW 4261   0.541   4.470   4.204
 1121SOL    HW1 4262   0.490   4.432   4.127
 1121SOL    HW2 4263   0.616   4.408   4.228
 1122SOL     OW 4264   5.722   2.704   1.856
 1122SOL    HW1 4265   5.787   2.689   1.782
 1122SOL    HW2 4266   5.645   2.641   1.845
 1123SOL     OW 4267   4.243   2.254   3.204
 1123SOL    HW1 4268   4.269   2.175   3.258
 1123SOL    HW2 4269   4.159   2.234   3.154
 1124SOL     OW 4270   2.282   2.931   4.634
 1124SOL    HW1 4271   2.238   2.922   4.723
 1124SOL    HW2 4272   2.362   2.991   4.642
 1125SOL     OW 4273   1.297   3.595   4.068
 1125SOL    HW1 4274   1.383   3.547   4.051
 1125SOL    HW2 4275   1.231   3.571   3.996
 1126SOL     OW 4276   4.373   5.726   5.345
 1126SOL    HW1 4277   4.378   5.802   5.280
 1126SOL    HW2 4278   4.280   5.720   5.382
 1127SOL     OW 4279   5.248   5.742   3.155
 1127SOL    HW1 4280   5.278   5.728   3.061
 1127SOL    HW2 4281   5.318   5.708   3.218
 1128SOL     OW 4282   6.354   1.455   3.418
 1128SOL    HW1 4283   6.375   1.484   3.511
 1128SOL    HW2 4284   6.261   1.419   3.414
 1129SOL     OW 4285   1.722   0.370   1.172
 1129SOL    HW1 4286   1.712   0.433   1.095
 1129SOL    HW2 4287   1.818   0.349   1.186
 1130SOL     OW 4288   2.180   5.160   3.176
 1130SOL    HW1 4289   2.107   5.102   3.213
 1130SOL    HW2 4290   2.179   5.156   3.076
 1131SOL     OW 4291   1.215   6.487   3.909
 1131SOL    HW1 4292   1.312   6.490   3.884
 1131SOL    HW2 4293   1.193   6.398   3.948
 1132SOL     OW 4294   4.085   1.362   3.071
 1132SOL    HW1 4295   4.119   1.377   2.978
 1132SOL    HW2 4296   4.152   1.307   3.122
 1133SOL     OW 4297   0.688   6.710   5.303
 1133SOL    HW1 4298   0.642   6.669   5.224
 1133SOL    HW2 4299   0.763   6.650   5.333
 1134SOL     OW 4300   4.596   0.158   1.581
 1134SOL    HW1 4301   4.498   0.139   1.581
 1134SOL    HW2 4302   4.612   0.254   1.604
 1135SOL     OW 4303   1.901   6.156   3.514
 1135SOL    HW1 4304   1.885   6.245   3.558
 1135SOL    HW2 4305   1.969   6.167   3.442
 1136SOL     OW 4306   3.051   5.620   2.208
 1136SOL    HW1 4307   3.045   5.570   2.294
 1136SOL    HW2 4308   2.960   5.642   2.175
 1137SOL     OW 4309   0.364   5.780   6.239
 1137SOL    HW1 4310   0.373   5.705   6.305
 1137SOL    HW2 4311   0.425   5.763   6.161
 1138SOL     OW 4312   2.141   3.091   5.214
 1138SOL    HW1 4313   2.223   3.084   5.157
 1138SOL    HW2 4314   2.164   3.066   5.308
 1139SOL     OW 4315   2.981   4.845   4.336
 1139SOL    HW1 4316   3.063   4.862   4.390
 1139SOL    HW2 4317   2.916   4.920   4.350
 1140SOL     OW 4318   1.855   1.076   2.135
 1140SOL    HW1 4319   1.936   1.035   2.178
 1140SOL    HW2 4320   1.797   1.004   2.097
 1141SOL     OW 4321   6.044   4.881   5.990
 1141SOL    HW1 4322   5.951   4.853   5.965
 1141SOL    HW2 4323   6.060   4.863   6.086
 1142SOL     OW 4324   2.377   0.137   3.180
 1142SOL    HW1 4325   2.437   0.057   3.181
 1142SOL    HW2 4326   2.424   0.215   3.222
 1143SOL     OW 4327   0.858   3.969   1.751
 1143SOL    HW1 4328   0.824   4.059   1.726
 1143SOL    HW2 4329   0.845   3.905   1.675
 1144SOL     OW 4330   5.533   4.456   1.968
 1144SOL    HW1 4331   5.562   4.453   1.873
 1144SOL    HW2 4332   5.521   4.551   1.997
 1145SOL     OW 4333   0.954   1.789   0.244
 1145SOL    HW1 4334   0.862   1.820   0.219
 1145SOL    HW2 4335   0.992   1.733   0.170
 1146SOL     OW 4336   0.491   1.328   1.641
 1146SOL    HW1 4337   0.512   1.369   1.730
 1146SOL    HW2 4338   0.406   1.276   1.647
 1147SOL     OW 4339   3.373   6.331   1.176
 1147SOL    HW1 4340   3.287   6.306   1.132
 1147SOL    HW2 4341   3.405   6.255   1.232
 1148SOL     OW 4342   3.702   6.362   2.181
 1148SOL    HW1 4343   3.710   6.398   2.274
 1148SOL    HW2 4344   3.627   6.408   2.134
 1149SOL     OW 4345   5.431   2.094   1.681
 1149SOL    HW1 4346   5.521   2.094   1.725
 1149SOL    HW2 4347   5.385   2.181   1.697
 1150SOL     OW 4348   1.185   4.269   6.831
 1150SOL    HW1 4349   1.160   4.220   6.748
 1150SOL    HW2 4350   1.103   4.281   6.887
 1151SOL     OW 4351   6.570   5.144   3.674
 1151SOL    HW1 4352   6.631   5.066   3.661
 1151SOL    HW2 4353   6.554   5.157   3.772
 1152SOL     OW 4354   5.014   0.764   6.588
 1152SOL    HW1 4355   4.961   0.680   6.574
 1152SOL    HW2 4356   4.955   0.843   6.574
 1153SOL     OW 4357   6.101   0.004   1.481
 1153SOL    HW1 4358   6.159   0.073   1.523
 1153SOL    HW2 4359   6.157   6.947   1.451
 1154SOL     OW 4360   1.488   3.118   2.272
 1154SOL    HW1 4361   1.409   3.091   2.217
 1154SOL    HW2 4362   1.541   3.038   2.296
 1155SOL     OW 4363   2.415   6.553   4.560
 1155SOL    HW1 4364   2.505   6.563   4.602
 1155SOL    HW2 4365   2.349   6.611   4.609
 1156SOL     OW 4366   3.919   1.545   5.032
 1156SOL    HW1 4367   3.946   1.483   4.958
 1156SOL    HW2 4368   3.925   1.640   5.000
 1157SOL     OW 4369   4.154   0.440   5.956
 1157SOL    HW1 4370   4.099   0.359   5.971
 1157SOL    HW2 4371   4.114   0.496   5.884
 1158SOL     OW 4372   6.149   5.627   2.951
 1158SOL    HW1 4373   6.067   5.650   2.897
 1158SOL    HW2 4374   6.155   5.690   3.029
 1159SOL     OW 4375   6.708   6.160   2.653
 1159SOL    HW1 4376   6.699   6.230   2.724
 1159SOL    HW2 4377   6.652   6.081   2.679
 1160SOL     OW 4378   4.380   0.140   0.495
 1160SOL    HW1 4379   4.312   0.207   0.464
 1160SOL    HW2 4380   4.470   0.167   0.462
 1161SOL     OW 4381   6.945   5.535   0.079
 1161SOL    HW1 4382   6.920   5.493   0.166
 1161SOL    HW2 4383   6.883   5.503   0.008
 1162SOL     OW 4384   2.123   2.854   5.484
 1162SOL    HW1 4385   2.106   2.905   5.568
 1162SOL    HW2 4386   2.037   2.815   5.450
 1163SOL     OW 4387   6.256   4.299   1.708
 1163SOL    HW1 4388   6.174   4.256   1.745
 1163SOL    HW2 4389   6.300   4.354   1.779
 1164SOL     OW 4390   4.896   2.094   4.317
 1164SOL    HW1 4391   4.826   2.165   4.316
 1164SOL    HW2 4392   4.905   2.056   4.409
 1165SOL     OW 4393   3.949   6.240   3.574
 1165SOL    HW1 4394   4.009   6.167   3.603
 1165SOL    HW2 4395   3.945   6.242   3.474
 1166SOL     OW 4396   2.306   6.387   6.748
 1166SOL    HW1 4397   2.280   6.451   6.821
 1166SOL    HW2 4398   2.365   6.434   6.682
 1167SOL     OW 4399   5.340   4.311   2.366
 1167SOL    HW1 4400   5.291   4.338   2.449
 1167SOL    HW2 4401   5.301   4.225   2.332
 1168SOL     OW 4402   5.948   2.323   2.752
 1168SOL    HW1 4403   5.978   2.276   2.669
 1168SOL    HW2 4404   5.912   2.256   2.817
 1169SOL     OW 4405   5.563   1.003   5.126
 1169SOL    HW1 4406   5.644   1.055   5.152
 1169SOL    HW2 4407   5.584   0.905   5.129
 1170SOL     OW 4408   4.798   0.090   3.322
 1170SOL    HW1 4409   4.715   0.046   3.355
 1170SOL    HW2 4410   4.774   0.177   3.277
 1171SOL     OW 4411   1.431   0.504   0.754
 1171SOL    HW1 4412   1.451   0.455   0.669
 1171SOL    HW2 4413   1.371   0.449   0.812
 1172SOL     OW 4414   6.752   3.811   0.156
 1172SOL    HW1 4415   6.849   3.793   0.145
 1172SOL    HW2 4416   6.705   3.728   0.186
 1173SOL     OW 4417   2.918   1.194   1.418
 1173SOL    HW1 4418   2.913   1.256   1.497
 1173SOL    HW2 4419   3.010   1.154   1.413
 1174SOL     OW 4420   3.778   3.790   1.327
 1174SOL    HW1 4421   3.766   3.807   1.425
 1174SOL    HW2 4422   3.688   3.787   1.283
 1175SOL     OW 4423   3.997   3.208   5.484
 1175SOL    HW1 4424   4.007   3.224   5.582
 1175SOL    HW2 4425   3.948   3.284   5.442
 1176SOL     OW 4426   5.144   3.606   6.107
 1176SOL    HW1 4427   5.106   3.590   6.198
 1176SOL    HW2 4428   5.187   3.522   6.073
 1177SOL     OW 4429   6.275   2.118   4.687
 1177SOL    HW1 4430   6.177   2.135   4.683
 1177SOL    HW2 4431   6.322   2.177   4.622
 1178SOL     OW 4432   3.044   4.757   0.255
 1178SOL    HW1 4433   3.040   4.660   0.228
 1178SOL    HW2 4434   3.138   4.780   0.279
 1179SOL     OW 4435   2.647   5.853   0.193
 1179SOL    HW1 4436   2.730   5.856   0.248
 1179SOL    HW2 4437   2.567   5.872   0.250
 1180SOL     OW 4438   3.003   5.860   0.836
 1180SOL    HW1 4439   2.940   5.864   0.758
 1180SOL    HW2 4440   3.031   5.953   0.860
 1181SOL     OW 4441   0.748   5.826   6.711
 1181SOL    HW1 4442   0.750   5.919   6.673
 1181SOL    HW2 4443   0.657   5.786   6.697
 1182SOL     OW 4444   3.409   5.461   2.910
 1182SOL    HW1 4445   3.356   5.545   2.924
 1182SOL    HW2 4446   3.504   5.485   2.887
 1183SOL     OW 4447   1.581   4.287   6.668
 1183SOL    HW1 4448   1.517   4.280   6.591
 1183SOL    HW2 4449   1.532   4.322   6.748
 1184SOL     OW 4450   1.038   0.185   5.005
 1184SOL    HW1 4451   1.093   0.260   5.041
 1184SOL    HW2 4452   1.015   0.204   4.909
 1185SOL     OW 4453   6.890   1.175   6.596
 1185SOL    HW1 4454   6.806   1.227   6.609
 1185SOL    HW2 4455   6.942   1.174   6.682
 1186SOL     OW 4456   4.914   5.654   4.085
 1186SOL    HW1 4457   4.995   5.713   4.083
 1186SOL    HW2 4458   4.872   5.652   3.994
 1187SOL     OW 4459   6.852   0.274   6.160
 1187SOL    HW1 4460   6.882   0.287   6.066
 1187SOL    HW2 4461   6.801   0.355   6.190
 1188SOL     OW 4462   2.841   6.294   4.584
 1188SOL    HW1 4463   2.853   6.322   4.679
 1188SOL    HW2 4464   2.923   6.316   4.531
 1189SOL     OW 4465   6.714   3.609   2.897
 1189SOL    HW1 4466   6.616   3.592   2.903
 1189SOL    HW2 4467   6.757   3.593   2.986
 1190SOL     OW 4468   1.943   5.927   3.233
 1190SOL    HW1 4469   1.911   5.947   3.326
 1190SOL    HW2 4470   2.026   5.980   3.215
 1191SOL     OW 4471   4.217   5.431   3.270
 1191SOL    HW1 4472   4.308   5.408   3.303
 1191SOL    HW2 4473   4.173   5.348   3.234
 1192SOL     OW 4474   3.509   5.808   3.051
 1192SOL    HW1 4475   3.586   5.824   2.990
 1192SOL    HW2 4476   3.436   5.760   3.002
 1193SOL     OW 4477   6.124   4.571   4.402
 1193SOL    HW1 4478   6.037   4.587   4.449
 1193SOL    HW2 4479   6.153   4.476   4.417
 1194SOL     OW 4480   5.430   0.342   1.078
 1194SOL    HW1 4481   5.508   0.290   1.114
 1194SOL    HW2 4482   5.373   0.283   1.021
 1195SOL     OW 4483   6.348   4.585   1.791
 1195SOL    HW1 4484   6.396   4.546   1.870
 1195SOL    HW2 4485   6.251   4.595   1.813
 1196SOL     OW 4486   0.115   6.739   3.588
 1196SOL    HW1 4487   0.166   6.665   3.632
 1196SOL    HW2 4488   0.023   6.743   3.628
 1197SOL     OW 4489   3.196   0.938   6.899
 1197SOL    HW1 4490   3.279   0.890   6.927
 1197SOL    HW2 4491   3.116   0.887   6.931
 1198SOL     OW 4492   1.305   2.426   1.136
 1198SOL    HW1 4493   1.388   2.430   1.081
 1198SOL    HW2 4494   1.294   2.334   1.174
 1199SOL     OW 4495   4.833   5.206   1.526
 1199SOL    HW1 4496   4.784   5.119   1.538
 1199SOL    HW2 4497   4.887   5.225   1.608
 1200SOL     OW 4498   3.315   3.235   2.860
 1200SOL    HW1 4499   3.290   3.311   2.800
 1200SOL    HW2 4500   3.392   3.185   2.822
 1201SOL     OW 4501   1.505   1.142   4.941
 1201SOL    HW1 4502   1.430   1.132   5.007
 1201SOL    HW2 4503   1.590   1.113   4.984
 1202SOL     OW 4504   1.138   5.427   6.709
 1202SOL    HW1 4505   1.170   5.505   6.655
 1202SOL    HW2 4506   1.065   5.380   6.660
 1203SOL     OW 4507   4.652   5.883   6.303
 1203SOL    HW1 4508   4.742   5.908   6.268
 1203SOL    HW2 4509   4.628   5.791   6.271
 1204SOL     OW 4510   2.480   0.414   1.396
 1204SOL    HW1 4511   2.439   0.374   1.478
 1204SOL    HW2 4512   2.426   0.494   1.368
 1205SOL     OW 4513   5.087   4.008   1.660
 1205SOL    HW1 4514   5.075   3.922   1.711
 1205SOL    HW2 4515   5.032   4.079   1.703
 1206SOL     OW 4516   3.486   2.947   4.734
 1206SOL    HW1 4517   3.487   2.894   4.819
 1206SOL    HW2 4518   3.454   3.040   4.753
 1207SOL     OW 4519   2.845   6.807   1.597
 1207SOL    HW1 4520   2.914   6.818   1.668
 1207SOL    HW2 4521   2.838   6.892   1.544
 1208SOL     OW 4522   3.394   4.066   0.106
 1208SOL    HW1 4523   3.489   4.084   0.079
 1208SOL    HW2 4524   3.347   4.019   0.031
 1209SOL     OW 4525   3.756   0.344   5.489
 1209SOL    HW1 4526   3.768   0.436   5.528
 1209SOL    HW2 4527   3.771   0.276   5.560
 1210SOL     OW 4528   2.571   6.911   3.621
 1210SOL    HW1 4529   2.557   6.886   3.717
 1210SOL    HW2 4530   2.605   7.005   3.616
 1211SOL     OW 4531   1.053   3.945   1.015
 1211SOL    HW1 4532   1.145   3.913   0.991
 1211SOL    HW2 4533   1.002   3.968   0.932
 1212SOL     OW 4534   0.319   0.262   6.500
 1212SOL    HW1 4535   0.404   0.245   6.450
 1212SOL    HW2 4536   0.275   0.175   6.522
 1213SOL     OW 4537   5.885   3.015   0.422
 1213SOL    HW1 4538   5.874   2.948   0.495
 1213SOL    HW2 4539   5.978   3.009   0.385
 1214SOL     OW 4540   0.113   1.910   1.089
 1214SOL    HW1 4541   0.042   1.881   1.025
 1214SOL    HW2 4542   0.187   1.956   1.039
 1215SOL     OW 4543   1.684   4.464   4.225
 1215SOL    HW1 4544   1.751   4.463   4.300
 1215SOL    HW2 4545   1.724   4.422   4.144
 1216SOL     OW 4546   4.317   0.387   0.063
 1216SOL    HW1 4547   4.354   0.401   6.992
 1216SOL    HW2 4548   4.246   0.455   0.082
 1217SOL     OW 4549   2.023   4.599   0.408
 1217SOL    HW1 4550   2.014   4.529   0.337
 1217SOL    HW2 4551   1.932   4.620   0.445
 1218SOL     OW 4552   1.026   4.961   4.051
 1218SOL    HW1 4553   1.069   5.050   4.062
 1218SOL    HW2 4554   1.068   4.912   3.975
 1219SOL     OW 4555   4.690   6.194   2.035
 1219SOL    HW1 4556   4.608   6.187   2.092
 1219SOL    HW2 4557   4.666   6.174   1.940
 1220SOL     OW 4558   1.196   5.104   3.006
 1220SOL    HW1 4559   1.163   5.173   2.942
 1220SOL    HW2 4560   1.204   5.016   2.959
 1221SOL     OW 4561   5.499   3.262   5.340
 1221SOL    HW1 4562   5.543   3.205   5.409
 1221SOL    HW2 4563   5.405   3.231   5.325
 1222SOL     OW 4564   6.429   0.067   6.492
 1222SOL    HW1 4565   6.476   0.012   6.561
 1222SOL    HW2 4566   6.330   0.065   6.510
 1223SOL     OW 4567   3.941   0.047   0.274
 1223SOL    HW1 4568   4.039   0.028   0.260
 1223SOL    HW2 4569   3.931   0.128   0.332
 1224SOL     OW 4570   2.565   0.236   1.206
 1224SOL    HW1 4571   2.543   0.296   1.283
 1224SOL    HW2 4572   2.581   0.144   1.239
 1225SOL     OW 4573   3.404   3.968   6.307
 1225SOL    HW1 4574   3.484   3.910   6.292
 1225SOL    HW2 4575   3.420   4.028   6.385
 1226SOL     OW 4576   2.193   4.681   1.224
 1226SOL    HW1 4577   2.155   4.698   1.315
 1226SOL    HW2 4578   2.291   4.663   1.231
 1227SOL     OW 4579   6.968   3.624   6.974
 1227SOL    HW1 4580   6.988   3.531   7.007
 1227SOL    HW2 4581   7.013   3.691   0.014
 1228SOL     OW 4582   3.620   2.658   6.606
 1228SOL    HW1 4583   3.675   2.578   6.583
 1228SOL    HW2 4584   3.524   2.631   6.617
 1229SOL     OW 4585   4.308   4.855   6.787
 1229SOL    HW1 4586   4.239   4.807   6.733
 1229SOL    HW2 4587   4.397   4.811   6.776
 1230SOL     OW 4588   4.218   0.122   3.810
 1230SOL    HW1 4589   4.253   0.199   3.864
 1230SOL    HW2 4590   4.123   0.140   3.786
 1231SOL     OW 4591   2.136   3.575   5.024
 1231SOL    HW1 4592   2.162   3.645   4.958
 1231SOL    HW2 4593   2.205   3.571   5.097
 1232SOL     OW 4594   1.259   2.692   5.356
 1232SOL    HW1 4595   1.322   2.616   5.371
 1232SOL    HW2 4596   1.296   2.753   5.286
 1233SOL     OW 4597   1.098   2.532   5.560
 1233SOL    HW1 4598   1.083   2.612   5.501
 1233SOL    HW2 4599   1.193   2.502   5.552
 1234SOL     OW 4600   6.603   4.419   4.417
 1234SOL    HW1 4601   6.564   4.434   4.326
 1234SOL    HW2 4602   6.625   4.322   4.428
 1235SOL     OW 4603   6.542   5.422   2.957
 1235SOL    HW1 4604   6.571   5.416   2.862
 1235SOL    HW2 4605   6.619   5.450   3.014
 1236SOL     OW 4606   5.175   1.224   6.509
 1236SOL    HW1 4607   5.136   1.302   6.556
 1236SOL    HW2 4608   5.164   1.235   6.410
 1237SOL     OW 4609   2.633   4.640   6.442
 1237SOL    HW1 4610   2.642   4.595   6.353
 1237SOL    HW2 4611   2.537   4.637   6.472
 1238SOL     OW 4612   2.165   1.146   1.137
 1238SOL    HW1 4613   2.133   1.065   1.185
 1238SOL    HW2 4614   2.113   1.157   1.052
 1239SOL     OW 4615   6.915   6.145   6.676
 1239SOL    HW1 4616   6.887   6.198   6.597
 1239SOL    HW2 4617   6.895   6.048   6.660
 1240SOL     OW 4618   5.713   6.074   1.728
 1240SOL    HW1 4619   5.689   6.026   1.644
 1240SOL    HW2 4620   5.679   6.168   1.724
 1241SOL     OW 4621   6.531   3.488   4.463
 1241SOL    HW1 4622   6.524   3.418   4.534
 1241SOL    HW2 4623   6.534   3.444   4.373
 1242SOL     OW 4624   1.591   3.266   0.623
 1242SOL    HW1 4625   1.523   3.328   0.661
 1242SOL    HW2 4626   1.682   3.306   0.633
 1243SOL     OW 4627   2.113   5.272   5.133
 1243SOL    HW1 4628   2.029   5.271   5.079
 1243SOL    HW2 4629   2.164   5.355   5.113
 1244SOL     OW 4630   0.395   0.633   3.225
 1244SOL    HW1 4631   0.459   0.660   3.153
 1244SOL    HW2 4632   0.349   0.714   3.261
 1245SOL     OW 4633   3.203   3.543   6.845
 1245SOL    HW1 4634   3.262   3.597   6.906
 1245SOL    HW2 4635   3.224   3.446   6.857
 1246SOL     OW 4636   2.741   6.929   2.089
 1246SOL    HW1 4637   2.755   6.958   1.994
 1246SOL    HW2 4638   2.795   6.847   2.108
 1247SOL     OW 4639   2.734   6.664   6.466
 1247SOL    HW1 4640   2.726   6.692   6.370
 1247SOL    HW2 4641   2.697   6.736   6.525
 1248SOL     OW 4642   1.529   6.023   3.300
 1248SOL    HW1 4643   1.440   6.047   3.262
 1248SOL    HW2 4644   1.600   6.039   3.232
 1249SOL     OW 4645   6.033   3.340   3.359
 1249SOL    HW1 4646   6.064   3.377   3.447
 1249SOL    HW2 4647   5.935   3.359   3.348
 1250SOL     OW 4648   1.240   4.827   3.852
 1250SOL    HW1 4649   1.195   4.847   3.764
 1250SOL    HW2 4650   1.293   4.743   3.843
 1251SOL     OW 4651   3.966   0.751   4.624
 1251SOL    HW1 4652   3.927   0.733   4.533
 1251SOL    HW2 4653   4.065   0.737   4.620
 1252SOL     OW 4654   3.343   3.574   6.050
 1252SOL    HW1 4655   3.303   3.640   6.113
 1252SOL    HW2 4656   3.279   3.497   6.039
 1253SOL     OW 4657   3.682   5.223   2.457
 1253SOL    HW1 4658   3.683   5.247   2.360
 1253SOL    HW2 4659   3.619   5.284   2.506
 1254SOL     OW 4660   6.183   2.130   3.295
 1254SOL    HW1 4661   6.203   2.202   3.362
 1254SOL    HW2 4662   6.244   2.138   3.217
 1255SOL     OW 4663   0.359   0.170   5.801
 1255SOL    HW1 4664   0.304   0.231   5.744
 1255SOL    HW2 4665   0.299   0.114   5.857
 1256SOL     OW 4666   6.407   0.027   2.842
 1256SOL    HW1 4667   6.415   6.988   2.922
 1256SOL    HW2 4668   6.332   0.092   2.857
 1257SOL     OW 4669   6.889   0.565   3.573
 1257SOL    HW1 4670   6.905   0.658   3.607
 1257SOL    HW2 4671   6.799   0.534   3.600
 1258SOL     OW 4672   0.908   6.595   3.109
 1258SOL    HW1 4673   0.949   6.545   3.033
 1258SOL    HW2 4674   0.973   6.664   3.142
 1259SOL     OW 4675   4.071   1.803   5.193
 1259SOL    HW1 4676   4.113   1.727   5.243
 1259SOL    HW2 4677   4.083   1.789   5.095
 1260SOL     OW 4678   0.948   1.055   6.857
 1260SOL    HW1 4679   0.936   1.122   6.931
 1260SOL    HW2 4680   0.946   0.963   6.895
 1261SOL     OW 4681   0.577   5.366   0.350
 1261SOL    HW1 4682   0.491   5.333   0.387
 1261SOL    HW2 4683   0.600   5.454   0.393
 1262SOL     OW 4684   5.094   5.637   1.956
 1262SOL    HW1 4685   5.155   5.716   1.946
 1262SOL    HW2 4686   5.148   5.553   1.959
 1263SOL     OW 4687   0.854   2.307   3.296
 1263SOL    HW1 4688   0.885   2.339   3.207
 1263SOL    HW2 4689   0.928   2.317   3.363
 1264SOL     OW 4690   0.999   2.910   5.546
 1264SOL    HW1 4691   1.070   2.951   5.488
 1264SOL    HW2 4692   1.023   2.922   5.642
 1265SOL     OW 4693   5.948   5.994   5.314
 1265SOL    HW1 4694   6.018   5.947   5.260
 1265SOL    HW2 4695   5.913   6.072   5.263
 1266SOL     OW 4696   1.491   0.523   4.866
 1266SOL    HW1 4697   1.548   0.589   4.818
 1266SOL    HW2 4698   1.519   0.519   4.962
 1267SOL     OW 4699   4.842   0.404   2.373
 1267SOL    HW1 4700   4.872   0.417   2.467
 1267SOL    HW2 4701   4.832   0.493   2.328
 1268SOL     OW 4702   4.109   2.327   5.321
 1268SOL    HW1 4703   4.081   2.249   5.265
 1268SOL    HW2 4704   4.128   2.405   5.261
 1269SOL     OW 4705   6.234   2.359   3.460
 1269SOL    HW1 4706   6.190   2.432   3.513
 1269SOL    HW2 4707   6.295   2.400   3.392
 1270SOL     OW 4708   1.486   4.527   2.583
 1270SOL    HW1 4709   1.523   4.600   2.641
 1270SOL    HW2 4710   1.524   4.537   2.490
 1271SOL     OW 4711   1.512   1.515   1.675
 1271SOL    HW1 4712   1.580   1.449   1.708
 1271SOL    HW2 4713   1.514   1.517   1.575
 1272SOL     OW 4714   6.886   4.190   0.167
 1272SOL    HW1 4715   6.919   4.269   0.218
 1272SOL    HW2 4716   6.956   4.162   0.101
 1273SOL     OW 4717   1.314   4.311   5.000
 1273SOL    HW1 4718   1.414   4.312   4.998
 1273SOL    HW2 4719   1.280   4.402   5.026
 1274SOL     OW 4720   0.631   4.955   2.046
 1274SOL    HW1 4721   0.544   4.992   2.079
 1274SOL    HW2 4722   0.654   4.874   2.100
 1275SOL     OW 4723   3.018   0.595   3.075
 1275SOL    HW1 4724   3.087   0.664   3.095
 1275SOL    HW2 4725   2.991   0.550   3.159
 1276SOL     OW 4726   5.108   4.556   4.272
 1276SOL    HW1 4727   5.039   4.626   4.288
 1276SOL    HW2 4728   5.144   4.566   4.179
 1277SOL     OW 4729   0.226   5.856   6.511
 1277SOL    HW1 4730   0.313   5.826   6.471
 1277SOL    HW2 4731   0.156   5.860   6.440
 1278SOL     OW 4732   1.369   5.980   2.874
 1278SOL    HW1 4733   1.305   5.964   2.799
 1278SOL    HW2 4734   1.318   5.985   2.960
 1279SOL     OW 4735   2.972   2.349   6.367
 1279SOL    HW1 4736   3.013   2.423   6.313
 1279SOL    HW2 4737   2.934   2.386   6.452
 1280SOL     OW 4738   3.092   1.364   2.926
 1280SOL    HW1 4739   3.040   1.442   2.960
 1280SOL    HW2 4740   3.155   1.331   2.996
 1281SOL     OW 4741   3.745   6.046   4.063
 1281SOL    HW1 4742   3.693   6.035   4.148
 1281SOL    HW2 4743   3.786   5.958   4.037
 1282SOL     OW 4744   6.998   2.924   0.842
 1282SOL    HW1 4745   0.001   2.831   0.870
 1282SOL    HW2 4746   0.042   2.989   0.882
 1283SOL     OW 4747   5.855   3.422   5.048
 1283SOL    HW1 4748   5.923   3.349   5.057
 1283SOL    HW2 4749   5.865   3.466   4.959
 1284SOL     OW 4750   4.011   1.733   1.290
 1284SOL    HW1 4751   4.055   1.684   1.365
 1284SOL    HW2 4752   3.940   1.794   1.327
 1285SOL     OW 4753   3.316   1.093   4.483
 1285SOL    HW1 4754   3.340   1.070   4.577
 1285SOL    HW2 4755   3.391   1.142   4.440
 1286SOL     OW 4756   4.778   2.289   2.014
 1286SOL    HW1 4757   4.800   2.263   2.108
 1286SOL    HW2 4758   4.730   2.213   1.969
 1287SOL     OW 4759   6.513   4.430   4.875
 1287SOL    HW1 4760   6.470   4.447   4.786
 1287SOL    HW2 4761   6.523   4.517   4.923
 1288SOL     OW 4762   4.527   3.825   6.708
 1288SOL    HW1 4763   4.529   3.784   6.799
 1288SOL    HW2 4764   4.570   3.915   6.711
 1289SOL     OW 4765   0.218   0.593   1.822
 1289SOL    HW1 4766   0.254   0.609   1.730
 1289SOL    HW2 4767   0.169   0.506   1.824
 1290SOL     OW 4768   1.145   0.161   6.585
 1290SOL    HW1 4769   1.107   0.237   6.637
 1290SOL    HW2 4770   1.072   0.099   6.557
 1291SOL     OW 4771   6.748   4.949   2.725
 1291SOL    HW1 4772   6.664   4.980   2.769
 1291SOL    HW2 4773   6.827   4.981   2.778
 1292SOL     OW 4774   1.160   6.019   2.020
 1292SOL    HW1 4775   1.165   6.044   1.923
 1292SOL    HW2 4776   1.070   5.980   2.039
 1293SOL     OW 4777   2.911   1.254   6.563
 1293SOL    HW1 4778   2.917   1.175   6.502
 1293SOL    HW2 4779   2.816   1.272   6.586
 1294SOL     OW 4780   2.030   4.257   5.654
 1294SOL    HW1 4781   2.076   4.278   5.568
 1294SOL    HW2 4782   1.960   4.187   5.639
 1295SOL     OW 4783   0.096   3.386   1.177
 1295SOL    HW1 4784   0.036   3.462   1.153
 1295SOL    HW2 4785   0.188   3.420   1.195
 1296SOL     OW 4786   5.468   6.866   6.156
 1296SOL    HW1 4787   5.473   6.817   6.069
 1296SOL    HW2 4788   5.560   6.882   6.191
 1297SOL     OW 4789   0.285   0.313   2.327
 1297SOL    HW1 4790   0.331   0.337   2.413
 1297SOL    HW2 4791   0.216   0.382   2.305
 1298SOL     OW 4792   5.733   5.562   2.260
 1298SOL    HW1 4793   5.790   5.484   2.287
 1298SOL    HW2 4794   5.684   5.597   2.339
 1299SOL     OW 4795   2.119   3.370   4.485
 1299SOL    HW1 4796   2.115   3.364   4.585
 1299SOL    HW2 4797   2.176   3.449   4.459
 1300SOL     OW 4798   1.798   4.282   1.261
 1300SOL    HW1 4799   1.889   4.322   1.253
 1300SOL    HW2 4800   1.802   4.198   1.314
 1301SOL     OW 4801   0.951   0.939   1.769
 1301SOL    HW1 4802   0.908   1.029   1.770
 1301SOL    HW2 4803   0.904   0.880   1.703
 1302SOL     OW 4804   5.376   6.306   6.052
 1302SOL    HW1 4805   5.382   6.394   6.099
 1302SOL    HW2 4806   5.467   6.279   6.019
 1303SOL     OW 4807   4.459   6.679   1.595
 1303SOL    HW1 4808   4.424   6.718   1.510
 1303SOL    HW2 4809   4.436   6.739   1.671
 1304SOL     OW 4810   0.584   0.870   1.244
 1304SOL    HW1 4811   0.679   0.894   1.223
 1304SOL    HW2 4812   0.534   0.951   1.273
 1305SOL     OW 4813   5.627   3.992   7.007
 1305SOL    HW1 4814   5.570   3.937   6.947
 1305SOL    HW2 4815   5.578   4.076   0.012
 1306SOL     OW 4816   1.692   5.316   4.843
 1306SOL    HW1 4817   1.737   5.241   4.793
 1306SOL    HW2 4818   1.655   5.382   4.778
 1307SOL     OW 4819   2.165   2.601   3.889
 1307SOL    HW1 4820   2.130   2.573   3.978
 1307SOL    HW2 4821   2.117   2.550   3.817
 1308SOL     OW 4822   6.575   5.212   6.066
 1308SOL    HW1 4823   6.615   5.226   5.975
 1308SOL    HW2 4824   6.609   5.282   6.129
 1309SOL     OW 4825   5.528   4.411   6.475
 1309SOL    HW1 4826   5.591   4.443   6.546
 1309SOL    HW2 4827   5.447   4.469   6.474
 1310SOL     OW 4828   0.952   3.792   4.152
 1310SOL    HW1 4829   0.931   3.722   4.083
 1310SOL    HW2 4830   1.046   3.823   4.139
 1311SOL     OW 4831   6.989   5.800   0.151
 1311SOL    HW1 4832   6.990   5.702   0.134
 1311SOL    HW2 4833   6.912   5.842   0.103
 1312SOL     OW 4834   1.736   0.624   5.836
 1312SOL    HW1 4835   1.666   0.556   5.859
 1312SOL    HW2 4836   1.716   0.710   5.882
 1313SOL     OW 4837   6.507   5.141   2.845
 1313SOL    HW1 4838   6.410   5.155   2.825
 1313SOL    HW2 4839   6.525   5.162   2.941
 1314SOL     OW 4840   2.904   1.651   4.644
 1314SOL    HW1 4841   2.868   1.558   4.641
 1314SOL    HW2 4842   2.894   1.687   4.737
 1315SOL     OW 4843   5.751   0.434   4.228
 1315SOL    HW1 4844   5.814   0.365   4.192
 1315SOL    HW2 4845   5.795   0.524   4.227
 1316SOL     OW 4846   4.310   0.759   4.983
 1316SOL    HW1 4847   4.315   0.824   4.908
 1316SOL    HW2 4848   4.389   0.697   4.979
 1317SOL     OW 4849   2.830   3.190   5.650
 1317SOL    HW1 4850   2.868   3.122   5.587
 1317SOL    HW2 4851   2.890   3.270   5.652
 1318SOL     OW 4852   1.989   2.650   7.016
 1318SOL    HW1 4853   2.004   2.562   6.970
 1318SOL    HW2 4854   2.048   2.656   0.076
 1319SOL     OW 4855   6.833   6.338   0.563
 1319SOL    HW1 4856   6.744   6.381   0.549
 1319SOL    HW2 4857   6.903   6.409   0.573
 1320SOL     OW 4858   3.339   2.856   6.378
 1320SOL    HW1 4859   3.326   2.773   6.324
 1320SOL    HW2 4860   3.298   2.933   6.330
 1321SOL     OW 4861   5.808   2.092   6.291
 1321SOL    HW1 4862   5.805   2.192   6.283
 1321SOL    HW2 4863   5.751   2.051   6.220
 1322SOL     OW 4864   3.213   1.274   6.560
 1322SOL    HW1 4865   3.116   1.298   6.551
 1322SOL    HW2 4866   3.221   1.188   6.611
 1323SOL     OW 4867   3.705   0.332   0.489
 1323SOL    HW1 4868   3.629   0.396   0.478
 1323SOL    HW2 4869   3.672   0.248   0.531
 1324SOL     OW 4870   1.180   3.458   6.960
 1324SOL    HW1 4871   1.272   3.486   6.988
 1324SOL    HW2 4872   1.121   3.539   6.954
 1325SOL     OW 4873   2.190   5.872   6.240
 1325SOL    HW1 4874   2.178   5.956   6.186
 1325SOL    HW2 4875   2.248   5.892   6.319
 1326SOL     OW 4876   4.747   4.185   4.145
 1326SOL    HW1 4877   4.682   4.139   4.205
 1326SOL    HW2 4878   4.840   4.168   4.176
 1327SOL     OW 4879   0.275   6.605   0.944
 1327SOL    HW1 4880   0.290   6.596   0.845
 1327SOL    HW2 4881   0.362   6.628   0.989
 1328SOL     OW 4882   0.824   3.162   5.813
 1328SOL    HW1 4883   0.883   3.224   5.761
 1328SOL    HW2 4884   0.748   3.133   5.756
 1329SOL     OW 4885   0.212   2.627   3.629
 1329SOL    HW1 4886   0.219   2.592   3.536
 1329SOL    HW2 4887   0.115   2.642   3.652
 1330SOL     OW 4888   6.762   2.137   0.809
 1330SOL    HW1 4889   6.682   2.103   0.758
 1330SOL    HW2 4890   6.736   2.155   0.904
 1331SOL     OW 4891   4.354   1.942   2.392
 1331SOL    HW1 4892   4.325   1.897   2.308
 1331SOL    HW2 4893   4.339   1.882   2.470
 1332SOL     OW 4894   2.003   0.666   0.616
 1332SOL    HW1 4895   2.050   0.583   0.587
 1332SOL    HW2 4896   1.906   0.662   0.589
 1333SOL     OW 4897   3.374   4.148   2.884
 1333SOL    HW1 4898   3.406   4.157   2.790
 1333SOL    HW2 4899   3.309   4.072   2.891
 1334SOL     OW 4900   6.779   1.565   2.600
 1334SOL    HW1 4901   6.728   1.567   2.515
 1334SOL    HW2 4902   6.730   1.510   2.668
 1335SOL     OW 4903   1.832   4.253   1.688
 1335SOL    HW1 4904   1.848   4.213   1.598
 1335SOL    HW2 4905   1.870   4.194   1.758
 1336SOL     OW 4906   3.722   0.644   5.573
 1336SOL    HW1 4907   3.637   0.649   5.625
 1336SOL    HW2 4908   3.727   0.722   5.510
 1337SOL     OW 4909   6.062   1.326   3.662
 1337SOL    HW1 4910   6.090   1.370   3.577
 1337SOL    HW2 4911   6.111   1.369   3.739
 1338SOL     OW 4912   5.859   4.029   4.508
 1338SOL    HW1 4913   5.930   3.971   4.468
 1338SOL    HW2 4914   5.814   4.080   4.435
 1339SOL     OW 4915   0.288   0.546   6.482
 1339SOL    HW1 4916   0.320   0.452   6.490
 1339SOL    HW2 4917   0.192   0.551   6.508
 1340SOL     OW 4918   5.212   1.475   1.555
 1340SOL    HW1 4919   5.140   1.529   1.598
 1340SOL    HW2 4920   5.207   1.381   1.587
 1341SOL     OW 4921   4.521   0.036   6.382
 1341SOL    HW1 4922   4.566   0.004   6.298
 1341SOL    HW2 4923   4.581   0.020   6.460
 1342SOL     OW 4924   3.261   5.709   0.783
 1342SOL    HW1 4925   3.182   5.770   0.775
 1342SOL    HW2 4926   3.253   5.655   0.866
 1343SOL     OW 4927   5.468   5.410   2.796
 1343SOL    HW1 4928   5.520   5.356   2.862
 1343SOL    HW2 4929   5.412   5.349   2.739
 1344SOL     OW 4930   0.113   6.982   4.462
 1344SOL    HW1 4931   0.072   6.892   4.447
 1344SOL    HW2 4932   0.137   0.002   4.374
 1345SOL     OW 4933   0.422   5.546   1.800
 1345SOL    HW1 4934   0.490   5.551   1.874
 1345SOL    HW2 4935   0.468   5.522   1.715
 1346SOL     OW 4936   2.507   4.963   5.728
 1346SOL    HW1 4937   2.468   4.923   5.645
 1346SOL    HW2 4938   2.552   4.891   5.781
 1347SOL     OW 4939   1.476   0.394   6.955
 1347SOL    HW1 4940   1.524   0.333   7.017
 1347SOL    HW2 4941   1.504   0.376   6.861
 1348SOL     OW 4942   0.015   6.147   5.267
 1348SOL    HW1 4943   0.030   6.144   5.365
 1348SOL    HW2 4944   6.968   6.218   5.246
 1349SOL     OW 4945   5.336   4.143   3.922
 1349SOL    HW1 4946   5.275   4.118   3.847
 1349SOL    HW2 4947   5.333   4.073   3.993
 1350SOL     OW 4948   3.322   3.838   0.279
 1350SOL    HW1 4949   3.329   3.917   0.218
 1350SOL    HW2 4950   3.281   3.866   0.366
 1351SOL     OW 4951   6.690   2.906   4.755
 1351SOL    HW1 4952   6.673   2.987   4.699
 1351SOL    HW2 4953   6.608   2.849   4.756
 1352SOL     OW 4954   0.030   0.134   2.791
 1352SOL    HW1 4955   6.988   0.058   2.811
 1352SOL    HW2 4956   7.015   0.186   2.713
 1353SOL     OW 4957   0.670   1.640   1.166
 1353SOL    HW1 4958   0.647   1.543   1.167
 1353SOL    HW2 4959   0.655   1.679   1.257
 1354SOL     OW 4960   6.078   4.049   2.468
 1354SOL    HW1 4961   6.058   4.014   2.377
 1354SOL    HW2 4962   6.041   4.141   2.477
 1355SOL     OW 4963   6.248   3.475   4.660
 1355SOL    HW1 4964   6.307   3.554   4.642
 1355SOL    HW2 4965   6.156   3.494   4.627
 1356SOL     OW 4966   3.620   2.885   1.923
 1356SOL    HW1 4967   3.549   2.816   1.936
 1356SOL    HW2 4968   3.648   2.921   2.012
 1357SOL     OW 4969   6.766   3.354   5.355
 1357SOL    HW1 4970   6.796   3.419   5.286
 1357SOL    HW2 4971   6.760   3.400   5.444
 1358SOL     OW 4972   1.112   6.664   6.891
 1358SOL    HW1 4973   1.203   6.640   6.859
 1358SOL    HW2 4974   1.045   6.599   6.855
 1359SOL     OW 4975   6.475   4.198   1.567
 1359SOL    HW1 4976   6.394   4.224   1.619
 1359SOL    HW2 4977   6.472   4.100   1.548
 1360SOL     OW 4978   3.010   2.682   6.408
 1360SOL    HW1 4979   3.071   2.704   6.332
 1360SOL    HW2 4980   3.064   2.655   6.487
 1361SOL     OW 4981   6.972   4.245   4.418
 1361SOL    HW1 4982   6.925   4.330   4.396
 1361SOL    HW2 4983   6.908   4.168   4.409
 1362SOL     OW 4984   3.410   2.919   2.316
 1362SOL    HW1 4985   3.496   2.869   2.329
 1362SOL    HW2 4986   3.370   2.941   2.405
 1363SOL     OW 4987   0.221   5.575   5.556
 1363SOL    HW1 4988   0.126   5.558   5.531
 1363SOL    HW2 4989   0.278   5.501   5.520
 1364SOL     OW 4990   4.378   4.421   0.578
 1364SOL    HW1 4991   4.462   4.408   0.631
 1364SOL    HW2 4992   4.401   4.466   0.491
 1365SOL     OW 4993   0.678   3.629   6.680
 1365SOL    HW1 4994   0.688   3.599   6.775
 1365SOL    HW2 4995   0.681   3.549   6.620
 1366SOL     OW 4996   1.908   0.262   5.033
 1366SOL    HW1 4997   1.886   0.347   4.986
 1366SOL    HW2 4998   1.837   0.194   5.015
 1367SOL     OW 4999   2.296   0.916   2.419
 1367SOL    HW1 5000   2.317   0.834   2.472
 1367SOL    HW2 5001   2.323   0.997   2.471
 1368SOL     OW 5002   6.298   6.493   4.653
 1368SOL    HW1 5003   6.345   6.533   4.731
 1368SOL    HW2 5004   6.274   6.398   4.674
 1369SOL     OW 5005   0.991   0.583   3.455
 1369SOL    HW1 5006   0.903   0.591   3.409
 1369SOL    HW2 5007   1.048   0.517   3.406
 1370SOL     OW 5008   2.943   0.969   1.692
 1370SOL    HW1 5009   2.927   1.057   1.737
 1370SOL    HW2 5010   3.041   0.956   1.680
 1371SOL     OW 5011   3.487   0.616   6.280
 1371SOL    HW1 5012   3.434   0.699   6.259
 1371SOL    HW2 5013   3.429   0.550   6.326
 1372SOL     OW 5014   2.667   2.076   2.189
 1372SOL    HW1 5015   2.609   2.025   2.125
 1372SOL    HW2 5016   2.661   2.174   2.167
 1373SOL     OW 5017   0.633   5.946   0.853
 1373SOL    HW1 5018   0.607   5.851   0.836
 1373SOL    HW2 5019   0.552   5.999   0.877
 1374SOL     OW 5020   4.287   2.339   0.456
 1374SOL    HW1 5021   4.282   2.370   0.361
 1374SOL    HW2 5022   4.207   2.372   0.506
 1375SOL     OW 5023   0.061   4.434   5.943
 1375SOL    HW1 5024   6.992   4.479   5.946
 1375SOL    HW2 5025   0.133   4.503   5.934
 1376SOL     OW 5026   4.960   2.893   2.729
 1376SOL    HW1 5027   5.043   2.921   2.682
 1376SOL    HW2 5028   4.895   2.855   2.663
 1377SOL     OW 5029   0.125   5.576   5.158
 1377SOL    HW1 5030   0.140   5.485   5.197
 1377SOL    HW2 5031   0.183   5.588   5.078
 1378SOL     OW 5032   1.219   2.488   0.127
 1378SOL    HW1 5033   1.228   2.572   0.181
 1378SOL    HW2 5034   1.258   2.503   0.036
 1379SOL     OW 5035   3.788   6.108   2.428
 1379SOL    HW1 5036   3.705   6.099   2.373
 1379SOL    HW2 5037   3.763   6.126   2.523
 1380SOL     OW 5038   6.545   6.661   2.760
 1380SOL    HW1 5039   6.562   6.758   2.772
 1380SOL    HW2 5040   6.615   6.622   2.700
 1381SOL     OW 5041   6.612   1.590   0.928
 1381SOL    HW1 5042   6.615   1.690   0.934
 1381SOL    HW2 5043   6.700   1.553   0.957
 1382SOL     OW 5044   5.362   4.194   6.495
 1382SOL    HW1 5045   5.417   4.277   6.491
 1382SOL    HW2 5046   5.407   4.127   6.554
 1383SOL     OW 5047   2.413   0.155   0.908
 1383SOL    HW1 5048   2.458   0.232   0.954
 1383SOL    HW2 5049   2.470   0.126   0.830
 1384SOL     OW 5050   2.855   2.259   2.504
 1384SOL    HW1 5051   2.917   2.272   2.426
 1384SOL    HW2 5052   2.762   2.283   2.477
 1385SOL     OW 5053   6.980   3.408   3.192
 1385SOL    HW1 5054   6.930   3.323   3.210
 1385SOL    HW2 5055   6.914   3.481   3.170
 1386SOL     OW 5056   2.136   2.135   4.172
 1386SOL    HW1 5057   2.040   2.129   4.201
 1386SOL    HW2 5058   2.187   2.192   4.237
 1387SOL     OW 5059   2.426   0.271   5.169
 1387SOL    HW1 5060   2.461   0.364   5.160
 1387SOL    HW2 5061   2.443   0.220   5.085
 1388SOL     OW 5062   6.375   1.020   4.176
 1388SOL    HW1 5063   6.389   1.117   4.161
 1388SOL    HW2 5064   6.292   0.991   4.129
 1389SOL     OW 5065   5.700   0.191   4.502
 1389SOL    HW1 5066   5.713   0.155   4.594
 1389SOL    HW2 5067   5.788   0.223   4.466
 1390SOL     OW 5068   4.841   2.511   2.630
 1390SOL    HW1 5069   4.756   2.515   2.576
 1390SOL    HW2 5070   4.820   2.485   2.724
 1391SOL     OW 5071   5.097   0.631   4.647
 1391SOL    HW1 5072   5.028   0.700   4.669
 1391SOL    HW2 5073   5.055   0.541   4.648
 1392SOL     OW 5074   4.567   5.830   6.560
 1392SOL    HW1 5075   4.633   5.857   6.490
 1392SOL    HW2 5076   4.519   5.910   6.594
 1393SOL     OW 5077   5.940   0.869   6.921
 1393SOL    HW1 5078   5.935   0.890   7.018
 1393SOL    HW2 5079   6.035   0.855   6.894
 1394SOL     OW 5080   4.576   6.432   4.326
 1394SOL    HW1 5081   4.633   6.514   4.331
 1394SOL    HW2 5082   4.535   6.425   4.235
 1395SOL     OW 5083   1.632   5.020   2.187
 1395SOL    HW1 5084   1.707   5.083   2.166
 1395SOL    HW2 5085   1.563   5.024   2.115
 1396SOL     OW 5086   1.785   1.639   4.044
 1396SOL    HW1 5087   1.714   1.621   4.113
 1396SOL    HW2 5088   1.842   1.715   4.074
 1397SOL     OW 5089   0.145   4.962   4.354
 1397SOL    HW1 5090   0.233   4.960   4.402
 1397SOL    HW2 5091   0.116   4.868   4.334
 1398SOL     OW 5092   0.398   0.857   0.640
 1398SOL    HW1 5093   0.485   0.809   0.648
 1398SOL    HW2 5094   0.331   0.815   0.701
 1399SOL     OW 5095   4.195   0.332   0.351
 1399SOL    HW1 5096   4.142   0.357   0.432
 1399SOL    HW2 5097   4.196   0.410   0.287
 1400SOL     OW 5098   6.428   0.182   5.184
 1400SOL    HW1 5099   6.461   0.200   5.091
 1400SOL    HW2 5100   6.375   0.097   5.184
 1401SOL     OW 5101   5.353   0.353   3.372
 1401SOL    HW1 5102   5.271   0.370   3.318
 1401SOL    HW2 5103   5.366   0.254   3.381
 1402SOL     OW 5104   6.990   4.804   1.989
 1402SOL    HW1 5105   7.019   4.820   2.083
 1402SOL    HW2 5106   0.011   4.873   1.929
 1403SOL     OW 5107   3.087   3.035   6.328
 1403SOL    HW1 5108   3.003   3.022   6.381
 1403SOL    HW2 5109   3.072   3.004   6.234
 1404SOL     OW 5110   4.341   6.672   0.322
 1404SOL    HW1 5111   4.336   6.728   0.405
 1404SOL    HW2 5112   4.415   6.605   0.331
 1405SOL     OW 5113   0.953   3.478   1.178
 1405SOL    HW1 5114   0.950   3.577   1.168
 1405SOL    HW2 5115   0.915   3.435   1.096
 1406SOL     OW 5116   2.447   3.156   0.992
 1406SOL    HW1 5117   2.423   3.067   1.030
 1406SOL    HW2 5118   2.369   3.218   1.001
 1407SOL     OW 5119   0.460   3.322   1.058
 1407SOL    HW1 5120   0.402   3.243   1.074
 1407SOL    HW2 5121   0.552   3.303   1.092
 1408SOL     OW 5122   6.039   6.363   0.788
 1408SOL    HW1 5123   6.012   6.458   0.804
 1408SOL    HW2 5124   6.073   6.354   0.694
 1409SOL     OW 5125   6.456   1.766   5.736
 1409SOL    HW1 5126   6.520   1.698   5.701
 1409SOL    HW2 5127   6.362   1.736   5.719
 1410SOL     OW 5128   4.073   1.447   5.845
 1410SOL    HW1 5129   4.051   1.501   5.926
 1410SOL    HW2 5130   3.993   1.394   5.817
 1411SOL     OW 5131   3.493   5.067   0.084
 1411SOL    HW1 5132   3.393   5.076   0.085
 1411SOL    HW2 5133   3.523   5.028   0.171
 1412SOL     OW 5134   2.249   3.481   0.354
 1412SOL    HW1 5135   2.242   3.566   0.406
 1412SOL    HW2 5136   2.341   3.443   0.365
 1413SOL     OW 5137   1.407   1.608   5.493
 1413SOL    HW1 5138   1.406   1.700   5.454
 1413SOL    HW2 5139   1.430   1.542   5.422
 1414SOL     OW 5140   1.420   4.140   2.685
 1414SOL    HW1 5141   1.506   4.190   2.686
 1414SOL    HW2 5142   1.347   4.201   2.653
 1415SOL     OW 5143   2.142   1.905   4.721
 1415SOL    HW1 5144   2.232   1.864   4.734
 1415SOL    HW2 5145   2.079   1.838   4.682
 1416SOL     OW 5146   4.270   0.429   4.738
 1416SOL    HW1 5147   4.217   0.428   4.823
 1416SOL    HW2 5148   4.250   0.513   4.688
 1417SOL     OW 5149   3.312   3.008   6.077
 1417SOL    HW1 5150   3.361   2.925   6.051
 1417SOL    HW2 5151   3.339   3.083   6.017
 1418SOL     OW 5152   3.570   4.468   6.006
 1418SOL    HW1 5153   3.540   4.562   5.993
 1418SOL    HW2 5154   3.566   4.419   5.918
 1419SOL     OW 5155   2.437   4.903   2.510
 1419SOL    HW1 5156   2.394   4.849   2.438
 1419SOL    HW2 5157   2.397   4.879   2.598
 1420SOL     OW 5158   2.685   6.362   2.906
 1420SOL    HW1 5159   2.775   6.394   2.936
 1420SOL    HW2 5160   2.649   6.425   2.837
 1421SOL     OW 5161   1.293   4.715   5.498
 1421SOL    HW1 5162   1.243   4.700   5.413
 1421SOL    HW2 5163   1.234   4.695   5.576
 1422SOL     OW 5164   2.043   3.697   6.022
 1422SOL    HW1 5165   2.125   3.755   6.023
 1422SOL    HW2 5166   2.046   3.634   6.099
 1423SOL     OW 5167   4.539   0.622   4.923
 1423SOL    HW1 5168   4.549   0.526   4.899
 1423SOL    HW2 5169   4.570   0.637   5.016
 1424SOL     OW 5170   6.607   2.888   0.258
 1424SOL    HW1 5171   6.680   2.899   0.191
 1424SOL    HW2 5172   6.614   2.960   0.327
 1425SOL     OW 5173   4.855   6.253   3.532
 1425SOL    HW1 5174   4.842   6.213   3.441
 1425SOL    HW2 5175   4.766   6.274   3.572
 1426SOL     OW 5176   3.446   2.246   0.214
 1426SOL    HW1 5177   3.457   2.305   0.134
 1426SOL    HW2 5178   3.476   2.153   0.191
 1427SOL     OW 5179   1.797   0.834   3.990
 1427SOL    HW1 5180   1.885   0.787   3.993
 1427SOL    HW2 5181   1.810   0.924   3.949
 1428SOL     OW 5182   0.980   3.195   3.831
 1428SOL    HW1 5183   0.891   3.168   3.795
 1428SOL    HW2 5184   0.990   3.160   3.925
 1429SOL     OW 5185   6.201   1.065   1.277
 1429SOL    HW1 5186   6.127   1.003   1.253
 1429SOL    HW2 5187   6.275   1.057   1.210
 1430SOL     OW 5188   1.916   3.547   4.284
 1430SOL    HW1 5189   1.989   3.579   4.344
 1430SOL    HW2 5190   1.952   3.533   4.192
 1431SOL     OW 5191   2.325   1.139   6.453
 1431SOL    HW1 5192   2.351   1.048   6.422
 1431SOL    HW2 5193   2.252   1.132   6.521
 1432SOL     OW 5194   2.898   0.388   2.478
 1432SOL    HW1 5195   2.966   0.325   2.440
 1432SOL    HW2 5196   2.806   0.353   2.459
 1433SOL     OW 5197   2.168   6.996   4.065
 1433SOL    HW1 5198   2.261   6.987   4.100
 1433SOL    HW2 5199   2.155   6.934   3.988
 1434SOL     OW 5200   0.358   3.292   0.677
 1434SOL    HW1 5201   0.314   3.214   0.722
 1434SOL    HW2 5202   0.331   3.296   0.581
 1435SOL     OW 5203   1.440   6.743   3.848
 1435SOL    HW1 5204   1.489   6.656   3.846
 1435SOL    HW2 5205   1.496   6.812   3.894
 1436SOL     OW 5206   5.581   1.836   6.844
 1436SOL    HW1 5207   5.640   1.914   6.822
 1436SOL    HW2 5208   5.561   1.785   6.760
 1437SOL     OW 5209   3.474   0.682   5.789
 1437SOL    HW1 5210   3.411   0.751   5.753
 1437SOL    HW2 5211   3.432   0.592   5.784
 1438SOL     OW 5212   2.853   0.427   1.997
 1438SOL    HW1 5213   2.810   0.472   2.075
 1438SOL    HW2 5214   2.859   0.328   2.014
 1439SOL     OW 5215   0.287   4.900   0.007
 1439SOL    HW1 5216   0.188   4.911   7.017
 1439SOL    HW2 5217   0.334   4.947   6.953
 1440SOL     OW 5218   3.716   3.278   2.989
 1440SOL    HW1 5219   3.722   3.378   2.987
 1440SOL    HW2 5220   3.683   3.244   2.901
 1441SOL     OW 5221   6.278   3.024   3.975
 1441SOL    HW1 5222   6.259   3.056   4.068
 1441SOL    HW2 5223   6.262   2.925   3.969
 1442SOL     OW 5224   5.504   5.410   0.486
 1442SOL    HW1 5225   5.584   5.463   0.514
 1442SOL    HW2 5226   5.519   5.314   0.509
 1443SOL     OW 5227   0.558   2.781   2.882
 1443SOL    HW1 5228   0.579   2.719   2.807
 1443SOL    HW2 5229   0.635   2.843   2.897
 1444SOL     OW 5230   4.749   1.097   3.977
 1444SOL    HW1 5231   4.839   1.061   3.953
 1444SOL    HW2 5232   4.679   1.034   3.943
 1445SOL     OW 5233   6.510   1.907   0.796
 1445SOL    HW1 5234   6.538   1.900   0.892
 1445SOL    HW2 5235   6.429   1.965   0.789
 1446SOL     OW 5236   4.192   0.751   1.487
 1446SOL    HW1 5237   4.258   0.728   1.416
 1446SOL    HW2 5238   4.204   0.846   1.515
 1447SOL     OW 5239   5.932   0.938   5.789
 1447SOL    HW1 5240   5.834   0.952   5.778
 1447SOL    HW2 5241   5.959   0.851   5.746
 1448SOL     OW 5242   5.409   0.714   6.704
 1448SOL    HW1 5243   5.344   0.739   6.632
 1448SOL    HW2 5244   5.393   0.772   6.784
 1449SOL     OW 5245   4.124   5.630   1.257
 1449SOL    HW1 5246   4.089   5.722   1.240
 1449SOL    HW2 5247   4.091   5.597   1.346
 1450SOL     OW 5248   5.499   2.901   3.582
 1450SOL    HW1 5249   5.594   2.879   3.561
 1450SOL    HW2 5250   5.478   2.994   3.551
 1451SOL     OW 5251   1.744   6.789   3.135
 1451SOL    HW1 5252   1.751   6.889   3.138
 1451SOL    HW2 5253   1.725   6.754   3.227
 1452SOL     OW 5254   4.488   1.121   5.139
 1452SOL    HW1 5255   4.466   1.049   5.204
 1452SOL    HW2 5256   4.407   1.146   5.086
 1453SOL     OW 5257   5.296   4.491   4.935
 1453SOL    HW1 5258   5.229   4.496   5.010
 1453SOL    HW2 5259   5.285   4.571   4.876
 1454SOL     OW 5260   4.265   3.839   1.245
 1454SOL    HW1 5261   4.310   3.752   1.267
 1454SOL    HW2 5262   4.169   3.823   1.226
 1455SOL     OW 5263   1.942   2.665   1.735
 1455SOL    HW1 5264   1.996   2.646   1.817
 1455SOL    HW2 5265   1.845   2.652   1.755
 1456SOL     OW 5266   6.503   6.033   3.875
 1456SOL    HW1 5267   6.483   5.953   3.819
 1456SOL    HW2 5268   6.551   6.101   3.819
 1457SOL     OW 5269   1.702   0.335   2.940
 1457SOL    HW1 5270   1.729   0.370   3.030
 1457SOL    HW2 5271   1.666   0.411   2.885
 1458SOL     OW 5272   6.062   5.400   0.022
 1458SOL    HW1 5273   6.056   5.360   0.113
 1458SOL    HW2 5274   5.972   5.397   6.999
 1459SOL     OW 5275   2.253   0.383   0.809
 1459SOL    HW1 5276   2.155   0.381   0.791
 1459SOL    HW2 5277   2.281   0.299   0.856
 1460SOL     OW 5278   0.959   6.901   6.927
 1460SOL    HW1 5279   0.999   6.812   6.908
 1460SOL    HW2 5280   1.021   6.955   6.984
 1461SOL     OW 5281   5.573   5.099   1.574
 1461SOL    HW1 5282   5.504   5.120   1.506
 1461SOL    HW2 5283   5.542   5.021   1.629
 1462SOL     OW 5284   5.213   0.866   6.095
 1462SOL    HW1 5285   5.173   0.774   6.098
 1462SOL    HW2 5286   5.177   0.920   6.171
 1463SOL     OW 5287   0.577   1.276   4.827
 1463SOL    HW1 5288   0.489   1.232   4.841
 1463SOL    HW2 5289   0.588   1.351   4.893
 1464SOL     OW 5290   0.129   6.376   1.000
 1464SOL    HW1 5291   0.175   6.461   0.973
 1464SOL    HW2 5292   0.175   6.337   1.079
 1465SOL     OW 5293   0.254   7.005   4.700
 1465SOL    HW1 5294   0.329   6.939   4.704
 1465SOL    HW2 5295   0.243   0.018   4.606
 1466SOL     OW 5296   5.877   5.267   3.613
 1466SOL    HW1 5297   5.825   5.184   3.591
 1466SOL    HW2 5298   5.965   5.242   3.653
 1467SOL     OW 5299   0.046   3.009   3.421
 1467SOL    HW1 5300   0.103   3.088   3.443
 1467SOL    HW2 5301   0.002   3.024   3.332
 1468SOL     OW 5302   5.804   5.758   3.190
 1468SOL    HW1 5303   5.858   5.828   3.236
 1468SOL    HW2 5304   5.805   5.773   3.091
 1469SOL     OW 5305   0.268   1.165   2.994
 1469SOL    HW1 5306   0.252   1.177   3.092
 1469SOL    HW2 5307   0.362   1.189   2.972
 1470SOL     OW 5308   6.839   1.003   3.455
 1470SOL    HW1 5309   6.894   0.981   3.375
 1470SOL    HW2 5310   6.749   0.959   3.446
 1471SOL     OW 5311   6.742   0.592   6.828
 1471SOL    HW1 5312   6.763   0.559   6.735
 1471SOL    HW2 5313   6.805   0.550   6.893
 1472SOL     OW 5314   4.466   0.384   5.224
 1472SOL    HW1 5315   4.480   0.342   5.313
 1472SOL    HW2 5316   4.391   0.337   5.176
 1473SOL     OW 5317   6.169   4.188   3.834
 1473SOL    HW1 5318   6.077   4.201   3.870
 1473SOL    HW2 5319   6.235   4.232   3.894
 1474SOL     OW 5320   4.728   5.615   3.568
 1474SOL    HW1 5321   4.741   5.518   3.587
 1474SOL    HW2 5322   4.692   5.627   3.475
 1475SOL     OW 5323   0.356   1.026   2.613
 1475SOL    HW1 5324   0.421   1.102   2.616
 1475SOL    HW2 5325   0.278   1.050   2.556
 1476SOL     OW 5326   6.386   1.699   1.709
 1476SOL    HW1 5327   6.442   1.692   1.792
 1476SOL    HW2 5328   6.304   1.644   1.720
 1477SOL     OW 5329   2.741   6.173   3.420
 1477SOL    HW1 5330   2.758   6.187   3.518
 1477SOL    HW2 5331   2.803   6.102   3.386
 1478SOL     OW 5332   6.713   4.441   1.452
 1478SOL    HW1 5333   6.625   4.400   1.427
 1478SOL    HW2 5334   6.696   4.523   1.507
 1479SOL     OW 5335   1.654   5.331   0.677
 1479SOL    HW1 5336   1.686   5.293   0.765
 1479SOL    HW2 5337   1.587   5.403   0.695
 1480SOL     OW 5338   2.722   1.141   0.191
 1480SOL    HW1 5339   2.691   1.235   0.173
 1480SOL    HW2 5340   2.688   1.081   0.119
 1481SOL     OW 5341   6.296   2.130   6.264
 1481SOL    HW1 5342   6.290   2.223   6.228
 1481SOL    HW2 5343   6.206   2.087   6.260
 1482SOL     OW 5344   5.600   0.685   6.506
 1482SOL    HW1 5345   5.608   0.747   6.428
 1482SOL    HW2 5346   5.541   0.725   6.575
 1483SOL     OW 5347   6.055   2.002   6.270
 1483SOL    HW1 5348   5.969   2.052   6.257
 1483SOL    HW2 5349   6.036   1.915   6.316
 1484SOL     OW 5350   6.192   5.835   3.128
 1484SOL    HW1 5351   6.120   5.880   3.076
 1484SOL    HW2 5352   6.198   5.876   3.219
 1485SOL     OW 5353   5.209   3.025   3.858
 1485SOL    HW1 5354   5.164   2.936   3.849
 1485SOL    HW2 5355   5.162   3.092   3.800
 1486SOL     OW 5356   4.869   2.395   2.266
 1486SOL    HW1 5357   4.946   2.450   2.235
 1486SOL    HW2 5358   4.788   2.454   2.274
 1487SOL     OW 5359   6.245   1.426   5.281
 1487SOL    HW1 5360   6.327   1.440   5.225
 1487SOL    HW2 5361   6.266   1.364   5.356
 1488SOL     OW 5362   4.070   1.998   3.144
 1488SOL    HW1 5363   3.975   1.979   3.168
 1488SOL    HW2 5364   4.073   2.073   3.078
 1489SOL     OW 5365   4.044   5.859   5.094
 1489SOL    HW1 5366   4.138   5.888   5.076
 1489SOL    HW2 5367   3.999   5.835   5.008
 1490SOL     OW 5368   1.966   2.801   0.692
 1490SOL    HW1 5369   2.036   2.755   0.638
 1490SOL    HW2 5370   1.963   2.762   0.784
 1491SOL     OW 5371   0.451   2.868   4.898
 1491SOL    HW1 5372   0.414   2.927   4.826
 1491SOL    HW2 5373   0.384   2.859   4.972
 1492SOL     OW 5374   5.564   2.536   2.419
 1492SOL    HW1 5375   5.623   2.577   2.489
 1492SOL    HW2 5376   5.530   2.608   2.358
 1493SOL     OW 5377   4.846   0.653   4.997
 1493SOL    HW1 5378   4.788   0.618   4.924
 1493SOL    HW2 5379   4.792   0.665   5.081
 1494SOL     OW 5380   5.079   3.001   5.616
 1494SOL    HW1 5381   5.168   3.047   5.620
 1494SOL    HW2 5382   5.034   3.023   5.530
 1495SOL     OW 5383   2.113   3.068   2.824
 1495SOL    HW1 5384   2.077   3.151   2.780
 1495SOL    HW2 5385   2.108   3.078   2.923
 1496SOL     OW 5386   0.825   0.954   2.427
 1496SOL    HW1 5387   0.869   0.912   2.349
 1496SOL    HW2 5388   0.725   0.948   2.418
 1497SOL     OW 5389   5.622   5.275   5.470
 1497SOL    HW1 5390   5.615   5.241   5.564
 1497SOL    HW2 5391   5.564   5.221   5.410
 1498SOL     OW 5392   2.360   6.311   0.565
 1498SOL    HW1 5393   2.372   6.405   0.535
 1498SOL    HW2 5394   2.422   6.251   0.514
 1499SOL     OW 5395   0.346   4.472   5.571
 1499SOL    HW1 5396   0.395   4.516   5.496
 1499SOL    HW2 5397   0.377   4.377   5.580
 1500SOL     OW 5398   4.706   0.087   5.769
 1500SOL    HW1 5399   4.804   0.104   5.766
 1500SOL    HW2 5400   4.684   0.006   5.715
 1501SOL     OW 5401   3.895   6.921   6.033
 1501SOL    HW1 5402   3.959   6.880   6.098
 1501SOL    HW2 5403   3.842   6.850   5.988
 1502SOL     OW 5404   6.408   6.109   6.967
 1502SOL    HW1 5405   6.417   6.029   6.908
 1502SOL    HW2 5406   6.316   6.113   7.005
 1503SOL     OW 5407   3.116   3.368   5.914
 1503SOL    HW1 5408   3.132   3.349   6.011
 1503SOL    HW2 5409   3.186   3.322   5.859
 1504SOL     OW 5410   2.238   5.836   4.493
 1504SOL    HW1 5411   2.194   5.791   4.415
 1504SOL    HW2 5412   2.188   5.920   4.516
 1505SOL     OW 5413   4.774   5.242   0.577
 1505SOL    HW1 5414   4.860   5.210   0.536
 1505SOL    HW2 5415   4.786   5.336   0.610
 1506SOL     OW 5416   0.757   5.821   3.815
 1506SOL    HW1 5417   0.673   5.784   3.854
 1506SOL    HW2 5418   0.775   5.776   3.727
 1507SOL     OW 5419   1.669   1.694   6.540
 1507SOL    HW1 5420   1.762   1.697   6.502
 1507SOL    HW2 5421   1.630   1.786   6.538
 1508SOL     OW 5422   5.275   0.176   0.179
 1508SOL    HW1 5423   5.203   0.147   0.117
 1508SOL    HW2 5424   5.267   0.126   0.265
 1509SOL     OW 5425   4.887   2.164   0.350
 1509SOL    HW1 5426   4.957   2.221   0.394
 1509SOL    HW2 5427   4.859   2.207   0.264
 1510SOL     OW 5428   6.970   1.566   3.773
 1510SOL    HW1 5429   0.033   1.600   3.731
 1510SOL    HW2 5430   6.993   1.511   3.854
 1511SOL     OW 5431   1.810   2.663   0.964
 1511SOL    HW1 5432   1.875   2.666   1.040
 1511SOL    HW2 5433   1.750   2.743   0.968
 1512SOL     OW 5434   6.590   0.528   2.369
 1512SOL    HW1 5435   6.504   0.573   2.394
 1512SOL    HW2 5436   6.598   0.442   2.420
 1513SOL     OW 5437   3.695   1.232   2.290
 1513SOL    HW1 5438   3.674   1.162   2.221
 1513SOL    HW2 5439   3.633   1.310   2.278
 1514SOL     OW 5440   4.868   1.784   5.003
 1514SOL    HW1 5441   4.928   1.720   5.050
 1514SOL    HW2 5442   4.807   1.734   4.941
 1515SOL     OW 5443   6.954   4.545   4.324
 1515SOL    HW1 5444   6.988   4.577   4.413
 1515SOL    HW2 5445   6.992   4.602   4.251
 1516SOL     OW 5446   0.933   1.698   1.145
 1516SOL    HW1 5447   0.939   1.794   1.174
 1516SOL    HW2 5448   0.837   1.675   1.129
 1517SOL     OW 5449   3.752   5.580   3.252
 1517SOL    HW1 5450   3.667   5.622   3.284
 1517SOL    HW2 5451   3.731   5.507   3.187
 1518SOL     OW 5452   0.731   4.724   1.222
 1518SOL    HW1 5453   0.705   4.694   1.130
 1518SOL    HW2 5454   0.733   4.824   1.226
 1519SOL     OW 5455   6.761   4.900   0.677
 1519SOL    HW1 5456   6.670   4.901   0.636
 1519SOL    HW2 5457   6.755   4.865   0.771
 1520SOL     OW 5458   1.434   3.470   3.227
 1520SOL    HW1 5459   1.436   3.569   3.234
 1520SOL    HW2 5460   1.527   3.435   3.218
 1521SOL     OW 5461   2.474   4.187   6.133
 1521SOL    HW1 5462   2.535   4.110   6.112
 1521SOL    HW2 5463   2.471   4.201   6.232
 1522SOL     OW 5464   6.379   2.370   6.530
 1522SOL    HW1 5465   6.358   2.285   6.482
 1522SOL    HW2 5466   6.403   2.349   6.625
 1523SOL     OW 5467   0.249   1.740   0.565
 1523SOL    HW1 5468   0.307   1.733   0.645
 1523SOL    HW2 5469   0.297   1.788   0.492
 1524SOL     OW 5470   6.898   0.955   2.731
 1524SOL    HW1 5471   6.998   0.963   2.722
 1524SOL    HW2 5472   6.863   1.033   2.781
 1525SOL     OW 5473   4.523   2.112   5.920
 1525SOL    HW1 5474   4.597   2.089   5.983
 1525SOL    HW2 5475   4.492   2.206   5.938
 1526SOL     OW 5476   0.129   2.223   1.502
 1526SOL    HW1 5477   0.098   2.241   1.595
 1526SOL    HW2 5478   0.219   2.265   1.489
 1527SOL     OW 5479   2.786   1.198   5.347
 1527SOL    HW1 5480   2.701   1.168   5.390
 1527SOL    HW2 5481   2.808   1.137   5.271
 1528SOL     OW 5482   5.472   6.367   3.550
 1528SOL    HW1 5483   5.406   6.410   3.611
 1528SOL    HW2 5484   5.455   6.396   3.456
 1529SOL     OW 5485   2.802   0.605   6.050
 1529SOL    HW1 5486   2.833   0.525   5.998
 1529SOL    HW2 5487   2.818   0.688   5.997
 1530SOL     OW 5488   3.926   6.343   1.723
 1530SOL    HW1 5489   3.963   6.291   1.800
 1530SOL    HW2 5490   3.827   6.349   1.730
 1531SOL     OW 5491   0.001   6.854   4.745
 1531SOL    HW1 5492   7.020   6.872   4.843
 1531SOL    HW2 5493   0.063   6.918   4.700
 1532SOL     OW 5494   3.327   1.735   5.324
 1532SOL    HW1 5495   3.354   1.640   5.310
 1532SOL    HW2 5496   3.405   1.787   5.359
 1533SOL     OW 5497   6.045   2.911   6.900
 1533SOL    HW1 5498   6.039   2.812   6.884
 1533SOL    HW2 5499   5.971   2.939   6.961
 1534SOL     OW 5500   0.267   6.591   1.650
 1534SOL    HW1 5501   0.220   6.516   1.696
 1534SOL    HW2 5502   0.216   6.616   1.568
 1535SOL     OW 5503   5.011   5.192   4.559
 1535SOL    HW1 5504   4.919   5.200   4.520
 1535SOL    HW2 5505   5.054   5.108   4.527
 1536SOL     OW 5506   2.439   6.033   4.322
 1536SOL    HW1 5507   2.393   5.993   4.402
 1536SOL    HW2 5508   2.532   5.997   4.315
 1537SOL     OW 5509   1.613   5.258   4.218
 1537SOL    HW1 5510   1.642   5.195   4.146
 1537SOL    HW2 5511   1.542   5.319   4.182
 1538SOL     OW 5512   2.703   5.497   6.490
 1538SOL    HW1 5513   2.700   5.404   6.452
 1538SOL    HW2 5514   2.620   5.546   6.462
 1539SOL     OW 5515   3.449   4.752   1.658
 1539SOL    HW1 5516   3.358   4.748   1.699
 1539SOL    HW2 5517   3.518   4.743   1.730
 1540SOL     OW 5518   0.533   6.205   4.656
 1540SOL    HW1 5519   0.533   6.299   4.623
 1540SOL    HW2 5520   0.439   6.171   4.660
 1541SOL     OW 5521   5.265   2.218   1.242
 1541SOL    HW1 5522   5.269   2.257   1.150
 1541SOL    HW2 5523   5.329   2.268   1.301
 1542SOL     OW 5524   1.038   6.515   0.977
 1542SOL    HW1 5525   1.043   6.456   0.896
 1542SOL    HW2 5526   1.107   6.586   0.970
 1543SOL     OW 5527   2.981   3.855   4.146
 1543SOL    HW1 5528   2.978   3.760   4.115
 1543SOL    HW2 5529   3.040   3.908   4.085
 1544SOL     OW 5530   3.711   4.010   2.712
 1544SOL    HW1 5531   3.733   3.988   2.807
 1544SOL    HW2 5532   3.787   3.985   2.653
 1545SOL     OW 5533   5.976   0.419   4.787
 1545SOL    HW1 5534   6.055   0.376   4.829
 1545SOL    HW2 5535   5.988   0.518   4.784
 1546SOL     OW 5536   1.117   6.660   6.098
 1546SOL    HW1 5537   1.111   6.564   6.125
 1546SOL    HW2 5538   1.211   6.693   6.112
 1547SOL     OW 5539   3.523   6.010   6.935
 1547SOL    HW1 5540   3.542   5.926   6.984
 1547SOL    HW2 5541   3.483   5.989   6.846
 1548SOL     OW 5542   5.523   3.901   4.686
 1548SOL    HW1 5543   5.605   3.848   4.709
 1548SOL    HW2 5544   5.452   3.882   4.753
 1549SOL     OW 5545   6.767   1.700   1.245
 1549SOL    HW1 5546   6.781   1.613   1.196
 1549SOL    HW2 5547   6.759   1.682   1.343
 1550SOL     OW 5548   2.503   5.816   4.757
 1550SOL    HW1 5549   2.445   5.892   4.727
 1550SOL    HW2 5550   2.468   5.730   4.720
 1551SOL     OW 5551   1.696   2.552   0.423
 1551SOL    HW1 5552   1.622   2.512   0.370
 1551SOL    HW2 5553   1.660   2.590   0.508
 1552SOL     OW 5554   0.700   0.581   0.444
 1552SOL    HW1 5555   0.676   0.508   0.380
 1552SOL    HW2 5556   0.799   0.584   0.456
 1553SOL     OW 5557   6.173   1.051   6.351
 1553SOL    HW1 5558   6.213   1.046   6.443
 1553SOL    HW2 5559   6.074   1.036   6.358
 1554SOL     OW 5560   3.149   1.701   1.393
 1554SOL    HW1 5561   3.096   1.784   1.376
 1554SOL    HW2 5562   3.128   1.668   1.485
 1555SOL     OW 5563   3.931   1.141   5.294
 1555SOL    HW1 5564   3.879   1.061   5.323
 1555SOL    HW2 5565   3.988   1.117   5.215
 1556SOL     OW 5566   3.924   1.390   0.772
 1556SOL    HW1 5567   3.945   1.487   0.784
 1556SOL    HW2 5568   3.976   1.354   0.695
 1557SOL     OW 5569   1.701   2.521   0.724
 1557SOL    HW1 5570   1.677   2.434   0.767
 1557SOL    HW2 5571   1.744   2.581   0.792
 1558SOL     OW 5572   5.884   2.905   6.295
 1558SOL    HW1 5573   5.968   2.900   6.350
 1558SOL    HW2 5574   5.901   2.958   6.212
 1559SOL     OW 5575   1.910   4.524   3.561
 1559SOL    HW1 5576   1.821   4.479   3.555
 1559SOL    HW2 5577   1.909   4.593   3.633
 1560SOL     OW 5578   4.264   1.462   1.392
 1560SOL    HW1 5579   4.215   1.527   1.451
 1560SOL    HW2 5580   4.293   1.508   1.308
 1561SOL     OW 5581   6.230   6.031   0.944
 1561SOL    HW1 5582   6.138   6.010   0.977
 1561SOL    HW2 5583   6.289   5.951   0.958
 1562SOL     OW 5584   3.751   6.519   2.401
 1562SOL    HW1 5585   3.846   6.488   2.405
 1562SOL    HW2 5586   3.726   6.562   2.487
 1563SOL     OW 5587   3.899   2.174   4.197
 1563SOL    HW1 5588   3.987   2.221   4.199
 1563SOL    HW2 5589   3.897   2.112   4.119
 1564SOL     OW 5590   1.486   2.363   3.323
 1564SOL    HW1 5591   1.396   2.329   3.295
 1564SOL    HW2 5592   1.557   2.321   3.266
 1565SOL     OW 5593   3.870   0.999   4.355
 1565SOL    HW1 5594   3.960   1.007   4.397
 1565SOL    HW2 5595   3.879   1.001   4.255
 1566SOL     OW 5596   4.758   4.614   2.907
 1566SOL    HW1 5597   4.771   4.543   2.838
 1566SOL    HW2 5598   4.667   4.606   2.947
 1567SOL     OW 5599   4.833   0.294   5.165
 1567SOL    HW1 5600   4.767   0.219   5.180
 1567SOL    HW2 5601   4.793   0.361   5.103
 1568SOL     OW 5602   2.406   5.528   2.189
 1568SOL    HW1 5603   2.446   5.529   2.098
 1568SOL    HW2 5604   2.454   5.594   2.247
 1569SOL     OW 5605   3.323   0.223   3.483
 1569SOL    HW1 5606   3.340   0.218   3.581
 1569SOL    HW2 5607   3.233   0.185   3.463
 1570SOL     OW 5608   3.662   6.316   6.647
 1570SOL    HW1 5609   3.599   6.392   6.661
 1570SOL    HW2 5610   3.672   6.265   6.733
 1571SOL     OW 5611   1.082   2.525   4.666
 1571SOL    HW1 5612   1.089   2.430   4.636
 1571SOL    HW2 5613   1.087   2.585   4.587
 1572SOL     OW 5614   2.071   5.062   1.782
 1572SOL    HW1 5615   2.024   4.980   1.813
 1572SOL    HW2 5616   2.035   5.090   1.692
 1573SOL     OW 5617   5.276   5.448   0.613
 1573SOL    HW1 5618   5.282   5.510   0.691
 1573SOL    HW2 5619   5.368   5.430   0.577
 1574SOL     OW 5620   0.028   3.594   3.393
 1574SOL    HW1 5621   0.006   3.538   3.313
 1574SOL    HW2 5622   6.994   3.678   3.390
 1575SOL     OW 5623   0.088   1.179   0.585
 1575SOL    HW1 5624   0.160   1.243   0.612
 1575SOL    HW2 5625   0.080   1.179   0.485
 1576SOL     OW 5626   0.807   0.231   2.292
 1576SOL    HW1 5627   0.744   0.278   2.230
 1576SOL    HW2 5628   0.795   0.267   2.385
 1577SOL     OW 5629   4.392   6.080   5.384
 1577SOL    HW1 5630   4.307   6.078   5.438
 1577SOL    HW2 5631   4.370   6.067   5.287
 1578SOL     OW 5632   5.166   1.338   0.828
 1578SOL    HW1 5633   5.108   1.257   0.821
 1578SOL    HW2 5634   5.151   1.382   0.916
 1579SOL     OW 5635   1.560   2.587   1.518
 1579SOL    HW1 5636   1.467   2.580   1.554
 1579SOL    HW2 5637   1.597   2.496   1.503
 1580SOL     OW 5638   3.292   3.872   2.675
 1580SOL    HW1 5639   3.245   3.890   2.761
 1580SOL    HW2 5640   3.258   3.935   2.605
 1581SOL     OW 5641   6.251   4.131   5.580
 1581SOL    HW1 5642   6.298   4.202   5.631
 1581SOL    HW2 5643   6.154   4.156   5.570
 1582SOL     OW 5644   4.187   6.461   5.266
 1582SOL    HW1 5645   4.134   6.544   5.245
 1582SOL    HW2 5646   4.284   6.482   5.259
 1583SOL     OW 5647   1.392   6.242   5.068
 1583SOL    HW1 5648   1.462   6.277   5.005
 1583SOL    HW2 5649   1.304   6.236   5.021
 1584SOL     OW 5650   0.242   5.232   0.160
 1584SOL    HW1 5651   0.316   5.172   0.128
 1584SOL    HW2 5652   0.226   5.304   0.092
 1585SOL     OW 5653   4.171   6.446   3.262
 1585SOL    HW1 5654   4.144   6.507   3.336
 1585SOL    HW2 5655   4.113   6.365   3.262
 1586SOL     OW 5656   3.226   4.906   3.518
 1586SOL    HW1 5657   3.313   4.898   3.469
 1586SOL    HW2 5658   3.152   4.869   3.462
 1587SOL     OW 5659   2.269   6.161   5.854
 1587SOL    HW1 5660   2.233   6.069   5.840
 1587SOL    HW2 5661   2.308   6.195   5.769
 1588SOL     OW 5662   5.423   1.110   2.997
 1588SOL    HW1 5663   5.500   1.046   3.000
 1588SOL    HW2 5664   5.341   1.065   3.031
 1589SOL     OW 5665   5.982   4.805   3.967
 1589SOL    HW1 5666   6.078   4.832   3.976
 1589SOL    HW2 5667   5.960   4.739   4.039
 1590SOL     OW 5668   6.350   2.784   3.663
 1590SOL    HW1 5669   6.278   2.847   3.634
 1590SOL    HW2 5670   6.412   2.767   3.587
 1591SOL     OW 5671   0.933   6.575   2.113
 1591SOL    HW1 5672   1.000   6.505   2.140
 1591SOL    HW2 5673   0.970   6.666   2.133
 1592SOL     OW 5674   0.155   4.076   6.556
 1592SOL    HW1 5675   0.124   3.988   6.519
 1592SOL    HW2 5676   0.160   4.143   6.482
 1593SOL     OW 5677   3.044   0.493   0.428
 1593SOL    HW1 5678   3.048   0.395   0.446
 1593SOL    HW2 5679   2.962   0.531   0.469
 1594SOL     OW 5680   6.213   0.393   2.080
 1594SOL    HW1 5681   6.292   0.386   2.141
 1594SOL    HW2 5682   6.131   0.412   2.134
 1595SOL     OW 5683   0.053   4.094   6.997
 1595SOL    HW1 5684   0.148   4.085   0.003
 1595SOL    HW2 5685   0.027   4.017   6.939
 1596SOL     OW 5686   4.892   5.050   2.609
 1596SOL    HW1 5687   4.844   5.132   2.578
 1596SOL    HW2 5688   4.913   5.058   2.707
 1597SOL     OW 5689   3.927   6.320   6.549
 1597SOL    HW1 5690   3.983   6.376   6.610
 1597SOL    HW2 5691   3.832   6.321   6.580
 1598SOL     OW 5692   1.896   5.274   0.262
 1598SOL    HW1 5693   1.956   5.212   0.211
 1598SOL    HW2 5694   1.911   5.263   0.360
 1599SOL     OW 5695   4.723   5.254   3.582
 1599SOL    HW1 5696   4.779   5.174   3.561
 1599SOL    HW2 5697   4.631   5.242   3.544
 1600SOL     OW 5698   4.640   7.009   2.530
 1600SOL    HW1 5699   4.542   6.996   2.550
 1600SOL    HW2 5700   4.650   0.048   2.451
 1601SOL     OW 5701   6.533   6.750   4.461
 1601SOL    HW1 5702   6.576   6.733   4.549
 1601SOL    HW2 5703   6.602   6.787   4.397
 1602SOL     OW 5704   3.866   5.032   3.635
 1602SOL    HW1 5705   3.813   4.966   3.688
 1602SOL    HW2 5706   3.940   5.068   3.691
 1603SOL     OW 5707   3.077   5.543   2.671
 1603SOL    HW1 5708   3.048   5.508   2.581
 1603SOL    HW2 5709   3.075   5.469   2.738
 1604SOL     OW 5710   4.227   5.400   2.233
 1604SOL    HW1 5711   4.195   5.322   2.287
 1604SOL    HW2 5712   4.325   5.389   2.214
 1605SOL     OW 5713   4.439   5.498   0.859
 1605SOL    HW1 5714   4.460   5.451   0.944
 1605SOL    HW2 5715   4.512   5.563   0.837
 1606SOL     OW 5716   3.812   6.426   4.740
 1606SOL    HW1 5717   3.720   6.399   4.713
 1606SOL    HW2 5718   3.815   6.440   4.839
 1607SOL     OW 5719   4.551   6.082   2.815
 1607SOL    HW1 5720   4.566   6.153   2.884
 1607SOL    HW2 5721   4.633   6.072   2.759
 1608SOL     OW 5722   5.907   0.907   3.180
 1608SOL    HW1 5723   5.905   0.824   3.125
 1608SOL    HW2 5724   5.845   0.898   3.257
 1609SOL     OW 5725   3.592   6.417   0.018
 1609SOL    HW1 5726   3.640   6.353   6.979
 1609SOL    HW2 5727   3.657   6.461   0.080
 1610SOL     OW 5728   5.315   0.242   0.648
 1610SOL    HW1 5729   5.391   0.185   0.615
 1610SOL    HW2 5730   5.232   0.216   0.600
 1611SOL     OW 5731   1.054   4.076   1.588
 1611SOL    HW1 5732   1.015   4.069   1.680
 1611SOL    HW2 5733   1.045   3.989   1.541
 1612SOL     OW 5734   3.970   6.767   2.067
 1612SOL    HW1 5735   3.936   6.853   2.030
 1612SOL    HW2 5736   3.907   6.693   2.044
 1613SOL     OW 5737   0.055   5.395   2.329
 1613SOL    HW1 5738   0.041   5.488   2.364
 1613SOL    HW2 5739   7.013   5.378   2.253
 1614SOL     OW 5740   6.609   2.115   6.091
 1614SOL    HW1 5741   6.613   2.162   6.179
 1614SOL    HW2 5742   6.586   2.019   6.106
 1615SOL     OW 5743   1.242   4.867   6.212
 1615SOL    HW1 5744   1.307   4.839   6.142
 1615SOL    HW2 5745   1.249   4.966   6.226
 1616SOL     OW 5746   2.406   1.406   4.594
 1616SOL    HW1 5747   2.465   1.469   4.645
 1616SOL    HW2 5748   2.404   1.432   4.497
 1617SOL     OW 5749   5.558   6.118   3.311
 1617SOL    HW1 5750   5.647   6.114   3.357
 1617SOL    HW2 5751   5.491   6.158   3.372
 1618SOL     OW 5752   2.943   5.089   2.879
 1618SOL    HW1 5753   2.907   5.151   2.809
 1618SOL    HW2 5754   2.965   5.140   2.962
 1619SOL     OW 5755   1.260   5.151   6.687
 1619SOL    HW1 5756   1.210   5.233   6.716
 1619SOL    HW2 5757   1.327   5.176   6.618
 1620SOL     OW 5758   3.797   5.432   6.317
 1620SOL    HW1 5759   3.871   5.423   6.251
 1620SOL    HW2 5760   3.710   5.407   6.275
 1621SOL     OW 5761   5.038   6.403   0.859
 1621SOL    HW1 5762   5.088   6.441   0.937
 1621SOL    HW2 5763   4.951   6.364   0.891
 1622SOL     OW 5764   0.097   4.229   4.098
 1622SOL    HW1 5765   0.125   4.252   4.005
 1622SOL    HW2 5766   0.023   4.290   4.127
 1623SOL     OW 5767   0.671   1.882   3.818
 1623SOL    HW1 5768   0.687   1.855   3.723
 1623SOL    HW2 5769   0.587   1.937   3.823
 1624SOL     OW 5770   4.229   1.597   0.883
 1624SOL    HW1 5771   4.292   1.668   0.915
 1624SOL    HW2 5772   4.265   1.556   0.799
 1625SOL     OW 5773   0.982   5.557   0.979
 1625SOL    HW1 5774   0.901   5.508   1.010
 1625SOL    HW2 5775   1.055   5.546   1.046
 1626SOL     OW 5776   2.913   1.832   1.106
 1626SOL    HW1 5777   2.838   1.790   1.157
 1626SOL    HW2 5778   2.998   1.824   1.160
 1627SOL     OW 5779   4.246   1.711   4.251
 1627SOL    HW1 5780   4.237   1.650   4.331
 1627SOL    HW2 5781   4.156   1.744   4.224
 1628SOL     OW 5782   5.176   6.670   0.281
 1628SOL    HW1 5783   5.099   6.661   0.344
 1628SOL    HW2 5784   5.160   6.613   0.200
 1629SOL     OW 5785   1.886   0.970   3.645
 1629SOL    HW1 5786   1.827   0.898   3.611
 1629SOL    HW2 5787   1.958   0.989   3.577
 1630SOL     OW 5788   0.242   3.255   0.045
 1630SOL    HW1 5789   0.143   3.267   0.037
 1630SOL    HW2 5790   0.283   3.337   0.083
 1631SOL     OW 5791   6.858   3.037   0.382
 1631SOL    HW1 5792   6.850   3.104   0.456
 1631SOL    HW2 5793   6.901   2.954   0.417
 1632SOL     OW 5794   6.731   4.614   2.701
 1632SOL    HW1 5795   6.686   4.574   2.620
 1632SOL    HW2 5796   6.731   4.713   2.693
 1633SOL     OW 5797   5.180   3.257   4.149
 1633SOL    HW1 5798   5.268   3.288   4.183
 1633SOL    HW2 5799   5.173   3.158   4.161
 1634SOL     OW 5800   5.568   0.763   4.503
 1634SOL    HW1 5801   5.468   0.769   4.505
 1634SOL    HW2 5802   5.602   0.726   4.589
 1635SOL     OW 5803   3.423   5.676   4.013
 1635SOL    HW1 5804   3.417   5.604   4.082
 1635SOL    HW2 5805   3.500   5.656   3.951
 1636SOL     OW 5806   5.803   6.521   1.265
 1636SOL    HW1 5807   5.720   6.540   1.212
 1636SOL    HW2 5808   5.881   6.514   1.203
 1637SOL     OW 5809   0.421   0.076   2.262
 1637SOL    HW1 5810   0.365   7.017   2.283
 1637SOL    HW2 5811   0.374   0.159   2.295
 1638SOL     OW 5812   6.792   2.959   2.186
 1638SOL    HW1 5813   6.879   2.952   2.235
 1638SOL    HW2 5814   6.738   2.876   2.203
 1639SOL     OW 5815   5.125   2.551   2.699
 1639SOL    HW1 5816   5.199   2.545   2.631
 1639SOL    HW2 5817   5.037   2.543   2.653
 1640SOL     OW 5818   6.077   0.281   0.006
 1640SOL    HW1 5819   5.996   0.309   0.058
 1640SOL    HW2 5820   6.064   0.187   6.995
 1641SOL     OW 5821   6.432   2.512   2.978
 1641SOL    HW1 5822   6.519   2.471   2.951
 1641SOL    HW2 5823   6.357   2.451   2.952
 1642SOL     OW 5824   5.863   2.114   5.677
 1642SOL    HW1 5825   5.773   2.119   5.720
 1642SOL    HW2 5826   5.909   2.031   5.707
 1643SOL     OW 5827   2.634   5.570   3.747
 1643SOL    HW1 5828   2.609   5.602   3.838
 1643SOL    HW2 5829   2.714   5.510   3.752
 1644SOL     OW 5830   6.014   3.060   1.091
 1644SOL    HW1 5831   5.951   3.051   1.168
 1644SOL    HW2 5832   6.109   3.054   1.124
 1645SOL     OW 5833   1.905   1.003   5.598
 1645SOL    HW1 5834   1.835   1.033   5.663
 1645SOL    HW2 5835   1.951   0.922   5.634
 1646SOL     OW 5836   1.200   5.621   1.212
 1646SOL    HW1 5837   1.223   5.717   1.222
 1646SOL    HW2 5838   1.130   5.596   1.279
 1647SOL     OW 5839   5.839   2.940   4.158
 1647SOL    HW1 5840   5.852   2.985   4.246
 1647SOL    HW2 5841   5.765   2.873   4.166
 1648SOL     OW 5842   5.409   6.344   1.171
 1648SOL    HW1 5843   5.372   6.434   1.149
 1648SOL    HW2 5844   5.378   6.317   1.263
 1649SOL     OW 5845   3.206   6.873   3.735
 1649SOL    HW1 5846   3.164   6.946   3.789
 1649SOL    HW2 5847   3.306   6.881   3.740
 1650SOL     OW 5848   2.911   4.557   6.318
 1650SOL    HW1 5849   2.988   4.537   6.379
 1650SOL    HW2 5850   2.918   4.651   6.286
 1651SOL     OW 5851   1.255   3.009   3.815
 1651SOL    HW1 5852   1.224   3.083   3.875
 1651SOL    HW2 5853   1.327   2.957   3.861
 1652SOL     OW 5854   0.660   2.583   1.268
 1652SOL    HW1 5855   0.696   2.676   1.259
 1652SOL    HW2 5856   0.571   2.586   1.311
 1653SOL     OW 5857   6.811   4.769   3.871
 1653SOL    HW1 5858   6.863   4.745   3.953
 1653SOL    HW2 5859   6.737   4.702   3.858
 1654SOL     OW 5860   0.584   3.140   2.079
 1654SOL    HW1 5861   0.682   3.160   2.093
 1654SOL    HW2 5862   0.530   3.204   2.133
 1655SOL     OW 5863   0.353   6.692   4.581
 1655SOL    HW1 5864   0.260   6.655   4.583
 1655SOL    HW2 5865   0.367   6.743   4.495
 1656SOL     OW 5866   1.728   4.760   4.063
 1656SOL    HW1 5867   1.802   4.733   4.125
 1656SOL    HW2 5868   1.643   4.717   4.092
 1657SOL     OW 5869   1.188   6.945   5.000
 1657SOL    HW1 5870   1.116   7.012   5.018
 1657SOL    HW2 5871   1.240   6.930   5.084
 1658SOL     OW 5872   6.307   0.176   6.803
 1658SOL    HW1 5873   6.380   0.124   6.847
 1658SOL    HW2 5874   6.346   0.242   6.739
 1659SOL     OW 5875   4.867   6.663   6.431
 1659SOL    HW1 5876   4.786   6.691   6.379
 1659SOL    HW2 5877   4.907   6.743   6.477
 1660SOL     OW 5878   2.161   0.139   2.039
 1660SOL    HW1 5879   2.089   0.189   1.991
 1660SOL    HW2 5880   2.169   0.174   2.132
 1661SOL     OW 5881   4.259   4.700   2.790
 1661SOL    HW1 5882   4.214   4.729   2.705
 1661SOL    HW2 5883   4.218   4.749   2.867
 1662SOL     OW 5884   0.235   1.139   5.195
 1662SOL    HW1 5885   0.189   1.058   5.231
 1662SOL    HW2 5886   0.333   1.122   5.190
 1663SOL     OW 5887   4.263   5.020   1.013
 1663SOL    HW1 5888   4.216   5.081   1.076
 1663SOL    HW2 5889   4.295   5.072   0.934
 1664SOL     OW 5890   1.364   0.002   5.370
 1664SOL    HW1 5891   1.349   0.025   5.466
 1664SOL    HW2 5892   1.310   0.063   5.313
 1665SOL     OW 5893   1.968   3.703   0.087
 1665SOL    HW1 5894   2.033   3.778   0.103
 1665SOL    HW2 5895   1.976   3.672   7.012
 1666SOL     OW 5896   5.829   6.800   6.022
 1666SOL    HW1 5897   5.928   6.799   6.011
 1666SOL    HW2 5898   5.794   6.706   6.016
 1667SOL     OW 5899   1.021   6.300   1.151
 1667SOL    HW1 5900   1.015   6.385   1.098
 1667SOL    HW2 5901   1.096   6.244   1.114
 1668SOL     OW 5902   5.695   4.385   3.287
 1668SOL    HW1 5903   5.726   4.361   3.195
 1668SOL    HW2 5904   5.761   4.352   3.354
 1669SOL     OW 5905   6.200   3.714   5.487
 1669SOL    HW1 5906   6.256   3.795   5.508
 1669SOL    HW2 5907   6.242   3.633   5.529
 1670SOL     OW 5908   1.980   4.850   5.618
 1670SOL    HW1 5909   1.909   4.919   5.625
 1670SOL    HW2 5910   2.070   4.894   5.613
 1671SOL     OW 5911   5.932   1.901   1.143
 1671SOL    HW1 5912   6.017   1.955   1.143
 1671SOL    HW2 5913   5.953   1.806   1.122
 1672SOL     OW 5914   1.063   3.335   6.712
 1672SOL    HW1 5915   0.983   3.303   6.763
 1672SOL    HW2 5916   1.138   3.353   6.776
 1673SOL     OW 5917   2.545   1.561   4.769
 1673SOL    HW1 5918   2.539   1.528   4.863
 1673SOL    HW2 5919   2.508   1.654   4.763
 1674SOL     OW 5920   4.618   2.070   3.270
 1674SOL    HW1 5921   4.667   2.152   3.300
 1674SOL    HW2 5922   4.613   2.068   3.170
 1675SOL     OW 5923   5.409   0.660   0.844
 1675SOL    HW1 5924   5.404   0.578   0.786
 1675SOL    HW2 5925   5.493   0.710   0.824
 1676SOL     OW 5926   1.576   1.331   3.036
 1676SOL    HW1 5927   1.547   1.237   3.053
 1676SOL    HW2 5928   1.534   1.392   3.103
 1677SOL     OW 5929   3.766   4.130   3.643
 1677SOL    HW1 5930   3.831   4.092   3.708
 1677SOL    HW2 5931   3.680   4.152   3.691
 1678SOL     OW 5932   0.954   0.102   0.639
 1678SOL    HW1 5933   0.931   0.014   0.599
 1678SOL    HW2 5934   0.969   0.091   0.738
 1679SOL     OW 5935   1.477   2.208   5.541
 1679SOL    HW1 5936   1.427   2.184   5.625
 1679SOL    HW2 5937   1.548   2.140   5.525
 1680SOL     OW 5938   4.914   2.477   3.665
 1680SOL    HW1 5939   4.891   2.559   3.717
 1680SOL    HW2 5940   4.862   2.399   3.701
 1681SOL     OW 5941   1.913   6.075   4.025
 1681SOL    HW1 5942   1.874   6.167   4.020
 1681SOL    HW2 5943   1.966   6.057   3.942
 1682SOL     OW 5944   3.014   0.191   5.148
 1682SOL    HW1 5945   2.986   0.191   5.244
 1682SOL    HW2 5946   3.083   0.119   5.134
 1683SOL     OW 5947   6.124   5.094   2.372
 1683SOL    HW1 5948   6.032   5.057   2.363
 1683SOL    HW2 5949   6.137   5.130   2.464
 1684SOL     OW 5950   2.635   4.388   1.669
 1684SOL    HW1 5951   2.583   4.311   1.705
 1684SOL    HW2 5952   2.724   4.393   1.715
 1685SOL     OW 5953   0.602   0.851   5.367
 1685SOL    HW1 5954   0.633   0.777   5.426
 1685SOL    HW2 5955   0.557   0.922   5.423
 1686SOL     OW 5956   4.902   5.867   3.119
 1686SOL    HW1 5957   4.900   5.772   3.152
 1686SOL    HW2 5958   4.974   5.876   3.050
 1687SOL     OW 5959   6.142   3.643   2.944
 1687SOL    HW1 5960   6.115   3.739   2.949
 1687SOL    HW2 5961   6.085   3.596   2.877
 1688SOL     OW 5962   2.063   1.800   3.716
 1688SOL    HW1 5963   2.107   1.744   3.646
 1688SOL    HW2 5964   2.130   1.861   3.758
 1689SOL     OW 5965   5.233   0.647   1.412
 1689SOL    HW1 5966   5.163   0.641   1.483
 1689SOL    HW2 5967   5.320   0.673   1.453
 1690SOL     OW 5968   0.671   4.089   4.357
 1690SOL    HW1 5969   0.581   4.070   4.397
 1690SOL    HW2 5970   0.737   4.021   4.390
 1691SOL     OW 5971   4.632   2.967   5.295
 1691SOL    HW1 5972   4.680   2.931   5.376
 1691SOL    HW2 5973   4.538   2.991   5.320
 1692SOL     OW 5974   5.792   5.464   1.216
 1692SOL    HW1 5975   5.770   5.493   1.309
 1692SOL    HW2 5976   5.793   5.364   1.211
 1693SOL     OW 5977   5.493   0.025   5.119
 1693SOL    HW1 5978   5.525   0.046   5.211
 1693SOL    HW2 5979   5.398   7.014   5.123
 1694SOL     OW 5980   4.737   1.027   5.487
 1694SOL    HW1 5981   4.818   0.979   5.522
 1694SOL    HW2 5982   4.656   0.997   5.537
 1695SOL     OW 5983   4.033   0.872   6.341
 1695SOL    HW1 5984   4.025   0.773   6.325
 1695SOL    HW2 5985   3.959   0.920   6.294
 1696SOL     OW 5986   4.248   6.204   0.818
 1696SOL    HW1 5987   4.318   6.272   0.839
 1696SOL    HW2 5988   4.264   6.122   0.872
 1697SOL     OW 5989   6.011   2.419   1.785
 1697SOL    HW1 5990   5.997   2.378   1.875
 1697SOL    HW2 5991   6.051   2.510   1.795
 1698SOL     OW 5992   3.947   1.108   1.552
 1698SOL    HW1 5993   3.886   1.182   1.582
 1698SOL    HW2 5994   3.916   1.022   1.592
 1699SOL     OW 5995   2.554   0.347   0.167
 1699SOL    HW1 5996   2.503   0.399   0.098
 1699SOL    HW2 5997   2.538   0.250   0.154
 1700SOL     OW 5998   5.992   3.069   2.847
 1700SOL    HW1 5999   5.903   3.064   2.801
 1700SOL    HW2 6000   6.052   3.132   2.797
 1701SOL     OW 6001   0.183   5.652   4.385
 1701SOL    HW1 6002   0.219   5.569   4.343
 1701SOL    HW2 6003   0.146   5.631   4.475
 1702SOL     OW 6004   2.242   2.459   5.685
 1702SOL    HW1 6005   2.261   2.500   5.596
 1702SOL    HW2 6006   2.206   2.529   5.747
 1703SOL     OW 6007   3.325   2.083   0.687
 1703SOL    HW1 6008   3.337   2.093   0.588
 1703SOL    HW2 6009   3.227   2.087   0.709
 1704SOL     OW 6010   2.367   2.210   1.139
 1704SOL    HW1 6011   2.392   2.135   1.201
 1704SOL    HW2 6012   2.270   2.232   1.152
 1705SOL     OW 6013   4.080   1.880   0.727
 1705SOL    HW1 6014   3.980   1.877   0.717
 1705SOL    HW2 6015   4.120   1.802   0.680
 1706SOL     OW 6016   4.353   2.662   0.302
 1706SOL    HW1 6017   4.335   2.591   0.234
 1706SOL    HW2 6018   4.314   2.748   0.271
 1707SOL     OW 6019   4.517   2.138   2.164
 1707SOL    HW1 6020   4.438   2.083   2.136
 1707SOL    HW2 6021   4.536   2.121   2.261
 1708SOL     OW 6022   3.608   5.290   1.854
 1708SOL    HW1 6023   3.510   5.283   1.836
 1708SOL    HW2 6024   3.630   5.238   1.937
 1709SOL     OW 6025   4.501   5.407   0.403
 1709SOL    HW1 6026   4.494   5.354   0.487
 1709SOL    HW2 6027   4.585   5.382   0.354
 1710SOL     OW 6028   3.949   5.296   3.211
 1710SOL    HW1 6029   3.902   5.253   3.288
 1710SOL    HW2 6030   3.888   5.362   3.168
 1711SOL     OW 6031   3.753   4.731   6.165
 1711SOL    HW1 6032   3.814   4.653   6.152
 1711SOL    HW2 6033   3.693   4.714   6.244
 1712SOL     OW 6034   0.170   1.943   3.369
 1712SOL    HW1 6035   0.089   1.989   3.405
 1712SOL    HW2 6036   0.198   1.987   3.283
 1713SOL     OW 6037   3.980   0.680   3.122
 1713SOL    HW1 6038   4.034   0.624   3.059
 1713SOL    HW2 6039   4.019   0.772   3.126
 1714SOL     OW 6040   3.693   3.340   0.358
 1714SOL    HW1 6041   3.699   3.285   0.441
 1714SOL    HW2 6042   3.721   3.434   0.377
 1715SOL     OW 6043   1.521   6.817   2.749
 1715SOL    HW1 6044   1.532   6.801   2.651
 1715SOL    HW2 6045   1.611   6.819   2.793
 1716SOL     OW 6046   4.619   0.246   3.118
 1716SOL    HW1 6047   4.596   0.335   3.078
 1716SOL    HW2 6048   4.621   0.177   3.045
 1717SOL     OW 6049   3.762   6.237   5.172
 1717SOL    HW1 6050   3.749   6.182   5.254
 1717SOL    HW2 6051   3.677   6.239   5.119
 1718SOL     OW 6052   1.379   3.168   1.402
 1718SOL    HW1 6053   1.442   3.112   1.456
 1718SOL    HW2 6054   1.410   3.173   1.308
 1719SOL     OW 6055   1.320   5.253   2.013
 1719SOL    HW1 6056   1.335   5.304   1.928
 1719SOL    HW2 6057   1.409   5.225   2.050
 1720SOL     OW 6058   6.708   2.902   5.833
 1720SOL    HW1 6059   6.740   2.961   5.758
 1720SOL    HW2 6060   6.658   2.958   5.900
 1721SOL     OW 6061   2.246   1.803   0.952
 1721SOL    HW1 6062   2.325   1.790   1.012
 1721SOL    HW2 6063   2.194   1.717   0.946
 1722SOL     OW 6064   2.622   2.134   2.989
 1722SOL    HW1 6065   2.648   2.151   3.084
 1722SOL    HW2 6066   2.697   2.088   2.942
 1723SOL     OW 6067   5.316   2.882   0.062
 1723SOL    HW1 6068   5.256   2.945   0.112
 1723SOL    HW2 6069   5.273   2.858   6.995
 1724SOL     OW 6070   6.921   2.228   1.189
 1724SOL    HW1 6071   6.928   2.135   1.223
 1724SOL    HW2 6072   6.848   2.234   1.121
 1725SOL     OW 6073   1.579   5.866   0.362
 1725SOL    HW1 6074   1.491   5.858   0.316
 1725SOL    HW2 6075   1.574   5.821   0.452
 1726SOL     OW 6076   5.265   4.431   3.502
 1726SOL    HW1 6077   5.316   4.350   3.474
 1726SOL    HW2 6078   5.305   4.513   3.459
 1727SOL     OW 6079   3.319   2.986   3.124
 1727SOL    HW1 6080   3.233   3.006   3.077
 1727SOL    HW2 6081   3.300   2.967   3.220
 1728SOL     OW 6082   4.583   2.271   4.422
 1728SOL    HW1 6083   4.632   2.320   4.493
 1728SOL    HW2 6084   4.611   2.304   4.332
 1729SOL     OW 6085   1.750   3.772   2.255
 1729SOL    HW1 6086   1.681   3.725   2.310
 1729SOL    HW2 6087   1.802   3.835   2.313
 1730SOL     OW 6088   2.926   4.883   5.309
 1730SOL    HW1 6089   2.836   4.868   5.266
 1730SOL    HW2 6090   2.986   4.806   5.287
 1731SOL     OW 6091   5.934   4.331   3.920
 1731SOL    HW1 6092   5.971   4.322   4.012
 1731SOL    HW2 6093   5.983   4.404   3.872
 1732SOL     OW 6094   1.716   3.838   6.446
 1732SOL    HW1 6095   1.710   3.851   6.545
 1732SOL    HW2 6096   1.671   3.914   6.400
 1733SOL     OW 6097   2.660   3.963   6.943
 1733SOL    HW1 6098   2.602   3.952   6.863
 1733SOL    HW2 6099   2.655   3.880   6.999
 1734SOL     OW 6100   0.263   2.804   1.087
 1734SOL    HW1 6101   0.189   2.768   1.031
 1734SOL    HW2 6102   0.296   2.733   1.149
 1735SOL     OW 6103   3.961   5.011   5.670
 1735SOL    HW1 6104   3.888   4.980   5.732
 1735SOL    HW2 6105   3.924   5.027   5.579
 1736SOL     OW 6106   4.924   3.036   1.162
 1736SOL    HW1 6107   4.954   3.115   1.109
 1736SOL    HW2 6108   4.870   2.975   1.104
 1737SOL     OW 6109   4.472   1.514   5.340
 1737SOL    HW1 6110   4.527   1.447   5.389
 1737SOL    HW2 6111   4.516   1.604   5.345
 1738SOL     OW 6112   1.506   3.162   4.468
 1738SOL    HW1 6113   1.539   3.073   4.437
 1738SOL    HW2 6114   1.577   3.231   4.455
 1739SOL     OW 6115   5.486   0.189   4.371
 1739SOL    HW1 6116   5.562   0.176   4.434
 1739SOL    HW2 6117   5.473   0.287   4.355
 1740SOL     OW 6118   6.165   2.750   4.449
 1740SOL    HW1 6119   6.249   2.763   4.502
 1740SOL    HW2 6120   6.095   2.813   4.482
 1741SOL     OW 6121   1.152   2.207   4.644
 1741SOL    HW1 6122   1.224   2.154   4.600
 1741SOL    HW2 6123   1.076   2.147   4.669
 1742SOL     OW 6124   5.954   6.481   5.904
 1742SOL    HW1 6125   6.047   6.469   5.869
 1742SOL    HW2 6126   5.955   6.468   6.003
 1743SOL     OW 6127   1.649   0.756   3.141
 1743SOL    HW1 6128   1.572   0.692   3.147
 1743SOL    HW2 6129   1.632   0.833   3.202
 1744SOL     OW 6130   3.786   1.798   4.464
 1744SOL    HW1 6131   3.819   1.887   4.430
 1744SOL    HW2 6132   3.725   1.757   4.396
 1745SOL     OW 6133   6.681   6.920   1.677
 1745SOL    HW1 6134   6.607   6.852   1.679
 1745SOL    HW2 6135   6.766   6.877   1.708
 1746SOL     OW 6136   1.889   4.080   3.925
 1746SOL    HW1 6137   1.834   4.111   4.003
 1746SOL    HW2 6138   1.986   4.096   3.943
 1747SOL     OW 6139   4.119   6.980   2.533
 1747SOL    HW1 6140   4.079   6.889   2.524
 1747SOL    HW2 6141   4.045   0.027   2.542
 1748SOL     OW 6142   6.703   2.366   4.593
 1748SOL    HW1 6143   6.646   2.422   4.653
 1748SOL    HW2 6144   6.733   2.420   4.514
 1749SOL     OW 6145   1.619   4.877   0.952
 1749SOL    HW1 6146   1.717   4.874   0.971
 1749SOL    HW2 6147   1.585   4.784   0.937
 1750SOL     OW 6148   3.718   0.029   5.457
 1750SOL    HW1 6149   3.720   0.051   5.360
 1750SOL    HW2 6150   3.629   0.054   5.495
 1751SOL     OW 6151   5.436   2.921   5.224
 1751SOL    HW1 6152   5.444   2.872   5.311
 1751SOL    HW2 6153   5.339   2.929   5.199
 1752SOL     OW 6154   6.886   0.694   1.761
 1752SOL    HW1 6155   6.978   0.691   1.800
 1752SOL    HW2 6156   6.824   0.738   1.827
 1753SOL     OW 6157   6.347   1.479   1.495
 1753SOL    HW1 6158   6.365   1.577   1.504
 1753SOL    HW2 6159   6.417   1.438   1.436
 1754SOL     OW 6160   3.309   5.724   4.426
 1754SOL    HW1 6161   3.372   5.692   4.497
 1754SOL    HW2 6162   3.290   5.650   4.362
 1755SOL     OW 6163   6.608   6.649   4.712
 1755SOL    HW1 6164   6.604   6.672   4.809
 1755SOL    HW2 6165   6.702   6.629   4.686
 1756SOL     OW 6166   4.904   6.827   5.774
 1756SOL    HW1 6167   4.826   6.848   5.716
 1756SOL    HW2 6168   4.984   6.879   5.744
 1757SOL     OW 6169   2.262   4.712   5.250
 1757SOL    HW1 6170   2.243   4.659   5.333
 1757SOL    HW2 6171   2.236   4.658   5.170
 1758SOL     OW 6172   1.565   6.605   4.553
 1758SOL    HW1 6173   1.483   6.557   4.524
 1758SOL    HW2 6174   1.586   6.582   4.648
 1759SOL     OW 6175   1.691   6.908   0.136
 1759SOL    HW1 6176   1.600   6.901   0.177
 1759SOL    HW2 6177   1.696   6.852   0.054
 1760SOL     OW 6178   6.427   1.061   4.578
 1760SOL    HW1 6179   6.354   0.997   4.551
 1760SOL    HW2 6180   6.404   1.152   4.545
 1761SOL     OW 6181   6.222   1.511   2.103
 1761SOL    HW1 6182   6.264   1.599   2.085
 1761SOL    HW2 6183   6.122   1.520   2.102
 1762SOL     OW 6184   0.462   1.903   6.133
 1762SOL    HW1 6185   0.494   1.900   6.038
 1762SOL    HW2 6186   0.464   1.811   6.172
 1763SOL     OW 6187   0.949   3.345   4.308
 1763SOL    HW1 6188   0.995   3.432   4.293
 1763SOL    HW2 6189   0.898   3.349   4.394
 1764SOL     OW 6190   0.929   5.544   2.781
 1764SOL    HW1 6191   0.868   5.538   2.703
 1764SOL    HW2 6192   0.889   5.496   2.859
 1765SOL     OW 6193   5.450   3.170   2.482
 1765SOL    HW1 6194   5.538   3.187   2.438
 1765SOL    HW2 6195   5.376   3.205   2.425
 1766SOL     OW 6196   4.779   4.700   4.458
 1766SOL    HW1 6197   4.758   4.614   4.412
 1766SOL    HW2 6198   4.864   4.691   4.509
 1767SOL     OW 6199   1.027   4.683   2.469
 1767SOL    HW1 6200   1.069   4.720   2.386
 1767SOL    HW2 6201   0.938   4.645   2.447
 1768SOL     OW 6202   5.226   6.438   2.178
 1768SOL    HW1 6203   5.128   6.455   2.171
 1768SOL    HW2 6204   5.251   6.426   2.274
 1769SOL     OW 6205   4.793   0.380   6.911
 1769SOL    HW1 6206   4.827   0.419   6.826
 1769SOL    HW2 6207   4.863   0.388   6.982
 1770SOL     OW 6208   1.968   5.529   6.666
 1770SOL    HW1 6209   2.054   5.491   6.632
 1770SOL    HW2 6210   1.922   5.577   6.591
 1771SOL     OW 6211   1.190   3.661   5.863
 1771SOL    HW1 6212   1.255   3.656   5.938
 1771SOL    HW2 6213   1.219   3.599   5.790
 1772SOL     OW 6214   2.330   4.537   3.515
 1772SOL    HW1 6215   2.419   4.566   3.551
 1772SOL    HW2 6216   2.298   4.603   3.448
 1773SOL     OW 6217   1.004   6.792   5.469
 1773SOL    HW1 6218   0.941   6.755   5.537
 1773SOL    HW2 6219   1.006   6.892   5.476
 1774SOL     OW 6220   4.919   5.461   0.660
 1774SOL    HW1 6221   4.905   5.518   0.580
 1774SOL    HW2 6222   4.957   5.373   0.632
 1775SOL     OW 6223   2.325   5.514   6.277
 1775SOL    HW1 6224   2.309   5.551   6.185
 1775SOL    HW2 6225   2.356   5.419   6.269
 1776SOL     OW 6226   4.762   1.749   5.914
 1776SOL    HW1 6227   4.772   1.762   5.816
 1776SOL    HW2 6228   4.853   1.736   5.955
 1777SOL     OW 6229   5.016   6.253   6.438
 1777SOL    HW1 6230   5.057   6.339   6.407
 1777SOL    HW2 6231   4.917   6.258   6.431
 1778SOL     OW 6232   6.074   6.795   4.058
 1778SOL    HW1 6233   6.030   6.859   3.995
 1778SOL    HW2 6234   6.104   6.714   4.007
 1779SOL     OW 6235   5.938   5.948   4.175
 1779SOL    HW1 6236   5.977   6.014   4.111
 1779SOL    HW2 6237   5.863   5.991   4.225
 1780SOL     OW 6238   1.557   5.790   5.003
 1780SOL    HW1 6239   1.477   5.809   4.946
 1780SOL    HW2 6240   1.601   5.876   5.028
 1781SOL     OW 6241   4.178   0.833   4.104
 1781SOL    HW1 6242   4.096   0.877   4.068
 1781SOL    HW2 6243   4.180   0.737   4.076
 1782SOL     OW 6244   0.905   1.707   2.597
 1782SOL    HW1 6245   0.901   1.692   2.696
 1782SOL    HW2 6246   0.998   1.691   2.564
 1783SOL     OW 6247   2.278   4.004   6.729
 1783SOL    HW1 6248   2.286   4.069   6.653
 1783SOL    HW2 6249   2.220   4.044   6.800
 1784SOL     OW 6250   2.912   7.004   1.250
 1784SOL    HW1 6251   3.007   6.980   1.230
 1784SOL    HW2 6252   2.895   6.995   1.348
 1785SOL     OW 6253   1.337   6.530   4.465
 1785SOL    HW1 6254   1.344   6.435   4.435
 1785SOL    HW2 6255   1.247   6.567   4.439
 1786SOL     OW 6256   0.980   6.486   0.471
 1786SOL    HW1 6257   1.006   6.525   0.558
 1786SOL    HW2 6258   0.892   6.438   0.480
 1787SOL     OW 6259   2.623   3.679   6.158
 1787SOL    HW1 6260   2.708   3.627   6.153
 1787SOL    HW2 6261   2.583   3.669   6.249
 1788SOL     OW 6262   4.549   3.563   0.850
 1788SOL    HW1 6263   4.470   3.502   0.843
 1788SOL    HW2 6264   4.564   3.588   0.946
 1789SOL     OW 6265   5.923   4.043   2.052
 1789SOL    HW1 6266   6.019   4.062   2.074
 1789SOL    HW2 6267   5.897   3.954   2.089
 1790SOL     OW 6268   2.413   2.421   4.544
 1790SOL    HW1 6269   2.431   2.495   4.609
 1790SOL    HW2 6270   2.498   2.370   4.526
 1791SOL     OW 6271   5.018   6.672   3.155
 1791SOL    HW1 6272   4.981   6.656   3.246
 1791SOL    HW2 6273   5.063   6.761   3.152
 1792SOL     OW 6274   0.127   1.384   5.207
 1792SOL    HW1 6275   0.186   1.303   5.202
 1792SOL    HW2 6276   0.049   1.366   5.266
 1793SOL     OW 6277   6.954   1.556   6.210
 1793SOL    HW1 6278   6.965   1.544   6.111
 1793SOL    HW2 6279   7.001   1.482   6.257
 1794SOL     OW 6280   1.435   0.167   6.424
 1794SOL    HW1 6281   1.505   0.108   6.463
 1794SOL    HW2 6282   1.372   0.112   6.369
 1795SOL     OW 6283   6.318   4.074   1.315
 1795SOL    HW1 6284   6.380   4.017   1.369
 1795SOL    HW2 6285   6.230   4.082   1.362
 1796SOL     OW 6286   0.916   0.386   6.430
 1796SOL    HW1 6287   0.858   0.432   6.363
 1796SOL    HW2 6288   1.012   0.394   6.403
 1797SOL     OW 6289   2.122   5.211   5.919
 1797SOL    HW1 6290   2.068   5.203   6.002
 1797SOL    HW2 6291   2.159   5.303   5.911
 1798SOL     OW 6292   2.958   3.502   4.966
 1798SOL    HW1 6293   2.902   3.422   4.988
 1798SOL    HW2 6294   2.914   3.584   5.003
 1799SOL     OW 6295   3.515   1.663   0.830
 1799SOL    HW1 6296   3.580   1.621   0.766
 1799SOL    HW2 6297   3.517   1.614   0.917
 1800SOL     OW 6298   6.225   3.774   4.895
 1800SOL    HW1 6299   6.309   3.734   4.859
 1800SOL    HW2 6300   6.227   3.873   4.882
 1801SOL     OW 6301   1.453   1.415   2.627
 1801SOL    HW1 6302   1.461   1.441   2.531
 1801SOL    HW2 6303   1.533   1.361   2.653
 1802SOL     OW 6304   6.947   5.010   3.816
 1802SOL    HW1 6305   6.931   5.074   3.891
 1802SOL    HW2 6306   6.904   4.922   3.837
 1803SOL     OW 6307   0.661   6.541   3.187
 1803SOL    HW1 6308   0.674   6.514   3.282
 1803SOL    HW2 6309   0.748   6.573   3.149
 1804SOL     OW 6310   2.102   3.175   6.091
 1804SOL    HW1 6311   2.053   3.190   6.006
 1804SOL    HW2 6312   2.160   3.253   6.111
 1805SOL     OW 6313   7.016   5.724   6.390
 1805SOL    HW1 6314   0.013   5.780   6.309
 1805SOL    HW2 6315   6.938   5.761   6.440
 1806SOL     OW 6316   0.227   1.667   1.886
 1806SOL    HW1 6317   0.273   1.585   1.921
 1806SOL    HW2 6318   0.162   1.700   1.954
 1807SOL     OW 6319   0.168   2.815   2.625
 1807SOL    HW1 6320   0.071   2.839   2.628
 1807SOL    HW2 6321   0.196   2.804   2.529
 1808SOL     OW 6322   5.182   2.431   5.959
 1808SOL    HW1 6323   5.148   2.424   6.053
 1808SOL    HW2 6324   5.105   2.443   5.896
 1809SOL     OW 6325   4.360   0.728   5.528
 1809SOL    HW1 6326   4.343   0.657   5.459
 1809SOL    HW2 6327   4.459   0.740   5.540
 1810SOL     OW 6328   0.104   0.334   3.896
 1810SOL    HW1 6329   0.023   0.352   3.951
 1810SOL    HW2 6330   0.148   0.250   3.927
 1811SOL     OW 6331   4.193   5.688   1.514
 1811SOL    HW1 6332   4.250   5.619   1.470
 1811SOL    HW2 6333   4.202   5.680   1.614
 1812SOL     OW 6334   4.455   6.333   5.946
 1812SOL    HW1 6335   4.417   6.310   5.856
 1812SOL    HW2 6336   4.543   6.287   5.957
 1813SOL     OW 6337   4.629   4.289   2.769
 1813SOL    HW1 6338   4.562   4.362   2.769
 1813SOL    HW2 6339   4.657   4.270   2.674
 1814SOL     OW 6340   0.221   6.165   0.195
 1814SOL    HW1 6341   0.221   6.212   0.107
 1814SOL    HW2 6342   0.128   6.163   0.232
 1815SOL     OW 6343   5.860   6.269   1.406
 1815SOL    HW1 6344   5.859   6.350   1.347
 1815SOL    HW2 6345   5.904   6.194   1.358
 1816SOL     OW 6346   4.146   5.197   5.697
 1816SOL    HW1 6347   4.230   5.150   5.723
 1816SOL    HW2 6348   4.080   5.129   5.663
 1817SOL     OW 6349   0.493   1.710   3.600
 1817SOL    HW1 6350   0.443   1.771   3.662
 1817SOL    HW2 6351   0.588   1.740   3.592
 1818SOL     OW 6352   2.266   0.748   0.677
 1818SOL    HW1 6353   2.328   0.672   0.695
 1818SOL    HW2 6354   2.181   0.713   0.637
 1819SOL     OW 6355   1.940   4.684   3.778
 1819SOL    HW1 6356   1.878   4.751   3.819
 1819SOL    HW2 6357   2.024   4.679   3.831
 1820SOL     OW 6358   3.274   0.068   5.115
 1820SOL    HW1 6359   3.250   0.057   5.019
 1820SOL    HW2 6360   3.353   0.011   5.136
 1821SOL     OW 6361   2.861   2.164   2.790
 1821SOL    HW1 6362   2.869   2.172   2.690
 1821SOL    HW2 6363   2.950   2.182   2.832
 1822SOL     OW 6364   0.052   2.891   2.242
 1822SOL    HW1 6365   0.129   2.872   2.304
 1822SOL    HW2 6366   0.016   2.805   2.207
 1823SOL     OW 6367   3.946   5.832   2.168
 1823SOL    HW1 6368   4.044   5.813   2.162
 1823SOL    HW2 6369   3.903   5.816   2.079
 1824SOL     OW 6370   4.288   3.118   1.766
 1824SOL    HW1 6371   4.197   3.087   1.795
 1824SOL    HW2 6372   4.358   3.057   1.803
 1825SOL     OW 6373   1.742   1.830   5.021
 1825SOL    HW1 6374   1.727   1.734   5.045
 1825SOL    HW2 6375   1.838   1.843   4.997
 1826SOL     OW 6376   3.320   2.259   1.799
 1826SOL    HW1 6377   3.406   2.299   1.833
 1826SOL    HW2 6378   3.317   2.268   1.700
 1827SOL     OW 6379   5.718   4.855   0.852
 1827SOL    HW1 6380   5.816   4.873   0.845
 1827SOL    HW2 6381   5.668   4.942   0.852
 1828SOL     OW 6382   1.536   2.904   5.004
 1828SOL    HW1 6383   1.596   2.919   4.925
 1828SOL    HW2 6384   1.481   2.986   5.020
 1829SOL     OW 6385   3.972   0.325   2.986
 1829SOL    HW1 6386   4.002   0.262   2.915
 1829SOL    HW2 6387   4.047   0.389   3.008
 1830SOL     OW 6388   5.225   6.999   5.112
 1830SOL    HW1 6389   5.174   6.952   5.183
 1830SOL    HW2 6390   5.203   0.076   5.114
 1831SOL     OW 6391   4.048   5.343   1.375
 1831SOL    HW1 6392   4.068   5.335   1.277
 1831SOL    HW2 6393   3.949   5.349   1.388
 1832SOL     OW 6394   2.243   3.145   0.412
 1832SOL    HW1 6395   2.143   3.155   0.410
 1832SOL    HW2 6396   2.278   3.139   0.319
 1833SOL     OW 6397   5.480   0.636   0.440
 1833SOL    HW1 6398   5.426   0.720   0.445
 1833SOL    HW2 6399   5.435   0.564   0.492
 1834SOL     OW 6400   1.397   2.878   5.933
 1834SOL    HW1 6401   1.371   2.958   5.879
 1834SOL    HW2 6402   1.386   2.897   6.030
 1835SOL     OW 6403   6.817   6.365   1.339
 1835SOL    HW1 6404   6.834   6.316   1.254
 1835SOL    HW2 6405   6.901   6.408   1.371
 1836SOL     OW 6406   5.049   2.722   1.769
 1836SOL    HW1 6407   5.147   2.733   1.748
 1836SOL    HW2 6408   5.014   2.641   1.723
 1837SOL     OW 6409   3.330   2.653   6.200
 1837SOL    HW1 6410   3.323   2.692   6.108
 1837SOL    HW2 6411   3.264   2.580   6.210
 1838SOL     OW 6412   6.023   0.715   0.829
 1838SOL    HW1 6413   5.998   0.629   0.786
 1838SOL    HW2 6414   5.974   0.790   0.783
 1839SOL     OW 6415   6.943   1.086   0.029
 1839SOL    HW1 6416   6.901   1.176   0.016
 1839SOL    HW2 6417   0.020   1.091   0.006
 1840SOL     OW 6418   4.610   6.373   3.563
 1840SOL    HW1 6419   4.564   6.338   3.482
 1840SOL    HW2 6420   4.544   6.421   3.621
 1841SOL     OW 6421   1.991   0.351   1.972
 1841SOL    HW1 6422   1.946   0.337   2.061
 1841SOL    HW2 6423   1.924   0.382   1.905
 1842SOL     OW 6424   1.472   5.773   0.598
 1842SOL    HW1 6425   1.520   5.751   0.683
 1842SOL    HW2 6426   1.424   5.691   0.566
 1843SOL     OW 6427   2.573   1.397   5.026
 1843SOL    HW1 6428   2.582   1.485   5.072
 1843SOL    HW2 6429   2.661   1.350   5.025
 1844SOL     OW 6430   5.859   2.435   6.021
 1844SOL    HW1 6431   5.804   2.448   5.938
 1844SOL    HW2 6432   5.922   2.359   6.008
 1845SOL     OW 6433   1.428   1.466   3.237
 1845SOL    HW1 6434   1.488   1.468   3.317
 1845SOL    HW2 6435   1.336   1.438   3.265
 1846SOL     OW 6436   4.335   1.973   2.036
 1846SOL    HW1 6437   4.299   2.018   1.954
 1846SOL    HW2 6438   4.288   1.885   2.048
 1847SOL     OW 6439   1.854   5.595   5.281
 1847SOL    HW1 6440   1.833   5.514   5.336
 1847SOL    HW2 6441   1.949   5.622   5.297
 1848SOL     OW 6442   2.941   6.069   3.197
 1848SOL    HW1 6443   2.927   6.168   3.203
 1848SOL    HW2 6444   2.856   6.026   3.167
 1849SOL     OW 6445   5.015   2.956   1.912
 1849SOL    HW1 6446   5.017   2.858   1.891
 1849SOL    HW2 6447   4.920   2.987   1.914
 1850SOL     OW 6448   5.116   1.041   1.029
 1850SOL    HW1 6449   5.106   0.991   1.115
 1850SOL    HW2 6450   5.066   1.128   1.034
 1851SOL     OW 6451   0.477   4.548   5.338
 1851SOL    HW1 6452   0.400   4.584   5.287
 1851SOL    HW2 6453   0.521   4.475   5.286
 1852SOL     OW 6454   6.999   0.257   3.048
 1852SOL    HW1 6455   7.009   0.203   2.965
 1852SOL    HW2 6456   6.919   0.317   3.041
 1853SOL     OW 6457   0.171   2.779   5.286
 1853SOL    HW1 6458   0.120   2.797   5.371
 1853SOL    HW2 6459   0.250   2.721   5.306
 1854SOL     OW 6460   0.645   0.053   3.279
 1854SOL    HW1 6461   0.642   0.037   3.181
 1854SOL    HW2 6462   0.712   0.125   3.299
 1855SOL     OW 6463   4.743   2.827   4.310
 1855SOL    HW1 6464   4.658   2.795   4.268
 1855SOL    HW2 6465   4.780   2.755   4.369
 1856SOL     OW 6466   3.537   2.734   0.895
 1856SOL    HW1 6467   3.628   2.773   0.907
 1856SOL    HW2 6468   3.468   2.795   0.933
 1857SOL     OW 6469   4.175   1.656   0.561
 1857SOL    HW1 6470   4.274   1.675   0.564
 1857SOL    HW2 6471   4.159   1.560   0.582
 1858SOL     OW 6472   4.596   2.574   3.865
 1858SOL    HW1 6473   4.561   2.544   3.776
 1858SOL    HW2 6474   4.648   2.659   3.853
 1859SOL     OW 6475   6.604   1.917   4.202
 1859SOL    HW1 6476   6.582   1.892   4.296
 1859SOL    HW2 6477   6.525   1.961   4.160
 1860SOL     OW 6478   1.726   1.571   4.779
 1860SOL    HW1 6479   1.668   1.650   4.761
 1860SOL    HW2 6480   1.677   1.508   4.840
 1861SOL     OW 6481   6.550   6.848   3.880
 1861SOL    HW1 6482   6.638   6.894   3.894
 1861SOL    HW2 6483   6.488   6.907   3.830
 1862SOL     OW 6484   2.770   5.861   5.703
 1862SOL    HW1 6485   2.810   5.842   5.793
 1862SOL    HW2 6486   2.748   5.774   5.658
 1863SOL     OW 6487   6.980   2.843   0.565
 1863SOL    HW1 6488   0.026   2.770   0.550
 1863SOL    HW2 6489   6.985   2.873   0.661
 1864SOL     OW 6490   4.090   5.721   2.773
 1864SOL    HW1 6491   4.057   5.653   2.707
 1864SOL    HW2 6492   4.112   5.676   2.859
 1865SOL     OW 6493   5.910   1.204   5.629
 1865SOL    HW1 6494   5.988   1.266   5.625
 1865SOL    HW2 6495   5.941   1.111   5.649
 1866SOL     OW 6496   0.882   4.972   3.639
 1866SOL    HW1 6497   0.887   4.888   3.693
 1866SOL    HW2 6498   0.898   5.051   3.698
 1867SOL     OW 6499   1.635   2.313   1.513
 1867SOL    HW1 6500   1.567   2.241   1.524
 1867SOL    HW2 6501   1.705   2.303   1.584
 1868SOL     OW 6502   5.708   3.743   5.968
 1868SOL    HW1 6503   5.720   3.806   5.891
 1868SOL    HW2 6504   5.639   3.674   5.944
 1869SOL     OW 6505   3.998   1.275   3.818
 1869SOL    HW1 6506   3.916   1.257   3.871
 1869SOL    HW2 6507   4.038   1.363   3.847
 1870SOL     OW 6508   0.024   6.013   4.565
 1870SOL    HW1 6509   0.023   5.926   4.516
 1870SOL    HW2 6510   0.065   6.000   4.656
 1871SOL     OW 6511   0.555   6.522   6.845
 1871SOL    HW1 6512   0.548   6.583   6.924
 1871SOL    HW2 6513   0.463   6.505   6.808
 1872SOL     OW 6514   2.842   2.619   1.625
 1872SOL    HW1 6515   2.896   2.574   1.696
 1872SOL    HW2 6516   2.897   2.692   1.584
 1873SOL     OW 6517   6.879   1.231   0.988
 1873SOL    HW1 6518   6.859   1.254   0.892
 1873SOL    HW2 6519   6.833   1.145   1.011
 1874SOL     OW 6520   0.469   5.455   0.081
 1874SOL    HW1 6521   0.509   5.412   0.162
 1874SOL    HW2 6522   0.378   5.490   0.104
 1875SOL     OW 6523   6.652   5.204   0.043
 1875SOL    HW1 6524   6.661   5.282   0.105
 1875SOL    HW2 6525   6.558   5.172   0.043
 1876SOL     OW 6526   0.364   5.953   0.352
 1876SOL    HW1 6527   0.453   5.957   0.397
 1876SOL    HW2 6528   0.359   6.025   0.282
 1877SOL     OW 6529   1.044   1.412   3.217
 1877SOL    HW1 6530   1.070   1.362   3.134
 1877SOL    HW2 6531   0.967   1.366   3.261
 1878SOL     OW 6532   6.440   3.609   3.814
 1878SOL    HW1 6533   6.469   3.701   3.791
 1878SOL    HW2 6534   6.391   3.569   3.736
 1879SOL     OW 6535   4.570   5.999   5.039
 1879SOL    HW1 6536   4.571   5.953   4.950
 1879SOL    HW2 6537   4.654   5.979   5.089
 1880SOL     OW 6538   6.831   1.968   4.073
 1880SOL    HW1 6539   6.896   1.892   4.069
 1880SOL    HW2 6540   6.750   1.940   4.125
 1881SOL     OW 6541   1.581   1.459   4.253
 1881SOL    HW1 6542   1.488   1.471   4.286
 1881SOL    HW2 6543   1.581   1.399   4.172
 1882SOL     OW 6544   1.806   5.852   0.173
 1882SOL    HW1 6545   1.847   5.761   0.169
 1882SOL    HW2 6546   1.727   5.850   0.235
 1883SOL     OW 6547   1.791   3.182   2.300
 1883SOL    HW1 6548   1.756   3.133   2.220
 1883SOL    HW2 6549   1.875   3.138   2.332
 1884SOL     OW 6550   3.329   1.457   6.912
 1884SOL    HW1 6551   3.327   1.480   6.815
 1884SOL    HW2 6552   3.274   1.374   6.928
 1885SOL     OW 6553   0.363   2.329   1.408
 1885SOL    HW1 6554   0.371   2.429   1.407
 1885SOL    HW2 6555   0.454   2.288   1.411
 1886SOL     OW 6556   2.862   2.278   6.117
 1886SOL    HW1 6557   2.896   2.294   6.209
 1886SOL    HW2 6558   2.934   2.240   6.060
 1887SOL     OW 6559   0.411   6.808   5.894
 1887SOL    HW1 6560   0.325   6.835   5.852
 1887SOL    HW2 6561   0.426   6.861   5.977
 1888SOL     OW 6562   2.135   1.952   5.839
 1888SOL    HW1 6563   2.121   2.045   5.806
 1888SOL    HW2 6564   2.215   1.912   5.794
 1889SOL     OW 6565   3.448   2.798   0.447
 1889SOL    HW1 6566   3.402   2.752   0.523
 1889SOL    HW2 6567   3.430   2.896   0.451
 1890SOL     OW 6568   6.365   5.842   6.488
 1890SOL    HW1 6569   6.407   5.850   6.398
 1890SOL    HW2 6570   6.306   5.761   6.490
 1891SOL     OW 6571   5.956   4.173   5.627
 1891SOL    HW1 6572   5.972   4.074   5.630
 1891SOL    HW2 6573   5.918   4.204   5.714
 1892SOL     OW 6574   4.014   6.160   1.925
 1892SOL    HW1 6575   4.014   6.066   1.891
 1892SOL    HW2 6576   3.983   6.161   2.020
 1893SOL     OW 6577   3.382   1.714   5.006
 1893SOL    HW1 6578   3.354   1.797   4.957
 1893SOL    HW2 6579   3.435   1.739   5.087
 1894SOL     OW 6580   4.073   3.934   0.909
 1894SOL    HW1 6581   4.143   3.873   0.871
 1894SOL    HW2 6582   4.015   3.882   0.972
 1895SOL     OW 6583   5.297   0.492   2.974
 1895SOL    HW1 6584   5.334   0.439   2.897
 1895SOL    HW2 6585   5.371   0.522   3.033
 1896SOL     OW 6586   6.598   1.160   5.957
 1896SOL    HW1 6587   6.519   1.135   6.013
 1896SOL    HW2 6588   6.593   1.257   5.933
 1897SOL     OW 6589   6.029   4.809   3.514
 1897SOL    HW1 6590   6.023   4.844   3.421
 1897SOL    HW2 6591   6.004   4.881   3.579
 1898SOL     OW 6592   5.886   6.081   6.911
 1898SOL    HW1 6593   5.970   6.052   6.957
 1898SOL    HW2 6594   5.813   6.091   6.978
 1899SOL     OW 6595   0.780   2.981   3.148
 1899SOL    HW1 6596   0.847   2.910   3.172
 1899SOL    HW2 6597   0.711   2.988   3.220
 1900SOL     OW 6598   2.324   6.353   0.826
 1900SOL    HW1 6599   2.411   6.404   0.830
 1900SOL    HW2 6600   2.314   6.313   0.735
 1901SOL     OW 6601   1.534   1.678   6.907
 1901SOL    HW1 6602   1.483   1.763   6.899
 1901SOL    HW2 6603   1.555   1.642   6.816
 1902SOL     OW 6604   1.898   2.785   5.401
 1902SOL    HW1 6605   1.865   2.694   5.426
 1902SOL    HW2 6606   1.827   2.832   5.348
 1903SOL     OW 6607   6.600   3.340   3.687
 1903SOL    HW1 6608   6.567   3.277   3.758
 1903SOL    HW2 6609   6.572   3.434   3.710
 1904SOL     OW 6610   0.364   6.771   4.328
 1904SOL    HW1 6611   0.278   6.765   4.278
 1904SOL    HW2 6612   0.438   6.795   4.265
 1905SOL     OW 6613   6.556   2.665   4.570
 1905SOL    HW1 6614   6.485   2.732   4.590
 1905SOL    HW2 6615   6.582   2.618   4.654
 1906SOL     OW 6616   2.713   0.064   0.280
 1906SOL    HW1 6617   2.627   0.045   0.234
 1906SOL    HW2 6618   2.698   0.129   0.354
 1907SOL     OW 6619   3.384   6.173   3.107
 1907SOL    HW1 6620   3.416   6.086   3.145
 1907SOL    HW2 6621   3.382   6.241   3.180
 1908SOL     OW 6622   5.014   1.393   6.908
 1908SOL    HW1 6623   5.035   1.296   6.920
 1908SOL    HW2 6624   4.928   1.415   6.953
 1909SOL     OW 6625   3.914   5.308   4.362
 1909SOL    HW1 6626   3.971   5.234   4.397
 1909SOL    HW2 6627   3.847   5.272   4.297
 1910SOL     OW 6628   5.009   2.313   5.194
 1910SOL    HW1 6629   5.085   2.248   5.184
 1910SOL    HW2 6630   4.935   2.270   5.246
 1911SOL     OW 6631   6.657   3.656   6.008
 1911SOL    HW1 6632   6.607   3.742   6.015
 1911SOL    HW2 6633   6.722   3.649   6.083
 1912SOL     OW 6634   3.695   6.175   3.670
 1912SOL    HW1 6635   3.794   6.181   3.664
 1912SOL    HW2 6636   3.669   6.105   3.736
 1913SOL     OW 6637   1.542   4.231   5.366
 1913SOL    HW1 6638   1.589   4.157   5.415
 1913SOL    HW2 6639   1.610   4.292   5.325
 1914SOL     OW 6640   4.110   1.595   5.618
 1914SOL    HW1 6641   4.023   1.578   5.573
 1914SOL    HW2 6642   4.109   1.556   5.710
 1915SOL     OW 6643   3.302   0.359   5.153
 1915SOL    HW1 6644   3.247   0.276   5.163
 1915SOL    HW2 6645   3.386   0.349   5.206
 1916SOL     OW 6646   4.271   6.852   1.471
 1916SOL    HW1 6647   4.219   6.867   1.387
 1916SOL    HW2 6648   4.214   6.805   1.538
 1917SOL     OW 6649   3.199   2.949   3.816
 1917SOL    HW1 6650   3.110   2.962   3.859
 1917SOL    HW2 6651   3.239   3.038   3.792
 1918SOL     OW 6652   6.077   6.745   3.662
 1918SOL    HW1 6653   6.054   6.810   3.734
 1918SOL    HW2 6654   6.012   6.669   3.664
 1919SOL     OW 6655   6.712   6.837   2.024
 1919SOL    HW1 6656   6.789   6.838   2.087
 1919SOL    HW2 6657   6.691   6.930   1.995
 1920SOL     OW 6658   0.039   5.825   4.214
 1920SOL    HW1 6659   6.963   5.819   4.242
 1920SOL    HW2 6660   0.091   5.754   4.260
 1921SOL     OW 6661   1.021   6.552   6.431
 1921SOL    HW1 6662   0.975   6.638   6.405
 1921SOL    HW2 6663   1.063   6.511   6.350
 1922SOL     OW 6664   3.451   4.662   0.841
 1922SOL    HW1 6665   3.447   4.675   0.742
 1922SOL    HW2 6666   3.497   4.740   0.883
 1923SOL     OW 6667   1.769   1.902   0.924
 1923SOL    HW1 6668   1.851   1.916   0.980
 1923SOL    HW2 6669   1.733   1.990   0.894
 1924SOL     OW 6670   1.106   4.469   1.666
 1924SOL    HW1 6671   1.158   4.538   1.616
 1924SOL    HW2 6672   1.033   4.433   1.608
 1925SOL     OW 6673   3.081   4.347   0.704
 1925SOL    HW1 6674   3.013   4.356   0.778
 1925SOL    HW2 6675   3.048   4.394   0.623
 1926SOL     OW 6676   0.546   0.099   3.537
 1926SOL    HW1 6677   0.552   0.111   3.438
 1926SOL    HW2 6678   0.637   0.105   3.577
 1927SOL     OW 6679   4.133   3.258   0.011
 1927SOL    HW1 6680   4.089   3.291   6.948
 1927SOL    HW2 6681   4.073   3.193   0.057
 1928SOL     OW 6682   6.261   4.579   5.410
 1928SOL    HW1 6683   6.168   4.613   5.401
 1928SOL    HW2 6684   6.307   4.583   5.321
 1929SOL     OW 6685   1.246   6.857   2.781
 1929SOL    HW1 6686   1.345   6.839   2.783
 1929SOL    HW2 6687   1.230   6.954   2.801
 1930SOL     OW 6688   5.569   4.067   6.627
 1930SOL    HW1 6689   5.607   4.157   6.647
 1930SOL    HW2 6690   5.642   4.004   6.603
 1931SOL     OW 6691   0.882   2.357   5.238
 1931SOL    HW1 6692   0.937   2.314   5.309
 1931SOL    HW2 6693   0.785   2.339   5.256
 1932SOL     OW 6694   5.880   3.278   1.638
 1932SOL    HW1 6695   5.820   3.208   1.676
 1932SOL    HW2 6696   5.890   3.262   1.540
 1933SOL     OW 6697   3.056   4.234   1.412
 1933SOL    HW1 6698   3.009   4.309   1.366
 1933SOL    HW2 6699   3.013   4.217   1.501
 1934SOL     OW 6700   0.732   5.652   4.890
 1934SOL    HW1 6701   0.821   5.624   4.926
 1934SOL    HW2 6702   0.669   5.574   4.893
 1935SOL     OW 6703   2.332   0.815   3.524
 1935SOL    HW1 6704   2.249   0.871   3.521
 1935SOL    HW2 6705   2.314   0.729   3.572
 1936SOL     OW 6706   6.327   5.617   5.430
 1936SOL    HW1 6707   6.411   5.621   5.484
 1936SOL    HW2 6708   6.319   5.527   5.387
 1937SOL     OW 6709   4.136   0.184   2.098
 1937SOL    HW1 6710   4.065   0.144   2.040
 1937SOL    HW2 6711   4.156   0.121   2.173
 1938SOL     OW 6712   5.152   0.568   3.754
 1938SOL    HW1 6713   5.070   0.617   3.783
 1938SOL    HW2 6714   5.232   0.626   3.766
 1939SOL     OW 6715   1.975   0.442   3.699
 1939SOL    HW1 6716   2.038   0.478   3.768
 1939SOL    HW2 6717   1.888   0.492   3.704
 1940SOL     OW 6718   0.047   5.493   6.548
 1940SOL    HW1 6719   0.109   5.499   6.626
 1940SOL    HW2 6720   0.034   5.584   6.508
 1941SOL     OW 6721   5.216   4.070   2.537
 1941SOL    HW1 6722   5.208   4.054   2.635
 1941SOL    HW2 6723   5.156   4.147   2.511
 1942SOL     OW 6724   6.264   5.384   3.003
 1942SOL    HW1 6725   6.363   5.400   3.004
 1942SOL    HW2 6726   6.216   5.471   2.994
 1943SOL     OW 6727   2.585   5.271   2.234
 1943SOL    HW1 6728   2.550   5.361   2.208
 1943SOL    HW2 6729   2.652   5.241   2.166
 1944SOL     OW 6730   6.683   1.245   1.453
 1944SOL    HW1 6731   6.771   1.290   1.440
 1944SOL    HW2 6732   6.629   1.295   1.520
 1945SOL     OW 6733   3.642   5.395   4.000
 1945SOL    HW1 6734   3.566   5.354   3.951
 1945SOL    HW2 6735   3.613   5.419   4.092
 1946SOL     OW 6736   1.448   0.752   0.419
 1946SOL    HW1 6737   1.482   0.827   0.362
 1946SOL    HW2 6738   1.491   0.757   0.509
 1947SOL     OW 6739   5.494   5.735   4.647
 1947SOL    HW1 6740   5.539   5.645   4.650
 1947SOL    HW2 6741   5.407   5.729   4.695
 1948SOL     OW 6742   6.011   4.817   4.680
 1948SOL    HW1 6743   6.051   4.787   4.767
 1948SOL    HW2 6744   5.916   4.785   4.675
 1949SOL     OW 6745   4.677   4.062   6.818
 1949SOL    HW1 6746   4.730   4.147   6.823
 1949SOL    HW2 6747   4.592   4.073   6.871
 1950SOL     OW 6748   3.225   3.782   6.551
 1950SOL    HW1 6749   3.150   3.759   6.613
 1950SOL    HW2 6750   3.207   3.869   6.506
 1951SOL     OW 6751   6.173   2.204   6.923
 1951SOL    HW1 6752   6.188   2.293   6.965
 1951SOL    HW2 6753   6.195   2.132   6.989
 1952SOL     OW 6754   3.849   2.223   5.898
 1952SOL    HW1 6755   3.816   2.209   5.991
 1952SOL    HW2 6756   3.873   2.319   5.885
 1953SOL     OW 6757   0.324   2.956   6.246
 1953SOL    HW1 6758   0.370   2.982   6.331
 1953SOL    HW2 6759   0.366   2.873   6.209
 1954SOL     OW 6760   3.242   2.086   3.840
 1954SOL    HW1 6761   3.243   2.127   3.931
 1954SOL    HW2 6762   3.160   2.115   3.791
 1955SOL     OW 6763   6.840   6.698   2.934
 1955SOL    HW1 6764   6.904   6.749   2.991
 1955SOL    HW2 6765   6.776   6.761   2.890
 1956SOL     OW 6766   5.675   5.976   2.355
 1956SOL    HW1 6767   5.577   5.970   2.336
 1956SOL    HW2 6768   5.721   6.018   2.277
 1957SOL     OW 6769   0.828   6.681   5.650
 1957SOL    HW1 6770   0.872   6.663   5.738
 1957SOL    HW2 6771   0.752   6.618   5.637
 1958SOL     OW 6772   5.472   3.617   5.871
 1958SOL    HW1 6773   5.442   3.673   5.794
 1958SOL    HW2 6774   5.400   3.552   5.895
 1959SOL     OW 6775   1.789   2.070   6.656
 1959SOL    HW1 6776   1.731   1.999   6.615
 1959SOL    HW2 6777   1.730   2.137   6.704
 1960SOL     OW 6778   5.462   5.899   0.814
 1960SOL    HW1 6779   5.504   5.988   0.833
 1960SOL    HW2 6780   5.379   5.889   0.869
 1961SOL     OW 6781   5.556   4.536   3.958
 1961SOL    HW1 6782   5.608   4.608   3.910
 1961SOL    HW2 6783   5.481   4.505   3.900
 1962SOL     OW 6784   0.343   6.557   3.386
 1962SOL    HW1 6785   0.409   6.487   3.414
 1962SOL    HW2 6786   0.302   6.599   3.467
 1963SOL     OW 6787   1.437   0.592   3.130
 1963SOL    HW1 6788   1.361   0.600   3.194
 1963SOL    HW2 6789   1.497   0.517   3.157
 1964SOL     OW 6790   5.439   3.378   2.788
 1964SOL    HW1 6791   5.458   3.430   2.705
 1964SOL    HW2 6792   5.343   3.351   2.789
 1965SOL     OW 6793   1.653   4.132   3.806
 1965SOL    HW1 6794   1.743   4.092   3.819
 1965SOL    HW2 6795   1.586   4.083   3.863
 1966SOL     OW 6796   6.459   5.386   5.580
 1966SOL    HW1 6797   6.446   5.444   5.660
 1966SOL    HW2 6798   6.557   5.377   5.560
 1967SOL     OW 6799   4.846   2.454   5.025
 1967SOL    HW1 6800   4.906   2.394   5.077
 1967SOL    HW2 6801   4.751   2.429   5.041
 1968SOL     OW 6802   3.037   6.058   6.151
 1968SOL    HW1 6803   3.077   6.141   6.111
 1968SOL    HW2 6804   3.099   6.021   6.219
 1969SOL     OW 6805   0.039   2.693   0.962
 1969SOL    HW1 6806   6.962   2.674   0.970
 1969SOL    HW2 6807   0.089   2.607   0.948
 1970SOL     OW 6808   1.553   0.789   4.119
 1970SOL    HW1 6809   1.638   0.812   4.073
 1970SOL    HW2 6810   1.475   0.815   4.062
 1971SOL     OW 6811   0.287   6.260   6.456
 1971SOL    HW1 6812   0.315   6.190   6.391
 1971SOL    HW2 6813   0.368   6.301   6.498
 1972SOL     OW 6814   0.565   4.769   3.797
 1972SOL    HW1 6815   0.501   4.841   3.772
 1972SOL    HW2 6816   0.656   4.808   3.809
 1973SOL     OW 6817   3.258   3.330   1.163
 1973SOL    HW1 6818   3.174   3.277   1.177
 1973SOL    HW2 6819   3.248   3.387   1.082
 1974SOL     OW 6820   5.493   0.855   4.012
 1974SOL    HW1 6821   5.521   0.788   4.081
 1974SOL    HW2 6822   5.430   0.922   4.054
 1975SOL     OW 6823   3.411   0.043   3.815
 1975SOL    HW1 6824   3.352   0.123   3.822
 1975SOL    HW2 6825   3.489   0.064   3.756
 1976SOL     OW 6826   0.679   5.784   0.377
 1976SOL    HW1 6827   0.730   5.863   0.343
 1976SOL    HW2 6828   0.703   5.703   0.323
 1977SOL     OW 6829   0.893   2.595   5.077
 1977SOL    HW1 6830   0.893   2.525   5.149
 1977SOL    HW2 6831   0.844   2.676   5.110
 1978SOL     OW 6832   6.543   2.045   4.867
 1978SOL    HW1 6833   6.448   2.025   4.841
 1978SOL    HW2 6834   6.599   1.964   4.853
 1979SOL     OW 6835   6.347   4.504   3.573
 1979SOL    HW1 6836   6.332   4.405   3.564
 1979SOL    HW2 6837   6.317   4.534   3.664
 1980SOL     OW 6838   4.149   0.320   1.704
 1980SOL    HW1 6839   4.239   0.347   1.737
 1980SOL    HW2 6840   4.113   0.390   1.643
 1981SOL     OW 6841   4.825   3.110   1.705
 1981SOL    HW1 6842   4.831   3.031   1.643
 1981SOL    HW2 6843   4.762   3.089   1.779
 1982SOL     OW 6844   5.636   6.405   4.438
 1982SOL    HW1 6845   5.718   6.458   4.416
 1982SOL    HW2 6846   5.565   6.467   4.470
 1983SOL     OW 6847   1.092   3.644   3.425
 1983SOL    HW1 6848   1.147   3.672   3.504
 1983SOL    HW2 6849   0.995   3.646   3.450
 1984SOL     OW 6850   4.207   0.606   6.180
 1984SOL    HW1 6851   4.188   0.531   6.116
 1984SOL    HW2 6852   4.132   0.613   6.246
 1985SOL     OW 6853   0.846   0.931   1.247
 1985SOL    HW1 6854   0.941   0.902   1.236
 1985SOL    HW2 6855   0.837   1.027   1.221
 1986SOL     OW 6856   1.896   1.783   6.276
 1986SOL    HW1 6857   1.829   1.842   6.231
 1986SOL    HW2 6858   1.867   1.688   6.270
 1987SOL     OW 6859   2.396   3.243   0.154
 1987SOL    HW1 6860   2.360   3.333   0.179
 1987SOL    HW2 6861   2.395   3.233   0.055
 1988SOL     OW 6862   4.364   3.972   0.506
 1988SOL    HW1 6863   4.429   4.022   0.450
 1988SOL    HW2 6864   4.414   3.918   0.575
 1989SOL     OW 6865   2.055   0.173   4.213
 1989SOL    HW1 6866   1.955   0.164   4.210
 1989SOL    HW2 6867   2.096   0.106   4.152
 1990SOL     OW 6868   3.146   0.759   1.505
 1990SOL    HW1 6869   3.113   0.665   1.494
 1990SOL    HW2 6870   3.243   0.758   1.531
 1991SOL     OW 6871   3.037   5.843   4.255
 1991SOL    HW1 6872   3.060   5.752   4.289
 1991SOL    HW2 6873   2.958   5.878   4.304
 1992SOL     OW 6874   2.266   6.614   5.418
 1992SOL    HW1 6875   2.249   6.670   5.499
 1992SOL    HW2 6876   2.332   6.542   5.441
 1993SOL     OW 6877   4.233   3.322   5.707
 1993SOL    HW1 6878   4.139   3.306   5.739
 1993SOL    HW2 6879   4.289   3.242   5.728
 1994SOL     OW 6880   6.599   2.488   2.103
 1994SOL    HW1 6881   6.668   2.416   2.112
 1994SOL    HW2 6882   6.639   2.569   2.061
 1995SOL     OW 6883   5.792   2.051   1.748
 1995SOL    HW1 6884   5.792   2.108   1.830
 1995SOL    HW2 6885   5.863   2.084   1.685
 1996SOL     OW 6886   3.369   4.670   0.322
 1996SOL    HW1 6887   3.418   4.663   0.409
 1996SOL    HW2 6888   3.286   4.615   0.325
 1997SOL     OW 6889   5.338   0.590   3.509
 1997SOL    HW1 6890   5.277   0.570   3.586
 1997SOL    HW2 6891   5.350   0.507   3.454
 1998SOL     OW 6892   3.028   4.462   5.342
 1998SOL    HW1 6893   2.988   4.517   5.268
 1998SOL    HW2 6894   2.973   4.379   5.355
 1999SOL     OW 6895   2.464   0.459   2.253
 1999SOL    HW1 6896   2.563   0.453   2.239
 1999SOL    HW2 6897   2.426   0.527   2.191
 2000SOL     OW 6898   3.690   1.552   4.563
 2000SOL    HW1 6899   3.754   1.478   4.581
 2000SOL    HW2 6900   3.738   1.629   4.521
 2001SOL     OW 6901   2.911   1.543   1.055
 2001SOL    HW1 6902   3.006   1.515   1.041
 2001SOL    HW2 6903   2.905   1.642   1.053
 2002SOL     OW 6904   1.727   5.198   5.718
 2002SOL    HW1 6905   1.677   5.284   5.724
 2002SOL    HW2 6906   1.663   5.122   5.720
 2003SOL     OW 6907   5.869   6.045   3.800
 2003SOL    HW1 6908   5.914   6.088   3.879
 2003SOL    HW2 6909   5.927   5.972   3.764
 2004SOL     OW 6910   2.684   0.827   5.527
 2004SOL    HW1 6911   2.647   0.856   5.615
 2004SOL    HW2 6912   2.783   0.842   5.525
 2005SOL     OW 6913   2.027   5.868   5.534
 2005SOL    HW1 6914   2.041   5.872   5.633
 2005SOL    HW2 6915   1.933   5.898   5.513
 2006SOL     OW 6916   4.174   5.335   4.143
 2006SOL    HW1 6917   4.237   5.290   4.206
 2006SOL    HW2 6918   4.145   5.423   4.181
 2007SOL     OW 6919   5.507   5.773   0.561
 2007SOL    HW1 6920   5.413   5.752   0.536
 2007SOL    HW2 6921   5.508   5.821   0.649
 2008SOL     OW 6922   0.033   6.154   3.938
 2008SOL    HW1 6923   0.074   6.157   4.029
 2008SOL    HW2 6924   0.105   6.166   3.869
 2009SOL     OW 6925   0.084   0.107   2.341
 2009SOL    HW1 6926   0.163   0.163   2.318
 2009SOL    HW2 6927   0.115   0.018   2.374
 2010SOL     OW 6928   1.019   0.738   0.355
 2010SOL    HW1 6929   1.079   0.671   0.399
 2010SOL    HW2 6930   1.059   0.830   0.365
 2011SOL     OW 6931   0.283   1.975   5.134
 2011SOL    HW1 6932   0.299   2.022   5.047
 2011SOL    HW2 6933   0.205   2.015   5.181
 2012SOL     OW 6934   1.259   4.082   0.763
 2012SOL    HW1 6935   1.273   4.161   0.704
 2012SOL    HW2 6936   1.288   4.104   0.856
 2013SOL     OW 6937   5.302   1.133   1.854
 2013SOL    HW1 6938   5.379   1.108   1.912
 2013SOL    HW2 6939   5.329   1.127   1.758
 2014SOL     OW 6940   2.137   5.183   2.896
 2014SOL    HW1 6941   2.170   5.167   2.802
 2014SOL    HW2 6942   2.091   5.271   2.900
 2015SOL     OW 6943   3.283   0.666   6.573
 2015SOL    HW1 6944   3.380   0.645   6.581
 2015SOL    HW2 6945   3.242   0.671   6.664
 2016SOL     OW 6946   0.547   4.934   4.329
 2016SOL    HW1 6947   0.490   4.982   4.263
 2016SOL    HW2 6948   0.642   4.935   4.298
 2017SOL     OW 6949   2.501   5.944   2.746
 2017SOL    HW1 6950   2.546   5.904   2.666
 2017SOL    HW2 6951   2.406   5.968   2.723
 2018SOL     OW 6952   0.443   5.568   6.401
 2018SOL    HW1 6953   0.522   5.573   6.461
 2018SOL    HW2 6954   0.448   5.484   6.346
 2019SOL     OW 6955   6.334   1.746   2.083
 2019SOL    HW1 6956   6.243   1.785   2.097
 2019SOL    HW2 6957   6.403   1.803   2.128
 2020SOL     OW 6958   2.697   5.484   2.796
 2020SOL    HW1 6959   2.673   5.474   2.893
 2020SOL    HW2 6960   2.750   5.568   2.784
 2021SOL     OW 6961   1.367   0.660   2.841
 2021SOL    HW1 6962   1.393   0.658   2.937
 2021SOL    HW2 6963   1.296   0.730   2.827
 2022SOL     OW 6964   1.934   4.075   1.503
 2022SOL    HW1 6965   1.944   3.999   1.567
 2022SOL    HW2 6966   1.920   4.039   1.411
 2023SOL     OW 6967   6.311   0.795   5.750
 2023SOL    HW1 6968   6.385   0.785   5.683
 2023SOL    HW2 6969   6.319   0.884   5.795
 2024SOL     OW 6970   5.570   1.169   3.649
 2024SOL    HW1 6971   5.653   1.206   3.691
 2024SOL    HW2 6972   5.583   1.161   3.551
 2025SOL     OW 6973   0.265   1.258   1.747
 2025SOL    HW1 6974   0.220   1.346   1.732
 2025SOL    HW2 6975   0.196   1.185   1.750
 2026SOL     OW 6976   2.105   1.498   5.213
 2026SOL    HW1 6977   2.172   1.516   5.141
 2026SOL    HW2 6978   2.059   1.583   5.238
 2027SOL     OW 6979   0.953   1.600   2.858
 2027SOL    HW1 6980   0.996   1.647   2.934
 2027SOL    HW2 6981   0.882   1.539   2.893
 2028SOL     OW 6982   3.975   3.049   0.116
 2028SOL    HW1 6983   3.989   3.028   0.213
 2028SOL    HW2 6984   4.016   2.977   0.060
 2029SOL     OW 6985   0.839   1.034   6.598
 2029SOL    HW1 6986   0.885   0.985   6.524
 2029SOL    HW2 6987   0.897   1.036   6.679
 2030SOL     OW 6988   1.354   1.486   3.515
 2030SOL    HW1 6989   1.432   1.480   3.577
 2030SOL    HW2 6990   1.346   1.579   3.480
 2031SOL     OW 6991   5.744   6.939   1.733
 2031SOL    HW1 6992   5.807   6.906   1.662
 2031SOL    HW2 6993   5.796   6.959   1.816
 2032SOL     OW 6994   4.818   6.805   1.316
 2032SOL    HW1 6995   4.785   6.888   1.362
 2032SOL    HW2 6996   4.822   6.730   1.382
 2033SOL     OW 6997   5.511   5.054   7.004
 2033SOL    HW1 6998   5.488   5.129   0.044
 2033SOL    HW2 6999   5.583   4.998   0.025
 2034SOL     OW 7000   2.173   6.778   3.187
 2034SOL    HW1 7001   2.238   6.711   3.153
 2034SOL    HW2 7002   2.151   6.843   3.114
 2035SOL     OW 7003   1.026   2.457   2.769
 2035SOL    HW1 7004   1.023   2.363   2.801
 2035SOL    HW2 7005   0.957   2.511   2.817
 2036SOL     OW 7006   0.931   4.877   0.221
 2036SOL    HW1 7007   0.905   4.973   0.211
 2036SOL    HW2 7008   0.882   4.822   0.153
 2037SOL     OW 7009   0.079   1.798   5.765
 2037SOL    HW1 7010   0.102   1.701   5.772
 2037SOL    HW2 7011   0.158   1.849   5.731
 2038SOL     OW 7012   0.264   1.081   4.607
 2038SOL    HW1 7013   0.327   1.032   4.547
 2038SOL    HW2 7014   0.314   1.114   4.687
 2039SOL     OW 7015   6.833   5.834   2.609
 2039SOL    HW1 7016   6.813   5.895   2.532
 2039SOL    HW2 7017   6.769   5.853   2.684
 2040SOL     OW 7018   3.950   3.704   4.775
 2040SOL    HW1 7019   3.949   3.716   4.874
 2040SOL    HW2 7020   3.908   3.783   4.731
 2041SOL     OW 7021   5.821   4.383   5.371
 2041SOL    HW1 7022   5.904   4.339   5.404
 2041SOL    HW2 7023   5.798   4.348   5.280
 2042SOL     OW 7024   4.318   5.562   0.269
 2042SOL    HW1 7025   4.310   5.519   0.179
 2042SOL    HW2 7026   4.386   5.513   0.323
 2043SOL     OW 7027   5.626   4.060   2.095
 2043SOL    HW1 7028   5.620   4.021   2.187
 2043SOL    HW2 7029   5.704   4.122   2.090
 2044SOL     OW 7030   6.280   6.964   1.856
 2044SOL    HW1 7031   6.250   6.910   1.778
 2044SOL    HW2 7032   6.235   0.033   1.854
 2045SOL     OW 7033   2.084   4.775   5.976
 2045SOL    HW1 7034   2.118   4.850   5.920
 2045SOL    HW2 7035   2.114   4.787   6.071
 2046SOL     OW 7036   6.097   7.003   4.776
 2046SOL    HW1 7037   6.092   6.926   4.840
 2046SOL    HW2 7038   6.060   0.064   4.819
 2047SOL     OW 7039   4.813   2.547   0.683
 2047SOL    HW1 7040   4.735   2.493   0.650
 2047SOL    HW2 7041   4.826   2.627   0.624
 2048SOL     OW 7042   4.487   0.624   6.232
 2048SOL    HW1 7043   4.472   0.661   6.324
 2048SOL    HW2 7044   4.399   0.613   6.186
 2049SOL     OW 7045   4.571   1.114   0.467
 2049SOL    HW1 7046   4.564   1.089   0.371
 2049SOL    HW2 7047   4.570   1.031   0.523
 2050SOL     OW 7048   5.708   3.375   3.792
 2050SOL    HW1 7049   5.734   3.283   3.764
 2050SOL    HW2 7050   5.790   3.432   3.799
 2051SOL     OW 7051   1.571   5.563   0.767
 2051SOL    HW1 7052   1.638   5.621   0.720
 2051SOL    HW2 7053   1.559   5.595   0.861
 2052SOL     OW 7054   1.306   2.658   6.604
 2052SOL    HW1 7055   1.211   2.672   6.578
 2052SOL    HW2 7056   1.311   2.622   6.698
 2053SOL     OW 7057   6.152   0.694   0.216
 2053SOL    HW1 7058   6.153   0.596   0.236
 2053SOL    HW2 7059   6.110   0.709   0.126
 2054SOL     OW 7060   5.872   2.532   0.431
 2054SOL    HW1 7061   5.848   2.470   0.505
 2054SOL    HW2 7062   5.950   2.495   0.380
 2055SOL     OW 7063   5.351   2.981   4.103
 2055SOL    HW1 7064   5.291   2.990   4.023
 2055SOL    HW2 7065   5.446   2.987   4.073
 2056SOL     OW 7066   2.433   1.008   3.087
 2056SOL    HW1 7067   2.338   0.993   3.059
 2056SOL    HW2 7068   2.448   0.970   3.178
 2057SOL     OW 7069   0.221   2.955   4.388
 2057SOL    HW1 7070   0.128   2.991   4.387
 2057SOL    HW2 7071   0.243   2.922   4.480
 2058SOL     OW 7072   0.072   2.131   2.356
 2058SOL    HW1 7073   0.086   2.217   2.405
 2058SOL    HW2 7074   0.153   2.073   2.367
 2059SOL     OW 7075   1.992   1.202   0.033
 2059SOL    HW1 7076   1.965   1.173   0.124
 2059SOL    HW2 7077   1.919   1.258   7.013
 2060SOL     OW 7078   0.401   4.170   2.142
 2060SOL    HW1 7079   0.485   4.137   2.098
 2060SOL    HW2 7080   0.326   4.106   2.122
 2061SOL     OW 7081   6.942   1.746   2.343
 2061SOL    HW1 7082   6.862   1.686   2.350
 2061SOL    HW2 7083   6.991   1.746   2.430
 2062SOL     OW 7084   4.912   0.263   2.753
 2062SOL    HW1 7085   4.945   0.340   2.699
 2062SOL    HW2 7086   4.894   0.185   2.693
 2063SOL     OW 7087   1.581   3.075   6.562
 2063SOL    HW1 7088   1.609   2.984   6.591
 2063SOL    HW2 7089   1.641   3.107   6.489
 2064SOL     OW 7090   1.032   2.161   6.752
 2064SOL    HW1 7091   0.985   2.128   6.833
 2064SOL    HW2 7092   1.052   2.259   6.762
 2065SOL     OW 7093   6.254   3.632   2.017
 2065SOL    HW1 7094   6.298   3.658   1.930
 2065SOL    HW2 7095   6.180   3.568   1.999
 2066SOL     OW 7096   0.027   0.367   4.915
 2066SOL    HW1 7097   0.077   0.299   4.969
 2066SOL    HW2 7098   7.018   0.326   4.829
 2067SOL     OW 7099   6.594   6.452   1.484
 2067SOL    HW1 7100   6.661   6.421   1.417
 2067SOL    HW2 7101   6.641   6.475   1.570
 2068SOL     OW 7102   2.045   1.766   5.340
 2068SOL    HW1 7103   1.959   1.815   5.329
 2068SOL    HW2 7104   2.110   1.794   5.269
 2069SOL     OW 7105   1.063   2.382   2.495
 2069SOL    HW1 7106   1.072   2.401   2.592
 2069SOL    HW2 7107   1.145   2.337   2.461
 2070SOL     OW 7108   1.266   1.705   2.810
 2070SOL    HW1 7109   1.295   1.630   2.870
 2070SOL    HW2 7110   1.210   1.770   2.862
 2071SOL     OW 7111   0.905   0.170   4.346
 2071SOL    HW1 7112   0.884   0.114   4.427
 2071SOL    HW2 7113   0.847   0.141   4.270
 2072SOL     OW 7114   4.791   5.906   1.637
 2072SOL    HW1 7115   4.872   5.866   1.594
 2072SOL    HW2 7116   4.717   5.840   1.636
 2073SOL     OW 7117   2.969   6.599   5.600
 2073SOL    HW1 7118   3.028   6.574   5.523
 2073SOL    HW2 7119   3.013   6.672   5.653
 2074SOL     OW 7120   6.494   1.378   1.270
 2074SOL    HW1 7121   6.507   1.406   1.175
 2074SOL    HW2 7122   6.556   1.303   1.291
 2075SOL     OW 7123   4.328   3.285   0.261
 2075SOL    HW1 7124   4.405   3.347   0.244
 2075SOL    HW2 7125   4.242   3.333   0.247
 2076SOL     OW 7126   5.181   6.539   1.084
 2076SOL    HW1 7127   5.095   6.551   1.134
 2076SOL    HW2 7128   5.247   6.608   1.113
 2077SOL     OW 7129   5.357   1.537   2.353
 2077SOL    HW1 7130   5.386   1.536   2.257
 2077SOL    HW2 7131   5.285   1.468   2.366
 2078SOL     OW 7132   3.172   4.555   6.456
 2078SOL    HW1 7133   3.215   4.631   6.406
 2078SOL    HW2 7134   3.125   4.591   6.537
 2079SOL     OW 7135   5.455   1.227   3.873
 2079SOL    HW1 7136   5.432   1.160   3.944
 2079SOL    HW2 7137   5.480   1.179   3.789
 2080SOL     OW 7138   2.867   2.162   4.877
 2080SOL    HW1 7139   2.797   2.234   4.872
 2080SOL    HW2 7140   2.945   2.195   4.930
 2081SOL     OW 7141   0.897   6.209   5.396
 2081SOL    HW1 7142   0.890   6.177   5.301
 2081SOL    HW2 7143   0.886   6.132   5.458
 2082SOL     OW 7144   5.867   1.212   1.124
 2082SOL    HW1 7145   5.933   1.163   1.067
 2082SOL    HW2 7146   5.824   1.285   1.071
 2083SOL     OW 7147   3.586   4.649   6.357
 2083SOL    HW1 7148   3.571   4.630   6.454
 2083SOL    HW2 7149   3.547   4.575   6.303
 2084SOL     OW 7150   6.848   2.708   2.996
 2084SOL    HW1 7151   6.933   2.746   2.958
 2084SOL    HW2 7152   6.858   2.609   3.008
 2085SOL     OW 7153   4.587   0.507   5.783
 2085SOL    HW1 7154   4.512   0.572   5.795
 2085SOL    HW2 7155   4.669   0.557   5.753
 2086SOL     OW 7156   2.705   5.019   0.305
 2086SOL    HW1 7157   2.741   4.932   0.338
 2086SOL    HW2 7158   2.769   5.092   0.326
 2087SOL     OW 7159   5.626   0.082   2.803
 2087SOL    HW1 7160   5.700   0.100   2.738
 2087SOL    HW2 7161   5.663   0.076   2.896
 2088SOL     OW 7162   3.436   6.553   0.809
 2088SOL    HW1 7163   3.510   6.499   0.848
 2088SOL    HW2 7164   3.476   6.623   0.748
 2089SOL     OW 7165   4.985   1.269   0.246
 2089SOL    HW1 7166   5.077   1.270   0.207
 2089SOL    HW2 7167   4.969   1.354   0.297
 2090SOL     OW 7168   3.605   3.720   4.998
 2090SOL    HW1 7169   3.509   3.748   4.992
 2090SOL    HW2 7170   3.663   3.795   4.965
 2091SOL     OW 7171   1.285   5.476   0.792
 2091SOL    HW1 7172   1.373   5.492   0.749
 2091SOL    HW2 7173   1.278   5.380   0.820
 2092SOL     OW 7174   6.412   5.888   1.284
 2092SOL    HW1 7175   6.415   5.988   1.288
 2092SOL    HW2 7176   6.482   5.855   1.221
 2093SOL     OW 7177   1.264   2.998   1.655
 2093SOL    HW1 7178   1.313   3.085   1.656
 2093SOL    HW2 7179   1.261   2.962   1.562
 2094SOL     OW 7180   5.631   0.103   2.182
 2094SOL    HW1 7181   5.688   0.055   2.116
 2094SOL    HW2 7182   5.570   0.038   2.227
 2095SOL     OW 7183   5.598   5.455   4.728
 2095SOL    HW1 7184   5.553   5.367   4.741
 2095SOL    HW2 7185   5.645   5.456   4.640
 2096SOL     OW 7186   4.698   4.265   2.514
 2096SOL    HW1 7187   4.690   4.334   2.442
 2096SOL    HW2 7188   4.752   4.188   2.479
 2097SOL     OW 7189   0.141   2.735   6.851
 2097SOL    HW1 7190   0.098   2.700   6.767
 2097SOL    HW2 7191   0.164   2.658   6.911
 2098SOL     OW 7192   4.534   7.005   3.947
 2098SOL    HW1 7193   4.448   6.995   3.898
 2098SOL    HW2 7194   4.558   6.918   3.991
 2099SOL     OW 7195   2.687   0.717   4.141
 2099SOL    HW1 7196   2.590   0.727   4.167
 2099SOL    HW2 7197   2.744   0.745   4.218
 2100SOL     OW 7198   4.380   4.436   6.302
 2100SOL    HW1 7199   4.405   4.378   6.379
 2100SOL    HW2 7200   4.406   4.530   6.321
 2101SOL     OW 7201   0.355   0.350   3.241
 2101SOL    HW1 7202   0.264   0.309   3.242
 2101SOL    HW2 7203   0.347   0.449   3.257
 2102SOL     OW 7204   7.001   5.244   3.023
 2102SOL    HW1 7205   0.064   5.190   3.029
 2102SOL    HW2 7206   6.925   5.192   3.062
 2103SOL     OW 7207   3.377   2.945   0.086
 2103SOL    HW1 7208   3.391   3.041   0.113
 2103SOL    HW2 7209   3.448   2.888   0.127
 2104SOL     OW 7210   1.473   3.538   5.547
 2104SOL    HW1 7211   1.537   3.555   5.622
 2104SOL    HW2 7212   1.501   3.591   5.467
 2105SOL     OW 7213   5.869   5.199   2.034
 2105SOL    HW1 7214   5.869   5.158   2.125
 2105SOL    HW2 7215   5.793   5.264   2.026
 2106SOL     OW 7216   4.907   5.508   6.642
 2106SOL    HW1 7217   4.928   5.411   6.635
 2106SOL    HW2 7218   4.849   5.536   6.566
 2107SOL     OW 7219   3.882   4.128   5.422
 2107SOL    HW1 7220   3.789   4.104   5.451
 2107SOL    HW2 7221   3.878   4.194   5.347
 2108SOL     OW 7222   6.072   5.282   5.725
 2108SOL    HW1 7223   6.161   5.282   5.770
 2108SOL    HW2 7224   6.034   5.374   5.724
 2109SOL     OW 7225   5.721   6.165   2.569
 2109SOL    HW1 7226   5.794   6.203   2.511
 2109SOL    HW2 7227   5.670   6.096   2.518
 2110SOL     OW 7228   2.819   4.294   6.342
 2110SOL    HW1 7229   2.835   4.391   6.361
 2110SOL    HW2 7230   2.903   4.252   6.309
 2111SOL     OW 7231   1.383   2.530   6.291
 2111SOL    HW1 7232   1.379   2.559   6.196
 2111SOL    HW2 7233   1.291   2.534   6.331
 2112SOL     OW 7234   4.591   2.552   1.263
 2112SOL    HW1 7235   4.600   2.532   1.361
 2112SOL    HW2 7236   4.497   2.579   1.243
 2113SOL     OW 7237   1.490   1.121   2.781
 2113SOL    HW1 7238   1.479   1.035   2.732
 2113SOL    HW2 7239   1.555   1.179   2.732
 2114SOL     OW 7240   1.512   4.376   0.175
 2114SOL    HW1 7241   1.598   4.424   0.157
 2114SOL    HW2 7242   1.468   4.417   0.255
 2115SOL     OW 7243   1.895   4.491   2.335
 2115SOL    HW1 7244   1.991   4.514   2.353
 2115SOL    HW2 7245   1.887   4.446   2.246
 2116SOL     OW 7246   0.374   3.625   3.722
 2116SOL    HW1 7247   0.370   3.526   3.724
 2116SOL    HW2 7248   0.372   3.658   3.628
 2117SOL     OW 7249   0.942   4.858   1.555
 2117SOL    HW1 7250   0.908   4.934   1.500
 2117SOL    HW2 7251   1.042   4.860   1.557
 2118SOL     OW 7252   0.300   3.680   2.430
 2118SOL    HW1 7253   0.353   3.740   2.371
 2118SOL    HW2 7254   0.344   3.590   2.435
 2119SOL     OW 7255   2.452   5.825   0.931
 2119SOL    HW1 7256   2.365   5.781   0.954
 2119SOL    HW2 7257   2.521   5.800   0.999
 2120SOL     OW 7258   6.719   4.615   1.653
 2120SOL    HW1 7259   6.794   4.679   1.638
 2120SOL    HW2 7260   6.711   4.594   1.750
 2121SOL     OW 7261   0.625   5.213   5.243
 2121SOL    HW1 7262   0.568   5.178   5.317
 2121SOL    HW2 7263   0.712   5.164   5.243
 2122SOL     OW 7264   4.745   4.211   4.799
 2122SOL    HW1 7265   4.838   4.225   4.832
 2122SOL    HW2 7266   4.706   4.131   4.844
 2123SOL     OW 7267   6.765   4.881   2.478
 2123SOL    HW1 7268   6.745   4.915   2.570
 2123SOL    HW2 7269   6.864   4.874   2.466
 2124SOL     OW 7270   2.274   2.142   1.419
 2124SOL    HW1 7271   2.370   2.114   1.422
 2124SOL    HW2 7272   2.239   2.151   1.512
 2125SOL     OW 7273   2.803   0.567   0.548
 2125SOL    HW1 7274   2.746   0.649   0.560
 2125SOL    HW2 7275   2.824   0.528   0.638
 2126SOL     OW 7276   2.952   0.961   6.673
 2126SOL    HW1 7277   3.024   1.028   6.655
 2126SOL    HW2 7278   2.900   0.946   6.589
 2127SOL     OW 7279   5.610   3.117   4.552
 2127SOL    HW1 7280   5.598   3.084   4.646
 2127SOL    HW2 7281   5.614   3.217   4.553
 2128SOL     OW 7282   0.734   4.411   4.882
 2128SOL    HW1 7283   0.779   4.444   4.965
 2128SOL    HW2 7284   0.698   4.319   4.898
 2129SOL     OW 7285   4.695   2.386   5.258
 2129SOL    HW1 7286   4.614   2.445   5.272
 2129SOL    HW2 7287   4.671   2.310   5.198
 2130SOL     OW 7288   5.065   6.855   2.509
 2130SOL    HW1 7289   5.135   6.835   2.577
 2130SOL    HW2 7290   5.107   6.857   2.418
 2131SOL     OW 7291   6.818   0.925   0.735
 2131SOL    HW1 7292   6.760   0.846   0.755
 2131SOL    HW2 7293   6.812   0.991   0.810
 2132SOL     OW 7294   2.474   3.123   0.573
 2132SOL    HW1 7295   2.499   3.027   0.588
 2132SOL    HW2 7296   2.388   3.127   0.522
 2133SOL     OW 7297   3.117   2.266   6.011
 2133SOL    HW1 7298   3.150   2.173   5.996
 2133SOL    HW2 7299   3.113   2.314   5.923
 2134SOL     OW 7300   0.278   0.693   1.236
 2134SOL    HW1 7301   0.354   0.711   1.299
 2134SOL    HW2 7302   0.314   0.662   1.148
 2135SOL     OW 7303   0.897   3.538   4.712
 2135SOL    HW1 7304   0.963   3.473   4.675
 2135SOL    HW2 7305   0.816   3.541   4.654
 2136SOL     OW 7306   2.332   5.513   1.733
 2136SOL    HW1 7307   2.317   5.588   1.668
 2136SOL    HW2 7308   2.252   5.502   1.791
 2137SOL     OW 7309   3.138   5.462   4.521
 2137SOL    HW1 7310   3.162   5.516   4.601
 2137SOL    HW2 7311   3.180   5.372   4.527
 2138SOL     OW 7312   5.482   1.314   2.548
 2138SOL    HW1 7313   5.509   1.258   2.626
 2138SOL    HW2 7314   5.504   1.409   2.566
 2139SOL     OW 7315   3.138   0.939   5.441
 2139SOL    HW1 7316   3.186   0.895   5.364
 2139SOL    HW2 7317   3.117   1.033   5.417
 2140SOL     OW 7318   2.775   1.424   4.655
 2140SOL    HW1 7319   2.686   1.469   4.663
 2140SOL    HW2 7320   2.794   1.371   4.737
 2141SOL     OW 7321   6.065   4.330   2.375
 2141SOL    HW1 7322   5.992   4.300   2.315
 2141SOL    HW2 7323   6.052   4.427   2.397
 2142SOL     OW 7324   1.999   2.437   3.681
 2142SOL    HW1 7325   1.942   2.356   3.694
 2142SOL    HW2 7326   2.019   2.448   3.584
 2143SOL     OW 7327   2.366   4.983   0.780
 2143SOL    HW1 7328   2.364   4.884   0.796
 2143SOL    HW2 7329   2.302   5.029   0.841
 2144SOL     OW 7330   6.613   5.810   4.262
 2144SOL    HW1 7331   6.662   5.782   4.179
 2144SOL    HW2 7332   6.590   5.729   4.316
 2145SOL     OW 7333   4.340   6.720   4.056
 2145SOL    HW1 7334   4.292   6.788   4.002
 2145SOL    HW2 7335   4.324   6.736   4.153
 2146SOL     OW 7336   2.378   2.906   1.098
 2146SOL    HW1 7337   2.315   2.844   1.050
 2146SOL    HW2 7338   2.330   2.947   1.175
 2147SOL     OW 7339   6.355   0.807   5.361
 2147SOL    HW1 7340   6.422   0.749   5.408
 2147SOL    HW2 7341   6.263   0.776   5.384
 2148SOL     OW 7342   0.122   3.488   6.636
 2148SOL    HW1 7343   0.048   3.442   6.587
 2148SOL    HW2 7344   0.093   3.506   6.730
 2149SOL     OW 7345   0.690   0.623   6.597
 2149SOL    HW1 7346   0.674   0.577   6.509
 2149SOL    HW2 7347   0.784   0.658   6.599
 2150SOL     OW 7348   2.495   3.165   1.547
 2150SOL    HW1 7349   2.589   3.133   1.534
 2150SOL    HW2 7350   2.464   3.141   1.639
 2151SOL     OW 7351   1.363   5.636   6.984
 2151SOL    HW1 7352   1.350   5.703   0.037
 2151SOL    HW2 7353   1.460   5.633   6.959
 2152SOL     OW 7354   4.054   6.188   3.291
 2152SOL    HW1 7355   3.963   6.146   3.298
 2152SOL    HW2 7356   4.124   6.119   3.312
 2153SOL     OW 7357   4.897   1.396   3.255
 2153SOL    HW1 7358   4.852   1.340   3.185
 2153SOL    HW2 7359   4.947   1.336   3.318
 2154SOL     OW 7360   3.134   6.456   3.255
 2154SOL    HW1 7361   3.130   6.543   3.303
 2154SOL    HW2 7362   3.208   6.401   3.292
 2155SOL     OW 7363   4.452   6.371   0.794
 2155SOL    HW1 7364   4.452   6.470   0.810
 2155SOL    HW2 7365   4.531   6.346   0.738
 2156SOL     OW 7366   5.550   1.300   4.537
 2156SOL    HW1 7367   5.497   1.384   4.529
 2156SOL    HW2 7368   5.545   1.266   4.631
 2157SOL     OW 7369   3.882   5.506   3.958
 2157SOL    HW1 7370   3.965   5.455   3.935
 2157SOL    HW2 7371   3.808   5.442   3.978
 2158SOL     OW 7372   3.327   0.680   0.092
 2158SOL    HW1 7373   3.248   0.619   0.094
 2158SOL    HW2 7374   3.344   0.714   0.185
 2159SOL     OW 7375   1.212   0.277   5.782
 2159SOL    HW1 7376   1.265   0.193   5.772
 2159SOL    HW2 7377   1.162   0.295   5.698
 2160SOL     OW 7378   4.875   6.190   0.600
 2160SOL    HW1 7379   4.807   6.263   0.603
 2160SOL    HW2 7380   4.966   6.229   0.595
 2161SOL     OW 7381   1.261   3.758   2.398
 2161SOL    HW1 7382   1.245   3.809   2.314
 2161SOL    HW2 7383   1.313   3.814   2.462
 2162SOL     OW 7384   1.793   0.040   3.044
 2162SOL    HW1 7385   1.832   0.125   3.008
 2162SOL    HW2 7386   1.714   0.061   3.101
 2163SOL     OW 7387   1.325   3.394   1.521
 2163SOL    HW1 7388   1.422   3.419   1.518
 2163SOL    HW2 7389   1.315   3.298   1.497
 2164SOL     OW 7390   1.951   2.638   2.401
 2164SOL    HW1 7391   1.958   2.736   2.386
 2164SOL    HW2 7392   1.856   2.609   2.388
 2165SOL     OW 7393   0.063   2.080   3.954
 2165SOL    HW1 7394   6.989   2.106   3.975
 2165SOL    HW2 7395   0.106   2.042   4.037
 2166SOL     OW 7396   0.205   4.487   3.452
 2166SOL    HW1 7397   0.212   4.574   3.500
 2166SOL    HW2 7398   0.294   4.464   3.411
 2167SOL     OW 7399   2.069   2.455   4.118
 2167SOL    HW1 7400   2.136   2.495   4.180
 2167SOL    HW2 7401   2.005   2.398   4.170
 2168SOL     OW 7402   1.242   1.935   3.237
 2168SOL    HW1 7403   1.235   2.023   3.282
 2168SOL    HW2 7404   1.163   1.921   3.178
 2169SOL     OW 7405   0.371   0.605   1.570
 2169SOL    HW1 7406   0.443   0.604   1.501
 2169SOL    HW2 7407   0.282   0.608   1.525
 2170SOL     OW 7408   0.847   3.760   5.748
 2170SOL    HW1 7409   0.833   3.834   5.814
 2170SOL    HW2 7410   0.801   3.677   5.781
 2171SOL     OW 7411   0.382   5.433   1.065
 2171SOL    HW1 7412   0.300   5.443   1.009
 2171SOL    HW2 7413   0.428   5.521   1.075
 2172SOL     OW 7414   0.141   1.948   4.753
 2172SOL    HW1 7415   0.080   2.009   4.805
 2172SOL    HW2 7416   0.230   1.992   4.741
 2173SOL     OW 7417   5.654   0.249   4.876
 2173SOL    HW1 7418   5.556   0.232   4.863
 2173SOL    HW2 7419   5.698   0.167   4.913
 2174SOL     OW 7420   0.275   5.689   4.901
 2174SOL    HW1 7421   0.341   5.717   4.970
 2174SOL    HW2 7422   0.292   5.594   4.874
 2175SOL     OW 7423   3.152   3.201   5.629
 2175SOL    HW1 7424   3.096   3.284   5.620
 2175SOL    HW2 7425   3.105   3.124   5.586
 2176SOL     OW 7426   5.363   3.235   0.967
 2176SOL    HW1 7427   5.342   3.259   1.062
 2176SOL    HW2 7428   5.455   3.267   0.944
 2177SOL     OW 7429   6.917   0.818   3.642
 2177SOL    HW1 7430   6.974   0.865   3.709
 2177SOL    HW2 7431   6.891   0.881   3.569
 2178SOL     OW 7432   0.903   1.977   2.558
 2178SOL    HW1 7433   0.811   2.008   2.582
 2178SOL    HW2 7434   0.907   1.877   2.564
 2179SOL     OW 7435   1.856   4.553   6.518
 2179SOL    HW1 7436   1.844   4.481   6.586
 2179SOL    HW2 7437   1.874   4.513   6.429
 2180SOL     OW 7438   0.744   4.664   2.213
 2180SOL    HW1 7439   0.745   4.570   2.178
 2180SOL    HW2 7440   0.837   4.691   2.239
 2181SOL     OW 7441   4.725   5.038   3.898
 2181SOL    HW1 7442   4.651   4.979   3.864
 2181SOL    HW2 7443   4.703   5.067   3.991
 2182SOL     OW 7444   0.509   5.577   3.198
 2182SOL    HW1 7445   0.493   5.643   3.272
 2182SOL    HW2 7446   0.581   5.611   3.138
 2183SOL     OW 7447   3.701   3.135   0.615
 2183SOL    HW1 7448   3.729   3.042   0.592
 2183SOL    HW2 7449   3.617   3.132   0.668
 2184SOL     OW 7450   6.714   0.391   0.287
 2184SOL    HW1 7451   6.738   0.330   0.363
 2184SOL    HW2 7452   6.715   0.486   0.320
 2185SOL     OW 7453   0.155   1.647   6.961
 2185SOL    HW1 7454   0.245   1.649   7.005
 2185SOL    HW2 7455   0.086   1.621   0.008
 2186SOL     OW 7456   0.144   5.611   4.642
 2186SOL    HW1 7457   0.189   5.690   4.683
 2186SOL    HW2 7458   0.080   5.571   4.709
 2187SOL     OW 7459   0.723   5.655   3.046
 2187SOL    HW1 7460   0.739   5.699   2.957
 2187SOL    HW2 7461   0.768   5.708   3.118
 2188SOL     OW 7462   2.029   6.603   0.584
 2188SOL    HW1 7463   2.106   6.658   0.553
 2188SOL    HW2 7464   2.008   6.533   0.517
 2189SOL     OW 7465   2.931   1.644   2.187
 2189SOL    HW1 7466   2.973   1.734   2.196
 2189SOL    HW2 7467   2.951   1.590   2.269
 2190SOL     OW 7468   6.663   4.257   2.291
 2190SOL    HW1 7469   6.705   4.173   2.327
 2190SOL    HW2 7470   6.703   4.278   2.202
 2191SOL     OW 7471   2.054   0.754   5.983
 2191SOL    HW1 7472   2.034   0.781   5.889
 2191SOL    HW2 7473   2.061   0.836   6.040
 2192SOL     OW 7474   4.903   1.128   2.056
 2192SOL    HW1 7475   4.884   1.222   2.029
 2192SOL    HW2 7476   4.888   1.117   2.155
 2193SOL     OW 7477   0.003   6.966   6.071
 2193SOL    HW1 7478   0.073   0.014   6.091
 2193SOL    HW2 7479   6.986   6.931   6.157
 2194SOL     OW 7480   0.845   4.441   5.685
 2194SOL    HW1 7481   0.919   4.507   5.700
 2194SOL    HW2 7482   0.768   4.464   5.745
 2195SOL     OW 7483   0.774   4.447   6.513
 2195SOL    HW1 7484   0.713   4.390   6.568
 2195SOL    HW2 7485   0.837   4.496   6.573
 2196SOL     OW 7486   2.251   6.032   5.467
 2196SOL    HW1 7487   2.341   5.994   5.443
 2196SOL    HW2 7488   2.197   5.962   5.515
 2197SOL     OW 7489   3.167   4.080   5.516
 2197SOL    HW1 7490   3.256   4.052   5.552
 2197SOL    HW2 7491   3.176   4.107   5.421
 2198SOL     OW 7492   0.914   6.946   6.234
 2198SOL    HW1 7493   0.916   6.885   6.313
 2198SOL    HW2 7494   0.893   6.893   6.152
 2199SOL     OW 7495   4.822   6.612   4.588
 2199SOL    HW1 7496   4.871   6.677   4.647
 2199SOL    HW2 7497   4.867   6.523   4.593
 2200SOL     OW 7498   3.174   1.220   4.253
 2200SOL    HW1 7499   3.157   1.255   4.346
 2200SOL    HW2 7500   3.249   1.272   4.211
 2201SOL     OW 7501   6.394   2.775   3.959
 2201SOL    HW1 7502   6.318   2.721   3.996
 2201SOL    HW2 7503   6.411   2.748   3.864
 2202SOL     OW 7504   3.954   5.190   2.491
 2202SOL    HW1 7505   3.958   5.176   2.590
 2202SOL    HW2 7506   3.859   5.181   2.460
 2203SOL     OW 7507   2.044   3.961   0.887
 2203SOL    HW1 7508   2.010   3.878   0.933
 2203SOL    HW2 7509   2.143   3.956   0.879
 2204SOL     OW 7510   4.282   2.686   1.195
 2204SOL    HW1 7511   4.182   2.690   1.199
 2204SOL    HW2 7512   4.310   2.650   1.106
 2205SOL     OW 7513   1.291   6.215   0.705
 2205SOL    HW1 7514   1.286   6.153   0.627
 2205SOL    HW2 7515   1.374   6.197   0.757
 2206SOL     OW 7516   2.099   2.875   6.448
 2206SOL    HW1 7517   2.162   2.948   6.422
 2206SOL    HW2 7518   2.135   2.787   6.416
 2207SOL     OW 7519   4.378   5.866   1.173
 2207SOL    HW1 7520   4.442   5.943   1.173
 2207SOL    HW2 7521   4.374   5.825   1.264
 2208SOL     OW 7522   1.182   5.904   3.751
 2208SOL    HW1 7523   1.200   5.845   3.673
 2208SOL    HW2 7524   1.123   5.979   3.724
 2209SOL     OW 7525   2.595   5.292   5.067
 2209SOL    HW1 7526   2.516   5.275   5.127
 2209SOL    HW2 7527   2.597   5.389   5.042
 2210SOL     OW 7528   5.990   6.068   1.253
 2210SOL    HW1 7529   6.004   6.041   1.158
 2210SOL    HW2 7530   6.014   5.992   1.314
 2211SOL     OW 7531   6.128   0.432   0.535
 2211SOL    HW1 7532   6.053   0.482   0.493
 2211SOL    HW2 7533   6.179   0.382   0.464
 2212SOL     OW 7534   2.550   6.131   6.532
 2212SOL    HW1 7535   2.643   6.167   6.527
 2212SOL    HW2 7536   2.488   6.191   6.482
 2213SOL     OW 7537   3.901   1.974   3.987
 2213SOL    HW1 7538   3.930   2.011   3.899
 2213SOL    HW2 7539   3.842   1.894   3.972
 2214SOL     OW 7540   3.920   2.971   5.722
 2214SOL    HW1 7541   3.896   2.945   5.629
 2214SOL    HW2 7542   3.886   3.063   5.741
 2215SOL     OW 7543   4.728   0.831   6.496
 2215SOL    HW1 7544   4.784   0.912   6.516
 2215SOL    HW2 7545   4.642   0.837   6.545
 2216SOL     OW 7546   0.592   6.066   6.430
 2216SOL    HW1 7547   0.654   6.028   6.362
 2216SOL    HW2 7548   0.641   6.132   6.487
 2217SOL     OW 7549   4.443   0.959   2.733
 2217SOL    HW1 7550   4.493   0.956   2.646
 2217SOL    HW2 7551   4.496   0.913   2.804
 2218SOL     OW 7552   0.513   5.318   6.304
 2218SOL    HW1 7553   0.446   5.269   6.248
 2218SOL    HW2 7554   0.513   5.280   6.396
 2219SOL     OW 7555   5.419   1.245   0.520
 2219SOL    HW1 7556   5.453   1.305   0.592
 2219SOL    HW2 7557   5.413   1.296   0.434
 2220SOL     OW 7558   1.674   6.828   5.562
 2220SOL    HW1 7559   1.733   6.821   5.643
 2220SOL    HW2 7560   1.625   6.915   5.564
 2221SOL     OW 7561   6.550   1.137   5.093
 2221SOL    HW1 7562   6.569   1.136   4.994
 2221SOL    HW2 7563   6.457   1.104   5.109
 2222SOL     OW 7564   5.905   6.397   0.532
 2222SOL    HW1 7565   5.848   6.451   0.594
 2222SOL    HW2 7566   5.930   6.453   0.453
 2223SOL     OW 7567   6.879   0.332   5.409
 2223SOL    HW1 7568   6.822   0.299   5.334
 2223SOL    HW2 7569   6.826   0.331   5.494
 2224SOL     OW 7570   6.006   4.135   1.778
 2224SOL    HW1 7571   6.023   4.055   1.720
 2224SOL    HW2 7572   5.942   4.109   1.851
 2225SOL     OW 7573   0.684   6.630   3.504
 2225SOL    HW1 7574   0.621   6.618   3.580
 2225SOL    HW2 7575   0.725   6.541   3.480
 2226SOL     OW 7576   2.864   5.329   0.662
 2226SOL    HW1 7577   2.798   5.401   0.683
 2226SOL    HW2 7578   2.956   5.361   0.683
 2227SOL     OW 7579   4.141   2.495   1.693
 2227SOL    HW1 7580   4.199   2.445   1.757
 2227SOL    HW2 7581   4.197   2.535   1.620
 2228SOL     OW 7582   4.322   5.113   0.381
 2228SOL    HW1 7583   4.336   5.023   0.424
 2228SOL    HW2 7584   4.405   5.139   0.332
 2229SOL     OW 7585   3.309   3.566   4.613
 2229SOL    HW1 7586   3.406   3.563   4.638
 2229SOL    HW2 7587   3.297   3.520   4.524
 2230SOL     OW 7588   5.321   6.528   0.831
 2230SOL    HW1 7589   5.288   6.436   0.850
 2230SOL    HW2 7590   5.247   6.583   0.793
 2231SOL     OW 7591   0.195   1.050   0.021
 2231SOL    HW1 7592   0.240   0.972   0.063
 2231SOL    HW2 7593   0.252   1.086   6.967
 2232SOL     OW 7594   1.496   0.308   5.496
 2232SOL    HW1 7595   1.405   0.336   5.465
 2232SOL    HW2 7596   1.515   0.351   5.584
 2233SOL     OW 7597   3.096   3.673   1.108
 2233SOL    HW1 7598   3.151   3.646   1.188
 2233SOL    HW2 7599   3.137   3.634   1.025
 2234SOL     OW 7600   3.705   1.452   0.602
 2234SOL    HW1 7601   3.773   1.420   0.668
 2234SOL    HW2 7602   3.744   1.527   0.548
 2235SOL     OW 7603   2.756   0.534   2.261
 2235SOL    HW1 7604   2.738   0.626   2.227
 2235SOL    HW2 7605   2.833   0.537   2.325
 2236SOL     OW 7606   1.730   4.003   5.778
 2236SOL    HW1 7607   1.715   4.069   5.704
 2236SOL    HW2 7608   1.662   3.931   5.772
 2237SOL     OW 7609   5.832   5.265   5.273
 2237SOL    HW1 7610   5.778   5.282   5.355
 2237SOL    HW2 7611   5.927   5.293   5.289
 2238SOL     OW 7612   5.049   4.679   2.637
 2238SOL    HW1 7613   4.991   4.599   2.648
 2238SOL    HW2 7614   4.999   4.750   2.587
 2239SOL     OW 7615   3.275   6.298   3.823
 2239SOL    HW1 7616   3.181   6.304   3.855
 2239SOL    HW2 7617   3.326   6.233   3.879
 2240SOL     OW 7618   4.603   5.853   3.072
 2240SOL    HW1 7619   4.604   5.924   3.001
 2240SOL    HW2 7620   4.681   5.793   3.060
 2241SOL     OW 7621   0.317   6.821   1.762
 2241SOL    HW1 7622   0.284   6.738   1.718
 2241SOL    HW2 7623   0.293   6.819   1.859
 2242SOL     OW 7624   5.386   3.088   3.035
 2242SOL    HW1 7625   5.421   3.084   2.941
 2242SOL    HW2 7626   5.289   3.065   3.035
 2243SOL     OW 7627   2.481   6.556   0.140
 2243SOL    HW1 7628   2.400   6.520   0.094
 2243SOL    HW2 7629   2.563   6.516   0.100
 2244SOL     OW 7630   2.714   0.684   1.115
 2244SOL    HW1 7631   2.634   0.701   1.173
 2244SOL    HW2 7632   2.731   0.586   1.110
 2245SOL     OW 7633   0.851   1.253   0.760
 2245SOL    HW1 7634   0.888   1.286   0.673
 2245SOL    HW2 7635   0.806   1.165   0.746
 2246SOL     OW 7636   2.202   0.763   4.417
 2246SOL    HW1 7637   2.185   0.816   4.500
 2246SOL    HW2 7638   2.174   0.669   4.432
 2247SOL     OW 7639   3.433   3.970   2.404
 2247SOL    HW1 7640   3.420   4.036   2.329
 2247SOL    HW2 7641   3.353   3.912   2.411
 2248SOL     OW 7642   5.810   4.627   5.187
 2248SOL    HW1 7643   5.887   4.681   5.221
 2248SOL    HW2 7644   5.784   4.560   5.257
 2249SOL     OW 7645   2.983   6.556   3.569
 2249SOL    HW1 7646   3.016   6.463   3.552
 2249SOL    HW2 7647   2.883   6.556   3.573
 2250SOL     OW 7648   3.673   4.029   5.690
 2250SOL    HW1 7649   3.669   3.960   5.618
 2250SOL    HW2 7650   3.694   4.118   5.649
 2251SOL     OW 7651   5.294   6.564   6.486
 2251SOL    HW1 7652   5.210   6.547   6.434
 2251SOL    HW2 7653   5.280   6.644   6.545
 2252SOL     OW 7654   5.487   1.832   3.281
 2252SOL    HW1 7655   5.436   1.886   3.348
 2252SOL    HW2 7656   5.585   1.852   3.291
 2253SOL     OW 7657   0.570   3.039   0.492
 2253SOL    HW1 7658   0.641   3.105   0.519
 2253SOL    HW2 7659   0.594   2.948   0.526
 2254SOL     OW 7660   3.510   4.133   2.606
 2254SOL    HW1 7661   3.510   4.090   2.516
 2254SOL    HW2 7662   3.593   4.106   2.656
 2255SOL     OW 7663   2.892   4.156   5.252
 2255SOL    HW1 7664   2.986   4.184   5.269
 2255SOL    HW2 7665   2.829   4.219   5.297
 2256SOL     OW 7666   4.717   6.352   2.479
 2256SOL    HW1 7667   4.698   6.398   2.566
 2256SOL    HW2 7668   4.738   6.421   2.409
 2257SOL     OW 7669   0.885   1.486   4.060
 2257SOL    HW1 7670   0.974   1.441   4.058
 2257SOL    HW2 7671   0.823   1.434   4.119
 2258SOL     OW 7672   1.997   6.500   4.820
 2258SOL    HW1 7673   2.062   6.425   4.833
 2258SOL    HW2 7674   1.938   6.479   4.742
 2259SOL     OW 7675   6.262   2.497   4.468
 2259SOL    HW1 7676   6.239   2.588   4.433
 2259SOL    HW2 7677   6.186   2.463   4.523
 2260SOL     OW 7678   1.038   3.834   1.364
 2260SOL    HW1 7679   1.137   3.842   1.357
 2260SOL    HW2 7680   1.014   3.753   1.416
 2261SOL     OW 7681   6.410   4.021   0.553
 2261SOL    HW1 7682   6.508   4.013   0.567
 2261SOL    HW2 7683   6.391   4.049   0.459
 2262SOL     OW 7684   6.194   0.625   4.091
 2262SOL    HW1 7685   6.110   0.615   4.037
 2262SOL    HW2 7686   6.270   0.581   4.043
 2263SOL     OW 7687   1.011   5.279   0.519
 2263SOL    HW1 7688   1.004   5.242   0.612
 2263SOL    HW2 7689   0.928   5.256   0.468
 2264SOL     OW 7690   2.845   6.865   6.714
 2264SOL    HW1 7691   2.904   6.901   6.641
 2264SOL    HW2 7692   2.820   6.940   6.776
 2265SOL     OW 7693   1.585   0.267   4.238
 2265SOL    HW1 7694   1.523   0.315   4.176
 2265SOL    HW2 7695   1.661   0.328   4.263
 2266SOL     OW 7696   5.175   1.213   6.222
 2266SOL    HW1 7697   5.148   1.163   6.140
 2266SOL    HW2 7698   5.274   1.227   6.221
 2267SOL     OW 7699   4.505   2.561   4.896
 2267SOL    HW1 7700   4.568   2.636   4.874
 2267SOL    HW2 7701   4.499   2.552   4.996
 2268SOL     OW 7702   5.979   4.288   6.387
 2268SOL    HW1 7703   5.925   4.205   6.404
 2268SOL    HW2 7704   5.945   4.335   6.306
 2269SOL     OW 7705   0.534   3.143   5.724
 2269SOL    HW1 7706   0.549   3.046   5.707
 2269SOL    HW2 7707   0.495   3.156   5.815
 2270SOL     OW 7708   4.472   3.200   5.921
 2270SOL    HW1 7709   4.415   3.159   5.993
 2270SOL    HW2 7710   4.559   3.150   5.915
 2271SOL     OW 7711   5.662   4.424   0.096
 2271SOL    HW1 7712   5.618   4.336   0.081
 2271SOL    HW2 7713   5.598   4.498   0.072
 2272SOL     OW 7714   6.470   0.831   6.344
 2272SOL    HW1 7715   6.435   0.822   6.437
 2272SOL    HW2 7716   6.544   0.898   6.343
 2273SOL     OW 7717   2.095   2.465   2.228
 2273SOL    HW1 7718   2.098   2.376   2.275
 2273SOL    HW2 7719   2.041   2.529   2.282
 2274SOL     OW 7720   0.283   1.748   0.209
 2274SOL    HW1 7721   0.355   1.775   0.273
 2274SOL    HW2 7722   0.238   1.830   0.174
 2275SOL     OW 7723   5.845   5.011   2.281
 2275SOL    HW1 7724   5.884   4.920   2.267
 2275SOL    HW2 7725   5.747   5.008   2.261
 2276SOL     OW 7726   1.627   0.561   1.347
 2276SOL    HW1 7727   1.672   0.645   1.316
 2276SOL    HW2 7728   1.647   0.487   1.283
 2277SOL     OW 7729   2.914   3.613   3.322
 2277SOL    HW1 7730   2.996   3.655   3.282
 2277SOL    HW2 7731   2.835   3.670   3.300
 2278SOL     OW 7732   0.298   2.899   4.122
 2278SOL    HW1 7733   0.219   2.938   4.076
 2278SOL    HW2 7734   0.291   2.914   4.220
 2279SOL     OW 7735   6.752   6.002   5.840
 2279SOL    HW1 7736   6.695   5.931   5.800
 2279SOL    HW2 7737   6.783   5.974   5.931
 2280SOL     OW 7738   5.748   0.721   5.441
 2280SOL    HW1 7739   5.701   0.746   5.356
 2280SOL    HW2 7740   5.726   0.626   5.464
 2281SOL     OW 7741   4.509   6.700   2.438
 2281SOL    HW1 7742   4.521   6.742   2.528
 2281SOL    HW2 7743   4.416   6.663   2.431
 2282SOL     OW 7744   4.897   5.588   5.342
 2282SOL    HW1 7745   4.886   5.569   5.245
 2282SOL    HW2 7746   4.811   5.620   5.381
 2283SOL     OW 7747   1.868   0.603   3.076
 2283SOL    HW1 7748   1.780   0.649   3.085
 2283SOL    HW2 7749   1.911   0.595   3.166
 2284SOL     OW 7750   0.711   3.100   6.061
 2284SOL    HW1 7751   0.619   3.070   6.036
 2284SOL    HW2 7752   0.764   3.119   5.979
 2285SOL     OW 7753   1.128   3.748   6.692
 2285SOL    HW1 7754   1.070   3.720   6.768
 2285SOL    HW2 7755   1.077   3.738   6.606
 2286SOL     OW 7756   5.135   6.455   3.056
 2286SOL    HW1 7757   5.085   6.537   3.085
 2286SOL    HW2 7758   5.233   6.468   3.072
 2287SOL     OW 7759   2.747   1.198   3.330
 2287SOL    HW1 7760   2.738   1.100   3.347
 2287SOL    HW2 7761   2.656   1.240   3.324
 2288SOL     OW 7762   0.007   4.710   3.643
 2288SOL    HW1 7763   0.104   4.695   3.664
 2288SOL    HW2 7764   7.009   4.808   3.641
 2289SOL     OW 7765   0.184   5.174   1.412
 2289SOL    HW1 7766   0.134   5.249   1.456
 2289SOL    HW2 7767   0.241   5.128   1.480
 2290SOL     OW 7768   1.034   4.270   1.021
 2290SOL    HW1 7769   0.988   4.222   1.096
 2290SOL    HW2 7770   0.986   4.355   1.002
 2291SOL     OW 7771   3.217   1.701   5.589
 2291SOL    HW1 7772   3.121   1.690   5.565
 2291SOL    HW2 7773   3.267   1.739   5.511
 2292SOL     OW 7774   1.213   1.045   5.064
 2292SOL    HW1 7775   1.138   0.997   5.017
 2292SOL    HW2 7776   1.176   1.100   5.139
 2293SOL     OW 7777   5.377   5.930   1.415
 2293SOL    HW1 7778   5.401   6.002   1.349
 2293SOL    HW2 7779   5.345   5.972   1.500
 2294SOL     OW 7780   3.602   6.808   0.080
 2294SOL    HW1 7781   3.696   6.810   0.115
 2294SOL    HW2 7782   3.573   6.714   0.065
 2295SOL     OW 7783   0.212   1.929   2.169
 2295SOL    HW1 7784   0.142   1.870   2.128
 2295SOL    HW2 7785   0.265   1.973   2.097
 2296SOL     OW 7786   3.295   0.769   0.608
 2296SOL    HW1 7787   3.302   0.717   0.523
 2296SOL    HW2 7788   3.248   0.715   0.677
 2297SOL     OW 7789   4.304   3.914   5.788
 2297SOL    HW1 7790   4.303   3.992   5.725
 2297SOL    HW2 7791   4.263   3.835   5.744
 2298SOL     OW 7792   3.842   2.617   0.650
 2298SOL    HW1 7793   3.798   2.598   0.563
 2298SOL    HW2 7794   3.797   2.564   0.723
 2299SOL     OW 7795   5.003   6.163   6.988
 2299SOL    HW1 7796   4.990   6.113   6.902
 2299SOL    HW2 7797   4.968   6.256   6.979
 2300SOL     OW 7798   1.576   5.694   1.346
 2300SOL    HW1 7799   1.630   5.616   1.378
 2300SOL    HW2 7800   1.612   5.725   1.258
 2301SOL     OW 7801   3.327   3.323   3.160
 2301SOL    HW1 7802   3.368   3.335   3.070
 2301SOL    HW2 7803   3.294   3.229   3.169
 2302SOL     OW 7804   3.658   6.255   2.666
 2302SOL    HW1 7805   3.629   6.345   2.633
 2302SOL    HW2 7806   3.658   6.255   2.766
 2303SOL     OW 7807   1.047   3.438   5.468
 2303SOL    HW1 7808   1.012   3.396   5.552
 2303SOL    HW2 7809   1.051   3.537   5.480
 2304SOL     OW 7810   2.602   0.193   3.671
 2304SOL    HW1 7811   2.665   0.185   3.748
 2304SOL    HW2 7812   2.646   0.244   3.597
 2305SOL     OW 7813   4.118   5.506   2.937
 2305SOL    HW1 7814   4.206   5.469   2.906
 2305SOL    HW2 7815   4.052   5.431   2.945
 2306SOL     OW 7816   2.174   4.739   1.715
 2306SOL    HW1 7817   2.085   4.724   1.756
 2306SOL    HW2 7818   2.187   4.675   1.639
 2307SOL     OW 7819   1.940   4.031   3.045
 2307SOL    HW1 7820   2.009   3.970   3.083
 2307SOL    HW2 7821   1.966   4.056   2.952
 2308SOL     OW 7822   0.677   0.833   6.302
 2308SOL    HW1 7823   0.638   0.860   6.390
 2308SOL    HW2 7824   0.624   0.875   6.228
 2309SOL     OW 7825   3.197   5.811   6.910
 2309SOL    HW1 7826   3.274   5.855   6.955
 2309SOL    HW2 7827   3.175   5.726   6.957
 2310SOL     OW 7828   6.180   6.797   1.655
 2310SOL    HW1 7829   6.193   6.714   1.709
 2310SOL    HW2 7830   6.106   6.782   1.589
 2311SOL     OW 7831   2.698   6.870   2.725
 2311SOL    HW1 7832   2.789   6.902   2.753
 2311SOL    HW2 7833   2.703   6.775   2.695
 2312SOL     OW 7834   2.982   6.878   3.127
 2312SOL    HW1 7835   3.035   6.931   3.060
 2312SOL    HW2 7836   3.041   6.809   3.168
 2313SOL     OW 7837   4.970   4.625   2.000
 2313SOL    HW1 7838   4.953   4.711   2.047
 2313SOL    HW2 7839   4.882   4.581   1.978
 2314SOL     OW 7840   6.299   0.665   3.468
 2314SOL    HW1 7841   6.369   0.735   3.485
 2314SOL    HW2 7842   6.258   0.638   3.555
 2315SOL     OW 7843   4.962   3.697   5.910
 2315SOL    HW1 7844   4.980   3.708   5.812
 2315SOL    HW2 7845   5.035   3.642   5.951
 2316SOL     OW 7846   2.461   1.138   5.811
 2316SOL    HW1 7847   2.440   1.224   5.764
 2316SOL    HW2 7848   2.383   1.110   5.867
 2317SOL     OW 7849   6.630   6.501   4.187
 2317SOL    HW1 7850   6.728   6.523   4.194
 2317SOL    HW2 7851   6.590   6.500   4.278
 2318SOL     OW 7852   2.090   3.922   4.595
 2318SOL    HW1 7853   2.111   4.005   4.543
 2318SOL    HW2 7854   2.106   3.940   4.693
 2319SOL     OW 7855   3.283   5.223   4.521
 2319SOL    HW1 7856   3.371   5.269   4.529
 2319SOL    HW2 7857   3.278   5.149   4.588
 2320SOL     OW 7858   1.346   2.617   6.015
 2320SOL    HW1 7859   1.404   2.686   5.971
 2320SOL    HW2 7860   1.269   2.661   6.061
 2321SOL     OW 7861   2.734   5.271   6.360
 2321SOL    HW1 7862   2.831   5.284   6.338
 2321SOL    HW2 7863   2.683   5.256   6.275
 2322SOL     OW 7864   1.835   4.077   2.141
 2322SOL    HW1 7865   1.770   4.005   2.114
 2322SOL    HW2 7866   1.911   4.036   2.190
 2323SOL     OW 7867   3.398   4.947   1.970
 2323SOL    HW1 7868   3.455   4.865   1.962
 2323SOL    HW2 7869   3.302   4.920   1.975
 2324SOL     OW 7870   0.184   6.338   1.761
 2324SOL    HW1 7871   0.098   6.286   1.759
 2324SOL    HW2 7872   0.255   6.286   1.712
 2325SOL     OW 7873   6.910   4.802   1.564
 2325SOL    HW1 7874   6.984   4.740   1.586
 2325SOL    HW2 7875   6.891   4.862   1.642
 2326SOL     OW 7876   1.670   6.106   6.527
 2326SOL    HW1 7877   1.585   6.158   6.519
 2326SOL    HW2 7878   1.653   6.021   6.577
 2327SOL     OW 7879   7.014   0.935   3.259
 2327SOL    HW1 7880   0.082   0.888   3.260
 2327SOL    HW2 7881   6.958   0.900   3.184
 2328SOL     OW 7882   1.140   2.069   2.680
 2328SOL    HW1 7883   1.207   1.995   2.678
 2328SOL    HW2 7884   1.052   2.035   2.646
 2329SOL     OW 7885   0.755   4.410   4.585
 2329SOL    HW1 7886   0.746   4.504   4.618
 2329SOL    HW2 7887   0.799   4.354   4.656
 2330SOL     OW 7888   0.221   3.025   0.351
 2330SOL    HW1 7889   0.293   3.094   0.343
 2330SOL    HW2 7890   0.178   3.030   0.441
 2331SOL     OW 7891   2.672   5.141   6.593
 2331SOL    HW1 7892   2.698   5.154   6.497
 2331SOL    HW2 7893   2.750   5.161   6.652
 2332SOL     OW 7894   6.613   0.022   5.793
 2332SOL    HW1 7895   6.662   0.099   5.835
 2332SOL    HW2 7896   6.539   7.013   5.853
 2333SOL     OW 7897   7.008   4.841   2.924
 2333SOL    HW1 7898   6.940   4.845   2.998
 2333SOL    HW2 7899   6.989   4.914   2.858
 2334SOL     OW 7900   1.394   1.537   6.685
 2334SOL    HW1 7901   1.409   1.438   6.676
 2334SOL    HW2 7902   1.352   1.572   6.601
 2335SOL     OW 7903   5.962   0.575   3.915
 2335SOL    HW1 7904   5.950   0.494   3.857
 2335SOL    HW2 7905   5.982   0.654   3.857
 2336SOL     OW 7906   2.819   1.675   3.742
 2336SOL    HW1 7907   2.744   1.609   3.741
 2336SOL    HW2 7908   2.824   1.717   3.833
 2337SOL     OW 7909   4.480   1.491   2.063
 2337SOL    HW1 7910   4.418   1.413   2.051
 2337SOL    HW2 7911   4.470   1.527   2.156
 2338SOL     OW 7912   0.553   2.989   4.476
 2338SOL    HW1 7913   0.596   3.043   4.404
 2338SOL    HW2 7914   0.583   2.894   4.469
 2339SOL     OW 7915   3.087   3.109   3.052
 2339SOL    HW1 7916   3.048   3.119   3.144
 2339SOL    HW2 7917   3.070   3.192   2.999
 2340SOL     OW 7918   0.409   4.676   0.143
 2340SOL    HW1 7919   0.385   4.753   0.084
 2340SOL    HW2 7920   0.501   4.644   0.120
 2341SOL     OW 7921   3.127   4.894   2.020
 2341SOL    HW1 7922   3.068   4.841   1.959
 2341SOL    HW2 7923   3.095   4.989   2.024
 2342SOL     OW 7924   1.888   6.917   4.415
 2342SOL    HW1 7925   1.986   6.912   4.433
 2342SOL    HW2 7926   1.852   6.825   4.398
 2343SOL     OW 7927   1.924   5.702   3.094
 2343SOL    HW1 7928   2.005   5.718   3.037
 2343SOL    HW2 7929   1.908   5.781   3.152
 2344SOL     OW 7930   6.822   6.242   6.946
 2344SOL    HW1 7931   6.863   6.239   6.855
 2344SOL    HW2 7932   6.785   6.152   6.969
 2345SOL     OW 7933   2.582   5.419   4.646
 2345SOL    HW1 7934   2.655   5.418   4.578
 2345SOL    HW2 7935   2.510   5.482   4.617
 2346SOL     OW 7936   3.945   3.293   5.761
 2346SOL    HW1 7937   3.868   3.262   5.818
 2346SOL    HW2 7938   3.929   3.388   5.733
 2347SOL     OW 7939   2.134   1.762   1.586
 2347SOL    HW1 7940   2.215   1.770   1.528
 2347SOL    HW2 7941   2.152   1.697   1.660
 2348SOL     OW 7942   2.160   6.413   4.185
 2348SOL    HW1 7943   2.195   6.354   4.113
 2348SOL    HW2 7944   2.163   6.508   4.155
 2349SOL     OW 7945   0.584   4.599   6.221
 2349SOL    HW1 7946   0.517   4.647   6.276
 2349SOL    HW2 7947   0.638   4.664   6.168
 2350SOL     OW 7948   5.950   5.217   6.011
 2350SOL    HW1 7949   6.016   5.148   6.040
 2350SOL    HW2 7950   5.959   5.232   5.912
 2351SOL     OW 7951   3.474   5.221   3.847
 2351SOL    HW1 7952   3.378   5.246   3.837
 2351SOL    HW2 7953   3.481   5.124   3.870
 2352SOL     OW 7954   0.346   2.972   2.792
 2352SOL    HW1 7955   0.278   2.925   2.736
 2352SOL    HW2 7956   0.405   2.904   2.835
 2353SOL     OW 7957   3.623   4.981   4.614
 2353SOL    HW1 7958   3.684   5.000   4.691
 2353SOL    HW2 7959   3.673   4.992   4.528
 2354SOL     OW 7960   2.394   2.188   4.779
 2354SOL    HW1 7961   2.469   2.238   4.736
 2354SOL    HW2 7962   2.392   2.094   4.743
 2355SOL     OW 7963   2.132   6.540   6.149
 2355SOL    HW1 7964   2.125   6.491   6.062
 2355SOL    HW2 7965   2.228   6.548   6.175
 2356SOL     OW 7966   1.418   2.906   6.203
 2356SOL    HW1 7967   1.483   2.871   6.271
 2356SOL    HW2 7968   1.393   3.000   6.228
 2357SOL     OW 7969   4.120   1.053   1.879
 2357SOL    HW1 7970   4.171   1.136   1.853
 2357SOL    HW2 7971   4.185   0.978   1.895
 2358SOL     OW 7972   2.671   5.357   5.449
 2358SOL    HW1 7973   2.703   5.294   5.378
 2358SOL    HW2 7974   2.624   5.305   5.521
 2359SOL     OW 7975   0.438   0.794   6.061
 2359SOL    HW1 7976   0.395   0.755   6.142
 2359SOL    HW2 7977   0.424   0.734   5.983
 2360SOL     OW 7978   6.034   3.864   0.335
 2360SOL    HW1 7979   6.125   3.828   0.318
 2360SOL    HW2 7980   5.985   3.874   0.248
 2361SOL     OW 7981   2.667   0.609   6.471
 2361SOL    HW1 7982   2.647   0.690   6.526
 2361SOL    HW2 7983   2.754   0.569   6.500
 2362SOL     OW 7984   2.735   5.873   3.930
 2362SOL    HW1 7985   2.779   5.805   3.989
 2362SOL    HW2 7986   2.788   5.885   3.846
 2363SOL     OW 7987   3.658   2.012   4.664
 2363SOL    HW1 7988   3.719   2.057   4.599
 2363SOL    HW2 7989   3.694   1.922   4.687
 2364SOL     OW 7990   1.410   2.913   2.694
 2364SOL    HW1 7991   1.343   2.871   2.631
 2364SOL    HW2 7992   1.502   2.885   2.667
 2365SOL     OW 7993   6.653   2.072   6.656
 2365SOL    HW1 7994   6.643   1.987   6.707
 2365SOL    HW2 7995   6.594   2.069   6.574
 2366SOL     OW 7996   2.506   5.466   6.904
 2366SOL    HW1 7997   2.526   5.510   6.992
 2366SOL    HW2 7998   2.552   5.377   6.901
 2367SOL     OW 7999   2.385   3.672   0.811
 2367SOL    HW1 8000   2.330   3.595   0.778
 2367SOL    HW2 8001   2.439   3.642   0.890
 2368SOL     OW 8002   5.463   6.539   4.655
 2368SOL    HW1 8003   5.436   6.448   4.684
 2368SOL    HW2 8004   5.528   6.577   4.720
 2369SOL     OW 8005   1.810   0.099   4.634
 2369SOL    HW1 8006   1.719   0.119   4.598
 2369SOL    HW2 8007   1.858   0.038   4.571
 2370SOL     OW 8008   5.963   3.164   0.068
 2370SOL    HW1 8009   6.018   3.152   0.151
 2370SOL    HW2 8010   5.972   3.258   0.035
 2371SOL     OW 8011   2.119   0.261   1.758
 2371SOL    HW1 8012   2.089   0.300   1.845
 2371SOL    HW2 8013   2.178   0.182   1.776
 2372SOL     OW 8014   6.733   2.704   1.974
 2372SOL    HW1 8015   6.785   2.789   1.972
 2372SOL    HW2 8016   6.773   2.639   1.909
 2373SOL     OW 8017   0.985   3.520   5.928
 2373SOL    HW1 8018   1.053   3.590   5.907
 2373SOL    HW2 8019   0.903   3.563   5.965
 2374SOL     OW 8020   6.349   1.657   4.248
 2374SOL    HW1 8021   6.326   1.642   4.152
 2374SOL    HW2 8022   6.365   1.569   4.292
 2375SOL     OW 8023   3.364   6.200   5.458
 2375SOL    HW1 8024   3.288   6.189   5.522
 2375SOL    HW2 8025   3.383   6.112   5.414
 2376SOL     OW 8026   6.869   2.919   4.197
 2376SOL    HW1 8027   6.796   2.897   4.133
 2376SOL    HW2 8028   6.838   2.904   4.290
 2377SOL     OW 8029   3.431   3.918   3.907
 2377SOL    HW1 8030   3.508   3.873   3.863
 2377SOL    HW2 8031   3.455   3.943   4.001
 2378SOL     OW 8032   5.034   1.961   0.083
 2378SOL    HW1 8033   5.063   1.958   0.178
 2378SOL    HW2 8034   5.112   1.989   0.025
 2379SOL     OW 8035   6.628   0.711   0.686
 2379SOL    HW1 8036   6.556   0.781   0.689
 2379SOL    HW2 8037   6.623   0.662   0.599
 2380SOL     OW 8038   6.775   2.213   0.026
 2380SOL    HW1 8039   6.832   2.286   7.009
 2380SOL    HW2 8040   6.829   2.130   0.037
 2381SOL     OW 8041   2.553   5.655   3.496
 2381SOL    HW1 8042   2.602   5.738   3.469
 2381SOL    HW2 8043   2.578   5.630   3.590
 2382SOL     OW 8044   1.845   4.056   4.552
 2382SOL    HW1 8045   1.886   4.145   4.531
 2382SOL    HW2 8046   1.917   3.993   4.581
 2383SOL     OW 8047   5.624   6.856   0.764
 2383SOL    HW1 8048   5.698   6.860   0.697
 2383SOL    HW2 8049   5.561   6.782   0.740
 2384SOL     OW 8050   5.489   0.922   2.533
 2384SOL    HW1 8051   5.488   0.876   2.622
 2384SOL    HW2 8052   5.470   0.856   2.461
 2385SOL     OW 8053   0.167   0.616   0.422
 2385SOL    HW1 8054   0.220   0.675   0.362
 2385SOL    HW2 8055   0.214   0.606   0.510
 2386SOL     OW 8056   5.393   5.929   5.148
 2386SOL    HW1 8057   5.453   5.861   5.106
 2386SOL    HW2 8058   5.413   5.935   5.246
 2387SOL     OW 8059   2.143   1.896   4.057
 2387SOL    HW1 8060   2.142   1.995   4.069
 2387SOL    HW2 8061   2.180   1.874   3.967
 2388SOL     OW 8062   6.839   2.233   3.630
 2388SOL    HW1 8063   6.835   2.189   3.720
 2388SOL    HW2 8064   6.750   2.225   3.586
 2389SOL     OW 8065   4.456   4.590   3.469
 2389SOL    HW1 8066   4.474   4.515   3.406
 2389SOL    HW2 8067   4.530   4.657   3.465
 2390SOL     OW 8068   3.650   3.266   4.137
 2390SOL    HW1 8069   3.678   3.192   4.199
 2390SOL    HW2 8070   3.700   3.258   4.051
 2391SOL     OW 8071   5.119   4.151   6.382
 2391SOL    HW1 8072   5.201   4.175   6.435
 2391SOL    HW2 8073   5.119   4.053   6.365
 2392SOL     OW 8074   3.127   6.121   5.624
 2392SOL    HW1 8075   3.060   6.184   5.663
 2392SOL    HW2 8076   3.200   6.104   5.690
 2393SOL     OW 8077   5.091   3.877   6.250
 2393SOL    HW1 8078   5.096   3.924   6.162
 2393SOL    HW2 8079   5.016   3.812   6.248
 2394SOL     OW 8080   0.925   4.075   5.270
 2394SOL    HW1 8081   0.982   4.014   5.325
 2394SOL    HW2 8082   0.831   4.040   5.269
 2395SOL     OW 8083   5.030   0.238   6.030
 2395SOL    HW1 8084   5.096   0.299   5.986
 2395SOL    HW2 8085   5.008   0.163   5.968
 2396SOL     OW 8086   3.926   4.937   1.128
 2396SOL    HW1 8087   4.003   4.951   1.190
 2396SOL    HW2 8088   3.857   4.879   1.172
 2397SOL     OW 8089   0.237   3.790   5.193
 2397SOL    HW1 8090   0.325   3.783   5.240
 2397SOL    HW2 8091   0.253   3.791   5.094
 2398SOL     OW 8092   4.568   4.565   6.853
 2398SOL    HW1 8093   4.627   4.556   6.933
 2398SOL    HW2 8094   4.606   4.512   6.777
 2399SOL     OW 8095   4.935   0.750   1.106
 2399SOL    HW1 8096   4.882   0.777   1.025
 2399SOL    HW2 8097   4.873   0.716   1.177
 2400SOL     OW 8098   3.060   4.232   1.132
 2400SOL    HW1 8099   3.079   4.170   1.208
 2400SOL    HW2 8100   3.051   4.326   1.168
 2401SOL     OW 8101   5.275   6.325   0.590
 2401SOL    HW1 8102   5.276   6.225   0.591
 2401SOL    HW2 8103   5.200   6.357   0.533
 2402SOL     OW 8104   0.698   0.328   3.917
 2402SOL    HW1 8105   0.791   0.336   3.882
 2402SOL    HW2 8106   0.635   0.314   3.840
 2403SOL     OW 8107   2.099   1.882   6.410
 2403SOL    HW1 8108   2.030   1.839   6.352
 2403SOL    HW2 8109   2.079   1.980   6.418
 2404SOL     OW 8110   3.031   1.001   1.060
 2404SOL    HW1 8111   3.082   1.056   0.994
 2404SOL    HW2 8112   2.967   1.060   1.110
 2405SOL     OW 8113   3.465   3.501   2.219
 2405SOL    HW1 8114   3.533   3.563   2.257
 2405SOL    HW2 8115   3.429   3.539   2.134
 2406SOL     OW 8116   3.690   0.312   1.236
 2406SOL    HW1 8117   3.674   0.312   1.335
 2406SOL    HW2 8118   3.662   0.399   1.197
 2407SOL     OW 8119   5.911   2.093   3.279
 2407SOL    HW1 8120   6.010   2.105   3.273
 2407SOL    HW2 8121   5.865   2.181   3.265
 2408SOL     OW 8122   4.667   4.496   2.355
 2408SOL    HW1 8123   4.616   4.513   2.271
 2408SOL    HW2 8124   4.631   4.554   2.428
 2409SOL     OW 8125   2.284   4.393   2.097
 2409SOL    HW1 8126   2.338   4.471   2.129
 2409SOL    HW2 8127   2.218   4.425   2.028
 2410SOL     OW 8128   3.880   3.196   5.126
 2410SOL    HW1 8129   3.877   3.130   5.051
 2410SOL    HW2 8130   3.969   3.242   5.127
 2411SOL     OW 8131   5.097   6.131   4.286
 2411SOL    HW1 8132   4.997   6.138   4.284
 2411SOL    HW2 8133   5.134   6.158   4.198
 2412SOL     OW 8134   5.819   4.225   1.495
 2412SOL    HW1 8135   5.901   4.168   1.485
 2412SOL    HW2 8136   5.802   4.274   1.409
 2413SOL     OW 8137   6.385   0.693   1.021
 2413SOL    HW1 8138   6.376   0.731   1.113
 2413SOL    HW2 8139   6.410   0.596   1.027
 2414SOL     OW 8140   5.049   4.238   3.234
 2414SOL    HW1 8141   4.953   4.264   3.229
 2414SOL    HW2 8142   5.096   4.269   3.151
 2415SOL     OW 8143   5.922   1.730   3.054
 2415SOL    HW1 8144   5.843   1.783   3.087
 2415SOL    HW2 8145   5.920   1.725   2.955
 2416SOL     OW 8146   5.159   2.205   4.882
 2416SOL    HW1 8147   5.066   2.169   4.893
 2416SOL    HW2 8148   5.205   2.207   4.970
 2417SOL     OW 8149   3.354   3.881   4.758
 2417SOL    HW1 8150   3.265   3.900   4.716
 2417SOL    HW2 8151   3.413   3.836   4.691
 2418SOL     OW 8152   4.057   3.279   4.525
 2418SOL    HW1 8153   4.079   3.270   4.428
 2418SOL    HW2 8154   4.136   3.254   4.580
 2419SOL     OW 8155   0.282   6.549   3.674
 2419SOL    HW1 8156   0.381   6.562   3.674
 2419SOL    HW2 8157   0.261   6.455   3.703
 2420SOL     OW 8158   2.907   0.335   3.004
 2420SOL    HW1 8159   2.948   0.267   3.065
 2420SOL    HW2 8160   2.950   0.424   3.019
 2421SOL     OW 8161   2.120   2.565   4.803
 2421SOL    HW1 8162   2.173   2.525   4.878
 2421SOL    HW2 8163   2.034   2.601   4.838
 2422SOL     OW 8164   4.984   1.803   0.388
 2422SOL    HW1 8165   4.934   1.886   0.412
 2422SOL    HW2 8166   5.071   1.828   0.345
 2423SOL     OW 8167   2.119   6.314   2.049
 2423SOL    HW1 8168   2.085   6.316   2.143
 2423SOL    HW2 8169   2.154   6.404   2.024
 2424SOL     OW 8170   6.505   6.828   0.183
 2424SOL    HW1 8171   6.595   6.810   0.222
 2424SOL    HW2 8172   6.438   6.840   0.257
 2425SOL     OW 8173   5.797   0.347   3.786
 2425SOL    HW1 8174   5.732   0.414   3.750
 2425SOL    HW2 8175   5.749   0.281   3.844
 2426SOL     OW 8176   1.326   5.411   5.605
 2426SOL    HW1 8177   1.378   5.381   5.525
 2426SOL    HW2 8178   1.315   5.335   5.669
 2427SOL     OW 8179   5.683   5.888   5.813
 2427SOL    HW1 8180   5.596   5.839   5.806
 2427SOL    HW2 8181   5.734   5.878   5.727
 2428SOL     OW 8182   0.673   0.845   1.953
 2428SOL    HW1 8183   0.605   0.772   1.964
 2428SOL    HW2 8184   0.755   0.821   2.005
 2429SOL     OW 8185   5.335   5.773   1.871
 2429SOL    HW1 8186   5.337   5.747   1.775
 2429SOL    HW2 8187   5.393   5.854   1.884
 2430SOL     OW 8188   6.528   1.067   1.978
 2430SOL    HW1 8189   6.499   1.132   1.908
 2430SOL    HW2 8190   6.507   0.974   1.947
 2431SOL     OW 8191   4.398   1.212   2.206
 2431SOL    HW1 8192   4.434   1.126   2.243
 2431SOL    HW2 8193   4.435   1.289   2.258
 2432SOL     OW 8194   4.297   6.413   2.196
 2432SOL    HW1 8195   4.276   6.415   2.293
 2432SOL    HW2 8196   4.221   6.452   2.144
 2433SOL     OW 8197   4.782   1.366   0.003
 2433SOL    HW1 8198   4.777   1.440   0.070
 2433SOL    HW2 8199   4.795   1.279   0.050
 2434SOL     OW 8200   3.855   1.090   5.690
 2434SOL    HW1 8201   3.910   1.074   5.772
 2434SOL    HW2 8202   3.760   1.065   5.708
 2435SOL     OW 8203   5.166   5.463   5.283
 2435SOL    HW1 8204   5.096   5.534   5.289
 2435SOL    HW2 8205   5.252   5.497   5.321
 2436SOL     OW 8206   1.875   5.914   6.419
 2436SOL    HW1 8207   1.853   6.008   6.446
 2436SOL    HW2 8208   1.972   5.908   6.395
 2437SOL     OW 8209   5.768   0.015   5.908
 2437SOL    HW1 8210   5.680   0.001   5.864
 2437SOL    HW2 8211   5.800   6.949   5.948
 2438SOL     OW 8212   3.288   2.380   0.813
 2438SOL    HW1 8213   3.303   2.286   0.782
 2438SOL    HW2 8214   3.364   2.408   0.873
 2439SOL     OW 8215   6.875   4.252   6.060
 2439SOL    HW1 8216   6.957   4.279   6.009
 2439SOL    HW2 8217   6.808   4.325   6.056
 2440SOL     OW 8218   5.000   5.385   6.028
 2440SOL    HW1 8219   4.949   5.391   5.942
 2440SOL    HW2 8220   5.014   5.289   6.051
 2441SOL     OW 8221   6.908   1.914   0.856
 2441SOL    HW1 8222   6.860   1.841   0.808
 2441SOL    HW2 8223   6.854   1.998   0.851
 2442SOL     OW 8224   0.941   3.738   5.281
 2442SOL    HW1 8225   0.910   3.683   5.203
 2442SOL    HW2 8226   0.876   3.726   5.357
 2443SOL     OW 8227   2.848   3.776   6.456
 2443SOL    HW1 8228   2.845   3.867   6.415
 2443SOL    HW2 8229   2.883   3.783   6.549
 2444SOL     OW 8230   2.568   4.477   6.137
 2444SOL    HW1 8231   2.650   4.458   6.082
 2444SOL    HW2 8232   2.492   4.423   6.103
 2445SOL     OW 8233   0.388   0.969   1.037
 2445SOL    HW1 8234   0.319   0.962   0.964
 2445SOL    HW2 8235   0.466   0.911   1.014
 2446SOL     OW 8236   5.825   4.563   4.567
 2446SOL    HW1 8237   5.741   4.610   4.592
 2446SOL    HW2 8238   5.871   4.529   4.649
 2447SOL     OW 8239   1.488   2.004   0.531
 2447SOL    HW1 8240   1.511   1.952   0.613
 2447SOL    HW2 8241   1.395   2.041   0.540
 2448SOL     OW 8242   0.691   0.097   4.803
 2448SOL    HW1 8243   0.645   0.177   4.765
 2448SOL    HW2 8244   0.790   0.109   4.794
 2449SOL     OW 8245   7.005   3.880   6.839
 2449SOL    HW1 8246   6.961   3.794   6.866
 2449SOL    HW2 8247   7.013   3.883   6.739
 2450SOL     OW 8248   2.568   4.597   2.831
 2450SOL    HW1 8249   2.473   4.629   2.841
 2450SOL    HW2 8250   2.574   4.502   2.859
 2451SOL     OW 8251   2.021   6.085   3.772
 2451SOL    HW1 8252   1.973   6.110   3.687
 2451SOL    HW2 8253   2.088   6.013   3.752
 2452SOL     OW 8254   1.194   3.568   2.928
 2452SOL    HW1 8255   1.204   3.468   2.932
 2452SOL    HW2 8256   1.159   3.594   2.838
 2453SOL     OW 8257   6.501   4.912   1.472
 2453SOL    HW1 8258   6.533   4.905   1.377
 2453SOL    HW2 8259   6.404   4.888   1.477
 2454SOL     OW 8260   3.527   0.449   1.788
 2454SOL    HW1 8261   3.484   0.397   1.713
 2454SOL    HW2 8262   3.460   0.512   1.828
 2455SOL     OW 8263   5.089   5.682   0.748
 2455SOL    HW1 8264   5.031   5.602   0.734
 2455SOL    HW2 8265   5.043   5.745   0.811
 2456SOL     OW 8266   5.033   6.317   1.666
 2456SOL    HW1 8267   5.122   6.345   1.703
 2456SOL    HW2 8268   4.980   6.271   1.737
 2457SOL     OW 8269   5.186   6.510   1.393
 2457SOL    HW1 8270   5.233   6.597   1.407
 2457SOL    HW2 8271   5.115   6.522   1.323
 2458SOL     OW 8272   1.125   5.219   2.746
 2458SOL    HW1 8273   1.175   5.306   2.740
 2458SOL    HW2 8274   1.049   5.220   2.680
 2459SOL     OW 8275   2.414   0.540   0.663
 2459SOL    HW1 8276   2.413   0.517   0.565
 2459SOL    HW2 8277   2.357   0.475   0.713
 2460SOL     OW 8278   3.235   5.950   1.480
 2460SOL    HW1 8279   3.195   5.880   1.420
 2460SOL    HW2 8280   3.164   6.016   1.505
 2461SOL     OW 8281   5.618   0.456   1.875
 2461SOL    HW1 8282   5.559   0.505   1.810
 2461SOL    HW2 8283   5.711   0.491   1.870
 2462SOL     OW 8284   2.137   5.452   6.470
 2462SOL    HW1 8285   2.196   5.497   6.403
 2462SOL    HW2 8286   2.100   5.367   6.430
 2463SOL     OW 8287   6.210   1.845   3.340
 2463SOL    HW1 8288   6.189   1.941   3.320
 2463SOL    HW2 8289   6.154   1.786   3.281
 2464SOL     OW 8290   0.861   3.376   0.930
 2464SOL    HW1 8291   0.839   3.281   0.908
 2464SOL    HW2 8292   0.941   3.405   0.877
 2465SOL     OW 8293   6.841   5.972   3.361
 2465SOL    HW1 8294   6.883   6.015   3.281
 2465SOL    HW2 8295   6.913   5.948   3.426
 2466SOL     OW 8296   3.530   1.465   2.330
 2466SOL    HW1 8297   3.531   1.507   2.420
 2466SOL    HW2 8298   3.517   1.536   2.260
 2467SOL     OW 8299   6.842   1.035   5.912
 2467SOL    HW1 8300   6.744   1.042   5.932
 2467SOL    HW2 8301   6.871   1.117   5.862
 2468SOL     OW 8302   6.860   5.549   1.296
 2468SOL    HW1 8303   6.857   5.519   1.201
 2468SOL    HW2 8304   6.903   5.478   1.352
 2469SOL     OW 8305   2.383   2.878   5.404
 2469SOL    HW1 8306   2.283   2.886   5.404
 2469SOL    HW2 8307   2.422   2.948   5.344
 2470SOL     OW 8308   4.866   2.882   0.122
 2470SOL    HW1 8309   4.783   2.862   0.071
 2470SOL    HW2 8310   4.855   2.968   0.171
 2471SOL     OW 8311   1.036   6.921   3.056
 2471SOL    HW1 8312   1.002   7.013   3.038
 2471SOL    HW2 8313   1.009   6.860   2.982
 2472SOL     OW 8314   5.515   1.723   3.949
 2472SOL    HW1 8315   5.603   1.693   3.912
 2472SOL    HW2 8316   5.531   1.787   4.024
 2473SOL     OW 8317   0.749   5.977   4.307
 2473SOL    HW1 8318   0.739   6.010   4.401
 2473SOL    HW2 8319   0.846   5.977   4.282
 2474SOL     OW 8320   7.002   4.328   5.148
 2474SOL    HW1 8321   6.927   4.262   5.145
 2474SOL    HW2 8322   0.050   4.298   5.214
 2475SOL     OW 8323   4.870   2.245   0.064
 2475SOL    HW1 8324   4.921   2.172   0.019
 2475SOL    HW2 8325   4.789   2.207   0.110
 2476SOL     OW 8326   1.259   1.795   4.149
 2476SOL    HW1 8327   1.190   1.766   4.083
 2476SOL    HW2 8328   1.350   1.765   4.119
 2477SOL     OW 8329   4.708   5.125   1.045
 2477SOL    HW1 8330   4.785   5.139   0.982
 2477SOL    HW2 8331   4.730   5.053   1.110
 2478SOL     OW 8332   6.652   6.889   2.822
 2478SOL    HW1 8333   6.594   6.971   2.826
 2478SOL    HW2 8334   6.732   6.907   2.765
 2479SOL     OW 8335   0.138   3.103   0.602
 2479SOL    HW1 8336   0.136   3.104   0.702
 2479SOL    HW2 8337   0.068   3.164   0.566
 2480SOL     OW 8338   0.513   3.247   1.443
 2480SOL    HW1 8339   0.443   3.318   1.450
 2480SOL    HW2 8340   0.602   3.289   1.428
 2481SOL     OW 8341   4.196   5.190   2.397
 2481SOL    HW1 8342   4.216   5.097   2.366
 2481SOL    HW2 8343   4.102   5.195   2.429
 2482SOL     OW 8344   4.955   2.336   4.755
 2482SOL    HW1 8345   4.917   2.344   4.847
 2482SOL    HW2 8346   5.046   2.293   4.761
 2483SOL     OW 8347   0.853   2.126   6.519
 2483SOL    HW1 8348   0.891   2.154   6.607
 2483SOL    HW2 8349   0.895   2.040   6.491
 2484SOL     OW 8350   3.464   2.065   6.828
 2484SOL    HW1 8351   3.542   2.099   6.882
 2484SOL    HW2 8352   3.403   2.141   6.806
 2485SOL     OW 8353   6.975   5.965   2.056
 2485SOL    HW1 8354   7.012   5.878   2.088
 2485SOL    HW2 8355   6.989   5.974   1.958
 2486SOL     OW 8356   1.573   5.164   3.251
 2486SOL    HW1 8357   1.503   5.227   3.284
 2486SOL    HW2 8358   1.542   5.122   3.165
 2487SOL     OW 8359   3.598   1.124   1.223
 2487SOL    HW1 8360   3.586   1.188   1.147
 2487SOL    HW2 8361   3.558   1.162   1.306
 2488SOL     OW 8362   2.983   6.246   0.496
 2488SOL    HW1 8363   2.978   6.212   0.402
 2488SOL    HW2 8364   2.892   6.273   0.527
 2489SOL     OW 8365   0.606   5.172   4.778
 2489SOL    HW1 8366   0.691   5.165   4.726
 2489SOL    HW2 8367   0.540   5.227   4.727
 2490SOL     OW 8368   5.104   3.518   1.602
 2490SOL    HW1 8369   5.195   3.490   1.631
 2490SOL    HW2 8370   5.049   3.437   1.580
 2491SOL     OW 8371   2.380   5.020   2.129
 2491SOL    HW1 8372   2.440   4.958   2.078
 2491SOL    HW2 8373   2.435   5.093   2.170
 2492SOL     OW 8374   4.468   3.413   6.725
 2492SOL    HW1 8375   4.386   3.469   6.713
 2492SOL    HW2 8376   4.469   3.375   6.818
 2493SOL     OW 8377   6.492   1.797   3.291
 2493SOL    HW1 8378   6.392   1.792   3.298
 2493SOL    HW2 8379   6.528   1.710   3.258
 2494SOL     OW 8380   4.890   3.539   2.181
 2494SOL    HW1 8381   4.824   3.474   2.141
 2494SOL    HW2 8382   4.950   3.573   2.109
 2495SOL     OW 8383   5.999   1.209   4.577
 2495SOL    HW1 8384   5.976   1.138   4.644
 2495SOL    HW2 8385   5.919   1.230   4.522
 2496SOL     OW 8386   1.407   6.348   0.414
 2496SOL    HW1 8387   1.494   6.300   0.427
 2496SOL    HW2 8388   1.412   6.403   0.331
 2497SOL     OW 8389   5.603   1.689   5.862
 2497SOL    HW1 8390   5.682   1.738   5.899
 2497SOL    HW2 8391   5.580   1.726   5.771
 2498SOL     OW 8392   1.782   3.761   4.982
 2498SOL    HW1 8393   1.734   3.713   4.909
 2498SOL    HW2 8394   1.782   3.705   5.065
 2499SOL     OW 8395   6.020   0.109   5.202
 2499SOL    HW1 8396   6.097   0.134   5.261
 2499SOL    HW2 8397   5.934   0.125   5.250
 2500SOL     OW 8398   4.415   3.328   7.006
 2500SOL    HW1 8399   4.325   3.301   0.021
 2500SOL    HW2 8400   4.467   3.372   0.058
 2501SOL     OW 8401   6.941   4.460   6.903
 2501SOL    HW1 8402   6.974   4.369   6.877
 2501SOL    HW2 8403   7.005   4.502   6.967
 2502SOL     OW 8404   2.112   6.154   3.312
 2502SOL    HW1 8405   2.206   6.120   3.301
 2502SOL    HW2 8406   2.113   6.253   3.321
 2503SOL     OW 8407   4.596   5.094   4.913
 2503SOL    HW1 8408   4.687   5.051   4.919
 2503SOL    HW2 8409   4.561   5.110   5.005
 2504SOL     OW 8410   1.518   4.227   4.293
 2504SOL    HW1 8411   1.581   4.290   4.339
 2504SOL    HW2 8412   1.465   4.277   4.225
 2505SOL     OW 8413   4.715   5.668   3.877
 2505SOL    HW1 8414   4.751   5.709   3.793
 2505SOL    HW2 8415   4.670   5.582   3.854
 2506SOL     OW 8416   0.289   1.966   6.630
 2506SOL    HW1 8417   0.358   1.978   6.701
 2506SOL    HW2 8418   0.214   1.910   6.665
 2507SOL     OW 8419   6.829   5.896   0.478
 2507SOL    HW1 8420   6.928   5.909   0.480
 2507SOL    HW2 8421   6.800   5.874   0.384
 2508SOL     OW 8422   2.182   2.393   2.656
 2508SOL    HW1 8423   2.257   2.331   2.675
 2508SOL    HW2 8424   2.123   2.354   2.585
 2509SOL     OW 8425   4.901   2.775   3.558
 2509SOL    HW1 8426   4.849   2.691   3.541
 2509SOL    HW2 8427   4.896   2.833   3.477
 2510SOL     OW 8428   3.872   5.958   0.700
 2510SOL    HW1 8429   3.899   6.053   0.717
 2510SOL    HW2 8430   3.940   5.896   0.739
 2511SOL     OW 8431   1.459   6.988   4.898
 2511SOL    HW1 8432   1.400   6.910   4.875
 2511SOL    HW2 8433   1.453   0.036   4.825
 2512SOL     OW 8434   5.086   3.104   4.828
 2512SOL    HW1 8435   5.078   3.014   4.784
 2512SOL    HW2 8436   5.030   3.170   4.779
 2513SOL     OW 8437   0.783   3.773   0.731
 2513SOL    HW1 8438   0.877   3.796   0.752
 2513SOL    HW2 8439   0.772   3.763   0.632
 2514SOL     OW 8440   1.686   1.166   3.670
 2514SOL    HW1 8441   1.745   1.094   3.707
 2514SOL    HW2 8442   1.677   1.155   3.572
 2515SOL     OW 8443   0.877   5.132   0.109
 2515SOL    HW1 8444   0.796   5.086   0.075
 2515SOL    HW2 8445   0.957   5.103   0.057
 2516SOL     OW 8446   5.170   6.195   4.026
 2516SOL    HW1 8447   5.104   6.136   3.980
 2516SOL    HW2 8448   5.136   6.290   4.025
 2517SOL     OW 8449   2.198   4.754   0.229
 2517SOL    HW1 8450   2.228   4.711   0.144
 2517SOL    HW2 8451   2.140   4.690   0.280
 2518SOL     OW 8452   2.503   1.934   6.720
 2518SOL    HW1 8453   2.571   1.974   6.659
 2518SOL    HW2 8454   2.475   2.002   6.789
 2519SOL     OW 8455   4.838   4.027   4.430
 2519SOL    HW1 8456   4.835   3.927   4.434
 2519SOL    HW2 8457   4.878   4.062   4.514
 2520SOL     OW 8458   2.197   4.491   2.396
 2520SOL    HW1 8459   2.277   4.514   2.339
 2520SOL    HW2 8460   2.226   4.433   2.472
 2521SOL     OW 8461   5.814   6.525   5.226
 2521SOL    HW1 8462   5.818   6.616   5.184
 2521SOL    HW2 8463   5.780   6.532   5.320
 2522SOL     OW 8464   1.425   3.145   5.020
 2522SOL    HW1 8465   1.462   3.233   5.050
 2522SOL    HW2 8466   1.400   3.150   4.923
 2523SOL     OW 8467   0.583   3.047   6.783
 2523SOL    HW1 8468   0.540   3.132   6.812
 2523SOL    HW2 8469   0.519   2.971   6.797
 2524SOL     OW 8470   0.642   6.948   5.201
 2524SOL    HW1 8471   0.548   6.937   5.169
 2524SOL    HW2 8472   0.678   6.859   5.229
 2525SOL     OW 8473   1.500   3.757   3.256
 2525SOL    HW1 8474   1.517   3.844   3.303
 2525SOL    HW2 8475   1.506   3.771   3.157
 2526SOL     OW 8476   6.916   1.315   5.352
 2526SOL    HW1 8477   6.842   1.254   5.379
 2526SOL    HW2 8478   6.931   1.384   5.424
 2527SOL     OW 8479   6.039   6.416   4.108
 2527SOL    HW1 8480   5.958   6.369   4.141
 2527SOL    HW2 8481   6.012   6.500   4.061
 2528SOL     OW 8482   6.569   5.958   0.236
 2528SOL    HW1 8483   6.469   5.950   0.244
 2528SOL    HW2 8484   6.602   6.028   0.299
 2529SOL     OW 8485   5.042   3.642   4.618
 2529SOL    HW1 8486   4.995   3.597   4.693
 2529SOL    HW2 8487   5.086   3.573   4.560
 2530SOL     OW 8488   0.221   0.776   4.666
 2530SOL    HW1 8489   0.263   0.851   4.717
 2530SOL    HW2 8490   0.123   0.794   4.655
 2531SOL     OW 8491   4.531   1.625   6.321
 2531SOL    HW1 8492   4.454   1.678   6.284
 2531SOL    HW2 8493   4.495   1.555   6.384
 2532SOL     OW 8494   1.607   4.660   6.569
 2532SOL    HW1 8495   1.700   4.632   6.543
 2532SOL    HW2 8496   1.555   4.685   6.488
 2533SOL     OW 8497   6.047   6.896   5.480
 2533SOL    HW1 8498   6.113   6.969   5.492
 2533SOL    HW2 8499   6.085   6.826   5.419
 2534SOL     OW 8500   0.728   2.350   3.886
 2534SOL    HW1 8501   0.772   2.373   3.973
 2534SOL    HW2 8502   0.785   2.382   3.811
 2535SOL     OW 8503   1.937   1.115   2.966
 2535SOL    HW1 8504   1.981   1.171   2.896
 2535SOL    HW2 8505   1.891   1.037   2.923
 2536SOL     OW 8506   6.146   0.964   3.992
 2536SOL    HW1 8507   6.086   0.898   3.946
 2536SOL    HW2 8508   6.188   1.024   3.924
 2537SOL     OW 8509   4.430   5.429   1.154
 2537SOL    HW1 8510   4.507   5.371   1.180
 2537SOL    HW2 8511   4.403   5.486   1.232
 2538SOL     OW 8512   2.357   4.414   5.062
 2538SOL    HW1 8513   2.265   4.451   5.076
 2538SOL    HW2 8514   2.383   4.362   5.144
 2539SOL     OW 8515   2.578   0.061   5.335
 2539SOL    HW1 8516   2.511   0.023   5.272
 2539SOL    HW2 8517   2.545   0.150   5.368
 2540SOL     OW 8518   5.680   2.020   2.220
 2540SOL    HW1 8519   5.728   1.979   2.298
 2540SOL    HW2 8520   5.593   1.973   2.206
 2541SOL     OW 8521   1.392   6.381   6.102
 2541SOL    HW1 8522   1.377   6.358   6.006
 2541SOL    HW2 8523   1.438   6.470   6.108
 2542SOL     OW 8524   3.854   2.059   4.461
 2542SOL    HW1 8525   3.858   2.127   4.388
 2542SOL    HW2 8526   3.907   2.092   4.539
 2543SOL     OW 8527   0.542   1.880   4.596
 2543SOL    HW1 8528   0.494   1.891   4.509
 2543SOL    HW2 8529   0.611   1.952   4.605
 2544SOL     OW 8530   6.509   5.534   2.174
 2544SOL    HW1 8531   6.438   5.596   2.206
 2544SOL    HW2 8532   6.480   5.439   2.191
 2545SOL     OW 8533   6.846   1.489   1.104
 2545SOL    HW1 8534   6.857   1.391   1.086
 2545SOL    HW2 8535   6.927   1.538   1.071
 2546SOL     OW 8536   6.879   4.232   2.920
 2546SOL    HW1 8537   6.791   4.256   2.962
 2546SOL    HW2 8538   6.890   4.284   2.835
 2547SOL     OW 8539   6.229   3.361   1.181
 2547SOL    HW1 8540   6.194   3.310   1.103
 2547SOL    HW2 8541   6.292   3.432   1.149
 2548SOL     OW 8542   0.203   6.639   5.457
 2548SOL    HW1 8543   0.187   6.548   5.495
 2548SOL    HW2 8544   0.183   6.709   5.526
 2549SOL     OW 8545   2.661   2.388   0.580
 2549SOL    HW1 8546   2.649   2.466   0.519
 2549SOL    HW2 8547   2.743   2.401   0.635
 2550SOL     OW 8548   3.911   6.432   6.164
 2550SOL    HW1 8549   3.854   6.462   6.241
 2550SOL    HW2 8550   3.865   6.359   6.115
 2551SOL     OW 8551   3.346   5.231   0.688
 2551SOL    HW1 8552   3.440   5.264   0.695
 2551SOL    HW2 8553   3.338   5.143   0.734
 2552SOL     OW 8554   2.448   6.138   0.977
 2552SOL    HW1 8555   2.436   6.047   0.938
 2552SOL    HW2 8556   2.399   6.205   0.921
 2553SOL     OW 8557   4.590   1.223   6.859
 2553SOL    HW1 8558   4.629   1.209   6.768
 2553SOL    HW2 8559   4.648   1.286   6.910
 2554SOL     OW 8560   1.672   5.935   1.870
 2554SOL    HW1 8561   1.726   5.943   1.786
 2554SOL    HW2 8562   1.662   5.838   1.893
 2555SOL     OW 8563   5.677   6.447   4.993
 2555SOL    HW1 8564   5.703   6.454   5.090
 2555SOL    HW2 8565   5.600   6.384   4.984
 2556SOL     OW 8566   4.176   0.840   0.789
 2556SOL    HW1 8567   4.094   0.792   0.761
 2556SOL    HW2 8568   4.178   0.848   0.889
 2557SOL     OW 8569   3.431   0.237   0.003
 2557SOL    HW1 8570   3.445   0.147   0.045
 2557SOL    HW2 8571   3.516   0.268   6.980
 2558SOL     OW 8572   5.649   3.804   6.574
 2558SOL    HW1 8573   5.612   3.777   6.485
 2558SOL    HW2 8574   5.749   3.795   6.573
 2559SOL     OW 8575   1.004   4.658   4.849
 2559SOL    HW1 8576   0.974   4.648   4.754
 2559SOL    HW2 8577   0.967   4.582   4.904
 2560SOL     OW 8578   5.214   2.486   3.319
 2560SOL    HW1 8579   5.288   2.495   3.386
 2560SOL    HW2 8580   5.235   2.411   3.257
 2561SOL     OW 8581   3.458   0.321   4.200
 2561SOL    HW1 8582   3.518   0.361   4.131
 2561SOL    HW2 8583   3.368   0.303   4.160
 2562SOL     OW 8584   3.828   6.534   3.609
 2562SOL    HW1 8585   3.853   6.446   3.568
 2562SOL    HW2 8586   3.842   6.529   3.708
 2563SOL     OW 8587   3.512   1.747   0.316
 2563SOL    HW1 8588   3.549   1.797   0.238
 2563SOL    HW2 8589   3.489   1.811   0.389
 2564SOL     OW 8590   2.460   1.694   0.450
 2564SOL    HW1 8591   2.470   1.640   0.534
 2564SOL    HW2 8592   2.539   1.755   0.440
 2565SOL     OW 8593   1.239   2.072   0.492
 2565SOL    HW1 8594   1.269   2.059   0.397
 2565SOL    HW2 8595   1.150   2.028   0.505
 2566SOL     OW 8596   2.463   0.944   0.989
 2566SOL    HW1 8597   2.501   1.022   0.938
 2566SOL    HW2 8598   2.481   0.860   0.938
 2567SOL     OW 8599   1.884   0.386   0.350
 2567SOL    HW1 8600   1.806   0.445   0.369
 2567SOL    HW2 8601   1.899   0.381   0.251
 2568SOL     OW 8602   3.167   6.356   1.014
 2568SOL    HW1 8603   3.088   6.380   0.957
 2568SOL    HW2 8604   3.251   6.382   0.966
 2569SOL     OW 8605   1.320   0.257   1.317
 2569SOL    HW1 8606   1.319   0.180   1.381
 2569SOL    HW2 8607   1.389   0.241   1.246
 2570SOL     OW 8608   6.414   6.686   5.862
 2570SOL    HW1 8609   6.342   6.743   5.822
 2570SOL    HW2 8610   6.446   6.620   5.794
 2571SOL     OW 8611   3.709   3.098   4.339
 2571SOL    HW1 8612   3.663   3.009   4.343
 2571SOL    HW2 8613   3.755   3.115   4.426
 2572SOL     OW 8614   1.678   6.608   1.949
 2572SOL    HW1 8615   1.586   6.608   1.987
 2572SOL    HW2 8616   1.674   6.590   1.851
 2573SOL     OW 8617   6.863   2.169   4.366
 2573SOL    HW1 8618   6.805   2.088   4.363
 2573SOL    HW2 8619   6.825   2.239   4.305
 2574SOL     OW 8620   0.775   3.692   1.905
 2574SOL    HW1 8621   0.725   3.619   1.857
 2574SOL    HW2 8622   0.758   3.779   1.859
 2575SOL     OW 8623   6.293   3.703   0.286
 2575SOL    HW1 8624   6.260   3.609   0.274
 2575SOL    HW2 8625   6.306   3.746   0.197
 2576SOL     OW 8626   1.782   0.080   3.652
 2576SOL    HW1 8627   1.872   0.083   3.610
 2576SOL    HW2 8628   1.790   0.107   3.748
 2577SOL     OW 8629   2.647   6.143   1.829
 2577SOL    HW1 8630   2.552   6.165   1.851
 2577SOL    HW2 8631   2.698   6.125   1.913
 2578SOL     OW 8632   4.681   2.222   4.145
 2578SOL    HW1 8633   4.618   2.204   4.070
 2578SOL    HW2 8634   4.774   2.197   4.118
 2579SOL     OW 8635   6.996   2.395   6.542
 2579SOL    HW1 8636   7.002   2.357   6.450
 2579SOL    HW2 8637   6.963   2.489   6.538
 2580SOL     OW 8638   1.686   2.603   6.085
 2580SOL    HW1 8639   1.782   2.620   6.061
 2580SOL    HW2 8640   1.683   2.528   6.152
 2581SOL     OW 8641   6.456   6.591   3.956
 2581SOL    HW1 8642   6.488   6.583   4.051
 2581SOL    HW2 8643   6.506   6.664   3.910
 2582SOL     OW 8644   0.563   5.614   2.771
 2582SOL    HW1 8645   0.495   5.627   2.843
 2582SOL    HW2 8646   0.564   5.518   2.743
 2583SOL     OW 8647   1.746   0.285   0.702
 2583SOL    HW1 8648   1.695   0.351   0.648
 2583SOL    HW2 8649   1.791   0.220   0.641
 2584SOL     OW 8650   4.850   6.752   2.267
 2584SOL    HW1 8651   4.856   6.753   2.367
 2584SOL    HW2 8652   4.754   6.763   2.239
 2585SOL     OW 8653   3.702   0.811   1.551
 2585SOL    HW1 8654   3.662   0.895   1.515
 2585SOL    HW2 8655   3.769   0.834   1.622
 2586SOL     OW 8656   6.505   2.445   4.093
 2586SOL    HW1 8657   6.498   2.498   4.009
 2586SOL    HW2 8658   6.441   2.368   4.089
 2587SOL     OW 8659   5.765   6.501   3.290
 2587SOL    HW1 8660   5.813   6.585   3.264
 2587SOL    HW2 8661   5.827   6.424   3.280
 2588SOL     OW 8662   5.765   1.464   1.415
 2588SOL    HW1 8663   5.812   1.378   1.435
 2588SOL    HW2 8664   5.781   1.529   1.489
 2589SOL     OW 8665   6.666   6.705   6.875
 2589SOL    HW1 8666   6.725   6.633   6.839
 2589SOL    HW2 8667   6.702   6.737   6.962
 2590SOL     OW 8668   4.202   6.649   2.513
 2590SOL    HW1 8669   4.194   6.675   2.609
 2590SOL    HW2 8670   4.176   6.553   2.502
 2591SOL     OW 8671   5.762   6.938   1.262
 2591SOL    HW1 8672   5.684   6.898   1.213
 2591SOL    HW2 8673   5.847   6.897   1.227
 2592SOL     OW 8674   3.790   5.974   1.638
 2592SOL    HW1 8675   3.787   6.033   1.557
 2592SOL    HW2 8676   3.787   5.879   1.609
 2593SOL     OW 8677   2.835   6.268   2.433
 2593SOL    HW1 8678   2.745   6.310   2.425
 2593SOL    HW2 8679   2.826   6.174   2.467
 2594SOL     OW 8680   1.363   6.669   6.226
 2594SOL    HW1 8681   1.392   6.734   6.156
 2594SOL    HW2 8682   1.328   6.719   6.305
 2595SOL     OW 8683   6.100   3.444   4.038
 2595SOL    HW1 8684   6.132   3.475   4.128
 2595SOL    HW2 8685   6.179   3.428   3.978
 2596SOL     OW 8686   3.925   2.066   2.015
 2596SOL    HW1 8687   3.998   2.119   1.972
 2596SOL    HW2 8688   3.838   2.114   2.005
 2597SOL     OW 8689   2.376   2.822   0.006
 2597SOL    HW1 8690   2.442   2.888   6.992
 2597SOL    HW2 8691   2.383   2.738   6.973
 2598SOL     OW 8692   6.545   3.398   3.207
 2598SOL    HW1 8693   6.569   3.495   3.210
 2598SOL    HW2 8694   6.613   3.345   3.258
 2599SOL     OW 8695   4.169   5.354   0.146
 2599SOL    HW1 8696   4.080   5.381   0.182
 2599SOL    HW2 8697   4.172   5.256   0.132
 2600SOL     OW 8698   6.524   3.622   3.483
 2600SOL    HW1 8699   6.595   3.552   3.473
 2600SOL    HW2 8700   6.566   3.712   3.492
 2601SOL     OW 8701   3.902   3.191   6.100
 2601SOL    HW1 8702   3.927   3.288   6.110
 2601SOL    HW2 8703   3.804   3.180   6.112
 2602SOL     OW 8704   6.533   5.589   4.428
 2602SOL    HW1 8705   6.445   5.561   4.466
 2602SOL    HW2 8706   6.603   5.523   4.453
 2603SOL     OW 8707   3.340   2.717   1.169
 2603SOL    HW1 8708   3.375   2.656   1.097
 2603SOL    HW2 8709   3.383   2.694   1.256
 2604SOL     OW 8710   5.904   0.189   1.307
 2604SOL    HW1 8711   5.995   0.189   1.347
 2604SOL    HW2 8712   5.870   0.095   1.300
 2605SOL     OW 8713   4.681   5.022   4.213
 2605SOL    HW1 8714   4.596   5.002   4.263
 2605SOL    HW2 8715   4.719   4.936   4.178
 2606SOL     OW 8716   7.016   4.913   0.642
 2606SOL    HW1 8717   0.043   4.862   0.714
 2606SOL    HW2 8718   6.918   4.905   0.654
 2607SOL     OW 8719   0.379   0.933   4.262
 2607SOL    HW1 8720   0.394   0.843   4.303
 2607SOL    HW2 8721   0.456   0.955   4.202
 2608SOL     OW 8722   4.900   0.469   1.355
 2608SOL    HW1 8723   4.953   0.531   1.413
 2608SOL    HW2 8724   4.820   0.516   1.320
 2609SOL     OW 8725   0.903   2.355   3.046
 2609SOL    HW1 8726   0.981   2.411   3.021
 2609SOL    HW2 8727   0.890   2.283   2.978
 2610SOL     OW 8728   5.925   5.606   4.947
 2610SOL    HW1 8729   5.839   5.556   4.956
 2610SOL    HW2 8730   5.938   5.634   4.852
 2611SOL     OW 8731   4.235   6.487   1.558
 2611SOL    HW1 8732   4.283   6.546   1.624
 2611SOL    HW2 8733   4.246   6.391   1.584
 2612SOL     OW 8734   6.181   6.607   3.893
 2612SOL    HW1 8735   6.276   6.599   3.925
 2612SOL    HW2 8736   6.179   6.604   3.793
 2613SOL     OW 8737   3.994   0.521   1.865
 2613SOL    HW1 8738   4.048   0.597   1.830
 2613SOL    HW2 8739   4.056   0.451   1.902
 2614SOL     OW 8740   6.999   6.723   6.670
 2614SOL    HW1 8741   0.066   6.681   6.647
 2614SOL    HW2 8742   6.926   6.655   6.663
 2615SOL     OW 8743   5.195   5.359   1.963
 2615SOL    HW1 8744   5.197   5.362   2.063
 2615SOL    HW2 8745   5.268   5.300   1.929
 2616SOL     OW 8746   4.071   3.415   3.016
 2616SOL    HW1 8747   4.147   3.438   3.077
 2616SOL    HW2 8748   4.012   3.347   3.061
 2617SOL     OW 8749   4.139   0.015   1.160
 2617SOL    HW1 8750   4.215   0.069   1.197
 2617SOL    HW2 8751   4.060   0.074   1.146
 2618SOL     OW 8752   1.106   0.477   0.654
 2618SOL    HW1 8753   1.122   0.576   0.646
 2618SOL    HW2 8754   1.042   0.460   0.728
 2619SOL     OW 8755   4.603   2.456   1.521
 2619SOL    HW1 8756   4.632   2.459   1.616
 2619SOL    HW2 8757   4.639   2.373   1.478
 2620SOL     OW 8758   1.237   4.005   4.395
 2620SOL    HW1 8759   1.337   3.996   4.394
 2620SOL    HW2 8760   1.206   4.036   4.305
 2621SOL     OW 8761   0.787   5.400   3.799
 2621SOL    HW1 8762   0.809   5.486   3.753
 2621SOL    HW2 8763   0.859   5.333   3.780
 2622SOL     OW 8764   2.416   2.646   6.627
 2622SOL    HW1 8765   2.323   2.669   6.597
 2622SOL    HW2 8766   2.478   2.654   6.549
 2623SOL     OW 8767   2.926   0.905   5.602
 2623SOL    HW1 8768   3.011   0.909   5.549
 2623SOL    HW2 8769   2.928   0.973   5.674
 2624SOL     OW 8770   6.095   1.663   3.562
 2624SOL    HW1 8771   6.004   1.687   3.596
 2624SOL    HW2 8772   6.133   1.741   3.512
 2625SOL     OW 8773   3.056   1.819   5.910
 2625SOL    HW1 8774   3.031   1.754   5.982
 2625SOL    HW2 8775   3.114   1.772   5.843
 2626SOL     OW 8776   2.047   6.542   2.954
 2626SOL    HW1 8777   2.141   6.547   2.988
 2626SOL    HW2 8778   2.033   6.610   2.883
 2627SOL     OW 8779   6.716   7.014   4.747
 2627SOL    HW1 8780   6.664   0.042   4.677
 2627SOL    HW2 8781   6.776   6.947   4.704
 2628SOL     OW 8782   3.772   6.140   6.452
 2628SOL    HW1 8783   3.854   6.187   6.486
 2628SOL    HW2 8784   3.690   6.188   6.484
 2629SOL     OW 8785   3.358   4.044   1.307
 2629SOL    HW1 8786   3.391   4.098   1.384
 2629SOL    HW2 8787   3.258   4.043   1.307
 2630SOL     OW 8788   2.650   2.400   2.389
 2630SOL    HW1 8789   2.563   2.449   2.391
 2630SOL    HW2 8790   2.685   2.396   2.296
 2631SOL     OW 8791   4.675   6.162   4.411
 2631SOL    HW1 8792   4.636   6.254   4.401
 2631SOL    HW2 8793   4.639   6.119   4.494
 2632SOL     OW 8794   3.954   2.570   0.333
 2632SOL    HW1 8795   3.991   2.652   0.377
 2632SOL    HW2 8796   3.860   2.555   0.363
 2633SOL     OW 8797   5.627   2.097   6.733
 2633SOL    HW1 8798   5.616   2.104   6.634
 2633SOL    HW2 8799   5.601   2.183   6.777
 2634SOL     OW 8800   2.080   4.722   0.793
 2634SOL    HW1 8801   2.133   4.727   0.708
 2634SOL    HW2 8802   2.131   4.668   0.860
 2635SOL     OW 8803   5.498   4.425   4.694
 2635SOL    HW1 8804   5.439   4.391   4.767
 2635SOL    HW2 8805   5.545   4.508   4.724
 2636SOL     OW 8806   5.407   0.261   5.355
 2636SOL    HW1 8807   5.410   0.298   5.262
 2636SOL    HW2 8808   5.436   0.166   5.354
 2637SOL     OW 8809   5.762   6.709   3.030
 2637SOL    HW1 8810   5.720   6.623   3.002
 2637SOL    HW2 8811   5.716   6.785   2.985
 2638SOL     OW 8812   5.554   6.072   0.503
 2638SOL    HW1 8813   5.565   5.982   0.461
 2638SOL    HW2 8814   5.610   6.138   0.454
 2639SOL     OW 8815   5.979   6.082   0.542
 2639SOL    HW1 8816   6.060   6.035   0.579
 2639SOL    HW2 8817   5.992   6.181   0.549
 2640SOL     OW 8818   6.655   6.267   5.411
 2640SOL    HW1 8819   6.717   6.313   5.347
 2640SOL    HW2 8820   6.692   6.273   5.503
 2641SOL     OW 8821   5.150   4.545   0.327
 2641SOL    HW1 8822   5.206   4.543   0.410
 2641SOL    HW2 8823   5.113   4.454   0.309
 2642SOL     OW 8824   5.052   0.484   4.037
 2642SOL    HW1 8825   4.961   0.453   4.067
 2642SOL    HW2 8826   5.088   0.422   3.968
 2643SOL     OW 8827   0.594   0.571   2.553
 2643SOL    HW1 8828   0.593   0.551   2.455
 2643SOL    HW2 8829   0.570   0.667   2.568
 2644SOL     OW 8830   0.439   4.399   6.434
 2644SOL    HW1 8831   0.459   4.497   6.427
 2644SOL    HW2 8832   0.502   4.357   6.499
 2645SOL     OW 8833   5.529   6.080   6.257
 2645SOL    HW1 8834   5.449   6.137   6.272
 2645SOL    HW2 8835   5.550   6.029   6.341
 2646SOL     OW 8836   6.502   6.926   6.707
 2646SOL    HW1 8837   6.506   6.979   6.792
 2646SOL    HW2 8838   6.561   6.846   6.715
 2647SOL     OW 8839   3.612   2.116   1.432
 2647SOL    HW1 8840   3.633   2.192   1.493
 2647SOL    HW2 8841   3.513   2.111   1.418
 2648SOL     OW 8842   5.331   0.419   2.265
 2648SOL    HW1 8843   5.247   0.472   2.277
 2648SOL    HW2 8844   5.323   0.332   2.313
 2649SOL     OW 8845   3.609   1.963   6.013
 2649SOL    HW1 8846   3.685   2.013   6.053
 2649SOL    HW2 8847   3.528   1.974   6.071
 2650SOL     OW 8848   0.425   6.103   2.841
 2650SOL    HW1 8849   0.333   6.140   2.846
 2650SOL    HW2 8850   0.426   6.024   2.778
 2651SOL     OW 8851   6.291   1.321   2.571
 2651SOL    HW1 8852   6.218   1.271   2.525
 2651SOL    HW2 8853   6.380   1.289   2.538
 2652SOL     OW 8854   3.624   3.090   2.815
 2652SOL    HW1 8855   3.704   3.046   2.856
 2652SOL    HW2 8856   3.555   3.022   2.793
 2653SOL     OW 8857   6.638   6.798   5.958
 2653SOL    HW1 8858   6.552   6.767   5.919
 2653SOL    HW2 8859   6.706   6.809   5.885
 2654SOL     OW 8860   5.632   2.960   5.907
 2654SOL    HW1 8861   5.594   2.893   5.971
 2654SOL    HW2 8862   5.562   3.027   5.883
 2655SOL     OW 8863   4.960   6.367   4.555
 2655SOL    HW1 8864   4.942   6.316   4.638
 2655SOL    HW2 8865   4.968   6.304   4.478
 2656SOL     OW 8866   5.275   3.567   3.698
 2656SOL    HW1 8867   5.245   3.661   3.716
 2656SOL    HW2 8868   5.259   3.512   3.780
 2657SOL     OW 8869   1.645   3.983   6.699
 2657SOL    HW1 8870   1.640   4.078   6.730
 2657SOL    HW2 8871   1.552   3.947   6.690
 2658SOL     OW 8872   6.180   3.997   5.920
 2658SOL    HW1 8873   6.213   3.914   5.964
 2658SOL    HW2 8874   6.230   4.076   5.954
 2659SOL     OW 8875   6.896   2.496   4.309
 2659SOL    HW1 8876   6.934   2.573   4.258
 2659SOL    HW2 8877   6.843   2.439   4.247
 2660SOL     OW 8878   6.972   2.283   2.706
 2660SOL    HW1 8879   0.024   2.320   2.648
 2660SOL    HW2 8880   6.896   2.251   2.649
 2661SOL     OW 8881   3.899   6.631   1.245
 2661SOL    HW1 8882   3.978   6.594   1.196
 2661SOL    HW2 8883   3.904   6.604   1.341
 2662SOL     OW 8884   3.914   6.617   4.138
 2662SOL    HW1 8885   3.968   6.552   4.192
 2662SOL    HW2 8886   3.901   6.581   4.046
 2663SOL     OW 8887   1.647   4.314   2.626
 2663SOL    HW1 8888   1.728   4.348   2.675
 2663SOL    HW2 8889   1.577   4.385   2.626
 2664SOL     OW 8890   4.039   3.564   2.297
 2664SOL    HW1 8891   3.996   3.484   2.255
 2664SOL    HW2 8892   4.048   3.550   2.395
 2665SOL     OW 8893   3.707   1.168   4.529
 2665SOL    HW1 8894   3.629   1.217   4.490
 2665SOL    HW2 8895   3.750   1.113   4.457
 2666SOL     OW 8896   5.400   4.637   0.845
 2666SOL    HW1 8897   5.310   4.664   0.881
 2666SOL    HW2 8898   5.453   4.719   0.824
 2667SOL     OW 8899   2.451   5.603   4.257
 2667SOL    HW1 8900   2.352   5.589   4.265
 2667SOL    HW2 8901   2.495   5.516   4.239
 2668SOL     OW 8902   0.006   3.031   5.512
 2668SOL    HW1 8903   0.094   3.054   5.552
 2668SOL    HW2 8904   6.954   3.048   5.579
 2669SOL     OW 8905   4.554   4.781   5.362
 2669SOL    HW1 8906   4.615   4.759   5.286
 2669SOL    HW2 8907   4.580   4.869   5.401
 2670SOL     OW 8908   1.422   1.265   6.591
 2670SOL    HW1 8909   1.428   1.222   6.682
 2670SOL    HW2 8910   1.380   1.200   6.527
 2671SOL     OW 8911   2.247   3.096   6.383
 2671SOL    HW1 8912   2.326   3.116   6.324
 2671SOL    HW2 8913   2.185   3.175   6.384
 2672SOL     OW 8914   1.573   5.619   1.051
 2672SOL    HW1 8915   1.516   5.686   1.098
 2672SOL    HW2 8916   1.669   5.643   1.065
 2673SOL     OW 8917   3.720   2.096   2.810
 2673SOL    HW1 8918   3.763   2.114   2.722
 2673SOL    HW2 8919   3.715   1.997   2.825
 2674SOL     OW 8920   6.126   4.928   5.183
 2674SOL    HW1 8921   6.223   4.918   5.206
 2674SOL    HW2 8922   6.109   5.021   5.152
 2675SOL     OW 8923   0.085   4.606   5.579
 2675SOL    HW1 8924   0.170   4.562   5.549
 2675SOL    HW2 8925   0.097   4.705   5.580
 2676SOL     OW 8926   4.499   1.424   1.601
 2676SOL    HW1 8927   4.510   1.470   1.514
 2676SOL    HW2 8928   4.409   1.379   1.604
 2677SOL     OW 8929   2.465   4.875   1.670
 2677SOL    HW1 8930   2.434   4.963   1.706
 2677SOL    HW2 8931   2.387   4.821   1.641
 2678SOL     OW 8932   0.355   5.172   6.160
 2678SOL    HW1 8933   0.330   5.212   6.072
 2678SOL    HW2 8934   0.296   5.094   6.179
 2679SOL     OW 8935   3.246   4.835   1.025
 2679SOL    HW1 8936   3.181   4.786   0.967
 2679SOL    HW2 8937   3.279   4.915   0.977
 2680SOL     OW 8938   1.620   1.269   1.714
 2680SOL    HW1 8939   1.653   1.257   1.620
 2680SOL    HW2 8940   1.675   1.212   1.775
 2681SOL     OW 8941   1.593   2.750   3.262
 2681SOL    HW1 8942   1.591   2.686   3.185
 2681SOL    HW2 8943   1.671   2.729   3.320
 2682SOL     OW 8944   5.827   2.534   2.567
 2682SOL    HW1 8945   5.876   2.532   2.480
 2682SOL    HW2 8946   5.865   2.465   2.628
 2683SOL     OW 8947   0.996   5.853   1.276
 2683SOL    HW1 8948   1.065   5.889   1.213
 2683SOL    HW2 8949   1.036   5.846   1.368
 2684SOL     OW 8950   2.280   6.416   3.438
 2684SOL    HW1 8951   2.187   6.449   3.422
 2684SOL    HW2 8952   2.340   6.494   3.454
 2685SOL     OW 8953   5.113   5.978   5.092
 2685SOL    HW1 8954   5.078   5.965   5.184
 2685SOL    HW2 8955   5.213   5.981   5.094
 2686SOL     OW 8956   2.297   2.865   4.337
 2686SOL    HW1 8957   2.290   2.959   4.369
 2686SOL    HW2 8958   2.274   2.860   4.240
 2687SOL     OW 8959   4.052   5.471   2.614
 2687SOL    HW1 8960   3.999   5.516   2.542
 2687SOL    HW2 8961   4.031   5.373   2.614
 2688SOL     OW 8962   4.064   4.754   6.383
 2688SOL    HW1 8963   4.081   4.670   6.332
 2688SOL    HW2 8964   4.126   4.826   6.352
 2689SOL     OW 8965   0.363   3.179   4.547
 2689SOL    HW1 8966   0.429   3.105   4.535
 2689SOL    HW2 8967   0.316   3.167   4.635
 2690SOL     OW 8968   3.922   3.980   3.826
 2690SOL    HW1 8969   3.961   3.905   3.773
 2690SOL    HW2 8970   3.919   3.955   3.923
 2691SOL     OW 8971   1.714   5.611   2.117
 2691SOL    HW1 8972   1.646   5.548   2.154
 2691SOL    HW2 8973   1.720   5.599   2.018
 2692SOL     OW 8974   0.207   6.640   3.925
 2692SOL    HW1 8975   0.218   6.609   3.830
 2692SOL    HW2 8976   0.274   6.712   3.944
 2693SOL     OW 8977   1.707   3.750   3.638
 2693SOL    HW1 8978   1.788   3.764   3.695
 2693SOL    HW2 8979   1.650   3.679   3.678
 2694SOL     OW 8980   1.590   0.020   3.483
 2694SOL    HW1 8981   1.500   0.030   3.525
 2694SOL    HW2 8982   1.660   0.050   3.547
 2695SOL     OW 8983   4.407   2.375   2.545
 2695SOL    HW1 8984   4.326   2.338   2.500
 2695SOL    HW2 8985   4.390   2.386   2.643
 2696SOL     OW 8986   4.096   3.999   5.499
 2696SOL    HW1 8987   4.008   4.040   5.476
 2696SOL    HW2 8988   4.164   4.071   5.515
 2697SOL     OW 8989   2.847   1.888   3.932
 2697SOL    HW1 8990   2.873   1.877   4.028
 2697SOL    HW2 8991   2.766   1.945   3.926
 2698SOL     OW 8992   1.544   4.070   0.372
 2698SOL    HW1 8993   1.592   4.050   0.287
 2698SOL    HW2 8994   1.600   4.130   0.429
 2699SOL     OW 8995   3.585   6.433   1.558
 2699SOL    HW1 8996   3.511   6.430   1.491
 2699SOL    HW2 8997   3.603   6.527   1.585
 2700SOL     OW 8998   1.884   3.408   2.889
 2700SOL    HW1 8999   1.956   3.402   2.819
 2700SOL    HW2 9000   1.835   3.321   2.894
 2701SOL     OW 9001   3.858   7.011   6.616
 2701SOL    HW1 9002   3.898   0.012   6.705
 2701SOL    HW2 9003   3.920   0.021   6.543
 2702SOL     OW 9004   6.812   1.102   3.698
 2702SOL    HW1 9005   6.895   1.130   3.745
 2702SOL    HW2 9006   6.833   1.081   3.602
 2703SOL     OW 9007   1.533   2.066   2.492
 2703SOL    HW1 9008   1.624   2.071   2.534
 2703SOL    HW2 9009   1.476   2.004   2.545
 2704SOL     OW 9010   2.419   5.306   1.487
 2704SOL    HW1 9011   2.500   5.364   1.486
 2704SOL    HW2 9012   2.372   5.316   1.575
 2705SOL     OW 9013   6.625   5.300   3.303
 2705SOL    HW1 9014   6.598   5.342   3.390
 2705SOL    HW2 9015   6.679   5.365   3.250
 2706SOL     OW 9016   6.577   1.419   1.639
 2706SOL    HW1 9017   6.598   1.394   1.733
 2706SOL    HW2 9018   6.478   1.431   1.628
 2707SOL     OW 9019   2.048   1.336   6.341
 2707SOL    HW1 9020   2.101   1.318   6.258
 2707SOL    HW2 9021   2.088   1.415   6.388
 2708SOL     OW 9022   1.244   2.610   1.656
 2708SOL    HW1 9023   1.287   2.548   1.722
 2708SOL    HW2 9024   1.168   2.659   1.701
 2709SOL     OW 9025   4.474   5.941   0.677
 2709SOL    HW1 9026   4.415   5.999   0.621
 2709SOL    HW2 9027   4.423   5.909   0.757
 2710SOL     OW 9028   0.415   4.187   2.741
 2710SOL    HW1 9029   0.420   4.088   2.727
 2710SOL    HW2 9030   0.341   4.225   2.685
 2711SOL     OW 9031   1.169   0.519   2.183
 2711SOL    HW1 9032   1.130   0.569   2.260
 2711SOL    HW2 9033   1.153   0.421   2.194
 2712SOL     OW 9034   2.934   4.497   0.508
 2712SOL    HW1 9035   2.889   4.587   0.513
 2712SOL    HW2 9036   2.970   4.483   0.416
 2713SOL     OW 9037   2.386   3.239   5.370
 2713SOL    HW1 9038   2.438   3.176   5.313
 2713SOL    HW2 9039   2.448   3.292   5.428
 2714SOL     OW 9040   4.641   0.462   6.050
 2714SOL    HW1 9041   4.637   0.469   5.950
 2714SOL    HW2 9042   4.578   0.528   6.090
 2715SOL     OW 9043   5.859   1.223   6.800
 2715SOL    HW1 9044   5.799   1.268   6.735
 2715SOL    HW2 9045   5.805   1.166   6.862
 2716SOL     OW 9046   0.535   6.265   2.670
 2716SOL    HW1 9047   0.477   6.216   2.736
 2716SOL    HW2 9048   0.623   6.218   2.662
 2717SOL     OW 9049   1.057   0.446   3.232
 2717SOL    HW1 9050   1.144   0.423   3.188
 2717SOL    HW2 9051   0.992   0.372   3.217
 2718SOL     OW 9052   2.317   4.422   3.766
 2718SOL    HW1 9053   2.312   4.441   3.668
 2718SOL    HW2 9054   2.411   4.434   3.797
 2719SOL     OW 9055   4.368   5.242   1.908
 2719SOL    HW1 9056   4.434   5.283   1.971
 2719SOL    HW2 9057   4.375   5.142   1.913
 2720SOL     OW 9058   1.874   6.801   3.529
 2720SOL    HW1 9059   1.880   6.762   3.621
 2720SOL    HW2 9060   1.914   6.893   3.529
 2721SOL     OW 9061   3.764   0.225   4.563
 2721SOL    HW1 9062   3.723   0.199   4.476
 2721SOL    HW2 9063   3.714   0.303   4.601
 2722SOL     OW 9064   1.399   6.230   2.648
 2722SOL    HW1 9065   1.383   6.190   2.738
 2722SOL    HW2 9066   1.409   6.329   2.656
 2723SOL     OW 9067   1.574   1.233   5.904
 2723SOL    HW1 9068   1.663   1.250   5.947
 2723SOL    HW2 9069   1.553   1.308   5.841
 2724SOL     OW 9070   4.009   5.693   6.032
 2724SOL    HW1 9071   4.061   5.741   6.103
 2724SOL    HW2 9072   3.970   5.609   6.070
 2725SOL     OW 9073   4.059   5.092   4.079
 2725SOL    HW1 9074   4.113   5.164   4.122
 2725SOL    HW2 9075   4.081   5.088   3.981
 2726SOL     OW 9076   4.951   5.577   2.188
 2726SOL    HW1 9077   4.853   5.571   2.210
 2726SOL    HW2 9078   4.963   5.628   2.103
 2727SOL     OW 9079   0.794   5.467   2.566
 2727SOL    HW1 9080   0.853   5.389   2.550
 2727SOL    HW2 9081   0.710   5.437   2.612
 2728SOL     OW 9082   2.718   6.820   5.317
 2728SOL    HW1 9083   2.798   6.835   5.259
 2728SOL    HW2 9084   2.682   6.908   5.349
 2729SOL     OW 9085   5.902   5.389   2.430
 2729SOL    HW1 9086   5.885   5.307   2.485
 2729SOL    HW2 9087   5.969   5.447   2.477
 2730SOL     OW 9088   2.003   6.760   0.808
 2730SOL    HW1 9089   2.052   6.847   0.802
 2730SOL    HW2 9090   2.015   6.709   0.723
 2731SOL     OW 9091   2.902   3.789   1.788
 2731SOL    HW1 9092   2.986   3.805   1.840
 2731SOL    HW2 9093   2.857   3.707   1.823
 2732SOL     OW 9094   5.877   1.527   2.185
 2732SOL    HW1 9095   5.919   1.536   2.276
 2732SOL    HW2 9096   5.835   1.437   2.177
 2733SOL     OW 9097   1.228   6.816   5.845
 2733SOL    HW1 9098   1.226   6.717   5.834
 2733SOL    HW2 9099   1.135   6.852   5.843
 2734SOL     OW 9100   1.982   6.118   4.295
 2734SOL    HW1 9101   2.072   6.118   4.337
 2734SOL    HW2 9102   1.990   6.105   4.196
 2735SOL     OW 9103   1.496   5.266   2.870
 2735SOL    HW1 9104   1.478   5.336   2.939
 2735SOL    HW2 9105   1.589   5.276   2.835
 2736SOL     OW 9106   4.614   0.357   4.938
 2736SOL    HW1 9107   4.584   0.308   5.020
 2736SOL    HW2 9108   4.700   0.319   4.906
 2737SOL     OW 9109   4.690   3.485   6.580
 2737SOL    HW1 9110   4.615   3.458   6.641
 2737SOL    HW2 9111   4.744   3.557   6.623
 2738SOL     OW 9112   5.694   5.166   4.637
 2738SOL    HW1 9113   5.732   5.232   4.573
 2738SOL    HW2 9114   5.764   5.139   4.703
 2739SOL     OW 9115   5.585   3.762   1.158
 2739SOL    HW1 9116   5.516   3.799   1.220
 2739SOL    HW2 9117   5.540   3.698   1.094
 2740SOL     OW 9118   6.031   2.462   3.224
 2740SOL    HW1 9119   6.015   2.557   3.196
 2740SOL    HW2 9120   5.947   2.409   3.213
 2741SOL     OW 9121   0.947   2.471   6.006
 2741SOL    HW1 9122   1.006   2.519   5.941
 2741SOL    HW2 9123   0.918   2.536   6.077
 2742SOL     OW 9124   2.012   0.069   6.732
 2742SOL    HW1 9125   2.098   0.108   6.700
 2742SOL    HW2 9126   2.012   6.990   6.715
 2743SOL     OW 9127   5.433   5.191   1.347
 2743SOL    HW1 9128   5.496   5.136   1.292
 2743SOL    HW2 9129   5.451   5.288   1.332
 2744SOL     OW 9130   4.402   2.380   5.737
 2744SOL    HW1 9131   4.422   2.283   5.752
 2744SOL    HW2 9132   4.387   2.396   5.640
 2745SOL     OW 9133   2.904   0.011   0.928
 2745SOL    HW1 9134   2.952   7.012   1.014
 2745SOL    HW2 9135   2.805   0.005   0.944
 2746SOL     OW 9136   1.937   2.049   6.895
 2746SOL    HW1 9137   1.894   2.103   6.968
 2746SOL    HW2 9138   1.891   2.068   6.808
 2747SOL     OW 9139   5.072   6.457   4.080
 2747SOL    HW1 9140   4.983   6.414   4.097
 2747SOL    HW2 9141   5.065   6.517   4.000
 2748SOL     OW 9142   4.004   0.951   3.044
 2748SOL    HW1 9143   3.916   0.932   2.999
 2748SOL    HW2 9144   4.078   0.924   2.983
 2749SOL     OW 9145   4.968   5.135   3.820
 2749SOL    HW1 9146   4.880   5.100   3.852
 2749SOL    HW2 9147   4.961   5.234   3.807
 2750SOL     OW 9148   0.482   5.923   2.648
 2750SOL    HW1 9149   0.571   5.879   2.635
 2750SOL    HW2 9150   0.437   5.931   2.559
 2751SOL     OW 9151   1.550   0.345   6.682
 2751SOL    HW1 9152   1.625   0.389   6.634
 2751SOL    HW2 9153   1.463   0.375   6.643
 2752SOL     OW 9154   6.198   6.006   5.594
 2752SOL    HW1 9155   6.293   6.036   5.598
 2752SOL    HW2 9156   6.137   6.084   5.609
 2753SOL     OW 9157   3.211   5.637   6.053
 2753SOL    HW1 9158   3.224   5.644   5.954
 2753SOL    HW2 9159   3.119   5.602   6.072
 2754SOL     OW 9160   0.685   0.793   4.670
 2754SOL    HW1 9161   0.730   0.761   4.587
 2754SOL    HW2 9162   0.605   0.848   4.646
 2755SOL     OW 9163   3.044   6.474   2.138
 2755SOL    HW1 9164   3.113   6.516   2.198
 2755SOL    HW2 9165   3.028   6.380   2.167
 2756SOL     OW 9166   0.240   2.870   5.871
 2756SOL    HW1 9167   0.221   2.809   5.794
 2756SOL    HW2 9168   0.331   2.851   5.907
 2757SOL     OW 9169   4.445   3.141   6.583
 2757SOL    HW1 9170   4.411   3.094   6.665
 2757SOL    HW2 9171   4.505   3.216   6.611
 2758SOL     OW 9172   6.313   6.377   2.465
 2758SOL    HW1 9173   6.302   6.284   2.498
 2758SOL    HW2 9174   6.288   6.442   2.537
 2759SOL     OW 9175   3.380   4.182   6.084
 2759SOL    HW1 9176   3.350   4.090   6.109
 2759SOL    HW2 9177   3.308   4.227   6.031
 2760SOL     OW 9178   5.281   6.204   3.305
 2760SOL    HW1 9179   5.257   6.301   3.293
 2760SOL    HW2 9180   5.285   6.160   3.216
 2761SOL     OW 9181   1.784   3.204   3.005
 2761SOL    HW1 9182   1.866   3.154   3.034
 2761SOL    HW2 9183   1.782   3.293   3.050
 2762SOL     OW 9184   2.707   2.599   0.400
 2762SOL    HW1 9185   2.722   2.518   0.343
 2762SOL    HW2 9186   2.755   2.677   0.360
 2763SOL     OW 9187   5.417   2.171   4.762
 2763SOL    HW1 9188   5.326   2.209   4.777
 2763SOL    HW2 9189   5.486   2.233   4.797
 2764SOL     OW 9190   1.437   3.662   1.990
 2764SOL    HW1 9191   1.440   3.574   2.037
 2764SOL    HW2 9192   1.529   3.687   1.959
 2765SOL     OW 9193   6.719   0.190   6.532
 2765SOL    HW1 9194   6.748   0.095   6.517
 2765SOL    HW2 9195   6.619   0.194   6.530
 2766SOL     OW 9196   5.011   1.396   6.630
 2766SOL    HW1 9197   4.952   1.329   6.585
 2766SOL    HW2 9198   5.014   1.378   6.728
 2767SOL     OW 9199   7.018   5.169   6.288
 2767SOL    HW1 9200   6.931   5.128   6.262
 2767SOL    HW2 9201   0.073   5.112   6.254
 2768SOL     OW 9202   4.532   0.040   1.172
 2768SOL    HW1 9203   4.522   6.971   1.214
 2768SOL    HW2 9204   4.478   0.107   1.222
 2769SOL     OW 9205   1.211   4.390   5.771
 2769SOL    HW1 9206   1.203   4.322   5.698
 2769SOL    HW2 9207   1.143   4.462   5.757
 2770SOL     OW 9208   2.982   6.798   0.785
 2770SOL    HW1 9209   3.051   6.754   0.844
 2770SOL    HW2 9210   2.940   6.874   0.835
 2771SOL     OW 9211   4.752   6.975   4.370
 2771SOL    HW1 9212   4.816   7.002   4.442
 2771SOL    HW2 9213   4.668   0.008   4.378
 2772SOL     OW 9214   4.087   0.081   3.390
 2772SOL    HW1 9215   4.042   0.033   3.315
 2772SOL    HW2 9216   4.114   0.173   3.359
 2773SOL     OW 9217   5.747   2.679   4.480
 2773SOL    HW1 9218   5.707   2.729   4.557
 2773SOL    HW2 9219   5.726   2.727   4.395
 2774SOL     OW 9220   5.219   1.704   4.342
 2774SOL    HW1 9221   5.213   1.679   4.246
 2774SOL    HW2 9222   5.293   1.770   4.355
 2775SOL     OW 9223   0.736   3.402   4.098
 2775SOL    HW1 9224   0.788   3.438   4.176
 2775SOL    HW2 9225   0.724   3.304   4.109
 2776SOL     OW 9226   4.968   4.374   6.322
 2776SOL    HW1 9227   4.877   4.355   6.361
 2776SOL    HW2 9228   5.027   4.295   6.336
 2777SOL     OW 9229   3.414   1.984   6.184
 2777SOL    HW1 9230   3.434   2.078   6.212
 2777SOL    HW2 9231   3.315   1.968   6.187
 2778SOL     OW 9232   3.090   6.271   6.001
 2778SOL    HW1 9233   3.044   6.280   5.913
 2778SOL    HW2 9234   3.085   6.358   6.050
 2779SOL     OW 9235   5.681   0.238   1.176
 2779SOL    HW1 9236   5.605   0.209   1.234
 2779SOL    HW2 9237   5.767   0.220   1.223
 2780SOL     OW 9238   6.853   1.184   4.820
 2780SOL    HW1 9239   6.849   1.241   4.901
 2780SOL    HW2 9240   6.940   1.201   4.772
 2781SOL     OW 9241   5.674   0.938   3.030
 2781SOL    HW1 9242   5.741   0.941   3.104
 2781SOL    HW2 9243   5.717   0.906   2.946
 2782SOL     OW 9244   4.436   0.822   6.417
 2782SOL    HW1 9245   4.431   0.899   6.354
 2782SOL    HW2 9246   4.350   0.771   6.415
 2783SOL     OW 9247   5.872   4.355   1.739
 2783SOL    HW1 9248   5.924   4.273   1.760
 2783SOL    HW2 9249   5.797   4.331   1.676
 2784SOL     OW 9250   1.360   1.834   1.114
 2784SOL    HW1 9251   1.440   1.789   1.074
 2784SOL    HW2 9252   1.295   1.857   1.042
 2785SOL     OW 9253   5.802   2.576   1.630
 2785SOL    HW1 9254   5.768   2.514   1.560
 2785SOL    HW2 9255   5.882   2.535   1.675
 2786SOL     OW 9256   0.065   6.646   0.198
 2786SOL    HW1 9257   0.139   6.650   0.132
 2786SOL    HW2 9258   0.003   6.570   0.175
 2787SOL     OW 9259   6.484   4.857   6.309
 2787SOL    HW1 9260   6.426   4.900   6.239
 2787SOL    HW2 9261   6.475   4.908   6.395
 2788SOL     OW 9262   3.085   5.792   5.647
 2788SOL    HW1 9263   3.068   5.842   5.732
 2788SOL    HW2 9264   3.048   5.845   5.570
 2789SOL     OW 9265   1.136   2.291   5.399
 2789SOL    HW1 9266   1.114   2.229   5.475
 2789SOL    HW2 9267   1.179   2.374   5.435
 2790SOL     OW 9268   2.063   5.434   1.789
 2790SOL    HW1 9269   2.037   5.506   1.853
 2790SOL    HW2 9270   2.080   5.349   1.840
 2791SOL     OW 9271   0.542   3.570   2.812
 2791SOL    HW1 9272   0.572   3.659   2.779
 2791SOL    HW2 9273   0.451   3.579   2.852
 2792SOL     OW 9274   3.078   1.222   5.404
 2792SOL    HW1 9275   2.978   1.216   5.403
 2792SOL    HW2 9276   3.107   1.266   5.489
 2793SOL     OW 9277   3.432   4.179   1.042
 2793SOL    HW1 9278   3.406   4.139   1.130
 2793SOL    HW2 9279   3.354   4.174   0.979
 2794SOL     OW 9280   0.925   2.408   6.905
 2794SOL    HW1 9281   0.831   2.391   6.934
 2794SOL    HW2 9282   0.984   2.415   6.985
 2795SOL     OW 9283   1.227   4.854   1.553
 2795SOL    HW1 9284   1.323   4.883   1.548
 2795SOL    HW2 9285   1.219   4.760   1.520
 2796SOL     OW 9286   2.134   6.277   6.299
 2796SOL    HW1 9287   2.070   6.252   6.372
 2796SOL    HW2 9288   2.107   6.365   6.260
 2797SOL     OW 9289   5.339   6.977   3.769
 2797SOL    HW1 9290   5.369   6.905   3.832
 2797SOL    HW2 9291   5.240   6.974   3.760
 2798SOL     OW 9292   5.473   0.247   1.960
 2798SOL    HW1 9293   5.523   0.325   1.922
 2798SOL    HW2 9294   5.522   0.210   2.038
 2799SOL     OW 9295   3.385   5.970   5.311
 2799SOL    HW1 9296   3.353   6.034   5.242
 2799SOL    HW2 9297   3.371   5.876   5.278
 2800SOL     OW 9298   5.886   0.112   6.775
 2800SOL    HW1 9299   5.878   0.162   6.689
 2800SOL    HW2 9300   5.906   0.016   6.756
 2801SOL     OW 9301   0.659   4.624   5.106
 2801SOL    HW1 9302   0.726   4.671   5.162
 2801SOL    HW2 9303   0.659   4.526   5.128
 2802SOL     OW 9304   0.882   5.145   5.750
 2802SOL    HW1 9305   0.865   5.113   5.657
 2802SOL    HW2 9306   0.909   5.242   5.748
 2803SOL     OW 9307   3.815   2.433   6.481
 2803SOL    HW1 9308   3.867   2.517   6.496
 2803SOL    HW2 9309   3.858   2.380   6.407
 2804SOL     OW 9310   0.370   2.710   3.833
 2804SOL    HW1 9311   0.317   2.671   3.758
 2804SOL    HW2 9312   0.309   2.736   3.907
 2805SOL     OW 9313   4.345   3.592   1.339
 2805SOL    HW1 9314   4.263   3.538   1.318
 2805SOL    HW2 9315   4.359   3.595   1.438
 2806SOL     OW 9316   0.198   3.858   5.845
 2806SOL    HW1 9317   0.099   3.858   5.829
 2806SOL    HW2 9318   0.217   3.808   5.929
 2807SOL     OW 9319   3.655   0.158   3.732
 2807SOL    HW1 9320   3.682   0.134   3.825
 2807SOL    HW2 9321   3.703   0.099   3.667
 2808SOL     OW 9322   6.753   5.567   6.248
 2808SOL    HW1 9323   6.847   5.556   6.280
 2808SOL    HW2 9324   6.697   5.603   6.322
 2809SOL     OW 9325   0.065   5.254   1.815
 2809SOL    HW1 9326   0.115   5.308   1.748
 2809SOL    HW2 9327   0.039   5.313   1.893
 2810SOL     OW 9328   2.725   5.971   3.041
 2810SOL    HW1 9329   2.768   6.038   2.980
 2810SOL    HW2 9330   2.664   5.912   2.988
 2811SOL     OW 9331   0.817   0.823   1.519
 2811SOL    HW1 9332   0.843   0.861   1.430
 2811SOL    HW2 9333   0.726   0.854   1.543
 2812SOL     OW 9334   0.564   2.220   1.224
 2812SOL    HW1 9335   0.564   2.303   1.169
 2812SOL    HW2 9336   0.656   2.203   1.259
 2813SOL     OW 9337   1.215   2.179   1.914
 2813SOL    HW1 9338   1.121   2.194   1.945
 2813SOL    HW2 9339   1.276   2.178   1.994
 2814SOL     OW 9340   2.083   4.465   0.121
 2814SOL    HW1 9341   2.115   4.460   0.026
 2814SOL    HW2 9342   2.113   4.383   0.171
 2815SOL     OW 9343   0.540   5.184   5.508
 2815SOL    HW1 9344   0.566   5.098   5.552
 2815SOL    HW2 9345   0.599   5.257   5.540
 2816SOL     OW 9346   0.678   6.013   6.157
 2816SOL    HW1 9347   0.773   5.991   6.137
 2816SOL    HW2 9348   0.619   5.938   6.125
 2817SOL     OW 9349   4.558   0.730   1.722
 2817SOL    HW1 9350   4.653   0.720   1.694
 2817SOL    HW2 9351   4.516   0.640   1.735
 2818SOL     OW 9352   1.631   0.508   0.531
 2818SOL    HW1 9353   1.679   0.592   0.503
 2818SOL    HW2 9354   1.550   0.496   0.475
 2819SOL     OW 9355   0.770   0.828   0.356
 2819SOL    HW1 9356   0.710   0.750   0.340
 2819SOL    HW2 9357   0.864   0.795   0.369
 2820SOL     OW 9358   1.527   2.432   1.001
 2820SOL    HW1 9359   1.625   2.440   1.017
 2820SOL    HW2 9360   1.511   2.397   0.909
 2821SOL     OW 9361   2.447   3.170   6.233
 2821SOL    HW1 9362   2.538   3.177   6.191
 2821SOL    HW2 9363   2.395   3.253   6.214
 2822SOL     OW 9364   4.475   2.474   0.983
 2822SOL    HW1 9365   4.568   2.492   0.950
 2822SOL    HW2 9366   4.414   2.545   0.950
 2823SOL     OW 9367   5.698   2.311   1.533
 2823SOL    HW1 9368   5.768   2.240   1.545
 2823SOL    HW2 9369   5.623   2.296   1.598
 2824SOL     OW 9370   1.397   3.177   4.744
 2824SOL    HW1 9371   1.444   3.209   4.663
 2824SOL    HW2 9372   1.324   3.113   4.717
 2825SOL     OW 9373   5.184   1.526   5.753
 2825SOL    HW1 9374   5.215   1.433   5.772
 2825SOL    HW2 9375   5.229   1.590   5.816
 2826SOL     OW 9376   2.555   2.948   6.811
 2826SOL    HW1 9377   2.524   2.961   6.717
 2826SOL    HW2 9378   2.608   2.863   6.817
 2827SOL     OW 9379   6.316   0.790   6.594
 2827SOL    HW1 9380   6.230   0.751   6.627
 2827SOL    HW2 9381   6.302   0.886   6.570
 2828SOL     OW 9382   1.739   3.814   0.754
 2828SOL    HW1 9383   1.811   3.744   0.758
 2828SOL    HW2 9384   1.778   3.899   0.717
 2829SOL     OW 9385   3.133   3.962   2.894
 2829SOL    HW1 9386   3.106   4.038   2.953
 2829SOL    HW2 9387   3.069   3.886   2.907
 2830SOL     OW 9388   3.258   4.613   5.668
 2830SOL    HW1 9389   3.286   4.705   5.696
 2830SOL    HW2 9390   3.222   4.616   5.575
 2831SOL     OW 9391   5.981   1.595   1.306
 2831SOL    HW1 9392   5.989   1.680   1.358
 2831SOL    HW2 9393   5.896   1.549   1.331
 2832SOL     OW 9394   0.372   4.029   1.777
 2832SOL    HW1 9395   0.281   3.989   1.789
 2832SOL    HW2 9396   0.411   3.998   1.690
 2833SOL     OW 9397   2.359   2.247   2.340
 2833SOL    HW1 9398   2.402   2.212   2.423
 2833SOL    HW2 9399   2.380   2.344   2.330
 2834SOL     OW 9400   3.305   5.635   5.552
 2834SOL    HW1 9401   3.226   5.696   5.553
 2834SOL    HW2 9402   3.361   5.655   5.472
 2835SOL     OW 9403   6.728   0.251   0.534
 2835SOL    HW1 9404   6.776   0.276   0.618
 2835SOL    HW2 9405   6.732   0.151   0.522
 2836SOL     OW 9406   3.867   5.633   2.514
 2836SOL    HW1 9407   3.819   5.599   2.433
 2836SOL    HW2 9408   3.900   5.726   2.496
 2837SOL     OW 9409   5.358   4.273   1.766
 2837SOL    HW1 9410   5.296   4.346   1.798
 2837SOL    HW2 9411   5.395   4.224   1.844
 2838SOL     OW 9412   5.540   4.115   6.149
 2838SOL    HW1 9413   5.503   4.158   6.231
 2838SOL    HW2 9414   5.466   4.091   6.087
 2839SOL     OW 9415   5.783   3.049   4.946
 2839SOL    HW1 9416   5.737   3.073   5.031
 2839SOL    HW2 9417   5.830   2.962   4.958
 2840SOL     OW 9418   0.035   6.463   4.362
 2840SOL    HW1 9419   7.011   6.375   4.376
 2840SOL    HW2 9420   0.111   6.453   4.298
 2841SOL     OW 9421   6.596   3.422   2.469
 2841SOL    HW1 9422   6.659   3.428   2.391
 2841SOL    HW2 9423   6.587   3.513   2.511
 2842SOL     OW 9424   1.012   7.013   3.402
 2842SOL    HW1 9425   0.990   0.090   3.410
 2842SOL    HW2 9426   0.927   6.960   3.393
 2843SOL     OW 9427   1.837   2.955   3.650
 2843SOL    HW1 9428   1.785   3.027   3.696
 2843SOL    HW2 9429   1.792   2.933   3.563
 2844SOL     OW 9430   4.699   4.540   0.589
 2844SOL    HW1 9431   4.634   4.550   0.665
 2844SOL    HW2 9432   4.788   4.513   0.625
 2845SOL     OW 9433   3.585   2.145   3.056
 2845SOL    HW1 9434   3.504   2.089   3.039
 2845SOL    HW2 9435   3.653   2.127   2.986
 2846SOL     OW 9436   5.769   0.047   0.331
 2846SOL    HW1 9437   5.809   0.136   0.310
 2846SOL    HW2 9438   5.829   6.995   0.297
 2847SOL     OW 9439   4.575   4.745   1.933
 2847SOL    HW1 9440   4.600   4.706   1.845
 2847SOL    HW2 9441   4.563   4.671   2.000
 2848SOL     OW 9442   0.410   4.188   5.490
 2848SOL    HW1 9443   0.386   4.093   5.509
 2848SOL    HW2 9444   0.507   4.194   5.468
 2849SOL     OW 9445   5.015   0.073   2.306
 2849SOL    HW1 9446   4.969   0.006   2.248
 2849SOL    HW2 9447   4.956   0.099   2.382
 2850SOL     OW 9448   1.981   6.990   2.392
 2850SOL    HW1 9449   2.040   0.046   2.417
 2850SOL    HW2 9450   2.032   6.923   2.338
 2851SOL     OW 9451   3.701   3.596   0.939
 2851SOL    HW1 9452   3.733   3.561   1.027
 2851SOL    HW2 9453   3.698   3.520   0.873
 2852SOL     OW 9454   6.393   4.766   6.819
 2852SOL    HW1 9455   6.485   4.768   6.780
 2852SOL    HW2 9456   6.351   4.856   6.809
 2853SOL     OW 9457   6.878   3.991   6.137
 2853SOL    HW1 9458   6.936   3.924   6.091
 2853SOL    HW2 9459   6.898   4.082   6.103
 2854SOL     OW 9460   3.807   1.631   5.675
 2854SOL    HW1 9461   3.778   1.553   5.730
 2854SOL    HW2 9462   3.808   1.713   5.732
 2855SOL     OW 9463   2.058   1.566   5.544
 2855SOL    HW1 9464   2.065   1.631   5.468
 2855SOL    HW2 9465   2.061   1.473   5.508
 2856SOL     OW 9466   0.997   5.214   3.810
 2856SOL    HW1 9467   1.014   5.300   3.860
 2856SOL    HW2 9468   1.080   5.158   3.813
 2857SOL     OW 9469   0.396   3.680   0.022
 2857SOL    HW1 9470   0.431   3.723   6.959
 2857SOL    HW2 9471   0.429   3.586   0.027
 2858SOL     OW 9472   4.653   4.935   2.837
 2858SOL    HW1 9473   4.686   4.841   2.843
 2858SOL    HW2 9474   4.635   4.959   2.742
 2859SOL     OW 9475   5.109   4.671   0.957
 2859SOL    HW1 9476   5.036   4.670   1.025
 2859SOL    HW2 9477   5.113   4.581   0.912
 2860SOL     OW 9478   0.758   0.332   2.539
 2860SOL    HW1 9479   0.726   0.405   2.599
 2860SOL    HW2 9480   0.767   0.247   2.591
 2861SOL     OW 9481   4.722   5.554   6.444
 2861SOL    HW1 9482   4.643   5.562   6.504
 2861SOL    HW2 9483   4.701   5.597   6.356
 2862SOL     OW 9484   4.048   2.942   0.356
 2862SOL    HW1 9485   4.035   3.029   0.404
 2862SOL    HW2 9486   4.076   2.872   0.421
 2863SOL     OW 9487   5.287   6.637   5.342
 2863SOL    HW1 9488   5.326   6.608   5.255
 2863SOL    HW2 9489   5.358   6.678   5.399
 2864SOL     OW 9490   3.178   4.248   0.139
 2864SOL    HW1 9491   3.263   4.198   0.125
 2864SOL    HW2 9492   3.110   4.188   0.181
 2865SOL     OW 9493   5.526   5.596   4.149
 2865SOL    HW1 9494   5.455   5.563   4.212
 2865SOL    HW2 9495   5.519   5.695   4.141
 2866SOL     OW 9496   4.444   4.818   0.704
 2866SOL    HW1 9497   4.498   4.883   0.758
 2866SOL    HW2 9498   4.387   4.763   0.765
 2867SOL     OW 9499   5.317   6.388   1.697
 2867SOL    HW1 9500   5.344   6.314   1.758
 2867SOL    HW2 9501   5.389   6.403   1.629
 2868SOL     OW 9502   0.978   1.203   5.535
 2868SOL    HW1 9503   1.063   1.250   5.559
 2868SOL    HW2 9504   0.901   1.266   5.544
 2869SOL     OW 9505   6.115   5.235   4.907
 2869SOL    HW1 9506   6.201   5.184   4.910
 2869SOL    HW2 9507   6.113   5.301   4.981
 2870SOL     OW 9508   6.905   2.078   1.508
 2870SOL    HW1 9509   6.985   2.138   1.503
 2870SOL    HW2 9510   6.906   2.015   1.430
 2871SOL     OW 9511   5.514   1.409   1.557
 2871SOL    HW1 9512   5.469   1.491   1.593
 2871SOL    HW2 9513   5.569   1.432   1.478
 2872SOL     OW 9514   2.674   2.349   2.128
 2872SOL    HW1 9515   2.753   2.334   2.069
 2872SOL    HW2 9516   2.598   2.384   2.073
 2873SOL     OW 9517   1.126   6.477   1.415
 2873SOL    HW1 9518   1.139   6.378   1.418
 2873SOL    HW2 9519   1.032   6.498   1.389
 2874SOL     OW 9520   2.684   0.584   2.742
 2874SOL    HW1 9521   2.637   0.618   2.660
 2874SOL    HW2 9522   2.659   0.489   2.758
 2875SOL     OW 9523   2.709   6.820   3.005
 2875SOL    HW1 9524   2.763   6.861   2.932
 2875SOL    HW2 9525   2.767   6.761   3.061
 2876SOL     OW 9526   1.595   6.826   2.182
 2876SOL    HW1 9527   1.519   6.811   2.118
 2876SOL    HW2 9528   1.679   6.843   2.131
 2877SOL     OW 9529   1.410   1.954   6.838
 2877SOL    HW1 9530   1.410   2.033   6.901
 2877SOL    HW2 9531   1.349   1.974   6.762
 2878SOL     OW 9532   4.117   3.565   3.873
 2878SOL    HW1 9533   4.135   3.602   3.964
 2878SOL    HW2 9534   4.107   3.466   3.878
 2879SOL     OW 9535   4.134   3.487   0.204
 2879SOL    HW1 9536   4.066   3.455   0.138
 2879SOL    HW2 9537   4.120   3.585   0.222
 2880SOL     OW 9538   2.004   1.452   4.341
 2880SOL    HW1 9539   1.923   1.511   4.350
 2880SOL    HW2 9540   1.977   1.357   4.350
 2881SOL     OW 9541   4.735   6.136   6.673
 2881SOL    HW1 9542   4.749   6.172   6.581
 2881SOL    HW2 9543   4.639   6.111   6.685
 2882SOL     OW 9544   4.663   6.371   0.620
 2882SOL    HW1 9545   4.654   6.470   0.634
 2882SOL    HW2 9546   4.599   6.342   0.549
 2883SOL     OW 9547   6.030   6.158   3.994
 2883SOL    HW1 9548   6.030   6.256   4.015
 2883SOL    HW2 9549   6.125   6.126   3.986
 2884SOL     OW 9550   6.697   4.910   3.672
 2884SOL    HW1 9551   6.726   4.863   3.755
 2884SOL    HW2 9552   6.640   4.849   3.616
 2885SOL     OW 9553   1.219   2.898   3.171
 2885SOL    HW1 9554   1.270   2.920   3.088
 2885SOL    HW2 9555   1.188   2.983   3.215
 2886SOL     OW 9556   1.721   4.595   6.112
 2886SOL    HW1 9557   1.813   4.595   6.150
 2886SOL    HW2 9558   1.720   4.542   6.027
 2887SOL     OW 9559   0.530   5.727   3.970
 2887SOL    HW1 9560   0.464   5.681   4.028
 2887SOL    HW2 9561   0.491   5.813   3.936
 2888SOL     OW 9562   6.290   6.725   0.014
 2888SOL    HW1 9563   6.221   6.791   7.006
 2888SOL    HW2 9564   6.361   6.771   0.066
 2889SOL     OW 9565   3.217   6.561   2.721
 2889SOL    HW1 9566   3.120   6.534   2.728
 2889SOL    HW2 9567   3.231   6.647   2.770
 2890SOL     OW 9568   2.077   0.987   1.362
 2890SOL    HW1 9569   2.136   0.984   1.443
 2890SOL    HW2 9570   2.066   0.894   1.326
 2891SOL     OW 9571   0.992   1.966   4.727
 2891SOL    HW1 9572   1.066   1.957   4.794
 2891SOL    HW2 9573   0.969   1.875   4.690
 2892SOL     OW 9574   6.631   4.014   3.020
 2892SOL    HW1 9575   6.637   4.012   2.920
 2892SOL    HW2 9576   6.618   4.108   3.051
 2893SOL     OW 9577   6.784   5.238   4.808
 2893SOL    HW1 9578   6.770   5.326   4.763
 2893SOL    HW2 9579   6.844   5.181   4.753
 2894SOL     OW 9580   1.677   5.921   2.513
 2894SOL    HW1 9581   1.672   5.831   2.469
 2894SOL    HW2 9582   1.636   5.990   2.453
 2895SOL     OW 9583   4.326   6.752   6.281
 2895SOL    HW1 9584   4.318   6.667   6.334
 2895SOL    HW2 9585   4.375   6.821   6.335
 2896SOL     OW 9586   4.891   6.021   4.900
 2896SOL    HW1 9587   4.952   6.052   4.973
 2896SOL    HW2 9588   4.946   5.974   4.830
 2897SOL     OW 9589   3.727   4.896   3.295
 2897SOL    HW1 9590   3.802   4.870   3.234
 2897SOL    HW2 9591   3.759   4.964   3.360
 2898SOL     OW 9592   5.690   3.043   2.817
 2898SOL    HW1 9593   5.664   3.124   2.870
 2898SOL    HW2 9594   5.678   2.962   2.873
 2899SOL     OW 9595   6.937   3.613   1.209
 2899SOL    HW1 9596   6.865   3.676   1.239
 2899SOL    HW2 9597   7.003   3.661   1.151
 2900SOL     OW 9598   2.715   3.002   6.399
 2900SOL    HW1 9599   2.721   3.053   6.313
 2900SOL    HW2 9600   2.661   2.919   6.385
 2901SOL     OW 9601   0.764   3.837   3.691
 2901SOL    HW1 9602   0.841   3.773   3.694
 2901SOL    HW2 9603   0.741   3.857   3.596
 2902SOL     OW 9604   6.908   6.230   3.550
 2902SOL    HW1 9605   6.860   6.170   3.486
 2902SOL    HW2 9606   6.926   6.318   3.507
 2903SOL     OW 9607   4.200   5.350   0.520
 2903SOL    HW1 9608   4.246   5.415   0.579
 2903SOL    HW2 9609   4.266   5.286   0.481
 2904SOL     OW 9610   2.386   4.253   5.285
 2904SOL    HW1 9611   2.471   4.244   5.336
 2904SOL    HW2 9612   2.375   4.175   5.223
 2905SOL     OW 9613   0.681   5.819   1.772
 2905SOL    HW1 9614   0.763   5.866   1.738
 2905SOL    HW2 9615   0.607   5.832   1.706
 2906SOL     OW 9616   6.087   6.366   3.359
 2906SOL    HW1 9617   6.065   6.289   3.418
 2906SOL    HW2 9618   6.103   6.333   3.266
 2907SOL     OW 9619   0.271   1.090   3.909
 2907SOL    HW1 9620   0.282   1.119   4.005
 2907SOL    HW2 9621   0.344   1.130   3.854
 2908SOL     OW 9622   3.904   6.400   2.721
 2908SOL    HW1 9623   3.809   6.372   2.707
 2908SOL    HW2 9624   3.941   6.354   2.801
 2909SOL     OW 9625   0.788   6.172   2.624
 2909SOL    HW1 9626   0.823   6.127   2.541
 2909SOL    HW2 9627   0.832   6.132   2.704
 2910SOL     OW 9628   6.698   0.620   4.203
 2910SOL    HW1 9629   6.750   0.650   4.282
 2910SOL    HW2 9630   6.663   0.699   4.153
 2911SOL     OW 9631   6.669   4.191   5.092
 2911SOL    HW1 9632   6.659   4.283   5.130
 2911SOL    HW2 9633   6.582   4.163   5.051
 2912SOL     OW 9634   0.576   0.253   1.440
 2912SOL    HW1 9635   0.606   0.338   1.483
 2912SOL    HW2 9636   0.625   0.176   1.482
 2913SOL     OW 9637   2.650   6.964   1.238
 2913SOL    HW1 9638   2.750   6.966   1.242
 2913SOL    HW2 9639   2.612   6.982   1.328
 2914SOL     OW 9640   4.294   5.637   0.628
 2914SOL    HW1 9641   4.327   5.644   0.534
 2914SOL    HW2 9642   4.365   5.667   0.691
 2915SOL     OW 9643   2.697   0.238   2.363
 2915SOL    HW1 9644   2.663   0.163   2.419
 2915SOL    HW2 9645   2.728   0.203   2.275
 2916SOL     OW 9646   2.053   5.962   1.061
 2916SOL    HW1 9647   2.027   5.941   1.155
 2916SOL    HW2 9648   2.079   5.878   1.014
 2917SOL     OW 9649   2.395   6.079   4.698
 2917SOL    HW1 9650   2.300   6.077   4.667
 2917SOL    HW2 9651   2.442   6.156   4.655
 2918SOL     OW 9652   5.186   3.070   1.720
 2918SOL    HW1 9653   5.133   3.039   1.799
 2918SOL    HW2 9654   5.167   3.011   1.642
 2919SOL     OW 9655   0.846   5.398   4.607
 2919SOL    HW1 9656   0.879   5.305   4.623
 2919SOL    HW2 9657   0.747   5.396   4.593
 2920SOL     OW 9658   1.114   2.729   2.665
 2920SOL    HW1 9659   1.074   2.788   2.736
 2920SOL    HW2 9660   1.120   2.636   2.700
 2921SOL     OW 9661   1.183   0.186   4.235
 2921SOL    HW1 9662   1.092   0.163   4.269
 2921SOL    HW2 9663   1.204   0.131   4.154
 2922SOL     OW 9664   4.012   6.601   3.395
 2922SOL    HW1 9665   3.956   6.616   3.477
 2922SOL    HW2 9666   3.952   6.585   3.316
 2923SOL     OW 9667   6.680   5.829   4.952
 2923SOL    HW1 9668   6.772   5.801   4.926
 2923SOL    HW2 9669   6.675   5.929   4.957
 2924SOL     OW 9670   5.992   2.388   4.860
 2924SOL    HW1 9671   5.994   2.478   4.904
 2924SOL    HW2 9672   5.965   2.318   4.927
 2925SOL     OW 9673   4.908   6.805   6.076
 2925SOL    HW1 9674   4.917   6.822   5.978
 2925SOL    HW2 9675   4.983   6.746   6.106
 2926SOL     OW 9676   6.898   2.316   3.928
 2926SOL    HW1 9677   6.891   2.336   3.830
 2926SOL    HW2 9678   6.990   2.340   3.960
 2927SOL     OW 9679   1.276   2.349   2.163
 2927SOL    HW1 9680   1.295   2.273   2.224
 2927SOL    HW2 9681   1.311   2.434   2.204
 2928SOL     OW 9682   6.481   2.735   6.893
 2928SOL    HW1 9683   6.527   2.806   6.946
 2928SOL    HW2 9684   6.550   2.677   6.849
 2929SOL     OW 9685   2.723   2.407   4.875
 2929SOL    HW1 9686   2.640   2.461   4.884
 2929SOL    HW2 9687   2.797   2.464   4.838
 2930SOL     OW 9688   6.416   4.202   4.977
 2930SOL    HW1 9689   6.445   4.292   4.946
 2930SOL    HW2 9690   6.352   4.163   4.911
 2931SOL     OW 9691   5.153   4.300   5.521
 2931SOL    HW1 9692   5.187   4.317   5.429
 2931SOL    HW2 9693   5.070   4.244   5.516
 2932SOL     OW 9694   6.861   5.512   1.037
 2932SOL    HW1 9695   6.858   5.598   0.986
 2932SOL    HW2 9696   6.833   5.436   0.977
 2933SOL     OW 9697   1.710   0.535   0.948
 2933SOL    HW1 9698   1.676   0.482   0.870
 2933SOL    HW2 9699   1.717   0.631   0.924
 2934SOL     OW 9700   4.039   4.472   0.388
 2934SOL    HW1 9701   4.105   4.413   0.341
 2934SOL    HW2 9702   4.028   4.440   0.482
 2935SOL     OW 9703   6.959   2.273   6.262
 2935SOL    HW1 9704   7.004   2.184   6.253
 2935SOL    HW2 9705   6.863   2.259   6.286
 2936SOL     OW 9706   3.960   6.206   0.780
 2936SOL    HW1 9707   4.055   6.195   0.811
 2936SOL    HW2 9708   3.926   6.296   0.808
 2937SOL     OW 9709   4.488   5.199   2.422
 2937SOL    HW1 9710   4.422   5.129   2.449
 2937SOL    HW2 9711   4.553   5.160   2.358
 2938SOL     OW 9712   6.418   5.899   6.756
 2938SOL    HW1 9713   6.384   5.866   6.668
 2938SOL    HW2 9714   6.504   5.853   6.777
 2939SOL     OW 9715   0.589   5.683   1.999
 2939SOL    HW1 9716   0.620   5.723   1.913
 2939SOL    HW2 9717   0.513   5.737   2.035
 2940SOL     OW 9718   4.530   6.535   3.770
 2940SOL    HW1 9719   4.501   6.599   3.700
 2940SOL    HW2 9720   4.630   6.530   3.772
 2941SOL     OW 9721   1.492   3.896   3.920
 2941SOL    HW1 9722   1.554   3.871   3.995
 2941SOL    HW2 9723   1.494   3.825   3.850
 2942SOL     OW 9724   3.441   1.568   1.509
 2942SOL    HW1 9725   3.352   1.546   1.547
 2942SOL    HW2 9726   3.482   1.643   1.561
 2943SOL     OW 9727   6.137   3.927   3.200
 2943SOL    HW1 9728   6.214   3.866   3.215
 2943SOL    HW2 9729   6.096   3.909   3.111
 2944SOL     OW 9730   1.863   5.642   2.781
 2944SOL    HW1 9731   1.815   5.683   2.859
 2944SOL    HW2 9732   1.894   5.714   2.719
 2945SOL     OW 9733   4.927   4.225   1.730
 2945SOL    HW1 9734   4.905   4.168   1.808
 2945SOL    HW2 9735   4.855   4.293   1.716
 2946SOL     OW 9736   3.669   3.887   5.450
 2946SOL    HW1 9737   3.677   3.811   5.385
 2946SOL    HW2 9738   3.603   3.953   5.416
 2947SOL     OW 9739   6.545   6.690   0.576
 2947SOL    HW1 9740   6.608   6.723   0.646
 2947SOL    HW2 9741   6.466   6.752   0.572
 2948SOL     OW 9742   6.283   3.866   1.824
 2948SOL    HW1 9743   6.383   3.865   1.826
 2948SOL    HW2 9744   6.250   3.944   1.877
 2949SOL     OW 9745   1.378   0.102   0.587
 2949SOL    HW1 9746   1.365   0.041   0.508
 2949SOL    HW2 9747   1.292   0.107   0.638
 2950SOL     OW 9748   5.990   4.544   3.201
 2950SOL    HW1 9749   6.004   4.522   3.297
 2950SOL    HW2 9750   5.893   4.565   3.185
 2951SOL     OW 9751   7.003   1.144   1.836
 2951SOL    HW1 9752   0.042   1.068   1.863
 2951SOL    HW2 9753   6.919   1.142   1.890
 2952SOL     OW 9754   5.829   1.731   3.943
 2952SOL    HW1 9755   5.800   1.650   3.994
 2952SOL    HW2 9756   5.846   1.806   4.007
 2953SOL     OW 9757   0.996   5.153   4.393
 2953SOL    HW1 9758   1.019   5.236   4.343
 2953SOL    HW2 9759   1.080   5.105   4.418
 2954SOL     OW 9760   0.023   4.331   6.336
 2954SOL    HW1 9761   6.972   4.273   6.297
 2954SOL    HW2 9762   7.003   4.417   6.369
 2955SOL     OW 9763   1.979   4.426   6.315
 2955SOL    HW1 9764   1.951   4.330   6.321
 2955SOL    HW2 9765   1.995   4.449   6.219
 2956SOL     OW 9766   6.191   4.804   3.190
 2956SOL    HW1 9767   6.206   4.756   3.104
 2956SOL    HW2 9768   6.166   4.738   3.261
 2957SOL     OW 9769   2.536   5.202   1.076
 2957SOL    HW1 9770   2.481   5.171   1.153
 2957SOL    HW2 9771   2.499   5.288   1.040
 2958SOL     OW 9772   2.001   5.651   2.159
 2958SOL    HW1 9773   1.902   5.639   2.153
 2958SOL    HW2 9774   2.043   5.565   2.190
 2959SOL     OW 9775   0.237   3.579   2.823
 2959SOL    HW1 9776   0.243   3.540   2.915
 2959SOL    HW2 9777   0.234   3.504   2.756
 2960SOL     OW 9778   5.123   0.448   0.319
 2960SOL    HW1 9779   5.134   0.546   0.302
 2960SOL    HW2 9780   5.199   0.398   0.279
 2961SOL     OW 9781   5.371   4.120   2.018
 2961SOL    HW1 9782   5.317   4.095   2.099
 2961SOL    HW2 9783   5.464   4.084   2.028
 2962SOL     OW 9784   6.762   0.440   3.167
 2962SOL    HW1 9785   6.806   0.524   3.134
 2962SOL    HW2 9786   6.663   0.446   3.149
 2963SOL     OW 9787   2.099   1.082   4.931
 2963SOL    HW1 9788   2.014   1.128   4.907
 2963SOL    HW2 9789   2.173   1.149   4.937
 2964SOL     OW 9790   1.562   1.528   0.263
 2964SOL    HW1 9791   1.600   1.474   0.338
 2964SOL    HW2 9792   1.635   1.551   0.198
 2965SOL     OW 9793   0.403   6.783   5.215
 2965SOL    HW1 9794   0.308   6.760   5.196
 2965SOL    HW2 9795   0.407   6.871   5.262
 2966SOL     OW 9796   3.186   6.285   2.579
 2966SOL    HW1 9797   3.200   6.373   2.625
 2966SOL    HW2 9798   3.127   6.227   2.635
 2967SOL     OW 9799   5.525   0.006   5.393
 2967SOL    HW1 9800   5.478   0.025   5.479
 2967SOL    HW2 9801   5.553   6.930   5.391
 2968SOL     OW 9802   2.192   3.273   1.170
 2968SOL    HW1 9803   2.214   3.203   1.238
 2968SOL    HW2 9804   2.252   3.352   1.184
 2969SOL     OW 9805   5.051   3.365   4.467
 2969SOL    HW1 9806   5.087   3.437   4.408
 2969SOL    HW2 9807   5.126   3.318   4.513
 2970SOL     OW 9808   2.475   2.074   4.347
 2970SOL    HW1 9809   2.386   2.118   4.359
 2970SOL    HW2 9810   2.476   2.024   4.260
 2971SOL     OW 9811   5.219   2.714   6.434
 2971SOL    HW1 9812   5.234   2.706   6.336
 2971SOL    HW2 9813   5.250   2.631   6.480
 2972SOL     OW 9814   5.633   5.740   0.104
 2972SOL    HW1 9815   5.560   5.767   0.166
 2972SOL    HW2 9816   5.593   5.702   0.020
 2973SOL     OW 9817   4.825   1.657   2.858
 2973SOL    HW1 9818   4.769   1.632   2.936
 2973SOL    HW2 9819   4.919   1.674   2.889
 2974SOL     OW 9820   5.080   6.292   2.758
 2974SOL    HW1 9821   5.173   6.295   2.795
 2974SOL    HW2 9822   5.015   6.273   2.831
 2975SOL     OW 9823   4.816   4.120   3.496
 2975SOL    HW1 9824   4.793   4.085   3.587
 2975SOL    HW2 9825   4.890   4.188   3.504
 2976SOL     OW 9826   4.148   2.166   1.874
 2976SOL    HW1 9827   4.198   2.248   1.902
 2976SOL    HW2 9828   4.165   2.148   1.777
 2977SOL     OW 9829   1.338   0.916   1.417
 2977SOL    HW1 9830   1.437   0.916   1.426
 2977SOL    HW2 9831   1.303   0.826   1.444
 2978SOL     OW 9832   4.652   5.172   6.239
 2978SOL    HW1 9833   4.717   5.128   6.301
 2978SOL    HW2 9834   4.691   5.178   6.147
 2979SOL     OW 9835   3.284   0.470   3.968
 2979SOL    HW1 9836   3.218   0.431   4.032
 2979SOL    HW2 9837   3.311   0.561   3.999
 2980SOL     OW 9838   3.983   3.513   5.173
 2980SOL    HW1 9839   4.065   3.460   5.149
 2980SOL    HW2 9840   3.951   3.485   5.264
 2981SOL     OW 9841   1.903   1.330   1.335
 2981SOL    HW1 9842   1.857   1.250   1.374
 2981SOL    HW2 9843   2.001   1.314   1.333
 2982SOL     OW 9844   0.837   0.543   1.541
 2982SOL    HW1 9845   0.815   0.523   1.446
 2982SOL    HW2 9846   0.833   0.642   1.556
 2983SOL     OW 9847   6.388   3.429   5.835
 2983SOL    HW1 9848   6.397   3.529   5.826
 2983SOL    HW2 9849   6.478   3.387   5.820
 2984SOL     OW 9850   0.981   5.105   1.376
 2984SOL    HW1 9851   1.066   5.135   1.419
 2984SOL    HW2 9852   0.987   5.119   1.277
 2985SOL     OW 9853   0.150   6.805   5.766
 2985SOL    HW1 9854   0.107   6.869   5.703
 2985SOL    HW2 9855   0.081   6.768   5.828
 2986SOL     OW 9856   3.853   3.360   2.309
 2986SOL    HW1 9857   3.819   3.454   2.295
 2986SOL    HW2 9858   3.816   3.325   2.396
 2987SOL     OW 9859   1.723   0.131   4.895
 2987SOL    HW1 9860   1.764   0.099   4.809
 2987SOL    HW2 9861   1.624   0.122   4.890
 2988SOL     OW 9862   0.239   1.493   6.660
 2988SOL    HW1 9863   0.231   1.557   6.737
 2988SOL    HW2 9864   0.325   1.443   6.668
 2989SOL     OW 9865   4.846   3.749   4.435
 2989SOL    HW1 9866   4.918   3.737   4.503
 2989SOL    HW2 9867   4.849   3.674   4.369
 2990SOL     OW 9868   5.477   1.106   4.355
 2990SOL    HW1 9869   5.532   1.162   4.418
 2990SOL    HW2 9870   5.384   1.098   4.391
 2991SOL     OW 9871   0.063   4.323   1.511
 2991SOL    HW1 9872   0.121   4.376   1.573
 2991SOL    HW2 9873   0.119   4.257   1.461
 2992SOL     OW 9874   0.264   3.087   5.589
 2992SOL    HW1 9875   0.314   3.166   5.625
 2992SOL    HW2 9876   0.318   3.043   5.517
 2993SOL     OW 9877   1.319   4.533   0.352
 2993SOL    HW1 9878   1.355   4.564   0.440
 2993SOL    HW2 9879   1.258   4.455   0.366
 2994SOL     OW 9880   4.238   6.199   6.528
 2994SOL    HW1 9881   4.138   6.192   6.538
 2994SOL    HW2 9882   4.278   6.108   6.528
 2995SOL     OW 9883   5.179   0.615   1.114
 2995SOL    HW1 9884   5.226   0.607   1.202
 2995SOL    HW2 9885   5.104   0.680   1.122
 2996SOL     OW 9886   6.860   0.338   4.584
 2996SOL    HW1 9887   6.851   0.251   4.534
 2996SOL    HW2 9888   6.954   0.370   4.580
 2997SOL     OW 9889   5.380   0.040   4.145
 2997SOL    HW1 9890   5.393   0.075   4.238
 2997SOL    HW2 9891   5.461   7.008   4.118
 2998SOL     OW 9892   2.686   1.545   2.912
 2998SOL    HW1 9893   2.713   1.454   2.942
 2998SOL    HW2 9894   2.635   1.538   2.826
 2999SOL     OW 9895   2.200   4.304   0.621
 2999SOL    HW1 9896   2.200   4.253   0.706
 2999SOL    HW2 9897   2.244   4.393   0.635
 3000SOL     OW 9898   2.937   3.788   5.101
 3000SOL    HW1 9899   3.008   3.819   5.164
 3000SOL    HW2 9900   2.861   3.853   5.102
 3001SOL     OW 9901   5.642   0.524   5.695
 3001SOL    HW1 9902   5.604   0.613   5.718
 3001SOL    HW2 9903   5.645   0.466   5.777
 3002SOL     OW 9904   1.752   1.992   1.665
 3002SOL    HW1 9905   1.666   1.942   1.662
 3002SOL    HW2 9906   1.789   2.001   1.572
 3003SOL     OW 9907   1.630   6.379   0.723
 3003SOL    HW1 9908   1.642   6.412   0.629
 3003SOL    HW2 9909   1.623   6.279   0.722
 3004SOL     OW 9910   2.448   6.151   3.894
 3004SOL    HW1 9911   2.398   6.065   3.899
 3004SOL    HW2 9912   2.477   6.179   3.985
 3005SOL     OW 9913   1.150   2.301   6.096
 3005SOL    HW1 9914   1.103   2.283   6.183
 3005SOL    HW2 9915   1.097   2.367   6.043
 3006SOL     OW 9916   5.292   1.273   5.503
 3006SOL    HW1 9917   5.231   1.304   5.430
 3006SOL    HW2 9918   5.348   1.197   5.469
 3007SOL     OW 9919   5.104   5.536   6.951
 3007SOL    HW1 9920   5.183   5.569   7.003
 3007SOL    HW2 9921   5.042   5.612   6.933
 3008SOL     OW 9922   5.009   2.963   6.087
 3008SOL    HW1 9923   5.077   2.976   6.159
 3008SOL    HW2 9924   4.929   2.917   6.125
 3009SOL     OW 9925   0.145   3.359   2.258
 3009SOL    HW1 9926   0.090   3.410   2.192
 3009SOL    HW2 9927   0.173   3.271   2.218
 3010SOL     OW 9928   3.502   5.722   6.927
 3010SOL    HW1 9929   3.494   5.672   7.013
 3010SOL    HW2 9930   3.473   5.664   6.851
 3011SOL     OW 9931   6.407   0.010   1.236
 3011SOL    HW1 9932   6.389   0.027   1.333
 3011SOL    HW2 9933   6.498   0.045   1.212
 3012SOL     OW 9934   2.370   2.246   5.441
 3012SOL    HW1 9935   2.285   2.254   5.494
 3012SOL    HW2 9936   2.349   2.213   5.349
 3013SOL     OW 9937   1.010   4.348   5.295
 3013SOL    HW1 9938   0.984   4.252   5.288
 3013SOL    HW2 9939   1.109   4.356   5.307
 3014SOL     OW 9940   5.182   6.902   5.788
 3014SOL    HW1 9941   5.179   6.802   5.795
 3014SOL    HW2 9942   5.237   6.939   5.863
 3015SOL     OW 9943   1.223   0.763   6.985
 3015SOL    HW1 9944   1.296   0.736   0.027
 3015SOL    HW2 9945   1.230   0.710   6.901
 3016SOL     OW 9946   1.902   6.369   4.365
 3016SOL    HW1 9947   1.986   6.423   4.357
 3016SOL    HW2 9948   1.924   6.272   4.356
 3017SOL     OW 9949   0.423   5.087   0.871
 3017SOL    HW1 9950   0.512   5.129   0.852
 3017SOL    HW2 9951   0.377   5.067   0.784
 3018SOL     OW 9952   3.394   6.907   0.797
 3018SOL    HW1 9953   3.360   6.937   0.708
 3018SOL    HW2 9954   3.466   6.838   0.784
 3019SOL     OW 9955   2.156   0.940   5.818
 3019SOL    HW1 9956   2.173   1.007   5.747
 3019SOL    HW2 9957   2.198   0.852   5.793
 3020SOL     OW 9958   6.334   4.061   6.777
 3020SOL    HW1 9959   6.431   4.063   6.802
 3020SOL    HW2 9960   6.286   4.135   6.823
 3021SOL     OW 9961   4.500   6.905   4.625
 3021SOL    HW1 9962   4.512   6.806   4.616
 3021SOL    HW2 9963   4.514   6.948   4.535
 3022SOL     OW 9964   3.634   5.717   3.840
 3022SOL    HW1 9965   3.695   5.719   3.920
 3022SOL    HW2 9966   3.680   5.671   3.764
 3023SOL     OW 9967   5.060   6.017   3.583
 3023SOL    HW1 9968   5.154   6.023   3.550
 3023SOL    HW2 9969   5.010   6.099   3.554
 3024SOL     OW 9970   0.210   6.775   6.828
 3024SOL    HW1 9971   0.261   6.859   6.811
 3024SOL    HW2 9972   0.113   6.790   6.806
 3025SOL     OW 9973   3.611   5.292   0.167
 3025SOL    HW1 9974   3.601   5.293   0.266
 3025SOL    HW2 9975   3.584   5.202   0.132
 3026SOL     OW 9976   6.771   0.924   1.566
 3026SOL    HW1 9977   6.785   1.018   1.598
 3026SOL    HW2 9978   6.845   0.866   1.598
 3027SOL     OW 9979   5.051   1.263   1.317
 3027SOL    HW1 9980   4.997   1.340   1.351
 3027SOL    HW2 9981   5.000   1.215   1.245
 3028SOL     OW 9982   2.997   3.442   5.633
 3028SOL    HW1 9983   2.978   3.478   5.724
 3028SOL    HW2 9984   2.996   3.516   5.566
 3029SOL     OW 9985   0.099   2.994   4.713
 3029SOL    HW1 9986   0.073   3.035   4.625
 3029SOL    HW2 9987   0.079   2.896   4.712
 3030SOL     OW 9988   2.520   3.357   0.705
 3030SOL    HW1 9989   2.515   3.260   0.683
 3030SOL    HW2 9990   2.429   3.398   0.694
 3031SOL     OW 9991   1.151   6.664   0.684
 3031SOL    HW1 9992   1.151   6.710   0.773
 3031SOL    HW2 9993   1.223   6.595   0.682
 3032SOL     OW 9994   2.311   0.237   2.746
 3032SOL    HW1 9995   2.376   0.162   2.760
 3032SOL    HW2 9996   2.361   0.324   2.745
 3033SOL     OW 9997   7.020   2.127   4.901
 3033SOL    HW1 9998   0.012   2.198   4.971
 3033SOL    HW2 9999   6.934   2.143   4.852
 3034SOL     OW10000   6.448   4.998   3.085
 3034SOL    HW110001   6.394   4.937   3.027
 3034SOL    HW210002   6.488   4.945   3.160
 3035SOL     OW10003   1.318   2.867   6.827
 3035SOL    HW110004   1.319   2.960   6.792
 3035SOL    HW210005   1.275   2.806   6.760
 3036SOL     OW10006   3.470   2.211   6.309
 3036SOL    HW110007   3.419   2.168   6.384
 3036SOL    HW210008   3.470   2.310   6.323
 3037SOL     OW10009   0.524   5.628   6.855
 3037SOL    HW110010   0.547   5.621   6.952
 3037SOL    HW210011   0.516   5.537   6.815
 3038SOL     OW10012   5.945   4.342   6.701
 3038SOL    HW110013   5.923   4.253   6.743
 3038SOL    HW210014   6.007   4.328   6.625
 3039SOL     OW10015   6.980   3.425   6.405
 3039SOL    HW110016   0.048   3.426   6.358
 3039SOL    HW210017   6.907   3.418   6.337
 3040SOL     OW10018   4.850   4.633   6.061
 3040SOL    HW110019   4.889   4.581   5.985
 3040SOL    HW210020   4.758   4.600   6.080
 3041SOL     OW10021   1.578   4.664   5.735
 3041SOL    HW110022   1.612   4.650   5.642
 3041SOL    HW210023   1.612   4.591   5.794
 3042SOL     OW10024   6.860   5.129   3.251
 3042SOL    HW110025   6.877   5.071   3.331
 3042SOL    HW210026   6.785   5.192   3.271
 3043SOL     OW10027   2.870   5.042   0.619
 3043SOL    HW110028   2.801   5.021   0.689
 3043SOL    HW210029   2.874   5.141   0.606
 3044SOL     OW10030   3.717   3.457   4.967
 3044SOL    HW110031   3.788   3.453   5.038
 3044SOL    HW210032   3.657   3.535   4.985
 3045SOL     OW10033   4.669   1.844   2.125
 3045SOL    HW110034   4.704   1.880   2.211
 3045SOL    HW210035   4.591   1.898   2.095
 3046SOL     OW10036   5.162   6.170   0.844
 3046SOL    HW110037   5.113   6.255   0.827
 3046SOL    HW210038   5.191   6.129   0.757
 3047SOL     OW10039   5.755   1.471   4.887
 3047SOL    HW110040   5.766   1.567   4.911
 3047SOL    HW210041   5.808   1.414   4.950
 3048SOL     OW10042   3.643   4.467   0.892
 3048SOL    HW110043   3.577   4.542   0.902
 3048SOL    HW210044   3.679   4.467   0.798
 3049SOL     OW10045   1.350   1.216   3.365
 3049SOL    HW110046   1.307   1.222   3.455
 3049SOL    HW210047   1.450   1.216   3.375
 3050SOL     OW10048   3.255   2.152   1.102
 3050SOL    HW110049   3.167   2.185   1.136
 3050SOL    HW210050   3.254   2.152   1.002
 3051SOL     OW10051   2.077   5.346   5.469
 3051SOL    HW110052   2.041   5.331   5.377
 3051SOL    HW210053   2.037   5.279   5.532
 3052SOL     OW10054   0.001   6.771   2.273
 3052SOL    HW110055   6.951   6.842   2.269
 3052SOL    HW210056   6.995   6.703   2.343
 3053SOL     OW10057   0.947   4.260   6.983
 3053SOL    HW110058   0.972   4.203   0.041
 3053SOL    HW210059   0.847   4.266   6.978
 3054SOL     OW10060   5.487   0.631   2.126
 3054SOL    HW110061   5.447   0.551   2.170
 3054SOL    HW210062   5.413   0.691   2.094
 3055SOL     OW10063   5.839   5.976   6.668
 3055SOL    HW110064   5.843   6.042   6.592
 3055SOL    HW210065   5.855   6.024   6.754
 3056SOL     OW10066   4.869   1.495   5.306
 3056SOL    HW110067   4.944   1.514   5.369
 3056SOL    HW210068   4.817   1.416   5.338
 3057SOL     OW10069   5.431   4.187   3.508
 3057SOL    HW110070   5.459   4.162   3.415
 3057SOL    HW210071   5.391   4.108   3.553
 3058SOL     OW10072   0.256   4.519   6.792
 3058SOL    HW110073   0.177   4.462   6.768
 3058SOL    HW210074   0.266   4.591   6.724
 3059SOL     OW10075   1.875   2.209   3.742
 3059SOL    HW110076   1.830   2.187   3.829
 3059SOL    HW210077   1.880   2.126   3.686
 3060SOL     OW10078   5.605   5.339   5.151
 3060SOL    HW110079   5.540   5.282   5.200
 3060SOL    HW210080   5.698   5.314   5.177
 3061SOL     OW10081   5.698   5.909   4.785
 3061SOL    HW110082   5.617   5.876   4.737
 3061SOL    HW210083   5.771   5.928   4.719
 3062SOL     OW10084   4.227   4.592   1.154
 3062SOL    HW110085   4.258   4.498   1.137
 3062SOL    HW210086   4.241   4.614   1.251
 3063SOL     OW10087   0.068   4.296   1.852
 3063SOL    HW110088   0.148   4.283   1.792
 3063SOL    HW210089   0.062   4.392   1.879
 3064SOL     OW10090   5.021   2.023   6.484
 3064SOL    HW110091   5.049   1.954   6.551
 3064SOL    HW210092   5.001   1.978   6.397
 3065SOL     OW10093   6.552   1.129   6.696
 3065SOL    HW110094   6.598   1.213   6.726
 3065SOL    HW210095   6.620   1.061   6.671
 3066SOL     OW10096   5.116   6.251   6.005
 3066SOL    HW110097   5.208   6.230   6.039
 3066SOL    HW210098   5.123   6.307   5.922
 3067SOL     OW10099   1.559   2.219   6.089
 3067SOL    HW110100   1.515   2.285   6.027
 3067SOL    HW210101   1.505   2.135   6.092
 3068SOL     OW10102   0.702   1.017   0.713
 3068SOL    HW110103   0.717   1.010   0.614
 3068SOL    HW210104   0.680   0.927   0.750
 3069SOL     OW10105   5.248   6.849   2.688
 3069SOL    HW110106   5.254   6.758   2.728
 3069SOL    HW210107   5.223   6.915   2.759
 3070SOL     OW10108   2.217   0.961   0.827
 3070SOL    HW110109   2.223   0.866   0.797
 3070SOL    HW210110   2.300   0.985   0.879
 3071SOL     OW10111   6.223   4.066   4.211
 3071SOL    HW110112   6.271   4.041   4.295
 3071SOL    HW210113   6.179   3.986   4.172
 3072SOL     OW10114   1.917   0.329   6.721
 3072SOL    HW110115   1.873   0.332   6.631
 3072SOL    HW210116   1.924   0.234   6.752
 3073SOL     OW10117   6.345   4.788   1.165
 3073SOL    HW110118   6.428   4.843   1.166
 3073SOL    HW210119   6.266   4.847   1.147
 3074SOL     OW10120   2.320   3.144   1.775
 3074SOL    HW110121   2.251   3.169   1.707
 3074SOL    HW210122   2.355   3.227   1.819
 3075SOL     OW10123   3.546   5.396   2.219
 3075SOL    HW110124   3.524   5.299   2.205
 3075SOL    HW210125   3.468   5.452   2.191
 3076SOL     OW10126   0.886   0.341   5.220
 3076SOL    HW110127   0.875   0.272   5.149
 3076SOL    HW210128   0.802   0.345   5.276
 3077SOL     OW10129   6.953   3.892   2.640
 3077SOL    HW110130   6.918   3.890   2.734
 3077SOL    HW210131   6.894   3.838   2.581
 3078SOL     OW10132   6.965   3.436   2.080
 3078SOL    HW110133   6.916   3.352   2.058
 3078SOL    HW210134   6.980   3.489   1.997
 3079SOL     OW10135   2.245   3.439   5.241
 3079SOL    HW110136   2.145   3.436   5.244
 3079SOL    HW210137   2.282   3.358   5.286
 3080SOL     OW10138   3.695   4.886   0.558
 3080SOL    HW110139   3.790   4.855   0.557
 3080SOL    HW210140   3.675   4.934   0.473
 3081SOL     OW10141   1.462   3.713   0.300
 3081SOL    HW110142   1.533   3.727   0.369
 3081SOL    HW210143   1.504   3.703   0.211
 3082SOL     OW10144   4.417   4.983   4.359
 3082SOL    HW110145   4.464   4.943   4.437
 3082SOL    HW210146   4.361   4.914   4.314
 3083SOL     OW10147   3.336   6.083   1.754
 3083SOL    HW110148   3.294   6.126   1.674
 3083SOL    HW210149   3.379   5.997   1.727
 3084SOL     OW10150   0.478   3.668   4.395
 3084SOL    HW110151   0.434   3.582   4.419
 3084SOL    HW210152   0.490   3.673   4.296
 3085SOL     OW10153   5.262   4.625   0.576
 3085SOL    HW110154   5.361   4.634   0.586
 3085SOL    HW210155   5.217   4.710   0.603
 3086SOL     OW10156   6.121   6.967   6.156
 3086SOL    HW110157   6.202   0.003   6.173
 3086SOL    HW210158   6.143   6.896   6.089
 3087SOL     OW10159   3.338   6.620   1.845
 3087SOL    HW110160   3.370   6.536   1.890
 3087SOL    HW210161   3.399   6.696   1.870
 3088SOL     OW10162   1.773   2.970   5.769
 3088SOL    HW110163   1.728   3.018   5.694
 3088SOL    HW210164   1.721   2.983   5.853
 3089SOL     OW10165   4.017   6.351   5.052
 3089SOL    HW110166   4.069   6.386   5.130
 3089SOL    HW210167   3.920   6.345   5.077
 3090SOL     OW10168   1.324   2.241   2.404
 3090SOL    HW110169   1.271   2.159   2.382
 3090SOL    HW210170   1.404   2.215   2.457
 3091SOL     OW10171   1.052   2.295   1.258
 3091SOL    HW110172   1.079   2.358   1.330
 3091SOL    HW210173   1.117   2.218   1.254
 3092SOL     OW10174   5.705   1.135   2.657
 3092SOL    HW110175   5.641   1.060   2.644
 3092SOL    HW210176   5.748   1.159   2.570
 3093SOL     OW10177   5.857   5.461   0.237
 3093SOL    HW110178   5.844   5.554   0.273
 3093SOL    HW210179   5.861   5.396   0.313
 3094SOL     OW10180   2.970   1.917   6.826
 3094SOL    HW110181   2.920   1.994   6.786
 3094SOL    HW210182   2.913   1.834   6.820
 3095SOL     OW10183   1.396   3.694   4.888
 3095SOL    HW110184   1.332   3.631   4.845
 3095SOL    HW210185   1.489   3.667   4.865
 3096SOL     OW10186   0.605   3.196   4.291
 3096SOL    HW110187   0.599   3.264   4.365
 3096SOL    HW210188   0.549   3.226   4.214
 3097SOL     OW10189   5.442   2.770   5.470
 3097SOL    HW110190   5.437   2.740   5.566
 3097SOL    HW210191   5.389   2.708   5.413
 3098SOL     OW10192   1.842   2.866   2.179
 3098SOL    HW110193   1.795   2.936   2.124
 3098SOL    HW210194   1.940   2.885   2.181
 3099SOL     OW10195   0.304   6.080   4.373
 3099SOL    HW110196   0.339   6.164   4.332
 3099SOL    HW210197   0.240   6.036   4.310
 3100SOL     OW10198   6.131   4.924   1.987
 3100SOL    HW110199   6.042   4.948   2.025
 3100SOL    HW210200   6.146   4.825   1.994
 3101SOL     OW10201   3.148   6.571   5.388
 3101SOL    HW110202   3.096   6.487   5.376
 3101SOL    HW210203   3.137   6.629   5.307
 3102SOL     OW10204   6.918   5.169   1.024
 3102SOL    HW110205   6.869   5.200   0.943
 3102SOL    HW210206   7.016   5.175   1.008
 3103SOL     OW10207   3.207   1.273   1.315
 3103SOL    HW110208   3.175   1.182   1.343
 3103SOL    HW210209   3.307   1.276   1.323
 3104SOL     OW10210   4.973   0.874   5.549
 3104SOL    HW110211   4.977   0.872   5.649
 3104SOL    HW210212   4.996   0.784   5.513
 3105SOL     OW10213   6.221   3.809   0.597
 3105SOL    HW110214   6.294   3.875   0.579
 3105SOL    HW210215   6.195   3.764   0.512
 3106SOL     OW10216   6.303   0.373   6.349
 3106SOL    HW110217   6.223   0.421   6.387
 3106SOL    HW210218   6.354   0.436   6.291
 3107SOL     OW10219   3.790   1.385   5.827
 3107SOL    HW110220   3.728   1.311   5.801
 3107SOL    HW210221   3.811   1.378   5.924
 3108SOL     OW10222   2.156   4.283   3.985
 3108SOL    HW110223   2.212   4.339   3.924
 3108SOL    HW210224   2.164   4.187   3.959
 3109SOL     OW10225   6.382   5.922   4.261
 3109SOL    HW110226   6.477   5.891   4.264
 3109SOL    HW210227   6.377   6.010   4.213
 3110SOL     OW10228   0.782   4.382   3.077
 3110SOL    HW110229   0.696   4.346   3.041
 3110SOL    HW210230   0.767   4.474   3.114
 3111SOL     OW10231   5.956   4.604   4.159
 3111SOL    HW110232   6.010   4.588   4.241
 3111SOL    HW210233   5.866   4.560   4.169
 3112SOL     OW10234   4.086   2.004   6.093
 3112SOL    HW110235   4.089   2.104   6.091
 3112SOL    HW210236   4.158   1.967   6.034
 3113SOL     OW10237   2.767   5.706   3.090
 3113SOL    HW110238   2.733   5.615   3.066
 3113SOL    HW210239   2.835   5.736   3.024
 3114SOL     OW10240   4.757   1.099   5.960
 3114SOL    HW110241   4.732   1.181   6.012
 3114SOL    HW210242   4.853   1.105   5.932
 3115SOL     OW10243   4.905   5.269   5.064
 3115SOL    HW110244   4.902   5.258   4.964
 3115SOL    HW210245   4.912   5.366   5.086
 3116SOL     OW10246   0.992   1.263   1.005
 3116SOL    HW110247   0.967   1.239   1.098
 3116SOL    HW210248   0.910   1.287   0.953
 3117SOL     OW10249   5.271   1.279   5.798
 3117SOL    HW110250   5.272   1.276   5.698
 3117SOL    HW210251   5.365   1.271   5.833
 3118SOL     OW10252   1.335   0.878   3.210
 3118SOL    HW110253   1.280   0.956   3.238
 3118SOL    HW210254   1.275   0.803   3.182
 3119SOL     OW10255   4.393   4.954   5.149
 3119SOL    HW110256   4.450   4.943   5.230
 3119SOL    HW210257   4.325   4.880   5.146
 3120SOL     OW10258   1.474   5.963   5.245
 3120SOL    HW110259   1.407   5.912   5.192
 3120SOL    HW210260   1.552   5.987   5.187
 3121SOL     OW10261   4.342   1.454   4.387
 3121SOL    HW110262   4.425   1.507   4.366
 3121SOL    HW210263   4.324   1.390   4.313
 3122SOL     OW10264   4.589   5.378   4.462
 3122SOL    HW110265   4.560   5.474   4.458
 3122SOL    HW210266   4.589   5.347   4.557
 3123SOL     OW10267   2.365   1.411   3.467
 3123SOL    HW110268   2.359   1.363   3.379
 3123SOL    HW210269   2.458   1.444   3.480
 3124SOL     OW10270   4.831   6.884   3.743
 3124SOL    HW110271   4.746   6.868   3.693
 3124SOL    HW210272   4.815   6.874   3.841
 3125SOL     OW10273   1.407   1.413   5.244
 3125SOL    HW110274   1.309   1.404   5.264
 3125SOL    HW210275   1.418   1.461   5.157
 3126SOL     OW10276   5.455   5.550   5.332
 3126SOL    HW110277   5.459   5.482   5.406
 3126SOL    HW210278   5.474   5.504   5.245
 3127SOL     OW10279   0.497   1.045   5.163
 3127SOL    HW110280   0.575   1.107   5.173
 3127SOL    HW210281   0.521   0.955   5.199
 3128SOL     OW10282   4.612   0.639   0.293
 3128SOL    HW110283   4.513   0.626   0.296
 3128SOL    HW210284   4.644   0.638   0.198
 3129SOL     OW10285   4.485   3.724   0.307
 3129SOL    HW110286   4.559   3.743   0.372
 3129SOL    HW210287   4.401   3.705   0.358
 3130SOL     OW10288   0.736   3.983   2.189
 3130SOL    HW110289   0.697   3.986   2.097
 3130SOL    HW210290   0.823   3.936   2.187
 3131SOL     OW10291   6.374   4.088   3.148
 3131SOL    HW110292   6.294   4.045   3.191
 3131SOL    HW210293   6.418   4.149   3.214
 3132SOL     OW10294   4.511   5.098   6.780
 3132SOL    HW110295   4.527   5.000   6.768
 3132SOL    HW210296   4.431   5.112   6.839
 3133SOL     OW10297   3.977   0.190   4.046
 3133SOL    HW110298   3.950   0.247   4.122
 3133SOL    HW210299   4.059   0.137   4.071
 3134SOL     OW10300   4.735   5.054   3.072
 3134SOL    HW110301   4.711   5.152   3.066
 3134SOL    HW210302   4.708   5.009   2.987
 3135SOL     OW10303   4.608   6.345   6.835
 3135SOL    HW110304   4.662   6.279   6.783
 3135SOL    HW210305   4.511   6.321   6.831
 3136SOL     OW10306   6.596   1.955   2.464
 3136SOL    HW110307   6.518   2.016   2.452
 3136SOL    HW210308   6.675   2.008   2.496
 3137SOL     OW10309   5.959   6.855   6.770
 3137SOL    HW110310   5.884   6.792   6.789
 3137SOL    HW210311   5.991   6.841   6.676
 3138SOL     OW10312   5.521   5.639   3.244
 3138SOL    HW110313   5.525   5.687   3.332
 3138SOL    HW210314   5.609   5.648   3.198
 3139SOL     OW10315   2.744   4.880   1.685
 3139SOL    HW110316   2.741   4.979   1.671
 3139SOL    HW210317   2.650   4.846   1.697
 3140SOL     OW10318   0.035   0.173   6.344
 3140SOL    HW110319   0.042   0.244   6.414
 3140SOL    HW210320   6.967   0.179   6.299
 3141SOL     OW10321   6.502   2.342   5.957
 3141SOL    HW110322   6.520   2.248   5.983
 3141SOL    HW210323   6.581   2.379   5.908
 3142SOL     OW10324   4.816   1.369   2.778
 3142SOL    HW110325   4.733   1.314   2.777
 3142SOL    HW210326   4.793   1.465   2.792
 3143SOL     OW10327   5.774   1.198   0.482
 3143SOL    HW110328   5.727   1.223   0.398
 3143SOL    HW210329   5.774   1.277   0.545
 3144SOL     OW10330   3.893   3.683   6.254
 3144SOL    HW110331   3.894   3.685   6.354
 3144SOL    HW210332   3.944   3.762   6.219
 3145SOL     OW10333   0.494   6.268   1.103
 3145SOL    HW110334   0.521   6.187   1.155
 3145SOL    HW210335   0.456   6.336   1.165
 3146SOL     OW10336   0.394   0.093   5.359
 3146SOL    HW110337   0.454   0.153   5.307
 3146SOL    HW210338   0.299   0.111   5.334
 3147SOL     OW10339   3.877   5.082   0.055
 3147SOL    HW110340   3.914   4.996   0.019
 3147SOL    HW210341   3.950   5.132   0.101
 3148SOL     OW10342   6.933   5.149   2.487
 3148SOL    HW110343   6.848   5.201   2.480
 3148SOL    HW210344   6.977   5.145   2.397
 3149SOL     OW10345   3.199   1.591   0.305
 3149SOL    HW110346   3.281   1.570   0.251
 3149SOL    HW210347   3.223   1.594   0.402
 3150SOL     OW10348   6.961   5.812   4.914
 3150SOL    HW110349   7.009   5.890   4.955
 3150SOL    HW210350   7.013   5.729   4.931
 3151SOL     OW10351   6.608   1.561   5.648
 3151SOL    HW110352   6.699   1.591   5.619
 3151SOL    HW210353   6.575   1.489   5.587
 3152SOL     OW10354   1.098   3.301   6.115
 3152SOL    HW110355   1.168   3.372   6.109
 3152SOL    HW210356   1.044   3.299   6.030
 3153SOL     OW10357   6.436   5.252   1.075
 3153SOL    HW110358   6.374   5.247   1.154
 3153SOL    HW210359   6.530   5.240   1.107
 3154SOL     OW10360   4.805   1.569   0.184
 3154SOL    HW110361   4.719   1.584   0.233
 3154SOL    HW210362   4.880   1.562   0.250
 3155SOL     OW10363   0.847   5.067   1.108
 3155SOL    HW110364   0.780   5.029   1.171
 3155SOL    HW210365   0.801   5.130   1.044
 3156SOL     OW10366   3.626   4.219   1.803
 3156SOL    HW110367   3.594   4.307   1.768
 3156SOL    HW210368   3.709   4.233   1.858
 3157SOL     OW10369   0.671   1.673   5.193
 3157SOL    HW110370   0.587   1.722   5.214
 3157SOL    HW210371   0.748   1.717   5.239
 3158SOL     OW10372   2.062   1.238   5.872
 3158SOL    HW110373   2.113   1.260   5.789
 3158SOL    HW210374   2.092   1.150   5.909
 3159SOL     OW10375   6.323   6.799   0.441
 3159SOL    HW110376   6.285   6.887   0.467
 3159SOL    HW210377   6.259   6.751   0.381
 3160SOL     OW10378   1.931   0.811   6.499
 3160SOL    HW110379   1.983   0.734   6.536
 3160SOL    HW210380   1.977   0.896   6.522
 3161SOL     OW10381   1.833   2.589   2.827
 3161SOL    HW110382   1.772   2.520   2.789
 3161SOL    HW210383   1.920   2.546   2.853
 3162SOL     OW10384   1.638   5.373   1.136
 3162SOL    HW110385   1.553   5.329   1.163
 3162SOL    HW210386   1.619   5.458   1.089
 3163SOL     OW10387   4.112   3.967   0.353
 3163SOL    HW110388   4.188   3.974   0.419
 3163SOL    HW210389   4.137   3.901   0.282
 3164SOL     OW10390   3.017   6.168   2.765
 3164SOL    HW110391   2.925   6.143   2.797
 3164SOL    HW210392   3.070   6.204   2.842
 3165SOL     OW10393   1.009   6.440   6.710
 3165SOL    HW110394   1.092   6.386   6.724
 3165SOL    HW210395   1.013   6.485   6.621
 3166SOL     OW10396   4.408   0.889   5.272
 3166SOL    HW110397   4.475   0.816   5.288
 3166SOL    HW210398   4.320   0.849   5.248
 3167SOL     OW10399   5.814   3.484   0.704
 3167SOL    HW110400   5.834   3.562   0.763
 3167SOL    HW210401   5.751   3.422   0.750
 3168SOL     OW10402   5.086   2.002   0.629
 3168SOL    HW110403   4.991   2.027   0.648
 3168SOL    HW210404   5.133   1.980   0.714
 3169SOL     OW10405   1.747   4.489   1.760
 3169SOL    HW110406   1.789   4.402   1.733
 3169SOL    HW210407   1.648   4.484   1.747
 3170SOL     OW10408   2.595   4.953   3.458
 3170SOL    HW110409   2.598   4.861   3.497
 3170SOL    HW210410   2.670   4.964   3.393
 3171SOL     OW10411   5.125   3.032   3.053
 3171SOL    HW110412   5.059   3.086   3.000
 3171SOL    HW210413   5.085   3.011   3.142
 3172SOL     OW10414   0.102   4.540   1.284
 3172SOL    HW110415   0.003   4.552   1.284
 3172SOL    HW210416   0.137   4.554   1.377
 3173SOL     OW10417   4.056   2.453   0.613
 3173SOL    HW110418   4.045   2.357   0.640
 3173SOL    HW210419   3.977   2.506   0.644
 3174SOL     OW10420   2.968   3.778   5.537
 3174SOL    HW110421   2.885   3.737   5.576
 3174SOL    HW210422   2.986   3.865   5.581
 3175SOL     OW10423   6.363   0.446   3.986
 3175SOL    HW110424   6.305   0.366   4.001
 3175SOL    HW210425   6.454   0.429   4.025
 3176SOL     OW10426   1.190   4.746   5.026
 3176SOL    HW110427   1.116   4.715   4.966
 3176SOL    HW210428   1.249   4.810   4.977
 3177SOL     OW10429   5.478   3.400   3.647
 3177SOL    HW110430   5.546   3.409   3.721
 3177SOL    HW210431   5.403   3.465   3.663
 3178SOL     OW10432   6.879   0.237   1.519
 3178SOL    HW110433   6.923   0.225   1.430
 3178SOL    HW210434   6.781   0.249   1.506
 3179SOL     OW10435   1.248   2.034   2.237
 3179SOL    HW110436   1.155   2.053   2.266
 3179SOL    HW210437   1.250   1.950   2.182
 3180SOL     OW10438   6.732   5.983   0.000
 3180SOL    HW110439   6.680   5.992   0.085
 3180SOL    HW210440   6.675   5.938   6.952
 3181SOL     OW10441   0.975   0.452   4.822
 3181SOL    HW110442   1.049   0.518   4.814
 3181SOL    HW210443   0.972   0.394   4.740
 3182SOL     OW10444   3.048   0.895   0.731
 3182SOL    HW110445   3.072   0.800   0.752
 3182SOL    HW210446   2.951   0.910   0.751
 3183SOL     OW10447   4.482   4.446   1.704
 3183SOL    HW110448   4.505   4.395   1.622
 3183SOL    HW210449   4.480   4.385   1.783
 3184SOL     OW10450   0.152   2.069   5.394
 3184SOL    HW110451   0.094   2.112   5.463
 3184SOL    HW210452   0.098   2.001   5.343
 3185SOL     OW10453   0.595   5.468   6.043
 3185SOL    HW110454   0.629   5.380   6.012
 3185SOL    HW210455   0.524   5.455   6.112
 3186SOL     OW10456   0.214   1.485   6.336
 3186SOL    HW110457   0.213   1.484   6.436
 3186SOL    HW210458   0.182   1.396   6.302
 3187SOL     OW10459   3.948   5.879   2.447
 3187SOL    HW110460   3.934   5.977   2.463
 3187SOL    HW210461   3.963   5.864   2.349
 3188SOL     OW10462   2.133   4.429   5.828
 3188SOL    HW110463   2.180   4.356   5.877
 3188SOL    HW210464   2.080   4.391   5.753
 3189SOL     OW10465   3.446   1.843   6.634
 3189SOL    HW110466   3.477   1.921   6.688
 3189SOL    HW210467   3.525   1.784   6.613
 3190SOL     OW10468   6.428   5.362   4.668
 3190SOL    HW110469   6.426   5.276   4.719
 3190SOL    HW210470   6.386   5.434   4.722
 3191SOL     OW10471   4.592   5.840   2.073
 3191SOL    HW110472   4.656   5.862   2.000
 3191SOL    HW210473   4.589   5.916   2.138
 3192SOL     OW10474   6.217   2.374   2.305
 3192SOL    HW110475   6.123   2.407   2.314
 3192SOL    HW210476   6.280   2.451   2.306
 3193SOL     OW10477   4.067   0.322   5.590
 3193SOL    HW110478   3.999   0.250   5.601
 3193SOL    HW210479   4.138   0.311   5.660
 3194SOL     OW10480   1.173   1.109   6.144
 3194SOL    HW110481   1.147   1.206   6.151
 3194SOL    HW210482   1.232   1.085   6.221
 3195SOL     OW10483   0.598   2.123   1.653
 3195SOL    HW110484   0.582   2.080   1.564
 3195SOL    HW210485   0.618   2.053   1.721
 3196SOL     OW10486   6.331   6.845   4.775
 3196SOL    HW110487   6.405   6.859   4.709
 3196SOL    HW210488   6.279   6.929   4.787
 3197SOL     OW10489   1.778   1.183   6.345
 3197SOL    HW110490   1.861   1.230   6.316
 3197SOL    HW210491   1.701   1.215   6.290
 3198SOL     OW10492   6.461   3.069   3.567
 3198SOL    HW110493   6.427   3.102   3.479
 3198SOL    HW210494   6.550   3.026   3.554
 3199SOL     OW10495   5.490   4.196   3.224
 3199SOL    HW110496   5.444   4.199   3.135
 3199SOL    HW210497   5.550   4.275   3.233
 3200SOL     OW10498   5.437   3.361   4.202
 3200SOL    HW110499   5.493   3.286   4.167
 3200SOL    HW210500   5.477   3.449   4.174
 3201SOL     OW10501   5.945   4.290   2.714
 3201SOL    HW110502   5.916   4.316   2.622
 3201SOL    HW210503   5.968   4.372   2.766
 3202SOL     OW10504   1.361   4.741   0.192
 3202SOL    HW110505   1.388   4.700   0.105
 3202SOL    HW210506   1.356   4.671   0.262
 3203SOL     OW10507   3.908   6.876   1.117
 3203SOL    HW110508   3.904   6.803   1.186
 3203SOL    HW210509   3.994   6.926   1.128
 3204SOL     OW10510   2.734   1.380   3.753
 3204SOL    HW110511   2.792   1.312   3.798
 3204SOL    HW210512   2.650   1.337   3.722
 3205SOL     OW10513   5.335   3.084   5.638
 3205SOL    HW110514   5.413   3.096   5.577
 3205SOL    HW210515   5.349   3.137   5.721
 3206SOL     OW10516   2.679   3.116   1.319
 3206SOL    HW110517   2.704   3.211   1.301
 3206SOL    HW210518   2.756   3.057   1.294
 3207SOL     OW10519   1.174   6.284   5.434
 3207SOL    HW110520   1.199   6.379   5.452
 3207SOL    HW210521   1.081   6.279   5.399
 3208SOL     OW10522   6.080   5.601   5.934
 3208SOL    HW110523   6.045   5.592   5.840
 3208SOL    HW210524   6.151   5.671   5.936
 3209SOL     OW10525   5.073   5.680   6.338
 3209SOL    HW110526   5.061   5.686   6.437
 3209SOL    HW210527   5.096   5.587   6.312
 3210SOL     OW10528   6.657   5.116   1.545
 3210SOL    HW110529   6.621   5.206   1.570
 3210SOL    HW210530   6.585   5.047   1.557
 3211SOL     OW10531   0.860   5.467   6.348
 3211SOL    HW110532   0.907   5.554   6.331
 3211SOL    HW210533   0.807   5.441   6.267
 3212SOL     OW10534   2.093   6.996   3.018
 3212SOL    HW110535   1.996   7.019   3.020
 3212SOL    HW210536   2.146   0.050   3.058
 3213SOL     OW10537   1.428   0.587   6.097
 3213SOL    HW110538   1.502   0.633   6.146
 3213SOL    HW210539   1.466   0.537   6.019
 3214SOL     OW10540   3.751   0.942   2.908
 3214SOL    HW110541   3.667   0.917   2.957
 3214SOL    HW210542   3.763   1.041   2.911
 3215SOL     OW10543   1.585   3.093   0.811
 3215SOL    HW110544   1.564   3.142   0.727
 3215SOL    HW210545   1.662   3.137   0.857
 3216SOL     OW10546   5.514   4.470   0.489
 3216SOL    HW110547   5.443   4.405   0.462
 3216SOL    HW210548   5.598   4.452   0.438
 3217SOL     OW10549   0.835   5.415   3.054
 3217SOL    HW110550   0.782   5.498   3.070
 3217SOL    HW210551   0.933   5.436   3.064
 3218SOL     OW10552   6.058   1.128   3.179
 3218SOL    HW110553   6.007   1.044   3.162
 3218SOL    HW210554   6.145   1.107   3.223
 3219SOL     OW10555   6.105   0.456   5.489
 3219SOL    HW110556   6.047   0.420   5.563
 3219SOL    HW210557   6.076   0.549   5.467
 3220SOL     OW10558   6.687   4.961   6.739
 3220SOL    HW110559   6.718   4.915   6.822
 3220SOL    HW210560   6.668   4.892   6.668
 3221SOL     OW10561   3.738   0.255   1.797
 3221SOL    HW110562   3.825   0.302   1.813
 3221SOL    HW210563   3.662   0.314   1.822
 3222SOL     OW10564   3.163   1.368   2.659
 3222SOL    HW110565   3.076   1.330   2.628
 3222SOL    HW210566   3.178   1.345   2.755
 3223SOL     OW10567   1.514   0.204   1.093
 3223SOL    HW110568   1.554   0.167   1.008
 3223SOL    HW210569   1.578   0.270   1.133
 3224SOL     OW10570   4.297   2.003   4.225
 3224SOL    HW110571   4.293   1.937   4.150
 3224SOL    HW210572   4.368   1.976   4.290
 3225SOL     OW10573   4.204   0.457   4.332
 3225SOL    HW110574   4.197   0.390   4.407
 3225SOL    HW210575   4.294   0.449   4.289
 3226SOL     OW10576   0.426   0.079   1.190
 3226SOL    HW110577   0.376   0.117   1.267
 3226SOL    HW210578   0.395   0.123   1.105
 3227SOL     OW10579   4.748   3.650   5.432
 3227SOL    HW110580   4.669   3.637   5.492
 3227SOL    HW210581   4.728   3.608   5.343
 3228SOL     OW10582   1.861   4.324   0.331
 3228SOL    HW110583   1.795   4.285   0.396
 3228SOL    HW210584   1.815   4.392   0.274
 3229SOL     OW10585   2.182   1.144   0.556
 3229SOL    HW110586   2.221   1.225   0.513
 3229SOL    HW210587   2.206   1.142   0.653
 3230SOL     OW10588   2.174   5.468   5.922
 3230SOL    HW110589   2.221   5.550   5.955
 3230SOL    HW210590   2.077   5.474   5.945
 3231SOL     OW10591   2.516   0.835   1.545
 3231SOL    HW110592   2.507   0.762   1.478
 3231SOL    HW210593   2.597   0.891   1.523
 3232SOL     OW10594   4.295   5.863   4.316
 3232SOL    HW110595   4.306   5.904   4.225
 3232SOL    HW210596   4.368   5.896   4.376
 3233SOL     OW10597   0.442   2.567   0.247
 3233SOL    HW110598   0.352   2.524   0.248
 3233SOL    HW210599   0.438   2.653   0.196
 3234SOL     OW10600   2.937   3.004   0.757
 3234SOL    HW110601   2.893   2.989   0.846
 3234SOL    HW210602   2.878   3.063   0.701
 3235SOL     OW10603   0.216   6.906   2.383
 3235SOL    HW110604   0.144   6.837   2.377
 3235SOL    HW210605   0.298   6.866   2.422
 3236SOL     OW10606   3.036   3.719   0.608
 3236SOL    HW110607   2.983   3.801   0.626
 3236SOL    HW210608   3.028   3.695   0.511
 3237SOL     OW10609   6.078   1.011   5.290
 3237SOL    HW110610   6.106   0.924   5.329
 3237SOL    HW210611   5.986   1.034   5.323
 3238SOL     OW10612   6.764   5.596   1.610
 3238SOL    HW110613   6.703   5.634   1.540
 3238SOL    HW210614   6.822   5.526   1.568
 3239SOL     OW10615   6.748   0.172   4.326
 3239SOL    HW110616   6.801   0.103   4.276
 3239SOL    HW210617   6.802   0.255   4.334
 3240SOL     OW10618   0.391   1.137   6.757
 3240SOL    HW110619   0.445   1.069   6.807
 3240SOL    HW210620   0.443   1.221   6.748
 3241SOL     OW10621   6.057   1.465   6.108
 3241SOL    HW110622   6.136   1.407   6.132
 3241SOL    HW210623   6.088   1.546   6.059
 3242SOL     OW10624   5.227   4.927   5.262
 3242SOL    HW110625   5.248   4.954   5.356
 3242SOL    HW210626   5.311   4.929   5.207
 3243SOL     OW10627   5.394   5.229   5.324
 3243SOL    HW110628   5.335   5.165   5.273
 3243SOL    HW210629   5.345   5.262   5.404
 3244SOL     OW10630   5.440   6.116   0.201
 3244SOL    HW110631   5.457   6.131   0.298
 3244SOL    HW210632   5.391   6.193   0.162
 3245SOL     OW10633   4.063   1.532   4.421
 3245SOL    HW110634   4.026   1.558   4.331
 3245SOL    HW210635   4.147   1.480   4.408
 3246SOL     OW10636   0.183   0.910   2.822
 3246SOL    HW110637   0.199   0.971   2.899
 3246SOL    HW210638   0.252   0.926   2.751
 3247SOL     OW10639   0.445   4.143   3.243
 3247SOL    HW110640   0.474   4.196   3.164
 3247SOL    HW210641   0.435   4.047   3.217
 3248SOL     OW10642   5.383   1.998   3.468
 3248SOL    HW110643   5.344   2.087   3.491
 3248SOL    HW210644   5.409   1.950   3.552
 3249SOL     OW10645   3.291   3.542   3.744
 3249SOL    HW110646   3.194   3.562   3.757
 3249SOL    HW210647   3.319   3.571   3.653
 3250SOL     OW10648   5.231   5.263   2.273
 3250SOL    HW110649   5.177   5.210   2.339
 3250SOL    HW210650   5.326   5.232   2.276
 3251SOL     OW10651   2.832   1.423   3.474
 3251SOL    HW110652   2.795   1.349   3.417
 3251SOL    HW210653   2.774   1.437   3.554
 3252SOL     OW10654   2.138   1.437   4.032
 3252SOL    HW110655   2.065   1.468   4.093
 3252SOL    HW210656   2.169   1.346   4.060
 3253SOL     OW10657   6.623   3.762   0.703
 3253SOL    HW110658   6.603   3.824   0.779
 3253SOL    HW210659   6.721   3.766   0.682
 3254SOL     OW10660   5.798   0.640   0.641
 3254SOL    HW110661   5.852   0.640   0.557
 3254SOL    HW210662   5.817   0.557   0.694
 3255SOL     OW10663   5.347   4.904   1.080
 3255SOL    HW110664   5.271   4.840   1.092
 3255SOL    HW210665   5.381   4.933   1.169
 3256SOL     OW10666   5.024   2.424   1.065
 3256SOL    HW110667   4.969   2.455   1.142
 3256SOL    HW210668   5.121   2.423   1.090
 3257SOL     OW10669   2.759   1.890   2.857
 3257SOL    HW110670   2.836   1.950   2.836
 3257SOL    HW210671   2.758   1.813   2.794
 3258SOL     OW10672   2.373   6.047   3.266
 3258SOL    HW110673   2.388   6.051   3.167
 3258SOL    HW210674   2.429   6.117   3.311
 3259SOL     OW10675   4.509   4.455   3.973
 3259SOL    HW110676   4.587   4.423   3.920
 3259SOL    HW210677   4.457   4.376   4.007
 3260SOL     OW10678   1.282   4.271   1.823
 3260SOL    HW110679   1.245   4.311   1.907
 3260SOL    HW210680   1.216   4.282   1.749
 3261SOL     OW10681   4.696   7.016   2.986
 3261SOL    HW110682   4.781   6.971   2.959
 3261SOL    HW210683   4.643   6.956   3.046
 3262SOL     OW10684   3.277   2.096   2.325
 3262SOL    HW110685   3.233   2.126   2.409
 3262SOL    HW210686   3.213   2.105   2.249
 3263SOL     OW10687   1.349   1.479   2.910
 3263SOL    HW110688   1.344   1.452   2.814
 3263SOL    HW210689   1.443   1.468   2.943
 3264SOL     OW10690   2.272   5.693   0.408
 3264SOL    HW110691   2.305   5.600   0.418
 3264SOL    HW210692   2.248   5.711   0.313
 3265SOL     OW10693   5.729   5.172   5.718
 3265SOL    HW110694   5.766   5.129   5.635
 3265SOL    HW210695   5.707   5.102   5.785
 3266SOL     OW10696   3.108   5.027   6.437
 3266SOL    HW110697   3.026   4.980   6.468
 3266SOL    HW210698   3.126   5.106   6.496
 3267SOL     OW10699   4.210   0.053   0.253
 3267SOL    HW110700   4.288   0.004   0.214
 3267SOL    HW210701   4.240   0.142   0.286
 3268SOL     OW10702   6.794   5.026   1.772
 3268SOL    HW110703   6.793   5.088   1.694
 3268SOL    HW210704   6.888   5.019   1.807
 3269SOL     OW10705   2.082   4.773   2.499
 3269SOL    HW110706   2.148   4.811   2.564
 3269SOL    HW210707   2.131   4.726   2.425
 3270SOL     OW10708   0.599   2.299   5.399
 3270SOL    HW110709   0.507   2.286   5.363
 3270SOL    HW210710   0.606   2.388   5.442
 3271SOL     OW10711   0.741   3.750   2.497
 3271SOL    HW110712   0.741   3.777   2.593
 3271SOL    HW210713   0.701   3.659   2.488
 3272SOL     OW10714   4.561   6.514   0.336
 3272SOL    HW110715   4.615   6.485   0.258
 3272SOL    HW210716   4.531   6.434   0.388
 3273SOL     OW10717   4.694   2.787   6.948
 3273SOL    HW110718   4.678   2.717   6.877
 3273SOL    HW210719   4.674   2.748   0.017
 3274SOL     OW10720   5.335   0.823   6.983
 3274SOL    HW110721   5.345   0.727   7.009
 3274SOL    HW210722   5.242   0.839   6.949
 3275SOL     OW10723   4.761   0.009   1.430
 3275SOL    HW110724   4.702   0.069   1.484
 3275SOL    HW210725   4.832   6.990   1.489
 3276SOL     OW10726   4.970   6.859   6.963
 3276SOL    HW110727   4.882   6.812   6.968
 3276SOL    HW210728   4.984   6.894   6.871
 3277SOL     OW10729   3.506   1.693   2.178
 3277SOL    HW110730   3.479   1.776   2.226
 3277SOL    HW210731   3.574   1.716   2.108
 3278SOL     OW10732   6.500   0.398   6.926
 3278SOL    HW110733   6.424   0.400   6.863
 3278SOL    HW210734   6.582   0.363   6.879
 3279SOL     OW10735   3.897   6.813   0.835
 3279SOL    HW110736   3.883   6.838   0.931
 3279SOL    HW210737   3.929   6.719   0.830
 3280SOL     OW10738   5.380   3.543   4.723
 3280SOL    HW110739   5.388   3.445   4.707
 3280SOL    HW210740   5.378   3.560   4.822
 3281SOL     OW10741   5.914   3.579   1.723
 3281SOL    HW110742   5.996   3.636   1.719
 3281SOL    HW210743   5.933   3.491   1.680
 3282SOL     OW10744   0.358   4.358   5.014
 3282SOL    HW110745   0.350   4.277   4.956
 3282SOL    HW210746   0.300   4.431   4.977
 3283SOL     OW10747   3.945   1.334   1.213
 3283SOL    HW110748   3.856   1.294   1.189
 3283SOL    HW210749   3.973   1.398   1.142
 3284SOL     OW10750   1.249   5.477   4.897
 3284SOL    HW110751   1.279   5.542   4.967
 3284SOL    HW210752   1.296   5.497   4.811
 3285SOL     OW10753   4.708   1.206   4.747
 3285SOL    HW110754   4.713   1.243   4.840
 3285SOL    HW210755   4.793   1.159   4.725
 3286SOL     OW10756   2.932   1.546   1.353
 3286SOL    HW110757   2.945   1.491   1.271
 3286SOL    HW210758   3.015   1.601   1.369
 3287SOL     OW10759   2.426   0.199   6.920
 3287SOL    HW110760   2.371   0.195   7.003
 3287SOL    HW210761   2.372   0.242   6.847
 3288SOL     OW10762   1.877   6.638   1.436
 3288SOL    HW110763   1.818   6.562   1.408
 3288SOL    HW210764   1.947   6.653   1.366
 3289SOL     OW10765   4.008   1.825   6.689
 3289SOL    HW110766   3.989   1.728   6.679
 3289SOL    HW210767   3.928   1.872   6.725
 3290SOL     OW10768   6.505   4.960   0.580
 3290SOL    HW110769   6.510   4.900   0.500
 3290SOL    HW210770   6.447   4.918   0.650
 3291SOL     OW10771   4.784   6.885   5.313
 3291SOL    HW110772   4.735   6.884   5.225
 3291SOL    HW210773   4.877   6.850   5.299
 3292SOL     OW10774   0.259   1.983   1.514
 3292SOL    HW110775   0.353   2.016   1.499
 3292SOL    HW210776   0.198   2.061   1.524
 3293SOL     OW10777   6.366   5.149   3.292
 3293SOL    HW110778   6.432   5.223   3.302
 3293SOL    HW210779   6.397   5.086   3.221
 3294SOL     OW10780   4.908   2.708   5.104
 3294SOL    HW110781   4.836   2.768   5.069
 3294SOL    HW210782   4.888   2.614   5.078
 3295SOL     OW10783   1.420   2.878   2.052
 3295SOL    HW110784   1.429   2.871   1.952
 3295SOL    HW210785   1.326   2.901   2.075
 3296SOL     OW10786   1.216   6.813   6.398
 3296SOL    HW110787   1.277   6.855   6.466
 3296SOL    HW210788   1.121   6.821   6.429
 3297SOL     OW10789   3.193   1.873   4.838
 3297SOL    HW110790   3.098   1.885   4.868
 3297SOL    HW210791   3.205   1.779   4.804
 3298SOL     OW10792   5.679   4.386   5.598
 3298SOL    HW110793   5.749   4.385   5.527
 3298SOL    HW210794   5.722   4.391   5.688
 3299SOL     OW10795   3.204   4.861   4.798
 3299SOL    HW110796   3.201   4.790   4.868
 3299SOL    HW210797   3.124   4.921   4.807
 3300SOL     OW10798   2.176   6.952   4.796
 3300SOL    HW110799   2.102   6.982   4.735
 3300SOL    HW210800   2.156   6.983   4.889
 3301SOL     OW10801   2.054   2.434   3.384
 3301SOL    HW110802   1.985   2.362   3.370
 3301SOL    HW210803   2.070   2.482   3.298
 3302SOL     OW10804   2.565   4.776   6.148
 3302SOL    HW110805   2.531   4.685   6.170
 3302SOL    HW210806   2.488   4.837   6.128
 3303SOL     OW10807   3.353   3.354   0.688
 3303SOL    HW110808   3.414   3.278   0.705
 3303SOL    HW210809   3.284   3.327   0.620
 3304SOL     OW10810   2.762   4.969   6.088
 3304SOL    HW110811   2.845   4.914   6.075
 3304SOL    HW210812   2.688   4.909   6.118
 3305SOL     OW10813   3.513   1.225   0.868
 3305SOL    HW110814   3.466   1.234   0.780
 3305SOL    HW210815   3.492   1.135   0.908
 3306SOL     OW10816   1.725   0.744   0.161
 3306SOL    HW110817   1.777   0.686   0.097
 3306SOL    HW210818   1.635   0.763   0.122
 3307SOL     OW10819   1.350   0.136   4.664
 3307SOL    HW110820   1.355   0.206   4.735
 3307SOL    HW210821   1.255   0.127   4.632
 3308SOL     OW10822   3.567   4.401   1.214
 3308SOL    HW110823   3.470   4.423   1.216
 3308SOL    HW210824   3.609   4.424   1.302
 3309SOL     OW10825   5.498   3.884   3.597
 3309SOL    HW110826   5.407   3.863   3.631
 3309SOL    HW210827   5.508   3.849   3.504
 3310SOL     OW10828   6.718   5.341   5.485
 3310SOL    HW110829   6.757   5.404   5.418
 3310SOL    HW210830   6.776   5.260   5.494
 3311SOL     OW10831   3.583   3.728   0.225
 3311SOL    HW110832   3.625   3.811   0.189
 3311SOL    HW210833   3.502   3.752   0.279
 3312SOL     OW10834   4.947   2.503   5.820
 3312SOL    HW110835   4.977   2.579   5.762
 3312SOL    HW210836   4.863   2.464   5.783
 3313SOL     OW10837   1.364   0.683   3.551
 3313SOL    HW110838   1.302   0.761   3.548
 3313SOL    HW210839   1.444   0.702   3.494
 3314SOL     OW10840   1.928   5.862   2.611
 3314SOL    HW110841   1.842   5.879   2.563
 3314SOL    HW210842   2.004   5.866   2.545
 3315SOL     OW10843   6.942   4.607   5.306
 3315SOL    HW110844   6.875   4.535   5.288
 3315SOL    HW210845   6.984   4.592   5.395
 3316SOL     OW10846   3.475   1.699   6.162
 3316SOL    HW110847   3.461   1.744   6.250
 3316SOL    HW210848   3.475   1.767   6.089
 3317SOL     OW10849   5.432   2.236   2.713
 3317SOL    HW110850   5.436   2.136   2.710
 3317SOL    HW210851   5.342   2.265   2.746
 3318SOL     OW10852   2.998   2.348   0.399
 3318SOL    HW110853   3.016   2.433   0.449
 3318SOL    HW210854   3.058   2.276   0.435
 3319SOL     OW10855   6.951   6.493   3.455
 3319SOL    HW110856   6.885   6.545   3.509
 3319SOL    HW210857   0.017   6.543   3.452
 3320SOL     OW10858   6.134   0.185   0.949
 3320SOL    HW110859   6.180   0.274   0.938
 3320SOL    HW210860   6.062   0.176   0.880
 3321SOL     OW10861   5.341   1.737   6.993
 3321SOL    HW110862   5.433   1.752   6.955
 3321SOL    HW210863   5.304   1.823   0.005
 3322SOL     OW10864   6.750   3.838   1.288
 3322SOL    HW110865   6.727   3.934   1.273
 3322SOL    HW210866   6.802   3.829   1.373
 3323SOL     OW10867   1.657   1.420   2.098
 3323SOL    HW110868   1.689   1.372   2.179
 3323SOL    HW210869   1.735   1.454   2.046
 3324SOL     OW10870   5.153   5.531   5.722
 3324SOL    HW110871   5.109   5.621   5.715
 3324SOL    HW210872   5.086   5.463   5.749
 3325SOL     OW10873   1.552   3.644   6.746
 3325SOL    HW110874   1.484   3.606   6.683
 3325SOL    HW210875   1.627   3.578   6.758
 3326SOL     OW10876   5.124   1.419   2.672
 3326SOL    HW110877   5.099   1.499   2.726
 3326SOL    HW210878   5.102   1.436   2.575
 3327SOL     OW10879   1.579   5.931   1.543
 3327SOL    HW110880   1.656   5.943   1.606
 3327SOL    HW210881   1.604   5.862   1.474
 3328SOL     OW10882   4.389   2.300   0.721
 3328SOL    HW110883   4.300   2.303   0.766
 3328SOL    HW210884   4.377   2.273   0.625
 3329SOL     OW10885   5.952   5.559   5.706
 3329SOL    HW110886   5.947   5.582   5.609
 3329SOL    HW210887   5.860   5.555   5.744
 3330SOL     OW10888   6.242   3.168   2.348
 3330SOL    HW110889   6.241   3.266   2.328
 3330SOL    HW210890   6.332   3.142   2.383
 3331SOL     OW10891   1.862   2.377   1.303
 3331SOL    HW110892   1.782   2.349   1.357
 3331SOL    HW210893   1.945   2.360   1.355
 3332SOL     OW10894   6.183   4.519   0.589
 3332SOL    HW110895   6.158   4.429   0.625
 3332SOL    HW210896   6.171   4.519   0.490
 3333SOL     OW10897   4.119   4.982   5.934
 3333SOL    HW110898   4.086   5.045   6.005
 3333SOL    HW210899   4.058   4.987   5.855
 3334SOL     OW10900   2.479   4.166   1.694
 3334SOL    HW110901   2.531   4.105   1.634
 3334SOL    HW210902   2.381   4.156   1.675
 3335SOL     OW10903   5.181   4.469   5.744
 3335SOL    HW110904   5.235   4.431   5.819
 3335SOL    HW210905   5.191   4.412   5.663
 3336SOL     OW10906   3.660   4.999   6.123
 3336SOL    HW110907   3.662   4.900   6.140
 3336SOL    HW210908   3.615   5.045   6.200
 3337SOL     OW10909   3.524   2.706   1.362
 3337SOL    HW110910   3.489   2.638   1.426
 3337SOL    HW210911   3.571   2.779   1.413
 3338SOL     OW10912   0.348   4.196   0.836
 3338SOL    HW110913   0.270   4.138   0.811
 3338SOL    HW210914   0.426   4.138   0.858
 3339SOL     OW10915   6.675   5.685   6.550
 3339SOL    HW110916   6.585   5.644   6.566
 3339SOL    HW210917   6.746   5.619   6.576
 3340SOL     OW10918   3.309   6.340   1.847
 3340SOL    HW110919   3.360   6.255   1.836
 3340SOL    HW210920   3.214   6.326   1.818
 3341SOL     OW10921   0.885   1.156   2.606
 3341SOL    HW110922   0.925   1.238   2.566
 3341SOL    HW210923   0.858   1.093   2.533
 3342SOL     OW10924   2.050   6.692   3.775
 3342SOL    HW110925   2.129   6.744   3.744
 3342SOL    HW210926   2.075   6.596   3.789
 3343SOL     OW10927   5.154   3.079   0.850
 3343SOL    HW110928   5.173   3.074   0.752
 3343SOL    HW210929   5.223   3.137   0.894
 3344SOL     OW10930   6.202   3.354   6.316
 3344SOL    HW110931   6.239   3.265   6.341
 3344SOL    HW210932   6.133   3.343   6.244
 3345SOL     OW10933   2.927   3.183   5.947
 3345SOL    HW110934   2.865   3.178   5.869
 3345SOL    HW210935   3.002   3.246   5.926
 3346SOL     OW10936   0.128   0.402   1.532
 3346SOL    HW110937   0.041   0.364   1.563
 3346SOL    HW210938   0.194   0.328   1.520
 3347SOL     OW10939   5.773   3.796   4.709
 3347SOL    HW110940   5.854   3.841   4.671
 3347SOL    HW210941   5.798   3.707   4.747
 3348SOL     OW10942   3.892   2.947   4.172
 3348SOL    HW110943   3.926   2.859   4.204
 3348SOL    HW210944   3.837   2.989   4.244
 3349SOL     OW10945   6.294   3.748   4.246
 3349SOL    HW110946   6.215   3.773   4.190
 3349SOL    HW210947   6.378   3.766   4.195
 3350SOL     OW10948   1.794   0.987   1.048
 3350SOL    HW110949   1.708   1.019   1.087
 3350SOL    HW210950   1.864   1.058   1.057
 3351SOL     OW10951   5.168   1.777   1.360
 3351SOL    HW110952   5.137   1.871   1.348
 3351SOL    HW210953   5.239   1.774   1.431
 3352SOL     OW10954   0.725   3.231   0.610
 3352SOL    HW110955   0.721   3.192   0.702
 3352SOL    HW210956   0.682   3.321   0.610
 3353SOL     OW10957   2.243   0.035   6.524
 3353SOL    HW110958   2.232   6.972   6.469
 3353SOL    HW210959   2.183   0.106   6.488
 3354SOL     OW10960   0.100   2.733   3.930
 3354SOL    HW110961   0.058   2.650   3.894
 3354SOL    HW210962   0.073   2.811   3.874
 3355SOL     OW10963   6.776   1.159   2.013
 3355SOL    HW110964   6.785   1.184   2.110
 3355SOL    HW210965   6.687   1.117   1.998
 3356SOL     OW10966   2.986   3.766   0.159
 3356SOL    HW110967   2.897   3.741   0.196
 3356SOL    HW210968   3.057   3.710   0.201
 3357SOL     OW10969   3.057   5.157   2.023
 3357SOL    HW110970   3.035   5.169   1.926
 3357SOL    HW210971   3.084   5.245   2.061
 3358SOL     OW10972   5.210   5.949   2.667
 3358SOL    HW110973   5.283   5.901   2.716
 3358SOL    HW210974   5.222   5.936   2.568
 3359SOL     OW10975   1.866   0.339   2.685
 3359SOL    HW110976   1.944   0.319   2.745
 3359SOL    HW210977   1.781   0.327   2.735
 3360SOL     OW10978   0.724   0.680   0.102
 3360SOL    HW110979   0.646   0.618   0.111
 3360SOL    HW210980   0.714   0.756   0.167
 3361SOL     OW10981   6.115   6.213   3.097
 3361SOL    HW110982   6.075   6.294   3.054
 3361SOL    HW210983   6.125   6.141   3.028
 3362SOL     OW10984   2.326   1.286   4.945
 3362SOL    HW110985   2.311   1.317   4.851
 3362SOL    HW210986   2.416   1.317   4.976
 3363SOL     OW10987   6.935   1.957   0.051
 3363SOL    HW110988   0.012   1.946   0.073
 3363SOL    HW210989   6.885   1.877   0.083
 3364SOL     OW10990   1.938   5.221   6.108
 3364SOL    HW110991   1.892   5.133   6.100
 3364SOL    HW210992   1.872   5.293   6.130
 3365SOL     OW10993   6.039   2.664   4.733
 3365SOL    HW110994   6.026   2.754   4.692
 3365SOL    HW210995   5.987   2.595   4.682
 3366SOL     OW10996   5.364   0.679   5.611
 3366SOL    HW110997   5.268   0.663   5.591
 3366SOL    HW210998   5.373   0.750   5.681
 3367SOL     OW10999   1.606   1.665   2.746
 3367SOL    HW111000   1.561   1.690   2.831
 3367SOL    HW211001   1.539   1.624   2.683
 3368SOL     OW11002   6.288   5.684   6.218
 3368SOL    HW111003   6.309   5.589   6.198
 3368SOL    HW211004   6.190   5.694   6.236
 3369SOL     OW11005   4.079   0.408   6.771
 3369SOL    HW111006   4.131   0.487   6.804
 3369SOL    HW211007   4.133   0.325   6.782
 3370SOL     OW11008   6.238   6.608   5.467
 3370SOL    HW111009   6.327   6.572   5.437
 3370SOL    HW211010   6.193   6.655   5.391
 3371SOL     OW11011   0.528   5.174   2.511
 3371SOL    HW111012   0.547   5.216   2.422
 3371SOL    HW211013   0.549   5.077   2.507
 3372SOL     OW11014   1.251   0.415   2.839
 3372SOL    HW111015   1.242   0.378   2.747
 3372SOL    HW211016   1.305   0.500   2.836
 3373SOL     OW11017   6.594   2.293   4.975
 3373SOL    HW111018   6.566   2.204   4.939
 3373SOL    HW211019   6.690   2.291   5.002
 3374SOL     OW11020   2.857   5.404   5.931
 3374SOL    HW111021   2.867   5.495   5.969
 3374SOL    HW211022   2.920   5.393   5.854
 3375SOL     OW11023   4.854   4.625   5.344
 3375SOL    HW111024   4.938   4.584   5.380
 3375SOL    HW211025   4.777   4.600   5.403
 3376SOL     OW11026   3.183   3.477   2.208
 3376SOL    HW111027   3.196   3.544   2.134
 3376SOL    HW211028   3.272   3.442   2.237
 3377SOL     OW11029   1.312   6.594   5.166
 3377SOL    HW111030   1.274   6.667   5.222
 3377SOL    HW211031   1.328   6.628   5.073
 3378SOL     OW11032   0.147   1.309   1.062
 3378SOL    HW111033   0.067   1.262   1.024
 3378SOL    HW211034   0.141   1.407   1.039
 3379SOL     OW11035   0.365   4.587   5.818
 3379SOL    HW111036   0.349   4.566   5.722
 3379SOL    HW211037   0.419   4.514   5.860
 3380SOL     OW11038   6.722   4.371   6.578
 3380SOL    HW111039   6.755   4.279   6.600
 3380SOL    HW211040   6.735   4.431   6.657
 3381SOL     OW11041   2.979   2.517   0.680
 3381SOL    HW111042   3.023   2.584   0.620
 3381SOL    HW211043   3.015   2.526   0.773
 3382SOL     OW11044   0.106   1.615   1.040
 3382SOL    HW111045   0.159   1.614   0.955
 3382SOL    HW211046   0.126   1.699   1.090
 3383SOL     OW11047   5.940   4.877   2.629
 3383SOL    HW111048   5.928   4.970   2.595
 3383SOL    HW211049   5.919   4.874   2.726
 3384SOL     OW11050   3.598   2.864   4.398
 3384SOL    HW111051   3.504   2.847   4.427
 3384SOL    HW211052   3.661   2.831   4.468
 3385SOL     OW11053   6.549   3.929   3.801
 3385SOL    HW111054   6.644   3.927   3.770
 3385SOL    HW211055   6.544   3.970   3.892
 3386SOL     OW11056   6.049   4.407   5.020
 3386SOL    HW111057   6.022   4.418   5.116
 3386SOL    HW211058   6.111   4.329   5.012
 3387SOL     OW11059   2.105   2.012   3.052
 3387SOL    HW111060   2.165   1.974   2.982
 3387SOL    HW211061   2.089   2.108   3.033
 3388SOL     OW11062   5.401   1.920   1.471
 3388SOL    HW111063   5.398   2.003   1.526
 3388SOL    HW211064   5.475   1.928   1.403
 3389SOL     OW11065   4.854   4.538   3.366
 3389SOL    HW111066   4.783   4.607   3.375
 3389SOL    HW211067   4.816   4.457   3.321
 3390SOL     OW11068   4.962   3.118   5.391
 3390SOL    HW111069   4.890   3.182   5.420
 3390SOL    HW211070   4.946   3.091   5.296
 3391SOL     OW11071   3.724   1.853   5.030
 3391SOL    HW111072   3.654   1.913   5.067
 3391SOL    HW211073   3.781   1.904   4.965
 3392SOL     OW11074   2.845   0.619   3.956
 3392SOL    HW111075   2.793   0.655   4.033
 3392SOL    HW211076   2.855   0.690   3.886
 3393SOL     OW11077   6.395   6.686   6.380
 3393SOL    HW111078   6.487   6.722   6.361
 3393SOL    HW211079   6.396   6.635   6.466
 3394SOL     OW11080   6.144   2.526   1.409
 3394SOL    HW111081   6.202   2.475   1.473
 3394SOL    HW211082   6.108   2.608   1.454
 3395SOL     OW11083   1.001   2.880   4.455
 3395SOL    HW111084   0.929   2.852   4.518
 3395SOL    HW211085   1.053   2.800   4.425
 3396SOL     OW11086   0.155   3.738   3.821
 3396SOL    HW111087   0.177   3.739   3.918
 3396SOL    HW211088   0.213   3.672   3.773
 3397SOL     OW11089   3.542   6.412   5.739
 3397SOL    HW111090   3.491   6.344   5.790
 3397SOL    HW211091   3.616   6.368   5.688
 3398SOL     OW11092   1.251   0.025   3.963
 3398SOL    HW111093   1.348   0.038   3.944
 3398SOL    HW211094   1.238   6.962   4.016
 3399SOL     OW11095   5.174   5.008   3.714
 3399SOL    HW111096   5.220   5.092   3.685
 3399SOL    HW211097   5.078   5.028   3.734
 3400SOL     OW11098   4.863   2.276   6.684
 3400SOL    HW111099   4.763   2.282   6.690
 3400SOL    HW211100   4.896   2.211   6.753
 3401SOL     OW11101   5.931   4.004   0.713
 3401SOL    HW111102   6.007   3.977   0.654
 3401SOL    HW211103   5.891   4.089   0.680
 3402SOL     OW11104   5.158   5.724   1.270
 3402SOL    HW111105   5.151   5.787   1.348
 3402SOL    HW211106   5.076   5.666   1.266
 3403SOL     OW11107   3.563   0.474   4.917
 3403SOL    HW111108   3.638   0.522   4.870
 3403SOL    HW211109   3.477   0.492   4.869
 3404SOL     OW11110   4.901   1.282   0.998
 3404SOL    HW111111   4.971   1.344   1.034
 3404SOL    HW211112   4.859   1.322   0.917
 3405SOL     OW11113   6.525   3.736   6.738
 3405SOL    HW111114   6.561   3.828   6.756
 3405SOL    HW211115   6.597   3.669   6.756
 3406SOL     OW11116   2.058   3.950   2.257
 3406SOL    HW111117   2.145   3.997   2.241
 3406SOL    HW211118   2.067   3.854   2.234
 3407SOL     OW11119   1.348   5.558   2.099
 3407SOL    HW111120   1.362   5.654   2.076
 3407SOL    HW211121   1.297   5.552   2.185
 3408SOL     OW11122   5.178   4.464   1.903
 3408SOL    HW111123   5.088   4.504   1.919
 3408SOL    HW211124   5.234   4.473   1.985
 3409SOL     OW11125   3.556   0.117   5.777
 3409SOL    HW111126   3.560   0.029   5.825
 3409SOL    HW211127   3.527   0.102   5.682
 3410SOL     OW11128   6.422   6.422   0.227
 3410SOL    HW111129   6.420   6.514   0.189
 3410SOL    HW211130   6.483   6.365   0.170
 3411SOL     OW11131   4.382   1.765   2.658
 3411SOL    HW111132   4.468   1.778   2.608
 3411SOL    HW211133   4.390   1.805   2.749
 3412SOL     OW11134   3.830   3.795   6.965
 3412SOL    HW111135   3.914   3.849   6.955
 3412SOL    HW211136   3.786   3.785   6.876
 3413SOL     OW11137   3.904   1.411   3.311
 3413SOL    HW111138   3.825   1.357   3.283
 3413SOL    HW211139   3.978   1.398   3.244
 3414SOL     OW11140   2.946   2.322   5.305
 3414SOL    HW111141   2.892   2.251   5.259
 3414SOL    HW211142   3.014   2.358   5.241
 3415SOL     OW11143   0.337   4.614   4.552
 3415SOL    HW111144   0.381   4.551   4.615
 3415SOL    HW211145   0.363   4.592   4.458
 3416SOL     OW11146   0.528   4.821   5.373
 3416SOL    HW111147   0.510   4.886   5.299
 3416SOL    HW211148   0.537   4.729   5.336
 3417SOL     OW11149   0.017   6.610   2.504
 3417SOL    HW111150   0.043   6.519   2.536
 3417SOL    HW211151   0.034   6.677   2.576
 3418SOL     OW11152   2.308   0.911   5.232
 3418SOL    HW111153   2.252   0.914   5.314
 3418SOL    HW211154   2.271   0.973   5.163
 3419SOL     OW11155   4.154   4.759   0.013
 3419SOL    HW111156   4.059   4.782   0.031
 3419SOL    HW211157   4.199   4.835   6.986
 3420SOL     OW11158   4.478   2.203   3.927
 3420SOL    HW111159   4.483   2.299   3.953
 3420SOL    HW211160   4.386   2.169   3.944
 3421SOL     OW11161   6.893   6.350   5.562
 3421SOL    HW111162   6.955   6.273   5.577
 3421SOL    HW211163   6.855   6.380   5.650
 3422SOL     OW11164   3.734   0.618   1.881
 3422SOL    HW111165   3.670   0.575   1.818
 3422SOL    HW211166   3.824   0.576   1.870
 3423SOL     OW11167   2.601   1.114   0.808
 3423SOL    HW111168   2.548   1.192   0.772
 3423SOL    HW211169   2.687   1.148   0.846
 3424SOL     OW11170   4.196   1.119   2.661
 3424SOL    HW111171   4.099   1.096   2.657
 3424SOL    HW211172   4.245   1.046   2.709
 3425SOL     OW11173   4.743   4.193   2.118
 3425SOL    HW111174   4.681   4.223   2.046
 3425SOL    HW211175   4.798   4.271   2.148
 3426SOL     OW11176   4.100   3.477   0.462
 3426SOL    HW111177   4.084   3.500   0.366
 3426SOL    HW211178   4.138   3.557   0.510
 3427SOL     OW11179   6.685   0.662   0.405
 3427SOL    HW111180   6.670   0.752   0.363
 3427SOL    HW211181   6.769   0.664   0.459
 3428SOL     OW11182   4.156   4.837   2.548
 3428SOL    HW111183   4.184   4.824   2.453
 3428SOL    HW211184   4.058   4.855   2.552
 3429SOL     OW11185   1.105   3.374   0.356
 3429SOL    HW111186   1.134   3.311   0.283
 3429SOL    HW211187   1.142   3.343   0.443
 3430SOL     OW11188   1.617   6.889   0.456
 3430SOL    HW111189   1.555   6.846   0.522
 3430SOL    HW211190   1.564   6.921   0.377
 3431SOL     OW11191   1.625   6.219   1.446
 3431SOL    HW111192   1.582   6.130   1.431
 3431SOL    HW211193   1.575   6.268   1.517
 3432SOL     OW11194   3.254   1.498   5.761
 3432SOL    HW111195   3.321   1.436   5.720
 3432SOL    HW211196   3.245   1.580   5.703
 3433SOL     OW11197   3.492   1.001   5.366
 3433SOL    HW111198   3.458   1.094   5.352
 3433SOL    HW211199   3.442   0.938   5.306
 3434SOL     OW11200   4.233   2.598   1.465
 3434SOL    HW111201   4.192   2.554   1.385
 3434SOL    HW211202   4.273   2.685   1.439
 3435SOL     OW11203   7.003   2.603   2.194
 3435SOL    HW111204   6.986   2.588   2.291
 3435SOL    HW211205   7.005   2.515   2.146
 3436SOL     OW11206   4.638   6.951   4.844
 3436SOL    HW111207   4.570   6.937   4.772
 3436SOL    HW211208   4.721   6.992   4.805
 3437SOL     OW11209   4.245   0.233   5.123
 3437SOL    HW111210   4.260   0.136   5.104
 3437SOL    HW211211   4.165   0.265   5.073
 3438SOL     OW11212   1.768   2.483   6.717
 3438SOL    HW111213   1.739   2.573   6.685
 3438SOL    HW211214   1.760   2.417   6.642
 3439SOL     OW11215   2.642   6.507   4.714
 3439SOL    HW111216   2.735   6.484   4.744
 3439SOL    HW211217   2.605   6.580   4.771
 3440SOL     OW11218   4.672   2.907   1.364
 3440SOL    HW111219   4.693   2.893   1.267
 3440SOL    HW211220   4.577   2.881   1.381
 3441SOL     OW11221   3.680   6.673   4.289
 3441SOL    HW111222   3.722   6.713   4.371
 3441SOL    HW211223   3.751   6.654   4.222
 3442SOL     OW11224   2.105   5.142   3.531
 3442SOL    HW111225   2.095   5.233   3.572
 3442SOL    HW211226   2.102   5.072   3.602
 3443SOL     OW11227   5.894   1.826   2.772
 3443SOL    HW111228   5.948   1.744   2.755
 3443SOL    HW211229   5.805   1.817   2.728
 3444SOL     OW11230   4.947   5.239   6.642
 3444SOL    HW111231   4.849   5.244   6.622
 3444SOL    HW211232   4.960   5.203   6.735
 3445SOL     OW11233   6.266   4.621   3.806
 3445SOL    HW111234   6.331   4.697   3.809
 3445SOL    HW211235   6.173   4.657   3.806
 3446SOL     OW11236   4.269   0.112   3.146
 3446SOL    HW111237   4.250   0.190   3.206
 3446SOL    HW211238   4.183   0.066   3.123
 3447SOL     OW11239   5.874   5.859   0.392
 3447SOL    HW111240   5.887   5.891   0.298
 3447SOL    HW211241   5.935   5.909   0.453
 3448SOL     OW11242   3.332   0.807   1.224
 3448SOL    HW111243   3.360   0.782   1.317
 3448SOL    HW211244   3.288   0.897   1.225
 3449SOL     OW11245   6.923   7.010   2.174
 3449SOL    HW111246   6.970   0.032   2.252
 3449SOL    HW211247   6.930   0.049   2.094
 3450SOL     OW11248   1.186   1.746   1.660
 3450SOL    HW111249   1.203   1.660   1.611
 3450SOL    HW211250   1.243   1.749   1.742
 3451SOL     OW11251   1.397   5.669   4.068
 3451SOL    HW111252   1.431   5.713   3.985
 3451SOL    HW211253   1.308   5.708   4.091
 3452SOL     OW11254   6.684   0.920   6.567
 3452SOL    HW111255   6.777   0.896   6.538
 3452SOL    HW211256   6.657   0.863   6.645
 3453SOL     OW11257   5.247   5.683   4.744
 3453SOL    HW111258   5.228   5.663   4.647
 3453SOL    HW211259   5.240   5.599   4.797
 3454SOL     OW11260   1.326   1.388   1.311
 3454SOL    HW111261   1.358   1.307   1.263
 3454SOL    HW211262   1.241   1.421   1.269
 3455SOL     OW11263   1.644   3.000   4.309
 3455SOL    HW111264   1.734   2.993   4.265
 3455SOL    HW211265   1.601   2.910   4.312
 3456SOL     OW11266   5.757   6.609   1.543
 3456SOL    HW111267   5.794   6.701   1.526
 3456SOL    HW211268   5.770   6.552   1.463
 3457SOL     OW11269   2.394   5.025   3.626
 3457SOL    HW111270   2.365   5.111   3.584
 3457SOL    HW211271   2.482   4.997   3.589
 3458SOL     OW11272   5.700   6.652   0.227
 3458SOL    HW111273   5.729   6.720   0.159
 3458SOL    HW211274   5.621   6.602   0.191
 3459SOL     OW11275   0.383   3.972   3.581
 3459SOL    HW111276   0.384   3.975   3.681
 3459SOL    HW211277   0.374   4.065   3.545
 3460SOL     OW11278   3.154   2.696   0.232
 3460SOL    HW111279   3.212   2.751   0.171
 3460SOL    HW211280   3.166   2.599   0.211
 3461SOL     OW11281   3.784   5.735   4.079
 3461SOL    HW111282   3.866   5.696   4.036
 3461SOL    HW211283   3.736   5.663   4.130
 3462SOL     OW11284   5.624   3.175   3.127
 3462SOL    HW111285   5.646   3.250   3.065
 3462SOL    HW211286   5.527   3.153   3.120
 3463SOL     OW11287   1.682   3.031   2.036
 3463SOL    HW111288   1.649   3.124   2.018
 3463SOL    HW211289   1.609   2.966   2.016
 3464SOL     OW11290   5.261   2.980   6.593
 3464SOL    HW111291   5.211   2.894   6.587
 3464SOL    HW211292   5.357   2.964   6.568
 3465SOL     OW11293   2.191   3.765   1.819
 3465SOL    HW111294   2.216   3.691   1.880
 3465SOL    HW211295   2.174   3.848   1.872
 3466SOL     OW11296   5.554   4.511   5.380
 3466SOL    HW111297   5.559   4.467   5.290
 3466SOL    HW211298   5.615   4.464   5.444
 3467SOL     OW11299   3.070   2.172   0.808
 3467SOL    HW111300   3.076   2.271   0.796
 3467SOL    HW211301   2.993   2.151   0.868
 3468SOL     OW11302   4.613   1.299   1.350
 3468SOL    HW111303   4.539   1.237   1.375
 3468SOL    HW211304   4.688   1.291   1.416
 3469SOL     OW11305   4.327   0.048   6.001
 3469SOL    HW111306   4.308   6.978   5.962
 3469SOL    HW211307   4.424   0.070   5.987
 3470SOL     OW11308   0.363   2.562   1.205
 3470SOL    HW111309   0.430   2.592   1.137
 3470SOL    HW211310   0.322   2.476   1.175
 3471SOL     OW11311   4.528   4.450   3.254
 3471SOL    HW111312   4.566   4.359   3.241
 3471SOL    HW211313   4.506   4.490   3.165
 3472SOL     OW11314   4.441   2.343   3.072
 3472SOL    HW111315   4.507   2.404   3.116
 3472SOL    HW211316   4.365   2.326   3.134
 3473SOL     OW11317   0.229   3.455   4.087
 3473SOL    HW111318   0.227   3.396   4.167
 3473SOL    HW211319   0.254   3.402   4.007
 3474SOL     OW11320   0.217   4.227   4.335
 3474SOL    HW111321   0.200   4.245   4.238
 3474SOL    HW211322   0.138   4.256   4.389
 3475SOL     OW11323   6.399   4.451   4.638
 3475SOL    HW111324   6.469   4.451   4.567
 3475SOL    HW211325   6.330   4.521   4.619
 3476SOL     OW11326   1.885   1.975   3.582
 3476SOL    HW111327   1.921   1.905   3.644
 3476SOL    HW211328   1.960   2.027   3.542
 3477SOL     OW11329   0.108   3.889   1.484
 3477SOL    HW111330   0.072   3.959   1.422
 3477SOL    HW211331   0.035   3.825   1.507
 3478SOL     OW11332   2.147   0.051   0.310
 3478SOL    HW111333   2.094   6.987   0.303
 3478SOL    HW211334   2.130   0.109   0.230
 3479SOL     OW11335   0.485   3.215   3.695
 3479SOL    HW111336   0.470   3.116   3.706
 3479SOL    HW211337   0.582   3.233   3.681
 3480SOL     OW11338   1.482   5.810   6.564
 3480SOL    HW111339   1.553   5.824   6.633
 3480SOL    HW211340   1.419   5.739   6.595
 3481SOL     OW11341   5.365   0.590   0.088
 3481SOL    HW111342   5.329   0.505   0.050
 3481SOL    HW211343   5.457   0.574   0.124
 3482SOL     OW11344   5.904   2.532   4.188
 3482SOL    HW111345   6.001   2.512   4.196
 3482SOL    HW211346   5.885   2.622   4.228
 3483SOL     OW11347   4.789   2.503   3.162
 3483SOL    HW111348   4.863   2.466   3.217
 3483SOL    HW211349   4.703   2.499   3.214
 3484SOL     OW11350   1.846   3.641   6.342
 3484SOL    HW111351   1.832   3.551   6.384
 3484SOL    HW211352   1.785   3.708   6.386
 3485SOL     OW11353   6.830   1.601   5.112
 3485SOL    HW111354   6.803   1.588   5.208
 3485SOL    HW211355   6.928   1.621   5.107
 3486SOL     OW11356   1.757   6.680   4.332
 3486SOL    HW111357   1.704   6.663   4.415
 3486SOL    HW211358   1.793   6.593   4.297
 3487SOL     OW11359   6.011   1.538   6.576
 3487SOL    HW111360   5.968   1.514   6.489
 3487SOL    HW211361   6.070   1.463   6.606
 3488SOL     OW11362   5.234   0.539   4.871
 3488SOL    HW111363   5.269   0.450   4.845
 3488SOL    HW211364   5.193   0.584   4.791
 3489SOL     OW11365   3.047   6.656   1.127
 3489SOL    HW111366   3.111   6.668   1.051
 3489SOL    HW211367   3.095   6.617   1.205
 3490SOL     OW11368   3.956   4.597   1.062
 3490SOL    HW111369   4.029   4.613   1.128
 3490SOL    HW211370   3.940   4.499   1.053
 3491SOL     OW11371   5.420   3.751   0.186
 3491SOL    HW111372   5.344   3.803   0.148
 3491SOL    HW211373   5.464   3.699   0.114
 3492SOL     OW11374   6.687   3.996   2.407
 3492SOL    HW111375   6.594   4.002   2.442
 3492SOL    HW211376   6.714   3.900   2.401
 3493SOL     OW11377   6.516   3.732   4.103
 3493SOL    HW111378   6.479   3.679   4.027
 3493SOL    HW211379   6.614   3.715   4.111
 3494SOL     OW11380   3.131   2.148   2.536
 3494SOL    HW111381   3.058   2.083   2.514
 3494SOL    HW211382   3.091   2.238   2.551
 3495SOL     OW11383   1.202   4.187   2.313
 3495SOL    HW111384   1.138   4.111   2.324
 3495SOL    HW211385   1.229   4.220   2.404
 3496SOL     OW11386   5.952   4.648   0.392
 3496SOL    HW111387   6.008   4.728   0.370
 3496SOL    HW211388   5.954   4.634   0.491
 3497SOL     OW11389   3.416   0.743   3.498
 3497SOL    HW111390   3.500   0.798   3.499
 3497SOL    HW211391   3.438   0.649   3.525
 3498SOL     OW11392   2.430   1.563   2.266
 3498SOL    HW111393   2.469   1.519   2.185
 3498SOL    HW211394   2.332   1.546   2.269
 3499SOL     OW11395   5.789   6.200   5.594
 3499SOL    HW111396   5.877   6.222   5.637
 3499SOL    HW211397   5.780   6.100   5.586
 3500SOL     OW11398   1.486   1.686   3.992
 3500SOL    HW111399   1.556   1.672   3.921
 3500SOL    HW211400   1.430   1.604   4.000
 3501SOL     OW11401   2.399   0.009   6.736
 3501SOL    HW111402   2.414   0.093   6.787
 3501SOL    HW211403   2.339   0.027   6.658
 3502SOL     OW11404   5.703   3.098   1.725
 3502SOL    HW111405   5.603   3.105   1.725
 3502SOL    HW211406   5.734   3.058   1.811
 3503SOL     OW11407   7.016   5.856   5.898
 3503SOL    HW111408   6.988   5.941   5.854
 3503SOL    HW211409   0.046   5.799   5.833
 3504SOL     OW11410   1.644   0.679   2.111
 3504SOL    HW111411   1.717   0.718   2.055
 3504SOL    HW211412   1.570   0.745   2.121
 3505SOL     OW11413   5.797   5.730   6.039
 3505SOL    HW111414   5.772   5.643   5.996
 3505SOL    HW211415   5.859   5.780   5.979
 3506SOL     OW11416   5.674   4.329   4.987
 3506SOL    HW111417   5.596   4.339   5.049
 3506SOL    HW211418   5.754   4.298   5.038
 3507SOL     OW11419   2.253   0.608   1.008
 3507SOL    HW111420   2.349   0.633   0.997
 3507SOL    HW211421   2.234   0.526   0.954
 3508SOL     OW11422   2.798   2.500   5.777
 3508SOL    HW111423   2.702   2.506   5.748
 3508SOL    HW211424   2.853   2.465   5.701
 3509SOL     OW11425   4.704   6.750   0.407
 3509SOL    HW111426   4.681   6.818   0.338
 3509SOL    HW211427   4.649   6.667   0.391
 3510SOL     OW11428   2.560   1.276   1.475
 3510SOL    HW111429   2.512   1.241   1.394
 3510SOL    HW211430   2.639   1.218   1.494
 3511SOL     OW11431   2.041   4.438   1.188
 3511SOL    HW111432   2.103   4.512   1.216
 3511SOL    HW211433   2.037   4.435   1.088
 3512SOL     OW11434   0.716   3.808   7.017
 3512SOL    HW111435   0.639   3.795   6.955
 3512SOL    HW211436   0.722   3.904   0.021
 3513SOL     OW11437   6.658   2.113   1.079
 3513SOL    HW111438   6.630   2.018   1.062
 3513SOL    HW211439   6.612   2.147   1.161
 3514SOL     OW11440   5.216   0.660   2.588
 3514SOL    HW111441   5.272   0.698   2.661
 3514SOL    HW211442   5.258   0.678   2.499
 3515SOL     OW11443   5.622   5.949   3.869
 3515SOL    HW111444   5.713   5.988   3.851
 3515SOL    HW211445   5.568   6.014   3.923
 3516SOL     OW11446   4.860   0.164   1.124
 3516SOL    HW111447   4.904   0.249   1.152
 3516SOL    HW211448   4.829   0.114   1.205
 3517SOL     OW11449   6.965   0.899   1.350
 3517SOL    HW111450   0.009   0.893   1.274
 3517SOL    HW211451   6.874   0.872   1.320
 3518SOL     OW11452   5.680   1.932   4.717
 3518SOL    HW111453   5.686   2.001   4.790
 3518SOL    HW211454   5.593   1.940   4.670
 3519SOL     OW11455   2.693   1.072   6.746
 3519SOL    HW111456   2.660   1.155   6.702
 3519SOL    HW211457   2.792   1.063   6.731
 3520SOL     OW11458   3.423   5.418   5.861
 3520SOL    HW111459   3.493   5.355   5.828
 3520SOL    HW211460   3.388   5.386   5.949
 3521SOL     OW11461   3.459   2.931   6.857
 3521SOL    HW111462   3.498   2.838   6.859
 3521SOL    HW211463   3.406   2.947   6.940
 3522SOL     OW11464   6.420   5.295   6.375
 3522SOL    HW111465   6.406   5.313   6.473
 3522SOL    HW211466   6.369   5.362   6.322
 3523SOL     OW11467   1.125   4.812   5.287
 3523SOL    HW111468   1.151   4.818   5.190
 3523SOL    HW211469   1.156   4.893   5.335
 3524SOL     OW11470   5.680   1.906   2.471
 3524SOL    HW111471   5.679   1.972   2.546
 3524SOL    HW211472   5.737   1.828   2.497
 3525SOL     OW11473   6.008   3.833   3.838
 3525SOL    HW111474   6.103   3.863   3.831
 3525SOL    HW211475   5.948   3.912   3.831
 3526SOL     OW11476   1.285   5.737   3.158
 3526SOL    HW111477   1.349   5.703   3.227
 3526SOL    HW211478   1.224   5.805   3.200
 3527SOL     OW11479   6.045   2.777   6.080
 3527SOL    HW111480   6.082   2.712   6.013
 3527SOL    HW211481   5.990   2.846   6.034
 3528SOL     OW11482   2.458   6.173   4.973
 3528SOL    HW111483   2.556   6.170   4.990
 3528SOL    HW211484   2.439   6.135   4.882
 3529SOL     OW11485   4.429   6.355   6.353
 3529SOL    HW111486   4.473   6.287   6.293
 3529SOL    HW211487   4.342   6.317   6.386
 3530SOL     OW11488   0.066   4.989   1.806
 3530SOL    HW111489   0.143   4.960   1.749
 3530SOL    HW211490   0.071   5.088   1.819
 3531SOL     OW11491   5.127   2.161   1.914
 3531SOL    HW111492   5.081   2.188   1.829
 3531SOL    HW211493   5.058   2.130   1.980
 3532SOL     OW11494   2.392   1.039   2.174
 3532SOL    HW111495   2.486   1.074   2.179
 3532SOL    HW211496   2.361   1.012   2.265
 3533SOL     OW11497   0.176   1.875   2.800
 3533SOL    HW111498   0.235   1.851   2.877
 3533SOL    HW211499   0.225   1.938   2.739
 3534SOL     OW11500   0.732   2.662   2.489
 3534SOL    HW111501   0.776   2.751   2.495
 3534SOL    HW211502   0.644   2.671   2.443
 3535SOL     OW11503   2.871   5.188   5.261
 3535SOL    HW111504   2.848   5.223   5.170
 3535SOL    HW211505   2.870   5.088   5.259
 3536SOL     OW11506   3.809   1.786   3.106
 3536SOL    HW111507   3.712   1.767   3.121
 3536SOL    HW211508   3.853   1.707   3.064
 3537SOL     OW11509   1.203   5.792   2.710
 3537SOL    HW111510   1.219   5.713   2.651
 3537SOL    HW211511   1.166   5.867   2.655
 3538SOL     OW11512   3.061   5.580   4.990
 3538SOL    HW111513   2.982   5.586   5.051
 3538SOL    HW211514   3.131   5.522   5.033
 3539SOL     OW11515   3.721   3.723   4.448
 3539SOL    HW111516   3.733   3.624   4.443
 3539SOL    HW211517   3.642   3.743   4.506
 3540SOL     OW11518   2.174   2.288   3.895
 3540SOL    HW111519   2.132   2.284   3.986
 3540SOL    HW211520   2.123   2.352   3.837
 3541SOL     OW11521   3.010   2.994   5.482
 3541SOL    HW111522   3.026   3.000   5.384
 3541SOL    HW211523   3.000   2.899   5.510
 3542SOL     OW11524   1.816   5.063   3.125
 3542SOL    HW111525   1.889   5.038   3.188
 3542SOL    HW211526   1.749   5.120   3.172
 3543SOL     OW11527   5.274   2.552   3.974
 3543SOL    HW111528   5.313   2.604   3.899
 3543SOL    HW211529   5.199   2.603   4.015
 3544SOL     OW11530   1.838   4.336   6.660
 3544SOL    HW111531   1.738   4.325   6.661
 3544SOL    HW211532   1.878   4.264   6.604
 3545SOL     OW11533   3.550   6.338   6.090
 3545SOL    HW111534   3.613   6.265   6.065
 3545SOL    HW211535   3.543   6.403   6.015
 3546SOL     OW11536   0.216   5.834   3.340
 3546SOL    HW111537   0.245   5.856   3.247
 3546SOL    HW211538   0.267   5.754   3.372
 3547SOL     OW11539   4.112   5.617   4.195
 3547SOL    HW111540   4.113   5.711   4.230
 3547SOL    HW211541   4.157   5.614   4.106
 3548SOL     OW11542   5.112   2.200   5.552
 3548SOL    HW111543   5.039   2.202   5.484
 3548SOL    HW211544   5.171   2.281   5.539
 3549SOL     OW11545   6.597   4.917   3.986
 3549SOL    HW111546   6.664   4.908   4.060
 3549SOL    HW211547   6.582   5.014   3.966
 3550SOL     OW11548   5.294   2.293   3.153
 3550SOL    HW111549   5.240   2.214   3.122
 3550SOL    HW211550   5.363   2.316   3.084
 3551SOL     OW11551   3.723   6.326   3.290
 3551SOL    HW111552   3.747   6.229   3.294
 3551SOL    HW211553   3.656   6.347   3.361
 3552SOL     OW11554   5.610   5.288   3.025
 3552SOL    HW111555   5.693   5.321   2.980
 3552SOL    HW211556   5.585   5.350   3.099
 3553SOL     OW11557   5.408   2.678   2.267
 3553SOL    HW111558   5.379   2.738   2.342
 3553SOL    HW211559   5.400   2.727   2.180
 3554SOL     OW11560   4.073   3.934   6.920
 3554SOL    HW111561   4.093   3.939   6.822
 3554SOL    HW211562   4.110   4.015   6.966
 3555SOL     OW11563   0.864   3.545   2.935
 3555SOL    HW111564   0.898   3.638   2.935
 3555SOL    HW211565   0.772   3.543   2.975
 3556SOL     OW11566   3.404   0.505   5.498
 3556SOL    HW111567   3.319   0.556   5.487
 3556SOL    HW211568   3.429   0.463   5.411
 3557SOL     OW11569   1.208   0.590   4.806
 3557SOL    HW111570   1.210   0.610   4.708
 3557SOL    HW211571   1.292   0.542   4.832
 3558SOL     OW11572   0.290   5.797   1.731
 3558SOL    HW111573   0.332   5.884   1.708
 3558SOL    HW211574   0.331   5.762   1.816
 3559SOL     OW11575   0.259   0.231   5.168
 3559SOL    HW111576   0.236   0.206   5.074
 3559SOL    HW211577   0.305   0.320   5.168
 3560SOL     OW11578   1.311   6.054   1.451
 3560SOL    HW111579   1.384   6.011   1.503
 3560SOL    HW211580   1.320   6.154   1.458
 3561SOL     OW11581   5.055   4.865   5.776
 3561SOL    HW111582   4.956   4.872   5.759
 3561SOL    HW211583   5.071   4.852   5.874
 3562SOL     OW11584   5.469   0.355   3.932
 3562SOL    HW111585   5.379   0.311   3.933
 3562SOL    HW211586   5.493   0.383   4.025
 3563SOL     OW11587   5.554   1.390   1.243
 3563SOL    HW111588   5.626   1.419   1.306
 3563SOL    HW211589   5.559   1.444   1.159
 3564SOL     OW11590   0.711   4.123   5.015
 3564SOL    HW111591   0.805   4.113   4.984
 3564SOL    HW211592   0.677   4.035   5.050
 3565SOL     OW11593   2.796   6.910   4.452
 3565SOL    HW111594   2.743   6.920   4.536
 3565SOL    HW211595   2.766   6.827   4.404
 3566SOL     OW11596   6.771   3.096   5.630
 3566SOL    HW111597   6.786   3.187   5.668
 3566SOL    HW211598   6.716   3.103   5.547
 3567SOL     OW11599   0.711   2.874   0.667
 3567SOL    HW111600   0.703   2.776   0.688
 3567SOL    HW211601   0.728   2.925   0.751
 3568SOL     OW11602   4.868   4.821   2.476
 3568SOL    HW111603   4.856   4.913   2.512
 3568SOL    HW211604   4.934   4.822   2.401
 3569SOL     OW11605   3.145   3.098   4.492
 3569SOL    HW111606   3.093   3.114   4.576
 3569SOL    HW211607   3.085   3.113   4.413
 3570SOL     OW11608   6.250   1.748   5.374
 3570SOL    HW111609   6.215   1.677   5.313
 3570SOL    HW211610   6.287   1.824   5.320
 3571SOL     OW11611   1.868   0.553   5.167
 3571SOL    HW111612   1.866   0.543   5.068
 3571SOL    HW211613   1.815   0.480   5.210
 3572SOL     OW11614   5.214   4.062   2.239
 3572SOL    HW111615   5.228   3.970   2.276
 3572SOL    HW211616   5.146   4.110   2.295
 3573SOL     OW11617   6.351   4.221   2.216
 3573SOL    HW111618   6.445   4.195   2.235
 3573SOL    HW211619   6.320   4.289   2.282
 3574SOL     OW11620   2.569   2.881   5.993
 3574SOL    HW111621   2.647   2.831   6.032
 3574SOL    HW211622   2.599   2.931   5.912
 3575SOL     OW11623   4.937   5.839   0.925
 3575SOL    HW111624   4.843   5.868   0.904
 3575SOL    HW211625   4.996   5.919   0.931
 3576SOL     OW11626   0.095   3.030   6.916
 3576SOL    HW111627   0.153   2.956   6.949
 3576SOL    HW211628   0.047   3.072   6.993
 3577SOL     OW11629   2.175   2.484   5.092
 3577SOL    HW111630   2.214   2.393   5.081
 3577SOL    HW211631   2.246   2.547   5.124
 3578SOL     OW11632   3.389   3.080   0.409
 3578SOL    HW111633   3.408   3.177   0.418
 3578SOL    HW211634   3.290   3.066   0.408
 3579SOL     OW11635   0.380   3.419   2.418
 3579SOL    HW111636   0.305   3.378   2.364
 3579SOL    HW211637   0.468   3.391   2.379
 3580SOL     OW11638   0.694   3.179   1.168
 3580SOL    HW111639   0.657   3.105   1.226
 3580SOL    HW211640   0.735   3.249   1.227
 3581SOL     OW11641   0.728   0.389   3.088
 3581SOL    HW111642   0.675   0.375   3.172
 3581SOL    HW211643   0.665   0.405   3.012
 3582SOL     OW11644   3.398   4.028   5.668
 3582SOL    HW111645   3.497   4.020   5.684
 3582SOL    HW211646   3.359   4.090   5.736
 3583SOL     OW11647   0.441   4.850   0.438
 3583SOL    HW111648   0.430   4.772   0.376
 3583SOL    HW211649   0.532   4.846   0.480
 3584SOL     OW11650   5.578   4.655   5.044
 3584SOL    HW111651   5.664   4.636   5.091
 3584SOL    HW211652   5.523   4.572   5.038
 3585SOL     OW11653   2.624   2.246   4.491
 3585SOL    HW111654   2.571   2.175   4.443
 3585SOL    HW211655   2.714   2.210   4.513
 3586SOL     OW11656   6.670   2.837   3.980
 3586SOL    HW111657   6.707   2.749   3.950
 3586SOL    HW211658   6.572   2.840   3.960
 3587SOL     OW11659   3.650   6.586   5.932
 3587SOL    HW111660   3.739   6.628   5.916
 3587SOL    HW211661   3.618   6.542   5.849
 3588SOL     OW11662   6.157   4.289   4.414
 3588SOL    HW111663   6.225   4.231   4.369
 3588SOL    HW211664   6.120   4.240   4.493
 3589SOL     OW11665   0.000   0.276   5.936
 3589SOL    HW111666   0.057   0.218   5.995
 3589SOL    HW211667   0.058   0.343   5.890
 3590SOL     OW11668   0.244   4.274   0.312
 3590SOL    HW111669   0.305   4.314   0.381
 3590SOL    HW211670   0.193   4.348   0.267
 3591SOL     OW11671   5.604   2.151   6.483
 3591SOL    HW111672   5.669   2.111   6.418
 3591SOL    HW211673   5.604   2.251   6.472
 3592SOL     OW11674   0.931   0.580   2.013
 3592SOL    HW111675   0.948   0.678   2.021
 3592SOL    HW211676   1.011   0.534   1.974
 3593SOL     OW11677   6.238   3.738   6.037
 3593SOL    HW111678   6.149   3.694   6.024
 3593SOL    HW211679   6.263   3.733   6.134
 3594SOL     OW11680   4.050   5.548   5.077
 3594SOL    HW111681   4.116   5.549   5.002
 3594SOL    HW211682   4.040   5.640   5.113
 3595SOL     OW11683   5.567   5.902   6.710
 3595SOL    HW111684   5.574   5.880   6.613
 3595SOL    HW211685   5.650   5.948   6.740
 3596SOL     OW11686   3.680   1.423   3.009
 3596SOL    HW111687   3.756   1.487   2.999
 3596SOL    HW211688   3.703   1.336   2.966
 3597SOL     OW11689   1.804   3.354   4.730
 3597SOL    HW111690   1.818   3.282   4.661
 3597SOL    HW211691   1.893   3.389   4.759
 3598SOL     OW11692   1.515   5.508   5.155
 3598SOL    HW111693   1.459   5.587   5.128
 3598SOL    HW211694   1.595   5.501   5.096
 3599SOL     OW11695   4.506   1.618   5.933
 3599SOL    HW111696   4.480   1.588   6.024
 3599SOL    HW211697   4.577   1.687   5.939
 3600SOL     OW11698   3.585   3.848   0.883
 3600SOL    HW111699   3.550   3.863   0.975
 3600SOL    HW211700   3.643   3.766   0.882
 3601SOL     OW11701   4.932   1.103   5.097
 3601SOL    HW111702   5.001   1.051   5.046
 3601SOL    HW211703   4.976   1.154   5.170
 3602SOL     OW11704   1.960   2.389   1.626
 3602SOL    HW111705   1.932   2.474   1.671
 3602SOL    HW211706   2.020   2.409   1.549
 3603SOL     OW11707   3.222   1.170   5.835
 3603SOL    HW111708   3.218   1.180   5.934
 3603SOL    HW211709   3.141   1.212   5.793
 3604SOL     OW11710   6.576   0.639   3.581
 3604SOL    HW111711   6.501   0.578   3.558
 3604SOL    HW211712   6.582   0.650   3.680
 3605SOL     OW11713   0.721   5.227   3.310
 3605SOL    HW111714   0.716   5.143   3.364
 3605SOL    HW211715   0.783   5.214   3.233
 3606SOL     OW11716   2.272   6.807   1.694
 3606SOL    HW111717   2.365   6.773   1.678
 3606SOL    HW211718   2.212   6.731   1.717
 3607SOL     OW11719   5.388   2.791   2.759
 3607SOL    HW111720   5.341   2.879   2.770
 3607SOL    HW211721   5.324   2.717   2.778
 3608SOL     OW11722   4.169   2.244   4.243
 3608SOL    HW111723   4.215   2.286   4.321
 3608SOL    HW211724   4.201   2.150   4.233
 3609SOL     OW11725   2.462   6.865   4.405
 3609SOL    HW111726   2.537   6.824   4.353
 3609SOL    HW211727   2.499   6.913   4.484
 3610SOL     OW11728   2.252   0.213   5.374
 3610SOL    HW111729   2.155   0.200   5.352
 3610SOL    HW211730   2.301   0.239   5.291
 3611SOL     OW11731   4.435   4.648   3.737
 3611SOL    HW111732   4.456   4.604   3.650
 3611SOL    HW211733   4.460   4.586   3.812
 3612SOL     OW11734   5.481   1.457   6.521
 3612SOL    HW111735   5.465   1.556   6.521
 3612SOL    HW211736   5.452   1.418   6.434
 3613SOL     OW11737   3.268   5.106   1.232
 3613SOL    HW111738   3.265   5.188   1.289
 3613SOL    HW211739   3.336   5.117   1.160
 3614SOL     OW11740   3.346   4.183   6.490
 3614SOL    HW111741   3.316   4.188   6.585
 3614SOL    HW211742   3.376   4.273   6.459
 3615SOL     OW11743   6.418   2.805   5.428
 3615SOL    HW111744   6.325   2.806   5.465
 3615SOL    HW211745   6.451   2.711   5.423
 3616SOL     OW11746   1.961   1.780   6.924
 3616SOL    HW111747   2.014   1.862   6.900
 3616SOL    HW211748   1.914   1.795   7.011
 3617SOL     OW11749   3.999   0.221   6.020
 3617SOL    HW111750   3.988   0.134   6.068
 3617SOL    HW211751   3.913   0.246   5.975
 3618SOL     OW11752   1.523   4.079   4.903
 3618SOL    HW111753   1.618   4.062   4.928
 3618SOL    HW211754   1.463   4.057   4.979
 3619SOL     OW11755   6.328   2.542   1.003
 3619SOL    HW111756   6.276   2.627   1.015
 3619SOL    HW211757   6.341   2.524   0.906
 3620SOL     OW11758   6.348   6.607   4.925
 3620SOL    HW111759   6.440   6.634   4.953
 3620SOL    HW211760   6.301   6.685   4.883
 3621SOL     OW11761   3.770   2.937   3.893
 3621SOL    HW111762   3.807   2.906   3.980
 3621SOL    HW211763   3.673   2.912   3.887
 3622SOL     OW11764   0.908   6.908   0.257
 3622SOL    HW111765   0.865   6.885   0.170
 3622SOL    HW211766   0.921   7.007   0.262
 3623SOL     OW11767   1.313   5.434   6.117
 3623SOL    HW111768   1.226   5.434   6.068
 3623SOL    HW211769   1.371   5.360   6.082
 3624SOL     OW11770   3.310   0.646   1.857
 3624SOL    HW111771   3.310   0.728   1.915
 3624SOL    HW211772   3.221   0.635   1.814
 3625SOL     OW11773   6.311   2.724   6.479
 3625SOL    HW111774   6.288   2.778   6.561
 3625SOL    HW211775   6.407   2.699   6.482
 3626SOL     OW11776   0.426   2.632   5.264
 3626SOL    HW111777   0.508   2.679   5.298
 3626SOL    HW211778   0.440   2.606   5.169
 3627SOL     OW11779   4.397   2.860   1.350
 3627SOL    HW111780   4.362   2.792   1.285
 3627SOL    HW211781   4.347   2.946   1.338
 3628SOL     OW11782   0.346   1.316   2.405
 3628SOL    HW111783   0.428   1.357   2.444
 3628SOL    HW211784   0.371   1.244   2.342
 3629SOL     OW11785   1.073   1.195   4.543
 3629SOL    HW111786   1.152   1.248   4.575
 3629SOL    HW211787   1.066   1.112   4.598
 3630SOL     OW11788   6.784   2.788   3.359
 3630SOL    HW111789   6.731   2.703   3.348
 3630SOL    HW211790   6.730   2.865   3.325
 3631SOL     OW11791   1.900   6.534   2.419
 3631SOL    HW111792   1.847   6.580   2.490
 3631SOL    HW211793   1.846   6.530   2.335
 3632SOL     OW11794   4.553   3.221   0.874
 3632SOL    HW111795   4.632   3.213   0.935
 3632SOL    HW211796   4.484   3.278   0.917
 3633SOL     OW11797   3.679   2.831   6.391
 3633SOL    HW111798   3.655   2.762   6.459
 3633SOL    HW211799   3.767   2.872   6.415
 3634SOL     OW11800   3.080   5.553   5.767
 3634SOL    HW111801   3.107   5.635   5.717
 3634SOL    HW211802   3.129   5.474   5.729
 3635SOL     OW11803   2.768   0.979   1.476
 3635SOL    HW111804   2.816   1.046   1.419
 3635SOL    HW211805   2.834   0.927   1.529
 3636SOL     OW11806   1.034   5.598   6.985
 3636SOL    HW111807   0.955   5.546   7.018
 3636SOL    HW211808   1.034   5.689   0.006
 3637SOL     OW11809   6.852   3.024   6.838
 3637SOL    HW111810   6.942   2.996   6.870
 3637SOL    HW211811   6.821   2.963   6.765
 3638SOL     OW11812   5.933   4.752   2.177
 3638SOL    HW111813   5.842   4.711   2.183
 3638SOL    HW211814   5.980   4.715   2.096
 3639SOL     OW11815   3.410   4.027   4.378
 3639SOL    HW111816   3.335   4.059   4.319
 3639SOL    HW211817   3.483   3.989   4.322
 3640SOL     OW11818   5.384   2.197   0.470
 3640SOL    HW111819   5.335   2.282   0.491
 3640SOL    HW211820   5.480   2.217   0.452
 3641SOL     OW11821   6.884   4.104   1.758
 3641SOL    HW111822   6.959   4.162   1.790
 3641SOL    HW211823   6.865   4.125   1.662
 3642SOL     OW11824   5.847   2.302   6.559
 3642SOL    HW111825   5.839   2.395   6.524
 3642SOL    HW211826   5.942   2.285   6.587
 3643SOL     OW11827   3.832   5.356   5.603
 3643SOL    HW111828   3.854   5.303   5.521
 3643SOL    HW211829   3.756   5.418   5.583
 3644SOL     OW11830   3.492   0.900   1.819
 3644SOL    HW111831   3.578   0.854   1.841
 3644SOL    HW211832   3.434   0.905   1.900
 3645SOL     OW11833   1.512   3.958   4.364
 3645SOL    HW111834   1.525   4.054   4.340
 3645SOL    HW211835   1.543   3.900   4.289
 3646SOL     OW11836   2.521   4.566   4.850
 3646SOL    HW111837   2.602   4.580   4.906
 3646SOL    HW211838   2.453   4.514   4.902
 3647SOL     OW11839   2.525   0.517   0.375
 3647SOL    HW111840   2.534   0.468   0.289
 3647SOL    HW211841   2.616   0.536   0.412
 3648SOL     OW11842   4.605   5.410   3.797
 3648SOL    HW111843   4.644   5.350   3.727
 3648SOL    HW211844   4.630   5.376   3.888
 3649SOL     OW11845   5.623   3.182   0.551
 3649SOL    HW111846   5.709   3.135   0.533
 3649SOL    HW211847   5.547   3.117   0.546
 3650SOL     OW11848   5.481   5.102   0.321
 3650SOL    HW111849   5.432   5.026   0.278
 3650SOL    HW211850   5.416   5.172   0.348
 3651SOL     OW11851   1.423   2.359   5.931
 3651SOL    HW111852   1.390   2.452   5.943
 3651SOL    HW211853   1.358   2.308   5.874
 3652SOL     OW11854   5.079   1.691   2.033
 3652SOL    HW111855   5.130   1.732   2.109
 3652SOL    HW211856   5.054   1.597   2.057
 3653SOL     OW11857   0.507   1.497   1.417
 3653SOL    HW111858   0.503   1.433   1.493
 3653SOL    HW211859   0.556   1.455   1.340
 3654SOL     OW11860   5.823   0.028   0.597
 3654SOL    HW111861   5.777   0.071   0.519
 3654SOL    HW211862   5.828   6.950   0.582
 3655SOL     OW11863   2.046   2.079   4.546
 3655SOL    HW111864   1.989   2.154   4.580
 3655SOL    HW211865   2.076   2.023   4.622
 3656SOL     OW11866   0.350   5.876   1.251
 3656SOL    HW111867   0.317   5.815   1.179
 3656SOL    HW211868   0.352   5.826   1.338
 3657SOL     OW11869   4.732   5.999   4.649
 3657SOL    HW111870   4.808   5.964   4.594
 3657SOL    HW211871   4.763   6.015   4.743
 3658SOL     OW11872   1.397   5.312   6.429
 3658SOL    HW111873   1.383   5.411   6.427
 3658SOL    HW211874   1.495   5.291   6.418
 3659SOL     OW11875   6.713   1.905   6.384
 3659SOL    HW111876   6.691   1.809   6.364
 3659SOL    HW211877   6.794   1.909   6.442
 3660SOL     OW11878   5.543   5.266   6.151
 3660SOL    HW111879   5.488   5.218   6.083
 3660SOL    HW211880   5.523   5.364   6.147
 3661SOL     OW11881   0.010   1.482   4.579
 3661SOL    HW111882   6.958   1.525   4.632
 3661SOL    HW211883   0.047   1.404   4.630
 3662SOL     OW11884   3.374   0.765   5.257
 3662SOL    HW111885   3.456   0.708   5.246
 3662SOL    HW211886   3.293   0.710   5.236
 3663SOL     OW11887   2.157   2.603   6.404
 3663SOL    HW111888   2.208   2.540   6.345
 3663SOL    HW211889   2.074   2.633   6.357
 3664SOL     OW11890   3.926   1.737   2.206
 3664SOL    HW111891   3.891   1.688   2.286
 3664SOL    HW211892   3.852   1.791   2.165
 3665SOL     OW11893   1.367   5.997   5.715
 3665SOL    HW111894   1.354   6.008   5.616
 3665SOL    HW211895   1.436   6.062   5.747
 3666SOL     OW11896   2.476   1.819   5.054
 3666SOL    HW111897   2.468   1.731   5.100
 3666SOL    HW211898   2.546   1.874   5.099
 3667SOL     OW11899   2.448   0.773   2.794
 3667SOL    HW111900   2.383   0.843   2.764
 3667SOL    HW211901   2.541   0.811   2.790
 3668SOL     OW11902   0.555   0.617   1.364
 3668SOL    HW111903   0.569   0.706   1.320
 3668SOL    HW211904   0.632   0.557   1.342
 3669SOL     OW11905   0.039   1.213   3.832
 3669SOL    HW111906   0.037   1.304   3.871
 3669SOL    HW211907   0.125   1.168   3.856
 3670SOL     OW11908   3.683   5.585   1.828
 3670SOL    HW111909   3.669   5.488   1.846
 3670SOL    HW211910   3.597   5.626   1.796
 3671SOL     OW11911   7.016   0.483   3.353
 3671SOL    HW111912   6.975   0.523   3.435
 3671SOL    HW211913   6.974   0.394   3.335
 3672SOL     OW11914   4.352   0.065   2.600
 3672SOL    HW111915   4.349   0.102   2.693
 3672SOL    HW211916   4.271   0.010   2.584
 3673SOL     OW11917   4.930   6.162   1.425
 3673SOL    HW111918   4.896   6.216   1.348
 3673SOL    HW211919   4.944   6.221   1.504
 3674SOL     OW11920   1.469   5.252   5.980
 3674SOL    HW111921   1.427   5.253   5.889
 3674SOL    HW211922   1.496   5.159   6.003
 3675SOL     OW11923   0.538   1.195   3.820
 3675SOL    HW111924   0.515   1.187   3.723
 3675SOL    HW211925   0.608   1.265   3.832
 3676SOL     OW11926   4.138   1.795   3.553
 3676SOL    HW111927   4.110   1.702   3.526
 3676SOL    HW211928   4.134   1.855   3.473
 3677SOL     OW11929   1.807   0.213   3.912
 3677SOL    HW111930   1.767   0.153   3.982
 3677SOL    HW211931   1.738   0.279   3.883
 3678SOL     OW11932   1.499   0.731   3.810
 3678SOL    HW111933   1.459   0.807   3.861
 3678SOL    HW211934   1.443   0.711   3.729
 3679SOL     OW11935   4.894   0.797   2.034
 3679SOL    HW111936   4.976   0.836   1.991
 3679SOL    HW211937   4.843   0.870   2.079
 3680SOL     OW11938   4.296   1.282   3.985
 3680SOL    HW111939   4.237   1.329   3.919
 3680SOL    HW211940   4.392   1.305   3.967
 3681SOL     OW11941   1.107   6.558   4.768
 3681SOL    HW111942   1.067   6.551   4.677
 3681SOL    HW211943   1.137   6.467   4.798
 3682SOL     OW11944   5.481   2.365   1.364
 3682SOL    HW111945   5.574   2.361   1.399
 3682SOL    HW211946   5.431   2.438   1.410
 3683SOL     OW11947   6.440   0.591   5.879
 3683SOL    HW111948   6.355   0.632   5.847
 3683SOL    HW211949   6.437   0.492   5.865
 3684SOL     OW11950   1.985   6.707   5.233
 3684SOL    HW111951   1.928   6.708   5.150
 3684SOL    HW211952   1.929   6.677   5.310
 3685SOL     OW11953   2.058   6.336   5.665
 3685SOL    HW111954   2.145   6.311   5.622
 3685SOL    HW211955   2.018   6.256   5.709
 3686SOL     OW11956   0.466   4.244   3.995
 3686SOL    HW111957   0.442   4.184   4.071
 3686SOL    HW211958   0.565   4.242   3.980
 3687SOL     OW11959   5.297   5.780   3.589
 3687SOL    HW111960   5.334   5.872   3.579
 3687SOL    HW211961   5.199   5.780   3.567
 3688SOL     OW11962   5.641   3.264   0.796
 3688SOL    HW111963   5.611   3.264   0.700
 3688SOL    HW211964   5.685   3.176   0.816
 3689SOL     OW11965   1.624   0.359   5.938
 3689SOL    HW111966   1.704   0.304   5.916
 3689SOL    HW211967   1.585   0.328   6.025
 3690SOL     OW11968   4.724   4.738   0.929
 3690SOL    HW111969   4.797   4.749   0.996
 3690SOL    HW211970   4.731   4.810   0.860
 3691SOL     OW11971   2.478   2.424   0.148
 3691SOL    HW111972   2.401   2.390   0.202
 3691SOL    HW211973   2.563   2.391   0.187
 3692SOL     OW11974   0.704   3.374   6.100
 3692SOL    HW111975   0.753   3.406   6.181
 3692SOL    HW211976   0.709   3.274   6.096
 3693SOL     OW11977   0.424   1.649   2.628
 3693SOL    HW111978   0.423   1.680   2.724
 3693SOL    HW211979   0.352   1.695   2.577
 3694SOL     OW11980   0.019   0.197   1.730
 3694SOL    HW111981   6.976   0.218   1.656
 3694SOL    HW211982   0.053   0.104   1.720
 3695SOL     OW11983   6.700   2.749   2.556
 3695SOL    HW111984   6.645   2.692   2.617
 3695SOL    HW211985   6.648   2.833   2.534
 3696SOL     OW11986   4.708   0.761   4.508
 3696SOL    HW111987   4.731   0.664   4.501
 3696SOL    HW211988   4.664   0.779   4.596
 3697SOL     OW11989   6.794   6.664   3.603
 3697SOL    HW111990   6.698   6.660   3.574
 3697SOL    HW211991   6.822   6.760   3.607
 3698SOL     OW11992   2.306   0.707   3.012
 3698SOL    HW111993   2.346   0.740   2.927
 3698SOL    HW211994   2.242   0.776   3.048
 3699SOL     OW11995   2.506   2.528   3.462
 3699SOL    HW111996   2.485   2.615   3.417
 3699SOL    HW211997   2.429   2.466   3.451
 3700SOL     OW11998   0.822   5.027   5.228
 3700SOL    HW111999   0.835   4.930   5.246
 3700SOL    HW212000   0.867   5.052   5.142
 3701SOL     OW12001   1.642   0.621   2.527
 3701SOL    HW112002   1.716   0.654   2.468
 3701SOL    HW212003   1.581   0.562   2.474
 3702SOL     OW12004   5.217   4.645   4.034
 3702SOL    HW112005   5.249   4.553   4.014
 3702SOL    HW212006   5.292   4.710   4.019
 3703SOL     OW12007   1.515   1.959   3.915
 3703SOL    HW112008   1.469   1.954   3.826
 3703SOL    HW212009   1.514   1.869   3.959
 3704SOL     OW12010   0.123   1.956   0.726
 3704SOL    HW112011   0.134   1.876   0.666
 3704SOL    HW212012   0.033   1.953   0.769
 3705SOL     OW12013   4.963   4.746   3.045
 3705SOL    HW112014   4.928   4.794   3.126
 3705SOL    HW212015   4.890   4.691   3.006
 3706SOL     OW12016   0.741   3.727   0.456
 3706SOL    HW112017   0.823   3.695   0.408
 3706SOL    HW212018   0.703   3.805   0.407
 3707SOL     OW12019   1.450   5.149   3.608
 3707SOL    HW112020   1.546   5.164   3.583
 3707SOL    HW212021   1.415   5.069   3.559
 3708SOL     OW12022   3.555   0.125   0.640
 3708SOL    HW112023   3.636   0.102   0.694
 3708SOL    HW212024   3.520   0.043   0.595
 3709SOL     OW12025   1.604   0.848   2.689
 3709SOL    HW112026   1.597   0.760   2.642
 3709SOL    HW212027   1.694   0.855   2.734
 3710SOL     OW12028   6.693   4.983   5.683
 3710SOL    HW112029   6.696   4.904   5.623
 3710SOL    HW212030   6.686   4.952   5.778
 3711SOL     OW12031   1.619   5.543   4.719
 3711SOL    HW112032   1.528   5.558   4.680
 3711SOL    HW212033   1.661   5.631   4.740
 3712SOL     OW12034   1.805   5.147   5.101
 3712SOL    HW112035   1.851   5.122   5.016
 3712SOL    HW212036   1.726   5.206   5.080
 3713SOL     OW12037   6.333   6.216   4.655
 3713SOL    HW112038   6.321   6.175   4.745
 3713SOL    HW212039   6.415   6.273   4.654
 3714SOL     OW12040   0.664   4.684   0.030
 3714SOL    HW112041   0.641   4.638   6.965
 3714SOL    HW212042   0.755   4.724   0.024
 3715SOL     OW12043   6.256   5.680   3.845
 3715SOL    HW112044   6.349   5.644   3.857
 3715SOL    HW212045   6.190   5.610   3.871
 3716SOL     OW12046   5.243   5.557   3.889
 3716SOL    HW112047   5.332   5.596   3.910
 3716SOL    HW212048   5.238   5.463   3.923
 3717SOL     OW12049   4.314   1.195   1.310
 3717SOL    HW112050   4.283   1.282   1.348
 3717SOL    HW212051   4.319   1.127   1.384
 3718SOL     OW12052   0.004   6.689   5.952
 3718SOL    HW112053   0.009   6.781   5.992
 3718SOL    HW212054   0.064   6.628   6.004
 3719SOL     OW12055   3.853   4.043   6.429
 3719SOL    HW112056   3.791   4.058   6.352
 3719SOL    HW212057   3.821   3.966   6.484
 3720SOL     OW12058   7.017   2.754   1.401
 3720SOL    HW112059   6.920   2.775   1.390
 3720SOL    HW212060   0.016   2.666   1.358
 3721SOL     OW12061   6.112   4.900   6.262
 3721SOL    HW112062   6.185   4.963   6.236
 3721SOL    HW212063   6.100   4.902   6.361
 3722SOL     OW12064   4.573   6.654   3.119
 3722SOL    HW112065   4.595   6.751   3.132
 3722SOL    HW212066   4.513   6.624   3.194
 3723SOL     OW12067   4.725   4.533   0.067
 3723SOL    HW112068   4.778   4.503   0.146
 3723SOL    HW212069   4.705   4.631   0.076
 3724SOL     OW12070   1.519   5.045   5.287
 3724SOL    HW112071   1.545   5.087   5.200
 3724SOL    HW212072   1.478   5.114   5.346
 3725SOL     OW12073   0.987   5.990   6.303
 3725SOL    HW112074   1.032   5.909   6.342
 3725SOL    HW212075   1.041   6.071   6.323
 3726SOL     OW12076   5.835   3.546   3.579
 3726SOL    HW112077   5.836   3.620   3.512
 3726SOL    HW212078   5.743   3.536   3.617
 3727SOL     OW12079   0.021   3.497   4.428
 3727SOL    HW112080   6.961   3.453   4.388
 3727SOL    HW212081   0.093   3.430   4.441
 3728SOL     OW12082   2.944   3.372   0.276
 3728SOL    HW112083   3.026   3.374   0.218
 3728SOL    HW212084   2.966   3.410   0.366
 3729SOL     OW12085   0.784   6.981   5.710
 3729SOL    HW112086   0.856   7.013   5.773
 3729SOL    HW212087   0.787   6.881   5.705
 3730SOL     OW12088   3.494   5.544   5.285
 3730SOL    HW112089   3.553   5.621   5.263
 3730SOL    HW212090   3.548   5.474   5.333
 3731SOL     OW12091   0.487   2.550   6.558
 3731SOL    HW112092   0.575   2.585   6.526
 3731SOL    HW212093   0.492   2.451   6.570
 3732SOL     OW12094   3.037   2.100   0.014
 3732SOL    HW112095   3.016   2.042   6.956
 3732SOL    HW212096   2.969   2.084   0.086
 3733SOL     OW12097   1.719   1.667   3.778
 3733SOL    HW112098   1.766   1.747   3.740
 3733SOL    HW212099   1.757   1.645   3.867
 3734SOL     OW12100   4.207   6.789   1.063
 3734SOL    HW112101   4.133   6.788   0.995
 3734SOL    HW212102   4.187   6.858   1.132
 3735SOL     OW12103   4.217   6.704   2.223
 3735SOL    HW112104   4.190   6.668   2.312
 3735SOL    HW212105   4.144   6.688   2.157
 3736SOL     OW12106   0.131   1.272   1.368
 3736SOL    HW112107   0.145   1.184   1.414
 3736SOL    HW212108   0.159   1.264   1.272
 3737SOL     OW12109   0.159   2.502   3.371
 3737SOL    HW112110   0.114   2.431   3.424
 3737SOL    HW212111   0.113   2.590   3.387
 3738SOL     OW12112   6.906   6.737   1.137
 3738SOL    HW112113   6.878   6.817   1.191
 3738SOL    HW212114   6.998   6.753   1.100
 3739SOL     OW12115   2.816   4.629   0.997
 3739SOL    HW112116   2.888   4.673   1.051
 3739SOL    HW212117   2.750   4.585   1.059
 3740SOL     OW12118   5.289   5.380   6.822
 3740SOL    HW112119   5.220   5.444   6.857
 3740SOL    HW212120   5.335   5.421   6.743
 3741SOL     OW12121   5.298   3.245   0.079
 3741SOL    HW112122   5.213   3.232   0.131
 3741SOL    HW212123   5.301   3.179   0.004
 3742SOL     OW12124   3.502   5.541   0.134
 3742SOL    HW112125   3.542   5.450   0.123
 3742SOL    HW212126   3.516   5.573   0.227
 3743SOL     OW12127   4.316   3.413   1.768
 3743SOL    HW112128   4.235   3.470   1.751
 3743SOL    HW212129   4.290   3.317   1.767
 3744SOL     OW12130   0.427   6.775   2.500
 3744SOL    HW112131   0.410   6.709   2.573
 3744SOL    HW212132   0.454   6.863   2.540
 3745SOL     OW12133   4.774   4.054   2.342
 3745SOL    HW112134   4.750   4.103   2.258
 3745SOL    HW212135   4.806   3.962   2.320
 3746SOL     OW12136   6.359   0.256   4.322
 3746SOL    HW112137   6.446   0.270   4.275
 3746SOL    HW212138   6.336   0.159   4.321
 3747SOL     OW12139   3.873   6.803   5.574
 3747SOL    HW112140   3.790   6.848   5.542
 3747SOL    HW212141   3.878   6.711   5.536
 3748SOL     OW12142   5.303   1.723   2.592
 3748SOL    HW112143   5.320   1.661   2.516
 3748SOL    HW212144   5.210   1.709   2.626
 3749SOL     OW12145   0.489   6.336   3.157
 3749SOL    HW112146   0.531   6.426   3.144
 3749SOL    HW212147   0.390   6.344   3.141
 3750SOL     OW12148   5.761   4.045   0.340
 3750SOL    HW112149   5.790   4.118   0.402
 3750SOL    HW212150   5.783   3.956   0.381
 3751SOL     OW12151   1.875   3.902   1.699
 3751SOL    HW112152   1.939   3.829   1.720
 3751SOL    HW212153   1.884   3.974   1.768
 3752SOL     OW12154   1.210   6.752   0.135
 3752SOL    HW112155   1.154   6.771   0.216
 3752SOL    HW212156   1.151   6.736   0.056
 3753SOL     OW12157   0.153   6.471   4.598
 3753SOL    HW112158   0.118   6.475   4.504
 3753SOL    HW212159   0.212   6.390   4.608
 3754SOL     OW12160   6.519   5.884   2.101
 3754SOL    HW112161   6.608   5.849   2.130
 3754SOL    HW212162   6.486   5.833   2.022
 3755SOL     OW12163   5.183   4.133   3.714
 3755SOL    HW112164   5.155   4.127   3.618
 3755SOL    HW212165   5.116   4.189   3.764
 3756SOL     OW12166   2.324   1.287   6.674
 3756SOL    HW112167   2.362   1.209   6.725
 3756SOL    HW212168   2.343   1.275   6.576
 3757SOL     OW12169   2.831   5.708   6.317
 3757SOL    HW112170   2.916   5.712   6.371
 3757SOL    HW212171   2.773   5.634   6.351
 3758SOL     OW12172   2.004   1.129   4.327
 3758SOL    HW112173   2.098   1.112   4.299
 3758SOL    HW212174   1.949   1.047   4.313
 3759SOL     OW12175   5.018   4.847   6.078
 3759SOL    HW112176   5.101   4.826   6.129
 3759SOL    HW212177   4.963   4.764   6.067
 3760SOL     OW12178   1.651   2.491   4.946
 3760SOL    HW112179   1.568   2.539   4.918
 3760SOL    HW212180   1.731   2.532   4.901
 3761SOL     OW12181   0.821   6.744   4.622
 3761SOL    HW112182   0.816   6.736   4.722
 3761SOL    HW212183   0.917   6.748   4.594
 3762SOL     OW12184   0.573   3.963   0.343
 3762SOL    HW112185   0.571   4.058   0.376
 3762SOL    HW212186   0.511   3.907   0.398
 3763SOL     OW12187   6.682   2.781   6.373
 3763SOL    HW112188   6.622   2.714   6.417
 3763SOL    HW212189   6.626   2.852   6.329
 3764SOL     OW12190   2.717   6.502   3.587
 3764SOL    HW112191   2.693   6.414   3.628
 3764SOL    HW212192   2.634   6.553   3.565
 3765SOL     OW12193   5.455   0.845   3.534
 3765SOL    HW112194   5.413   0.757   3.510
 3765SOL    HW212195   5.523   0.831   3.605
 3766SOL     OW12196   0.509   0.636   4.296
 3766SOL    HW112197   0.520   0.612   4.199
 3766SOL    HW212198   0.412   0.638   4.319
 3767SOL     OW12199   1.681   5.436   0.314
 3767SOL    HW112200   1.623   5.371   0.363
 3767SOL    HW212201   1.760   5.387   0.275
 3768SOL     OW12202   5.088   6.355   0.371
 3768SOL    HW112203   5.048   6.446   0.382
 3768SOL    HW212204   5.113   6.342   0.275
 3769SOL     OW12205   4.570   6.516   5.643
 3769SOL    HW112206   4.623   6.560   5.716
 3769SOL    HW212207   4.609   6.540   5.555
 3770SOL     OW12208   2.368   1.517   6.871
 3770SOL    HW112209   2.306   1.480   6.802
 3770SOL    HW212210   2.319   1.530   6.957
 3771SOL     OW12211   5.849   1.774   5.972
 3771SOL    HW112212   5.827   1.776   6.069
 3771SOL    HW212213   5.938   1.817   5.956
 3772SOL     OW12214   5.596   0.960   1.704
 3772SOL    HW112215   5.557   1.035   1.650
 3772SOL    HW212216   5.692   0.980   1.724
 3773SOL     OW12217   6.650   2.265   6.302
 3773SOL    HW112218   6.583   2.284   6.374
 3773SOL    HW212219   6.673   2.349   6.254
 3774SOL     OW12220   0.011   0.996   0.295
 3774SOL    HW112221   7.014   1.034   0.204
 3774SOL    HW212222   6.945   0.987   0.344
 3775SOL     OW12223   6.316   3.480   3.616
 3775SOL    HW112224   6.363   3.508   3.532
 3775SOL    HW212225   6.222   3.454   3.595
 3776SOL     OW12226   2.399   3.125   1.280
 3776SOL    HW112227   2.363   3.129   1.373
 3776SOL    HW212228   2.498   3.113   1.283
 3777SOL     OW12229   2.606   4.950   4.116
 3777SOL    HW112230   2.676   4.880   4.103
 3777SOL    HW212231   2.555   4.930   4.200
 3778SOL     OW12232   2.947   5.621   1.709
 3778SOL    HW112233   2.998   5.691   1.759
 3778SOL    HW212234   2.955   5.638   1.611
 3779SOL     OW12235   2.490   4.919   6.938
 3779SOL    HW112236   2.550   4.849   6.979
 3779SOL    HW212237   2.444   4.880   6.858
 3780SOL     OW12238   3.123   6.336   5.085
 3780SOL    HW112239   3.080   6.246   5.077
 3780SOL    HW212240   3.185   6.351   5.008
 3781SOL     OW12241   3.077   6.391   4.420
 3781SOL    HW112242   3.014   6.415   4.347
 3781SOL    HW212243   3.134   6.315   4.391
 3782SOL     OW12244   2.382   1.508   3.892
 3782SOL    HW112245   2.408   1.519   3.988
 3782SOL    HW212246   2.287   1.478   3.886
 3783SOL     OW12247   5.132   6.163   4.728
 3783SOL    HW112248   5.089   6.079   4.695
 3783SOL    HW212249   5.102   6.182   4.821
 3784SOL     OW12250   5.362   1.371   2.817
 3784SOL    HW112251   5.363   1.282   2.863
 3784SOL    HW212252   5.276   1.381   2.768
 3785SOL     OW12253   2.313   2.517   1.254
 3785SOL    HW112254   2.290   2.502   1.157
 3785SOL    HW212255   2.411   2.504   1.268
 3786SOL     OW12256   3.345   5.208   2.725
 3786SOL    HW112257   3.271   5.231   2.788
 3786SOL    HW212258   3.308   5.196   2.633
 3787SOL     OW12259   4.087   1.544   3.495
 3787SOL    HW112260   4.017   1.509   3.433
 3787SOL    HW212261   4.165   1.481   3.496
 3788SOL     OW12262   5.763   3.176   2.558
 3788SOL    HW112263   5.725   3.152   2.648
 3788SOL    HW212264   5.709   3.131   2.487
 3789SOL     OW12265   1.770   5.085   4.049
 3789SOL    HW112266   1.834   5.102   4.125
 3789SOL    HW212267   1.822   5.071   3.965
 3790SOL     OW12268   2.211   3.287   4.104
 3790SOL    HW112269   2.221   3.226   4.026
 3790SOL    HW212270   2.209   3.234   4.189
 3791SOL     OW12271   4.928   6.733   1.849
 3791SOL    HW112272   4.862   6.661   1.872
 3791SOL    HW212273   5.017   6.691   1.832
 3792SOL     OW12274   6.511   6.515   5.355
 3792SOL    HW112275   6.566   6.435   5.378
 3792SOL    HW212276   6.571   6.594   5.340
 3793SOL     OW12277   2.132   1.409   3.020
 3793SOL    HW112278   2.225   1.381   3.043
 3793SOL    HW212279   2.068   1.373   3.089
 3794SOL     OW12280   4.220   5.778   2.142
 3794SOL    HW112281   4.204   5.726   2.226
 3794SOL    HW212282   4.316   5.768   2.114
 3795SOL     OW12283   5.214   0.440   6.621
 3795SOL    HW112284   5.209   0.340   6.620
 3795SOL    HW212285   5.309   0.468   6.608
 3796SOL     OW12286   1.416   2.141   1.571
 3796SOL    HW112287   1.333   2.178   1.614
 3796SOL    HW212288   1.390   2.069   1.506
 3797SOL     OW12289   1.220   4.852   2.926
 3797SOL    HW112290   1.197   4.848   2.829
 3797SOL    HW212291   1.210   4.761   2.966
 3798SOL     OW12292   2.488   5.162   2.490
 3798SOL    HW112293   2.502   5.175   2.392
 3798SOL    HW212294   2.483   5.064   2.510
 3799SOL     OW12295   1.565   1.212   5.358
 3799SOL    HW112296   1.523   1.299   5.332
 3799SOL    HW212297   1.498   1.158   5.410
 3800SOL     OW12298   4.688   2.433   4.644
 3800SOL    HW112299   4.757   2.367   4.671
 3800SOL    HW212300   4.633   2.458   4.724
 3801SOL     OW12301   0.051   6.314   5.886
 3801SOL    HW112302   0.074   6.282   5.977
 3801SOL    HW212303   6.973   6.329   5.879
 3802SOL     OW12304   1.120   1.932   5.273
 3802SOL    HW112305   1.212   1.953   5.304
 3802SOL    HW212306   1.107   1.966   5.180
 3803SOL     OW12307   3.596   0.550   1.149
 3803SOL    HW112308   3.640   0.581   1.234
 3803SOL    HW212309   3.634   0.601   1.072
 3804SOL     OW12310   4.596   1.842   4.627
 3804SOL    HW112311   4.510   1.818   4.671
 3804SOL    HW212312   4.578   1.873   4.533
 3805SOL     OW12313   2.979   4.247   1.684
 3805SOL    HW112314   2.941   4.326   1.732
 3805SOL    HW212315   2.922   4.167   1.702
 3806SOL     OW12316   2.775   2.381   0.232
 3806SOL    HW112317   2.790   2.336   0.144
 3806SOL    HW212318   2.852   2.362   0.293
 3807SOL     OW12319   1.107   6.846   3.603
 3807SOL    HW112320   1.181   6.780   3.596
 3807SOL    HW212321   1.086   6.883   3.512
 3808SOL     OW12322   3.818   6.788   1.718
 3808SOL    HW112323   3.744   6.751   1.662
 3808SOL    HW212324   3.819   6.887   1.712
 3809SOL     OW12325   5.711   1.065   6.969
 3809SOL    HW112326   5.767   0.994   6.926
 3809SOL    HW212327   5.623   1.071   6.922
 3810SOL     OW12328   3.041   2.997   5.201
 3810SOL    HW112329   2.941   3.006   5.202
 3810SOL    HW212330   3.066   2.903   5.180
 3811SOL     OW12331   0.213   4.939   4.752
 3811SOL    HW112332   0.284   4.925   4.683
 3811SOL    HW212333   0.245   5.005   4.820
 3812SOL     OW12334   5.860   1.623   5.459
 3812SOL    HW112335   5.906   1.605   5.546
 3812SOL    HW212336   5.761   1.626   5.474
 3813SOL     OW12337   3.174   5.320   6.921
 3813SOL    HW112338   3.083   5.312   6.963
 3813SOL    HW212339   3.236   5.254   6.964
 3814SOL     OW12340   6.817   6.450   2.208
 3814SOL    HW112341   6.738   6.507   2.231
 3814SOL    HW212342   6.848   6.402   2.290
 3815SOL     OW12343   5.172   1.894   1.774
 3815SOL    HW112344   5.229   1.975   1.769
 3815SOL    HW212345   5.107   1.903   1.850
 3816SOL     OW12346   0.609   0.197   1.755
 3816SOL    HW112347   0.603   0.175   1.853
 3816SOL    HW212348   0.550   0.136   1.703
 3817SOL     OW12349   4.768   2.026   4.708
 3817SOL    HW112350   4.723   1.939   4.689
 3817SOL    HW212351   4.700   2.092   4.741
 3818SOL     OW12352   4.974   6.274   2.514
 3818SOL    HW112353   5.006   6.297   2.606
 3818SOL    HW212354   4.893   6.327   2.492
 3819SOL     OW12355   5.107   5.119   0.084
 3819SOL    HW112356   5.130   5.155   0.174
 3819SOL    HW212357   5.082   5.023   0.092
 3820SOL     OW12358   5.025   5.979   3.900
 3820SOL    HW112359   4.929   5.966   3.924
 3820SOL    HW212360   5.037   5.969   3.801
 3821SOL     OW12361   1.576   3.472   1.452
 3821SOL    HW112362   1.565   3.566   1.485
 3821SOL    HW212363   1.646   3.425   1.505
 3822SOL     OW12364   2.434   5.463   1.057
 3822SOL    HW112365   2.412   5.495   0.965
 3822SOL    HW212366   2.510   5.516   1.094
 3823SOL     OW12367   3.408   2.745   5.946
 3823SOL    HW112368   3.476   2.673   5.957
 3823SOL    HW212369   3.366   2.738   5.855
 3824SOL     OW12370   6.256   2.077   5.543
 3824SOL    HW112371   6.343   2.118   5.516
 3824SOL    HW212372   6.214   2.035   5.463
 3825SOL     OW12373   0.046   6.552   6.196
 3825SOL    HW112374   0.054   6.507   6.285
 3825SOL    HW212375   0.130   6.539   6.144
 3826SOL     OW12376   7.011   3.305   1.445
 3826SOL    HW112377   6.988   3.208   1.439
 3826SOL    HW212378   0.071   3.324   1.389
 3827SOL     OW12379   4.034   3.283   0.851
 3827SOL    HW112380   4.071   3.282   0.944
 3827SOL    HW212381   4.049   3.194   0.808
 3828SOL     OW12382   5.140   2.066   2.865
 3828SOL    HW112383   5.221   2.017   2.833
 3828SOL    HW212384   5.158   2.165   2.865
 3829SOL     OW12385   2.570   4.958   3.839
 3829SOL    HW112386   2.505   4.990   3.770
 3829SOL    HW212387   2.527   4.962   3.929
 3830SOL     OW12388   2.531   0.504   5.038
 3830SOL    HW112389   2.441   0.509   4.995
 3830SOL    HW212390   2.538   0.577   5.107
 3831SOL     OW12391   3.886   1.749   2.525
 3831SOL    HW112392   3.818   1.775   2.593
 3831SOL    HW212393   3.872   1.653   2.500
 3832SOL     OW12394   6.771   0.867   1.955
 3832SOL    HW112395   6.811   0.845   2.043
 3832SOL    HW212396   6.777   0.965   1.939
 3833SOL     OW12397   0.691   5.045   6.809
 3833SOL    HW112398   0.680   5.002   6.898
 3833SOL    HW212399   0.667   4.979   6.737
 3834SOL     OW12400   3.313   1.574   0.575
 3834SOL    HW112401   3.370   1.497   0.547
 3834SOL    HW212402   3.238   1.542   0.632
 3835SOL     OW12403   3.636   5.342   5.395
 3835SOL    HW112404   3.716   5.283   5.390
 3835SOL    HW212405   3.567   5.300   5.453
 3836SOL     OW12406   1.268   3.908   6.145
 3836SOL    HW112407   1.312   3.823   6.116
 3836SOL    HW212408   1.315   3.986   6.104
 3837SOL     OW12409   4.184   3.684   0.650
 3837SOL    HW112410   4.275   3.710   0.617
 3837SOL    HW212411   4.191   3.652   0.744
 3838SOL     OW12412   6.602   2.707   4.938
 3838SOL    HW112413   6.622   2.611   4.920
 3838SOL    HW212414   6.629   2.731   5.031
 3839SOL     OW12415   5.825   5.906   5.557
 3839SOL    HW112416   5.925   5.900   5.546
 3839SOL    HW212417   5.780   5.870   5.476
 3840SOL     OW12418   1.926   1.189   4.035
 3840SOL    HW112419   1.994   1.129   3.993
 3840SOL    HW212420   1.920   1.169   4.133
 3841SOL     OW12421   0.618   3.375   5.631
 3841SOL    HW112422   0.567   3.291   5.648
 3841SOL    HW212423   0.654   3.374   5.538
 3842SOL     OW12424   0.839   5.266   6.801
 3842SOL    HW112425   0.877   5.284   6.710
 3842SOL    HW212426   0.804   5.172   6.805
 3843SOL     OW12427   6.279   3.017   0.770
 3843SOL    HW112428   6.186   3.039   0.799
 3843SOL    HW212429   6.336   2.999   0.850
 3844SOL     OW12430   1.732   4.909   6.342
 3844SOL    HW112431   1.806   4.873   6.399
 3844SOL    HW212432   1.650   4.853   6.356
 3845SOL     OW12433   3.023   3.945   3.493
 3845SOL    HW112434   3.073   4.028   3.469
 3845SOL    HW212435   3.041   3.874   3.425
 3846SOL     OW12436   0.041   4.785   4.918
 3846SOL    HW112437   0.047   4.686   4.924
 3846SOL    HW212438   0.099   4.818   4.843
 3847SOL     OW12439   0.545   6.886   6.768
 3847SOL    HW112440   0.595   6.870   6.853
 3847SOL    HW212441   0.471   6.950   6.784
 3848SOL     OW12442   2.399   5.053   1.389
 3848SOL    HW112443   2.325   5.014   1.443
 3848SOL    HW212444   2.421   5.144   1.422
 3849SOL     OW12445   1.044   2.064   5.540
 3849SOL    HW112446   0.959   2.028   5.580
 3849SOL    HW212447   1.054   2.028   5.447
 3850SOL     OW12448   3.394   4.123   1.890
 3850SOL    HW112449   3.311   4.144   1.839
 3850SOL    HW212450   3.472   4.170   1.848
 3851SOL     OW12451   2.217   2.794   2.834
 3851SOL    HW112452   2.189   2.885   2.803
 3851SOL    HW212453   2.269   2.748   2.762
 3852SOL     OW12454   3.751   0.895   4.733
 3852SOL    HW112455   3.826   0.846   4.688
 3852SOL    HW212456   3.747   0.988   4.699
 3853SOL     OW12457   0.998   3.617   1.532
 3853SOL    HW112458   0.983   3.518   1.530
 3853SOL    HW212459   1.047   3.641   1.616
 3854SOL     OW12460   1.280   3.314   4.414
 3854SOL    HW112461   1.364   3.262   4.432
 3854SOL    HW212462   1.267   3.322   4.315
 3855SOL     OW12463   6.460   3.033   5.649
 3855SOL    HW112464   6.418   2.959   5.700
 3855SOL    HW212465   6.530   2.997   5.588
 3856SOL     OW12466   0.665   6.299   6.222
 3856SOL    HW112467   0.673   6.199   6.217
 3856SOL    HW212468   0.568   6.324   6.225
 3857SOL     OW12469   0.565   6.587   5.079
 3857SOL    HW112470   0.512   6.523   5.024
 3857SOL    HW212471   0.507   6.665   5.103
 3858SOL     OW12472   2.629   6.039   7.005
 3858SOL    HW112473   2.706   6.027   6.941
 3858SOL    HW212474   2.617   5.955   0.038
 3859SOL     OW12475   0.432   2.991   2.297
 3859SOL    HW112476   0.498   2.942   2.241
 3859SOL    HW212477   0.480   3.042   2.368
 3860SOL     OW12478   2.244   0.128   5.820
 3860SOL    HW112479   2.279   0.166   5.906
 3860SOL    HW212480   2.319   0.083   5.771
 3861SOL     OW12481   4.536   4.489   0.812
 3861SOL    HW112482   4.439   4.485   0.835
 3861SOL    HW212483   4.588   4.523   0.890
 3862SOL     OW12484   1.397   5.967   6.081
 3862SOL    HW112485   1.398   5.964   6.181
 3862SOL    HW212486   1.303   5.982   6.050
 3863SOL     OW12487   3.246   3.715   1.342
 3863SOL    HW112488   3.345   3.720   1.356
 3863SOL    HW212489   3.204   3.664   1.418
 3864SOL     OW12490   3.119   2.349   0.098
 3864SOL    HW112491   3.092   2.262   0.058
 3864SOL    HW212492   3.103   2.347   0.197
 3865SOL     OW12493   4.920   0.053   2.559
 3865SOL    HW112494   4.822   0.033   2.553
 3865SOL    HW212495   4.972   6.988   2.548
 3866SOL     OW12496   3.975   6.602   6.707
 3866SOL    HW112497   3.948   6.620   6.802
 3866SOL    HW212498   3.913   6.651   6.645
 3867SOL     OW12499   1.880   3.459   3.608
 3867SOL    HW112500   1.963   3.511   3.589
 3867SOL    HW212501   1.851   3.411   3.525
 3868SOL     OW12502   1.581   5.814   2.796
 3868SOL    HW112503   1.607   5.852   2.707
 3868SOL    HW212504   1.513   5.874   2.838
 3869SOL     OW12505   1.048   3.053   3.573
 3869SOL    HW112506   1.066   3.044   3.671
 3869SOL    HW212507   0.952   3.032   3.554
 3870SOL     OW12508   2.673   4.612   0.323
 3870SOL    HW112509   2.717   4.682   0.379
 3870SOL    HW212510   2.659   4.647   0.230
 3871SOL     OW12511   2.560   0.376   3.321
 3871SOL    HW112512   2.595   0.454   3.269
 3871SOL    HW212513   2.635   0.330   3.368
 3872SOL     OW12514   3.887   3.929   0.553
 3872SOL    HW112515   3.869   3.839   0.594
 3872SOL    HW212516   3.985   3.940   0.537
 3873SOL     OW12517   4.907   4.868   2.125
 3873SOL    HW112518   4.929   4.952   2.075
 3873SOL    HW212519   4.968   4.859   2.204
 3874SOL     OW12520   4.330   0.286   6.155
 3874SOL    HW112521   4.321   0.347   6.076
 3874SOL    HW212522   4.327   0.191   6.124
 3875SOL     OW12523   1.471   5.064   1.078
 3875SOL    HW112524   1.411   5.027   1.149
 3875SOL    HW212525   1.526   4.990   1.040
 3876SOL     OW12526   4.883   3.668   3.174
 3876SOL    HW112527   4.868   3.577   3.212
 3876SOL    HW212528   4.870   3.737   3.245
 3877SOL     OW12529   5.542   1.129   2.366
 3877SOL    HW112530   5.505   1.042   2.401
 3877SOL    HW212531   5.521   1.202   2.431
 3878SOL     OW12532   2.968   6.002   5.411
 3878SOL    HW112533   2.872   5.983   5.430
 3878SOL    HW212534   3.007   6.057   5.485
 3879SOL     OW12535   4.126   6.207   1.548
 3879SOL    HW112536   4.070   6.143   1.496
 3879SOL    HW212537   4.070   6.249   1.619
 3880SOL     OW12538   5.561   3.224   4.000
 3880SOL    HW112539   5.531   3.153   3.936
 3880SOL    HW212540   5.642   3.269   3.964
 3881SOL     OW12541   1.472   3.830   0.699
 3881SOL    HW112542   1.463   3.860   0.604
 3881SOL    HW212543   1.568   3.808   0.717
 3882SOL     OW12544   0.566   0.145   6.387
 3882SOL    HW112545   0.592   0.055   6.349
 3882SOL    HW212546   0.527   0.201   6.314
 3883SOL     OW12547   3.184   0.728   6.056
 3883SOL    HW112548   3.182   0.827   6.039
 3883SOL    HW212549   3.113   0.703   6.121
 3884SOL     OW12550   1.468   4.949   6.020
 3884SOL    HW112551   1.411   4.902   5.953
 3884SOL    HW212552   1.564   4.936   5.997
 3885SOL     OW12553   0.119   1.292   4.347
 3885SOL    HW112554   0.217   1.297   4.363
 3885SOL    HW212555   0.098   1.208   4.297
 3886SOL     OW12556   6.703   5.999   5.276
 3886SOL    HW112557   6.670   6.077   5.329
 3886SOL    HW212558   6.703   6.023   5.179
 3887SOL     OW12559   4.282   2.773   5.614
 3887SOL    HW112560   4.243   2.856   5.576
 3887SOL    HW212561   4.312   2.712   5.540
 3888SOL     OW12562   6.231   2.096   0.771
 3888SOL    HW112563   6.151   2.070   0.718
 3888SOL    HW212564   6.240   2.196   0.771
 3889SOL     OW12565   0.960   5.677   6.669
 3889SOL    HW112566   0.876   5.719   6.703
 3889SOL    HW212567   1.019   5.652   6.746
 3890SOL     OW12568   5.831   3.734   2.467
 3890SOL    HW112569   5.923   3.760   2.499
 3890SOL    HW212570   5.764   3.755   2.538
 3891SOL     OW12571   5.909   4.866   5.464
 3891SOL    HW112572   5.926   4.960   5.433
 3891SOL    HW212573   5.812   4.854   5.483
 3892SOL     OW12574   5.029   7.013   3.398
 3892SOL    HW112575   4.937   0.029   3.385
 3892SOL    HW212576   5.056   6.959   3.319
 3893SOL     OW12577   2.994   6.348   3.903
 3893SOL    HW112578   3.030   6.442   3.905
 3893SOL    HW212579   2.899   6.350   3.873
 3894SOL     OW12580   5.093   4.285   0.315
 3894SOL    HW112581   5.044   4.250   0.394
 3894SOL    HW212582   5.038   4.271   0.232
 3895SOL     OW12583   1.850   1.997   5.791
 3895SOL    HW112584   1.941   1.957   5.805
 3895SOL    HW212585   1.837   2.073   5.854
 3896SOL     OW12586   6.698   2.315   5.779
 3896SOL    HW112587   6.679   2.227   5.737
 3896SOL    HW212588   6.742   2.375   5.712
 3897SOL     OW12589   3.398   6.361   2.393
 3897SOL    HW112590   3.319   6.319   2.438
 3897SOL    HW212591   3.449   6.415   2.460
 3898SOL     OW12592   3.693   3.963   4.222
 3898SOL    HW112593   3.772   3.945   4.164
 3898SOL    HW212594   3.635   3.882   4.226
 3899SOL     OW12595   4.736   1.586   4.880
 3899SOL    HW112596   4.675   1.548   4.948
 3899SOL    HW212597   4.810   1.522   4.861
 3900SOL     OW12598   6.738   2.612   3.823
 3900SOL    HW112599   6.801   2.572   3.756
 3900SOL    HW212600   6.648   2.569   3.814
 3901SOL     OW12601   2.171   5.845   5.127
 3901SOL    HW112602   2.260   5.819   5.088
 3901SOL    HW212603   2.147   5.781   5.199
 3902SOL     OW12604   4.359   5.075   1.493
 3902SOL    HW112605   4.394   4.982   1.502
 3902SOL    HW212606   4.435   5.137   1.471
 3903SOL     OW12607   3.659   3.060   6.186
 3903SOL    HW112608   3.647   2.994   6.111
 3903SOL    HW212609   3.656   3.012   6.273
 3904SOL     OW12610   1.960   6.218   0.448
 3904SOL    HW112611   2.039   6.271   0.481
 3904SOL    HW212612   1.886   6.224   0.514
 3905SOL     OW12613   0.093   0.167   5.358
 3905SOL    HW112614   0.160   0.203   5.293
 3905SOL    HW212615   0.008   0.220   5.351
 3906SOL     OW12616   0.553   5.444   4.924
 3906SOL    HW112617   0.509   5.428   5.012
 3906SOL    HW212618   0.493   5.414   4.850
 3907SOL     OW12619   0.952   0.918   4.630
 3907SOL    HW112620   0.973   0.899   4.534
 3907SOL    HW212621   0.855   0.903   4.646
 3908SOL     OW12622   1.875   0.381   4.647
 3908SOL    HW112623   1.885   0.282   4.639
 3908SOL    HW212624   1.880   0.423   4.557
 3909SOL     OW12625   6.054   2.470   0.886
 3909SOL    HW112626   5.970   2.521   0.871
 3909SOL    HW212627   6.094   2.497   0.974
 3910SOL     OW12628   3.093   2.819   1.061
 3910SOL    HW112629   3.132   2.904   1.024
 3910SOL    HW212630   3.152   2.787   1.136
 3911SOL     OW12631   6.281   0.811   0.800
 3911SOL    HW112632   6.333   0.775   0.878
 3911SOL    HW212633   6.184   0.791   0.813
 3912SOL     OW12634   3.697   3.099   0.203
 3912SOL    HW112635   3.788   3.102   0.161
 3912SOL    HW212636   3.692   3.166   0.276
 3913SOL     OW12637   4.593   5.735   1.677
 3913SOL    HW112638   4.543   5.787   1.746
 3913SOL    HW212639   4.620   5.646   1.714
 3914SOL     OW12640   0.176   1.026   0.821
 3914SOL    HW112641   0.265   1.071   0.827
 3914SOL    HW212642   0.121   1.071   0.751
 3915SOL     OW12643   4.928   5.764   5.792
 3915SOL    HW112644   4.866   5.706   5.739
 3915SOL    HW212645   4.877   5.842   5.829
 3916SOL     OW12646   2.364   2.020   2.856
 3916SOL    HW112647   2.364   1.944   2.922
 3916SOL    HW212648   2.423   2.093   2.889
 3917SOL     OW12649   3.665   4.464   1.440
 3917SOL    HW112650   3.743   4.525   1.452
 3917SOL    HW212651   3.620   4.451   1.528
 3918SOL     OW12652   5.197   1.105   0.468
 3918SOL    HW112653   5.158   1.146   0.385
 3918SOL    HW212654   5.279   1.155   0.495
 3919SOL     OW12655   4.213   6.204   2.478
 3919SOL    HW112656   4.256   6.229   2.565
 3919SOL    HW212657   4.225   6.105   2.463
 3920SOL     OW12658   2.970   1.717   5.476
 3920SOL    HW112659   3.031   1.707   5.398
 3920SOL    HW212660   2.950   1.814   5.491
 3921SOL     OW12661   6.789   2.920   6.136
 3921SOL    HW112662   6.854   2.922   6.212
 3921SOL    HW212663   6.696   2.909   6.172
 3922SOL     OW12664   4.877   3.902   2.972
 3922SOL    HW112665   4.899   3.877   2.878
 3922SOL    HW212666   4.846   3.820   3.022
 3923SOL     OW12667   4.961   1.022   1.490
 3923SOL    HW112668   4.955   1.122   1.482
 3923SOL    HW212669   5.041   0.989   1.440
 3924SOL     OW12670   5.711   5.070   4.123
 3924SOL    HW112671   5.694   5.168   4.119
 3924SOL    HW212672   5.676   5.026   4.040
 3925SOL     OW12673   5.139   4.402   0.893
 3925SOL    HW112674   5.167   4.365   0.804
 3925SOL    HW212675   5.055   4.357   0.923
 3926SOL     OW12676   0.703   5.758   5.386
 3926SOL    HW112677   0.606   5.770   5.407
 3926SOL    HW212678   0.755   5.831   5.431
 3927SOL     OW12679   5.280   2.323   5.360
 3927SOL    HW112680   5.285   2.235   5.313
 3927SOL    HW212681   5.209   2.379   5.318
 3928SOL     OW12682   3.390   5.833   2.157
 3928SOL    HW112683   3.331   5.753   2.145
 3928SOL    HW212684   3.429   5.859   2.068
 3929SOL     OW12685   0.471   1.859   5.284
 3929SOL    HW112686   0.417   1.901   5.211
 3929SOL    HW212687   0.410   1.824   5.355
 3930SOL     OW12688   2.199   4.661   3.887
 3930SOL    HW112689   2.184   4.653   3.986
 3930SOL    HW212690   2.244   4.579   3.853
 3931SOL     OW12691   1.725   2.820   1.565
 3931SOL    HW112692   1.757   2.788   1.654
 3931SOL    HW212693   1.681   2.744   1.517
 3932SOL     OW12694   2.502   4.592   4.016
 3932SOL    HW112695   2.468   4.686   4.012
 3932SOL    HW212696   2.454   4.542   4.088
 3933SOL     OW12697   1.826   6.136   1.272
 3933SOL    HW112698   1.906   6.181   1.232
 3933SOL    HW212699   1.800   6.183   1.356
 3934SOL     OW12700   0.679   0.372   2.084
 3934SOL    HW112701   0.766   0.422   2.081
 3934SOL    HW212702   0.626   0.392   2.002
 3935SOL     OW12703   6.629   3.599   5.721
 3935SOL    HW112704   6.539   3.632   5.750
 3935SOL    HW212705   6.699   3.634   5.784
 3936SOL     OW12706   6.361   4.368   5.646
 3936SOL    HW112707   6.461   4.367   5.637
 3936SOL    HW212708   6.325   4.456   5.617
 3937SOL     OW12709   0.497   6.347   1.517
 3937SOL    HW112710   0.532   6.402   1.593
 3937SOL    HW212711   0.470   6.257   1.552
 3938SOL     OW12712   1.163   3.437   1.724
 3938SOL    HW112713   1.073   3.395   1.711
 3938SOL    HW212714   1.219   3.421   1.642
 3939SOL     OW12715   1.125   0.716   3.135
 3939SOL    HW112716   1.067   0.669   3.068
 3939SOL    HW212717   1.078   0.718   3.223
 3940SOL     OW12718   3.156   6.043   0.573
 3940SOL    HW112719   3.157   5.980   0.496
 3940SOL    HW212720   3.104   6.125   0.549
 3941SOL     OW12721   5.480   5.862   2.144
 3941SOL    HW112722   5.462   5.765   2.161
 3941SOL    HW212723   5.530   5.872   2.057
 3942SOL     OW12724   0.200   5.834   5.228
 3942SOL    HW112725   0.191   5.735   5.217
 3942SOL    HW212726   0.128   5.880   5.176
 3943SOL     OW12727   1.665   3.029   0.430
 3943SOL    HW112728   1.618   3.114   0.405
 3943SOL    HW212729   1.726   3.046   0.508
 3944SOL     OW12730   4.966   2.849   6.850
 3944SOL    HW112731   4.969   2.796   6.765
 3944SOL    HW212732   4.884   2.825   6.901
 3945SOL     OW12733   5.610   0.525   3.748
 3945SOL    HW112734   5.594   0.621   3.772
 3945SOL    HW212735   5.529   0.471   3.774
 3946SOL     OW12736   0.572   3.454   0.378
 3946SOL    HW112737   0.597   3.452   0.475
 3946SOL    HW212738   0.643   3.500   0.326
 3947SOL     OW12739   6.163   5.284   1.928
 3947SOL    HW112740   6.073   5.248   1.952
 3947SOL    HW212741   6.207   5.223   1.862
 3948SOL     OW12742   1.462   3.260   5.827
 3948SOL    HW112743   1.467   3.231   5.923
 3948SOL    HW212744   1.406   3.196   5.776
 3949SOL     OW12745   5.894   0.252   1.807
 3949SOL    HW112746   5.887   0.221   1.712
 3949SOL    HW212747   5.906   0.351   1.809
 3950SOL     OW12748   2.903   4.618   1.587
 3950SOL    HW112749   2.929   4.537   1.534
 3950SOL    HW212750   2.876   4.590   1.679
 3951SOL     OW12751   0.767   2.476   4.519
 3951SOL    HW112752   0.818   2.479   4.605
 3951SOL    HW212753   0.724   2.564   4.503
 3952SOL     OW12754   5.415   3.612   0.440
 3952SOL    HW112755   5.496   3.577   0.488
 3952SOL    HW212756   5.442   3.652   0.353
 3953SOL     OW12757   3.307   3.265   6.910
 3953SOL    HW112758   3.359   3.242   6.992
 3953SOL    HW212759   3.211   3.239   6.922
 3954SOL     OW12760   0.514   2.455   5.952
 3954SOL    HW112761   0.492   2.468   6.049
 3954SOL    HW212762   0.441   2.401   5.909
 3955SOL     OW12763   0.096   3.823   0.537
 3955SOL    HW112764   0.094   3.908   0.485
 3955SOL    HW212765   0.190   3.798   0.557
 3956SOL     OW12766   6.611   2.980   5.382
 3956SOL    HW112767   6.602   3.051   5.313
 3956SOL    HW212768   6.528   2.924   5.384
 3957SOL     OW12769   0.734   1.373   3.275
 3957SOL    HW112770   0.673   1.399   3.350
 3957SOL    HW212771   0.725   1.275   3.258
 3958SOL     OW12772   5.393   5.838   0.260
 3958SOL    HW112773   5.400   5.936   0.245
 3958SOL    HW212774   5.298   5.814   0.281
 3959SOL     OW12775   2.705   6.271   0.935
 3959SOL    HW112776   2.682   6.288   0.839
 3959SOL    HW212777   2.635   6.214   0.976
 3960SOL     OW12778   5.435   3.555   0.953
 3960SOL    HW112779   5.498   3.488   0.993
 3960SOL    HW212780   5.353   3.508   0.920
 3961SOL     OW12781   5.470   0.197   1.334
 3961SOL    HW112782   5.480   0.237   1.425
 3961SOL    HW212783   5.378   0.213   1.301
 3962SOL     OW12784   0.929   6.599   5.907
 3962SOL    HW112785   0.997   6.633   5.972
 3962SOL    HW212786   0.905   6.505   5.929
 3963SOL     OW12787   4.489   5.459   3.248
 3963SOL    HW112788   4.498   5.557   3.265
 3963SOL    HW212789   4.544   5.434   3.168
 3964SOL     OW12790   6.128   6.721   6.006
 3964SOL    HW112791   6.177   6.746   5.923
 3964SOL    HW212792   6.183   6.656   6.059
 3965SOL     OW12793   4.129   2.778   0.163
 3965SOL    HW112794   4.082   2.846   0.219
 3965SOL    HW212795   4.061   2.721   0.115
 3966SOL     OW12796   5.867   3.377   5.581
 3966SOL    HW112797   5.897   3.468   5.609
 3966SOL    HW212798   5.906   3.309   5.643
 3967SOL     OW12799   1.986   6.820   6.715
 3967SOL    HW112800   2.047   6.766   6.773
 3967SOL    HW212801   1.988   6.784   6.622
 3968SOL     OW12802   5.645   0.575   1.357
 3968SOL    HW112803   5.638   0.475   1.355
 3968SOL    HW212804   5.603   0.613   1.275
 3969SOL     OW12805   0.420   6.080   1.921
 3969SOL    HW112806   0.406   6.173   1.886
 3969SOL    HW212807   0.513   6.071   1.955
 3970SOL     OW12808   4.684   4.437   4.288
 3970SOL    HW112809   4.590   4.432   4.322
 3970SOL    HW212810   4.706   4.354   4.238
 3971SOL     OW12811   1.421   6.122   3.714
 3971SOL    HW112812   1.499   6.151   3.658
 3971SOL    HW212813   1.353   6.076   3.656
 3972SOL     OW12814   1.257   0.473   0.065
 3972SOL    HW112815   1.330   0.418   0.024
 3972SOL    HW212816   1.168   0.438   0.034
 3973SOL     OW12817   3.257   2.903   2.591
 3973SOL    HW112818   3.189   2.936   2.525
 3973SOL    HW212819   3.234   2.936   2.682
 3974SOL     OW12820   5.504   0.799   6.071
 3974SOL    HW112821   5.543   0.820   6.160
 3974SOL    HW212822   5.405   0.814   6.074
 3975SOL     OW12823   6.963   6.016   5.673
 3975SOL    HW112824   6.966   5.957   5.592
 3975SOL    HW212825   6.869   6.021   5.707
 3976SOL     OW12826   1.222   3.197   6.526
 3976SOL    HW112827   1.315   3.194   6.564
 3976SOL    HW212828   1.160   3.239   6.592
 3977SOL     OW12829   3.845   6.245   5.989
 3977SOL    HW112830   3.902   6.265   5.909
 3977SOL    HW212831   3.868   6.154   6.023
 3978SOL     OW12832   6.216   4.266   6.910
 3978SOL    HW112833   6.168   4.351   6.889
 3978SOL    HW212834   6.194   4.238   7.003
 3979SOL     OW12835   0.992   6.579   3.449
 3979SOL    HW112836   1.043   6.655   3.409
 3979SOL    HW212837   0.897   6.583   3.419
 3980SOL     OW12838   4.958   3.500   4.834
 3980SOL    HW112839   4.920   3.415   4.799
 3980SOL    HW212840   4.892   3.543   4.896
 3981SOL     OW12841   6.484   2.238   5.442
 3981SOL    HW112842   6.499   2.309   5.511
 3981SOL    HW212843   6.409   2.266   5.381
 3982SOL     OW12844   2.422   2.242   3.679
 3982SOL    HW112845   2.508   2.200   3.704
 3982SOL    HW212846   2.378   2.281   3.760
 3983SOL     OW12847   3.825   6.510   3.884
 3983SOL    HW112848   3.851   6.419   3.916
 3983SOL    HW212849   3.732   6.507   3.848
 3984SOL     OW12850   1.221   0.466   1.470
 3984SOL    HW112851   1.256   0.421   1.388
 3984SOL    HW212852   1.163   0.403   1.521
 3985SOL     OW12853   1.364   3.218   1.847
 3985SOL    HW112854   1.436   3.212   1.916
 3985SOL    HW212855   1.359   3.311   1.813
 3986SOL     OW12856   0.799   2.664   1.994
 3986SOL    HW112857   0.780   2.691   1.900
 3986SOL    HW212858   0.890   2.622   1.999
 3987SOL     OW12859   1.889   4.150   6.292
 3987SOL    HW112860   1.799   4.117   6.264
 3987SOL    HW212861   1.956   4.123   6.223
 3988SOL     OW12862   4.853   1.777   7.013
 3988SOL    HW112863   4.835   1.708   0.061
 3988SOL    HW212864   4.920   1.842   0.027
 3989SOL     OW12865   4.277   0.881   6.828
 3989SOL    HW112866   4.286   0.958   6.892
 3989SOL    HW212867   4.215   0.907   6.754
 3990SOL     OW12868   1.509   2.416   3.863
 3990SOL    HW112869   1.586   2.473   3.836
 3990SOL    HW212870   1.448   2.402   3.785
 3991SOL     OW12871   0.153   1.065   4.189
 3991SOL    HW112872   0.219   0.996   4.217
 3991SOL    HW212873   0.062   1.023   4.181
 3992SOL     OW12874   5.285   3.792   6.473
 3992SOL    HW112875   5.264   3.857   6.546
 3992SOL    HW212876   5.208   3.786   6.410
 3993SOL     OW12877   1.552   1.454   3.696
 3993SOL    HW112878   1.586   1.371   3.653
 3993SOL    HW212879   1.627   1.520   3.705
 3994SOL     OW12880   2.637   1.719   4.136
 3994SOL    HW112881   2.656   1.622   4.121
 3994SOL    HW212882   2.608   1.761   4.050
 3995SOL     OW12883   1.230   3.669   1.810
 3995SOL    HW112884   1.306   3.666   1.875
 3995SOL    HW212885   1.202   3.576   1.787
 3996SOL     OW12886   5.916   6.530   3.605
 3996SOL    HW112887   5.846   6.482   3.658
 3996SOL    HW212888   5.952   6.469   3.534
 3997SOL     OW12889   5.475   3.635   2.948
 3997SOL    HW112890   5.422   3.642   3.033
 3997SOL    HW212891   5.478   3.539   2.918
 3998SOL     OW12892   5.659   2.215   2.980
 3998SOL    HW112893   5.712   2.138   2.946
 3998SOL    HW212894   5.590   2.241   2.913
 3999SOL     OW12895   5.099   2.655   1.418
 3999SOL    HW112896   5.070   2.651   1.322
 3999SOL    HW212897   5.035   2.603   1.474
 4000SOL     OW12898   3.418   4.883   2.474
 4000SOL    HW112899   3.448   4.961   2.528
 4000SOL    HW212900   3.378   4.915   2.388
 4001SOL     OW12901   1.468   4.583   4.415
 4001SOL    HW112902   1.479   4.682   4.420
 4001SOL    HW212903   1.536   4.545   4.352
 4002SOL     OW12904   3.363   4.075   3.518
 4002SOL    HW112905   3.406   4.098   3.605
 4002SOL    HW212906   3.319   3.986   3.525
 4003SOL     OW12907   2.435   1.338   5.610
 4003SOL    HW112908   2.380   1.416   5.642
 4003SOL    HW212909   2.524   1.371   5.579
 4004SOL     OW12910   1.085   3.958   3.589
 4004SOL    HW112911   1.015   3.991   3.526
 4004SOL    HW212912   1.063   3.864   3.617
 4005SOL     OW12913   4.922   3.153   0.572
 4005SOL    HW112914   4.985   3.176   0.499
 4005SOL    HW212915   4.917   3.054   0.582
 4006SOL     OW12916   4.803   5.368   3.334
 4006SOL    HW112917   4.853   5.286   3.304
 4006SOL    HW212918   4.762   5.351   3.424
 4007SOL     OW12919   6.949   1.275   3.192
 4007SOL    HW112920   0.024   1.262   3.218
 4007SOL    HW212921   6.935   1.371   3.166
 4008SOL     OW12922   3.517   0.896   0.653
 4008SOL    HW112923   3.550   0.875   0.745
 4008SOL    HW212924   3.420   0.874   0.645
 4009SOL     OW12925   4.630   2.182   0.445
 4009SOL    HW112926   4.726   2.164   0.423
 4009SOL    HW212927   4.623   2.264   0.502
 4010SOL     OW12928   2.660   5.142   1.680
 4010SOL    HW112929   2.697   5.234   1.693
 4010SOL    HW212930   2.586   5.126   1.745
 4011SOL     OW12931   4.736   5.918   0.025
 4011SOL    HW112932   4.673   5.890   0.097
 4011SOL    HW212933   4.693   5.989   6.990
 4012SOL     OW12934   4.643   6.761   2.713
 4012SOL    HW112935   4.637   6.789   2.808
 4012SOL    HW212936   4.708   6.819   2.665
 4013SOL     OW12937   0.383   1.652   6.216
 4013SOL    HW112938   0.320   1.597   6.271
 4013SOL    HW212939   0.389   1.614   6.124
 4014SOL     OW12940   3.145   5.114   2.497
 4014SOL    HW112941   3.115   5.052   2.570
 4014SOL    HW212942   3.162   5.062   2.414
 4015SOL     OW12943   4.423   4.826   6.006
 4015SOL    HW112944   4.478   4.839   5.923
 4015SOL    HW212945   4.337   4.781   5.981
 4016SOL     OW12946   4.070   5.355   5.297
 4016SOL    HW112947   4.086   5.446   5.334
 4016SOL    HW212948   4.043   5.361   5.201
 4017SOL     OW12949   0.612   4.914   5.603
 4017SOL    HW112950   0.606   4.851   5.680
 4017SOL    HW212951   0.578   4.870   5.520
 4018SOL     OW12952   4.447   6.184   2.176
 4018SOL    HW112953   4.373   6.117   2.181
 4018SOL    HW212954   4.409   6.276   2.169
 4019SOL     OW12955   5.273   3.611   3.437
 4019SOL    HW112956   5.185   3.566   3.424
 4019SOL    HW212957   5.296   3.610   3.535
 4020SOL     OW12958   6.467   5.357   4.125
 4020SOL    HW112959   6.530   5.303   4.182
 4020SOL    HW212960   6.412   5.416   4.183
 4021SOL     OW12961   4.594   3.517   6.307
 4021SOL    HW112962   4.638   3.516   6.397
 4021SOL    HW212963   4.520   3.585   6.308
 4022SOL     OW12964   2.275   0.995   1.536
 4022SOL    HW112965   2.236   1.007   1.627
 4022SOL    HW212966   2.360   0.942   1.543
 4023SOL     OW12967   0.349   1.534   4.914
 4023SOL    HW112968   0.307   1.624   4.901
 4023SOL    HW212969   0.448   1.543   4.910
 4024SOL     OW12970   0.607   5.779   4.691
 4024SOL    HW112971   0.635   5.764   4.786
 4024SOL    HW212972   0.638   5.702   4.635
 4025SOL     OW12973   6.912   5.667   3.560
 4025SOL    HW112974   6.905   5.605   3.639
 4025SOL    HW212975   6.825   5.714   3.547
 4026SOL     OW12976   6.380   6.511   3.676
 4026SOL    HW112977   6.428   6.426   3.659
 4026SOL    HW212978   6.423   6.559   3.753
 4027SOL     OW12979   2.770   3.852   5.795
 4027SOL    HW112980   2.836   3.913   5.751
 4027SOL    HW212981   2.688   3.844   5.737
 4028SOL     OW12982   4.441   1.591   2.970
 4028SOL    HW112983   4.488   1.576   3.057
 4028SOL    HW212984   4.358   1.644   2.986
 4029SOL     OW12985   1.773   5.592   6.858
 4029SOL    HW112986   1.834   5.572   6.782
 4029SOL    HW212987   1.818   5.570   6.945
 4030SOL     OW12988   0.172   1.321   2.801
 4030SOL    HW112989   0.198   1.417   2.798
 4030SOL    HW212990   0.209   1.279   2.884
 4031SOL     OW12991   6.302   6.449   1.450
 4031SOL    HW112992   6.402   6.460   1.451
 4031SOL    HW212993   6.274   6.395   1.530
 4032SOL     OW12994   5.889   0.519   1.808
 4032SOL    HW112995   5.872   0.582   1.731
 4032SOL    HW212996   5.911   0.572   1.890
 4033SOL     OW12997   1.978   2.802   2.665
 4033SOL    HW112998   1.960   2.719   2.717
 4033SOL    HW212999   1.974   2.881   2.727
 4034SOL     OW13000   0.030   3.129   5.263
 4034SOL    HW113001   0.094   3.054   5.278
 4034SOL    HW213002   7.003   3.150   5.349
 4035SOL     OW13003   5.028   1.700   1.612
 4035SOL    HW113004   5.050   1.773   1.676
 4035SOL    HW213005   5.069   1.719   1.523
 4036SOL     OW13006   2.438   5.535   2.663
 4036SOL    HW113007   2.375   5.457   2.672
 4036SOL    HW213008   2.519   5.519   2.719
 4037SOL     OW13009   2.322   0.709   5.812
 4037SOL    HW113010   2.370   0.628   5.781
 4037SOL    HW213011   2.288   0.695   5.905
 4038SOL     OW13012   3.550   3.615   5.872
 4038SOL    HW113013   3.475   3.624   5.938
 4038SOL    HW213014   3.624   3.561   5.913
 4039SOL     OW13015   6.226   4.847   1.618
 4039SOL    HW113016   6.170   4.835   1.536
 4039SOL    HW213017   6.277   4.763   1.636
 4040SOL     OW13018   3.425   5.942   4.731
 4040SOL    HW113019   3.404   5.870   4.664
 4040SOL    HW213020   3.434   5.900   4.822
 4041SOL     OW13021   2.726   6.323   0.619
 4041SOL    HW113022   2.655   6.272   0.571
 4041SOL    HW213023   2.734   6.415   0.579
 4042SOL     OW13024   6.061   0.784   3.777
 4042SOL    HW113025   6.152   0.795   3.738
 4042SOL    HW213026   5.995   0.838   3.724
 4043SOL     OW13027   5.128   3.528   6.589
 4043SOL    HW113028   5.214   3.547   6.542
 4043SOL    HW213029   5.137   3.444   6.643
 4044SOL     OW13030   4.501   5.252   3.402
 4044SOL    HW113031   4.508   5.336   3.349
 4044SOL    HW213032   4.480   5.176   3.342
 4045SOL     OW13033   5.173   7.015   5.403
 4045SOL    HW113034   5.203   0.015   5.496
 4045SOL    HW213035   5.156   0.079   5.354
 4046SOL     OW13036   6.612   1.858   2.216
 4046SOL    HW113037   6.607   1.896   2.308
 4046SOL    HW213038   6.655   1.924   2.155
 4047SOL     OW13039   2.931   3.557   6.882
 4047SOL    HW113040   3.029   3.558   6.863
 4047SOL    HW213041   2.900   3.463   6.893
 4048SOL     OW13042   4.585   1.362   1.854
 4048SOL    HW113043   4.564   1.445   1.906
 4048SOL    HW213044   4.571   1.380   1.756
 4049SOL     OW13045   3.652   4.474   6.593
 4049SOL    HW113046   3.698   4.456   6.506
 4049SOL    HW213047   3.720   4.493   6.663
 4050SOL     OW13048   0.288   5.534   2.858
 4050SOL    HW113049   0.341   5.468   2.911
 4050SOL    HW213050   0.191   5.520   2.875
 4051SOL     OW13051   5.107   0.987   4.904
 4051SOL    HW113052   5.143   0.905   4.948
 4051SOL    HW213053   5.175   1.024   4.841
 4052SOL     OW13054   6.479   2.539   3.751
 4052SOL    HW113055   6.459   2.450   3.709
 4052SOL    HW213056   6.407   2.604   3.729
 4053SOL     OW13057   0.859   5.116   4.641
 4053SOL    HW113058   0.877   5.130   4.543
 4053SOL    HW213059   0.936   5.069   4.683
 4054SOL     OW13060   5.222   4.027   0.654
 4054SOL    HW113061   5.168   4.011   0.736
 4054SOL    HW213062   5.290   3.954   0.644
 4055SOL     OW13063   0.933   4.089   0.795
 4055SOL    HW113064   0.997   4.163   0.819
 4055SOL    HW213065   0.955   4.054   0.704
 4056SOL     OW13066   5.005   3.278   1.015
 4056SOL    HW113067   5.058   3.230   0.945
 4056SOL    HW213068   5.067   3.323   1.079
 4057SOL     OW13069   6.661   3.203   6.780
 4057SOL    HW113070   6.753   3.166   6.795
 4057SOL    HW213071   6.607   3.191   6.864
 4058SOL     OW13072   2.639   6.251   5.667
 4058SOL    HW113073   2.599   6.201   5.744
 4058SOL    HW213074   2.658   6.188   5.592
 4059SOL     OW13075   1.226   1.430   4.676
 4059SOL    HW113076   1.306   1.412   4.733
 4059SOL    HW213077   1.212   1.528   4.668
 4060SOL     OW13078   6.365   5.901   5.214
 4060SOL    HW113079   6.269   5.876   5.222
 4060SOL    HW213080   6.401   5.925   5.304
 4061SOL     OW13081   1.806   5.172   1.210
 4061SOL    HW113082   1.749   5.246   1.176
 4061SOL    HW213083   1.896   5.177   1.166
 4062SOL     OW13084   1.784   1.712   1.734
 4062SOL    HW113085   1.769   1.808   1.757
 4062SOL    HW213086   1.752   1.694   1.641
 4063SOL     OW13087   5.362   1.655   0.342
 4063SOL    HW113088   5.453   1.694   0.335
 4063SOL    HW213089   5.338   1.609   0.257
 4064SOL     OW13090   1.810   1.907   5.269
 4064SOL    HW113091   1.852   1.998   5.271
 4064SOL    HW213092   1.782   1.886   5.176
 4065SOL     OW13093   2.216   7.018   0.809
 4065SOL    HW113094   2.169   0.058   0.745
 4065SOL    HW213095   2.284   0.049   0.861
 4066SOL     OW13096   0.192   4.196   3.473
 4066SOL    HW113097   0.216   4.291   3.450
 4066SOL    HW213098   0.096   4.191   3.499
 4067SOL     OW13099   4.880   4.900   1.503
 4067SOL    HW113100   4.851   4.896   1.599
 4067SOL    HW213101   4.880   4.807   1.465
 4068SOL     OW13102   1.946   3.011   5.018
 4068SOL    HW113103   1.993   2.945   4.961
 4068SOL    HW213104   2.007   3.041   5.091
 4069SOL     OW13105   4.059   6.919   6.841
 4069SOL    HW113106   4.092   7.010   6.818
 4069SOL    HW213107   3.979   6.926   6.900
 4070SOL     OW13108   1.406   3.208   3.105
 4070SOL    HW113109   1.458   3.148   3.166
 4070SOL    HW213110   1.404   3.301   3.143
 4071SOL     OW13111   0.460   0.595   4.021
 4071SOL    HW113112   0.558   0.576   4.018
 4071SOL    HW213113   0.418   0.565   3.934
 4072SOL     OW13114   1.769   5.494   3.629
 4072SOL    HW113115   1.810   5.490   3.720
 4072SOL    HW213116   1.832   5.539   3.566
 4073SOL     OW13117   3.125   4.841   7.008
 4073SOL    HW113118   3.039   4.869   6.965
 4073SOL    HW213119   3.109   4.821   0.084
 4074SOL     OW13120   0.891   6.028   2.841
 4074SOL    HW113121   0.928   5.942   2.876
 4074SOL    HW213122   0.809   6.053   2.892
 4075SOL     OW13123   5.650   0.292   0.630
 4075SOL    HW113124   5.635   0.340   0.716
 4075SOL    HW213125   5.614   0.199   0.638
 4076SOL     OW13126   3.129   3.484   5.165
 4076SOL    HW113127   3.161   3.389   5.166
 4076SOL    HW213128   3.087   3.504   5.076
 4077SOL     OW13129   3.977   1.972   1.623
 4077SOL    HW113130   3.944   2.060   1.657
 4077SOL    HW213131   4.075   1.964   1.641
 4078SOL     OW13132   2.709   4.817   2.503
 4078SOL    HW113133   2.614   4.844   2.486
 4078SOL    HW213134   2.729   4.732   2.455
 4079SOL     OW13135   0.813   2.387   4.142
 4079SOL    HW113136   0.780   2.311   4.198
 4079SOL    HW213137   0.912   2.380   4.130
 4080SOL     OW13138   6.190   1.198   4.902
 4080SOL    HW113139   6.175   1.117   4.844
 4080SOL    HW213140   6.252   1.261   4.856
 4081SOL     OW13141   1.522   3.649   3.803
 4081SOL    HW113142   1.433   3.604   3.804
 4081SOL    HW213143   1.567   3.638   3.892
 4082SOL     OW13144   1.002   2.819   1.053
 4082SOL    HW113145   1.021   2.725   1.082
 4082SOL    HW213146   0.905   2.838   1.064
 4083SOL     OW13147   5.591   2.459   4.565
 4083SOL    HW113148   5.643   2.532   4.521
 4083SOL    HW213149   5.635   2.371   4.548
 4084SOL     OW13150   6.894   1.716   4.349
 4084SOL    HW113151   6.922   1.795   4.403
 4084SOL    HW213152   6.907   1.735   4.251
 4085SOL     OW13153   3.697   6.279   0.374
 4085SOL    HW113154   3.606   6.286   0.415
 4085SOL    HW213155   3.707   6.350   0.304
 4086SOL     OW13156   1.744   5.029   1.421
 4086SOL    HW113157   1.786   5.089   1.353
 4086SOL    HW213158   1.679   4.968   1.376
 4087SOL     OW13159   2.117   2.016   3.320
 4087SOL    HW113160   2.105   2.028   3.221
 4087SOL    HW213161   2.214   1.998   3.339
 4088SOL     OW13162   6.582   1.832   1.087
 4088SOL    HW113163   6.501   1.801   1.137
 4088SOL    HW213164   6.664   1.805   1.138
 4089SOL     OW13165   1.149   0.752   4.073
 4089SOL    HW113166   1.214   0.690   4.115
 4089SOL    HW213167   1.172   0.763   3.976
 4090SOL     OW13168   1.980   3.881   6.302
 4090SOL    HW113169   1.927   3.796   6.304
 4090SOL    HW213170   1.919   3.959   6.311
 4091SOL     OW13171   4.562   6.021   0.417
 4091SOL    HW113172   4.475   5.971   0.414
 4091SOL    HW213173   4.634   5.964   0.378
 4092SOL     OW13174   0.735   2.839   5.016
 4092SOL    HW113175   0.647   2.844   4.969
 4092SOL    HW213176   0.734   2.898   5.096
 4093SOL     OW13177   5.244   1.246   3.644
 4093SOL    HW113178   5.194   1.178   3.697
 4093SOL    HW213179   5.194   1.268   3.561
 4094SOL     OW13180   1.838   4.124   5.294
 4094SOL    HW113181   1.929   4.098   5.260
 4094SOL    HW213182   1.827   4.223   5.286
 4095SOL     OW13183   1.024   2.988   6.192
 4095SOL    HW113184   1.101   3.027   6.142
 4095SOL    HW213185   0.985   3.058   6.252
 4096SOL     OW13186   4.585   4.832   6.768
 4096SOL    HW113187   4.678   4.853   6.795
 4096SOL    HW213188   4.568   4.734   6.778
 4097SOL     OW13189   3.541   3.509   5.632
 4097SOL    HW113190   3.447   3.517   5.599
 4097SOL    HW213191   3.547   3.548   5.724
 4098SOL     OW13192   0.440   2.492   3.324
 4098SOL    HW113193   0.343   2.480   3.345
 4098SOL    HW213194   0.450   2.518   3.228
 4099SOL     OW13195   3.222   6.043   1.999
 4099SOL    HW113196   3.288   6.012   2.068
 4099SOL    HW213197   3.271   6.065   1.915
 4100SOL     OW13198   4.125   5.380   3.877
 4100SOL    HW113199   4.184   5.460   3.871
 4100SOL    HW213200   4.129   5.343   3.969
 4101SOL     OW13201   5.895   1.327   5.948
 4101SOL    HW113202   5.836   1.384   5.892
 4101SOL    HW213203   5.970   1.382   5.985
 4102SOL     OW13204   5.928   0.947   0.167
 4102SOL    HW113205   5.977   1.033   0.173
 4102SOL    HW213206   5.858   0.943   0.239
 4103SOL     OW13207   0.293   0.676   2.355
 4103SOL    HW113208   0.205   0.632   2.336
 4103SOL    HW213209   0.310   0.676   2.453
 4104SOL     OW13210   1.672   4.631   2.801
 4104SOL    HW113211   1.625   4.714   2.772
 4104SOL    HW213212   1.765   4.631   2.762
 4105SOL     OW13213   3.520   5.319   0.416
 4105SOL    HW113214   3.518   5.419   0.410
 4105SOL    HW213215   3.571   5.291   0.497
 4106SOL     OW13216   7.001   3.952   4.804
 4106SOL    HW113217   7.004   3.864   4.757
 4106SOL    HW213218   0.051   3.955   4.875
 4107SOL     OW13219   0.425   0.024   1.625
 4107SOL    HW113220   0.459   7.000   1.542
 4107SOL    HW213221   0.394   6.976   1.690
 4108SOL     OW13222   6.657   3.427   6.629
 4108SOL    HW113223   6.657   3.349   6.691
 4108SOL    HW213224   6.563   3.450   6.604
 4109SOL     OW13225   4.190   6.510   4.064
 4109SOL    HW113226   4.267   6.573   4.059
 4109SOL    HW213227   4.152   6.511   4.157
 4110SOL     OW13228   5.275   3.335   6.131
 4110SOL    HW113229   5.197   3.274   6.147
 4110SOL    HW213230   5.316   3.362   6.218
 4111SOL     OW13231   4.249   2.767   6.793
 4111SOL    HW113232   4.297   2.793   6.877
 4111SOL    HW213233   4.238   2.668   6.791
 4112SOL     OW13234   3.643   1.797   4.140
 4112SOL    HW113235   3.570   1.777   4.206
 4112SOL    HW213236   3.623   1.883   4.093
 4113SOL     OW13237   3.511   5.021   5.366
 4113SOL    HW113238   3.605   5.025   5.331
 4113SOL    HW213239   3.494   5.102   5.423
 4114SOL     OW13240   3.126   1.867   3.747
 4114SOL    HW113241   3.029   1.881   3.767
 4114SOL    HW213242   3.178   1.947   3.777
 4115SOL     OW13243   4.914   5.086   1.967
 4115SOL    HW113244   4.931   5.143   1.887
 4115SOL    HW213245   4.878   5.143   2.041
 4116SOL     OW13246   3.670   1.988   1.772
 4116SOL    HW113247   3.736   2.058   1.745
 4116SOL    HW213248   3.592   2.032   1.817
 4117SOL     OW13249   0.902   5.387   1.355
 4117SOL    HW113250   0.961   5.440   1.416
 4117SOL    HW213251   0.945   5.298   1.337
 4118SOL     OW13252   1.457   6.761   0.644
 4118SOL    HW113253   1.500   6.757   0.734
 4118SOL    HW213254   1.407   6.676   0.628
 4119SOL     OW13255   3.602   0.675   4.190
 4119SOL    HW113256   3.539   0.645   4.119
 4119SOL    HW213257   3.695   0.651   4.165
 4120SOL     OW13258   4.087   6.812   1.684
 4120SOL    HW113259   4.079   6.902   1.725
 4120SOL    HW213260   3.996   6.778   1.660
 4121SOL     OW13261   6.883   2.593   4.575
 4121SOL    HW113262   6.873   2.551   4.485
 4121SOL    HW213263   6.891   2.692   4.565
 4122SOL     OW13264   0.608   6.340   5.499
 4122SOL    HW113265   0.635   6.338   5.595
 4122SOL    HW213266   0.575   6.431   5.476
 4123SOL     OW13267   5.725   3.924   5.763
 4123SOL    HW113268   5.672   4.006   5.743
 4123SOL    HW213269   5.823   3.944   5.749
 4124SOL     OW13270   5.477   6.621   4.161
 4124SOL    HW113271   5.392   6.582   4.195
 4124SOL    HW213272   5.501   6.701   4.216
 4125SOL     OW13273   4.558   0.905   1.280
 4125SOL    HW113274   4.549   0.965   1.359
 4125SOL    HW213275   4.591   0.957   1.201
 4126SOL     OW13276   2.057   4.356   4.498
 4126SOL    HW113277   2.118   4.277   4.495
 4126SOL    HW213278   2.110   4.440   4.507
 4127SOL     OW13279   5.528   3.139   4.811
 4127SOL    HW113280   5.468   3.218   4.818
 4127SOL    HW213281   5.570   3.120   4.900
 4128SOL     OW13282   1.562   3.614   2.364
 4128SOL    HW113283   1.469   3.622   2.399
 4128SOL    HW213284   1.601   3.526   2.392
 4129SOL     OW13285   5.704   2.436   5.792
 4129SOL    HW113286   5.761   2.450   5.711
 4129SOL    HW213287   5.634   2.368   5.771
 4130SOL     OW13288   6.502   4.410   6.291
 4130SOL    HW113289   6.476   4.367   6.377
 4130SOL    HW213290   6.420   4.441   6.243
 4131SOL     OW13291   6.870   5.181   4.012
 4131SOL    HW113292   6.901   5.267   3.972
 4131SOL    HW213293   6.897   5.178   4.108
 4132SOL     OW13294   4.864   3.422   3.239
 4132SOL    HW113295   4.927   3.428   3.317
 4132SOL    HW213296   4.785   3.367   3.265
 4133SOL     OW13297   2.701   1.060   1.156
 4133SOL    HW113298   2.663   1.002   1.084
 4133SOL    HW213299   2.644   1.053   1.238
 4134SOL     OW13300   2.443   1.551   0.224
 4134SOL    HW113301   2.437   1.586   0.317
 4134SOL    HW213302   2.364   1.582   0.171
 4135SOL     OW13303   1.964   0.780   2.629
 4135SOL    HW113304   1.958   0.732   2.716
 4135SOL    HW213305   1.946   0.716   2.554
 4136SOL     OW13306   0.123   2.453   3.948
 4136SOL    HW113307   0.214   2.438   3.986
 4136SOL    HW213308   0.070   2.511   4.010
 4137SOL     OW13309   3.613   3.749   6.310
 4137SOL    HW113310   3.701   3.779   6.274
 4137SOL    HW213311   3.588   3.661   6.269
 4138SOL     OW13312   4.208   4.720   4.090
 4138SOL    HW113313   4.227   4.714   3.992
 4138SOL    HW213314   4.287   4.687   4.141
 4139SOL     OW13315   1.705   1.907   6.117
 4139SOL    HW113316   1.610   1.928   6.095
 4139SOL    HW213317   1.765   1.974   6.073
 4140SOL     OW13318   3.801   0.777   5.179
 4140SOL    HW113319   3.825   0.816   5.268
 4140SOL    HW213320   3.804   0.848   5.109
 4141SOL     OW13321   5.365   4.963   0.626
 4141SOL    HW113322   5.450   4.915   0.605
 4141SOL    HW213323   5.297   4.946   0.554
 4142SOL     OW13324   6.642   4.256   1.032
 4142SOL    HW113325   6.568   4.290   1.089
 4142SOL    HW213326   6.617   4.263   0.936
 4143SOL     OW13327   6.658   2.985   1.347
 4143SOL    HW113328   6.648   2.886   1.332
 4143SOL    HW213329   6.605   3.013   1.427
 4144SOL     OW13330   5.137   1.357   1.900
 4144SOL    HW113331   5.183   1.270   1.886
 4144SOL    HW213332   5.064   1.346   1.967
 4145SOL     OW13333   1.597   0.332   1.626
 4145SOL    HW113334   1.608   0.267   1.551
 4145SOL    HW213335   1.582   0.424   1.588
 4146SOL     OW13336   5.213   0.156   6.596
 4146SOL    HW113337   5.142   0.128   6.532
 4146SOL    HW213338   5.303   0.130   6.559
 4147SOL     OW13339   3.458   2.312   5.966
 4147SOL    HW113340   3.363   2.313   5.935
 4147SOL    HW213341   3.503   2.229   5.931
 4148SOL     OW13342   6.508   0.350   3.586
 4148SOL    HW113343   6.437   0.281   3.600
 4148SOL    HW213344   6.535   0.352   3.490
 4149SOL     OW13345   6.419   3.562   1.162
 4149SOL    HW113346   6.359   3.621   1.216
 4149SOL    HW213347   6.431   3.601   1.071
 4150SOL     OW13348   5.459   0.446   6.458
 4150SOL    HW113349   5.521   0.513   6.499
 4150SOL    HW213350   5.395   0.493   6.397
 4151SOL     OW13351   0.172   6.148   0.485
 4151SOL    HW113352   0.142   6.055   0.504
 4151SOL    HW213353   0.117   6.185   0.409
 4152SOL     OW13354   4.205   4.744   2.003
 4152SOL    HW113355   4.115   4.780   1.979
 4152SOL    HW213356   4.214   4.651   1.967
 4153SOL     OW13357   6.085   4.931   6.525
 4153SOL    HW113358   6.013   5.000   6.516
 4153SOL    HW213359   6.066   4.874   6.605
 4154SOL     OW13360   6.018   3.410   5.347
 4154SOL    HW113361   6.078   3.490   5.353
 4154SOL    HW213362   5.993   3.381   5.439
 4155SOL     OW13363   1.179   3.517   2.200
 4155SOL    HW113364   1.216   3.609   2.214
 4155SOL    HW213365   1.090   3.523   2.157
 4156SOL     OW13366   5.532   6.713   5.450
 4156SOL    HW113367   5.618   6.663   5.448
 4156SOL    HW213368   5.512   6.743   5.544
 4157SOL     OW13369   4.356   0.995   3.939
 4157SOL    HW113370   4.272   0.955   3.975
 4157SOL    HW213371   4.371   1.085   3.981
 4158SOL     OW13372   0.498   4.869   3.129
 4158SOL    HW113373   0.444   4.833   3.053
 4158SOL    HW213374   0.454   4.846   3.216
 4159SOL     OW13375   0.971   2.762   4.147
 4159SOL    HW113376   0.871   2.759   4.142
 4159SOL    HW213377   1.001   2.857   4.158
 4160SOL     OW13378   6.273   0.387   0.780
 4160SOL    HW113379   6.206   0.441   0.730
 4160SOL    HW213380   6.323   0.328   0.716
 4161SOL     OW13381   1.198   1.510   6.905
 4161SOL    HW113382   1.241   1.550   6.823
 4161SOL    HW213383   1.270   1.476   6.966
 4162SOL     OW13384   6.044   6.741   4.839
 4162SOL    HW113385   5.988   6.781   4.767
 4162SOL    HW213386   6.083   6.655   4.807
 4163SOL     OW13387   5.456   1.775   3.662
 4163SOL    HW113388   5.465   1.770   3.761
 4163SOL    HW213389   5.477   1.686   3.622
 4164SOL     OW13390   1.674   0.757   6.620
 4164SOL    HW113391   1.731   0.834   6.591
 4164SOL    HW213392   1.682   0.745   6.719
 4165SOL     OW13393   3.655   6.658   1.136
 4165SOL    HW113394   3.739   6.651   1.189
 4165SOL    HW213395   3.653   6.746   1.088
 4166SOL     OW13396   4.416   3.133   0.566
 4166SOL    HW113397   4.349   3.200   0.599
 4166SOL    HW213398   4.506   3.175   0.562
 4167SOL     OW13399   2.340   2.617   1.533
 4167SOL    HW113400   2.435   2.626   1.565
 4167SOL    HW213401   2.340   2.604   1.434
 4168SOL     OW13402   0.636   5.255   1.391
 4168SOL    HW113403   0.723   5.294   1.363
 4168SOL    HW213404   0.578   5.241   1.310
 4169SOL     OW13405   4.900   3.866   3.400
 4169SOL    HW113406   4.835   3.940   3.417
 4169SOL    HW213407   4.994   3.900   3.412
 4170SOL     OW13408   3.723   2.744   5.574
 4170SOL    HW113409   3.738   2.834   5.532
 4170SOL    HW213410   3.626   2.734   5.597
 4171SOL     OW13411   5.307   3.915   1.131
 4171SOL    HW113412   5.254   3.841   1.170
 4171SOL    HW213413   5.356   3.882   1.050
 4172SOL     OW13414   0.562   1.860   1.036
 4172SOL    HW113415   0.506   1.904   1.105
 4172SOL    HW213416   0.594   1.772   1.070
 4173SOL     OW13417   5.383   2.911   4.763
 4173SOL    HW113418   5.374   3.009   4.784
 4173SOL    HW213419   5.310   2.860   4.808
 4174SOL     OW13420   4.907   0.651   3.516
 4174SOL    HW113421   4.881   0.556   3.535
 4174SOL    HW213422   4.938   0.659   3.422
 4175SOL     OW13423   3.406   6.923   3.384
 4175SOL    HW113424   3.413   6.852   3.453
 4175SOL    HW213425   3.395   7.012   3.428
 4176SOL     OW13426   4.361   6.867   2.933
 4176SOL    HW113427   4.402   6.798   2.874
 4176SOL    HW213428   4.337   6.826   3.022
 4177SOL     OW13429   0.298   6.300   3.824
 4177SOL    HW113430   0.250   6.230   3.770
 4177SOL    HW213431   0.396   6.283   3.819
 4178SOL     OW13432   3.186   2.044   5.864
 4178SOL    HW113433   3.102   1.990   5.860
 4178SOL    HW213434   3.246   2.019   5.788
 4179SOL     OW13435   5.426   3.552   5.341
 4179SOL    HW113436   5.504   3.495   5.365
 4179SOL    HW213437   5.356   3.497   5.295
 4180SOL     OW13438   4.949   4.675   1.388
 4180SOL    HW113439   5.046   4.654   1.390
 4180SOL    HW213440   4.896   4.591   1.381
 4181SOL     OW13441   0.638   1.708   6.916
 4181SOL    HW113442   0.594   1.633   6.966
 4181SOL    HW213443   0.583   1.730   6.835
 4182SOL     OW13444   6.073   0.239   2.646
 4182SOL    HW113445   6.170   0.233   2.623
 4182SOL    HW213446   6.029   0.311   2.591
 4183SOL     OW13447   1.860   1.512   1.912
 4183SOL    HW113448   1.836   1.573   1.837
 4183SOL    HW213449   1.959   1.498   1.914
 4184SOL     OW13450   3.564   5.585   0.408
 4184SOL    HW113451   3.549   5.677   0.443
 4184SOL    HW213452   3.653   5.580   0.364
 4185SOL     OW13453   0.121   0.112   3.522
 4185SOL    HW113454   0.097   0.120   3.425
 4185SOL    HW213455   0.069   0.179   3.575
 4186SOL     OW13456   2.317   3.966   0.811
 4186SOL    HW113457   2.344   4.014   0.728
 4186SOL    HW213458   2.309   3.868   0.793
 4187SOL     OW13459   3.513   3.271   6.340
 4187SOL    HW113460   3.538   3.195   6.281
 4187SOL    HW213461   3.421   3.257   6.376
 4188SOL     OW13462   4.588   0.244   3.894
 4188SOL    HW113463   4.497   0.285   3.882
 4188SOL    HW213464   4.579   0.145   3.903
 4189SOL     OW13465   2.393   1.795   4.779
 4189SOL    HW113466   2.439   1.804   4.867
 4189SOL    HW213467   2.430   1.863   4.715
 4190SOL     OW13468   3.186   1.243   6.978
 4190SOL    HW113469   3.109   1.263   0.018
 4190SOL    HW213470   3.209   1.145   6.985
 4191SOL     OW13471   6.582   2.537   2.694
 4191SOL    HW113472   6.623   2.458   2.739
 4191SOL    HW213473   6.546   2.600   2.763
 4192SOL     OW13474   5.827   1.144   3.452
 4192SOL    HW113475   5.748   1.202   3.433
 4192SOL    HW213476   5.911   1.191   3.426
 4193SOL     OW13477   2.140   6.674   2.329
 4193SOL    HW113478   2.082   6.615   2.385
 4193SOL    HW213479   2.151   6.635   2.238
 4194SOL     OW13480   0.099   1.446   3.958
 4194SOL    HW113481   0.199   1.442   3.947
 4194SOL    HW213482   0.077   1.466   4.053
 4195SOL     OW13483   5.551   0.313   1.577
 4195SOL    HW113484   5.651   0.303   1.580
 4195SOL    HW213485   5.525   0.402   1.613
 4196SOL     OW13486   5.008   2.561   4.266
 4196SOL    HW113487   4.949   2.542   4.189
 4196SOL    HW213488   4.953   2.586   4.346
 4197SOL     OW13489   4.489   4.497   4.456
 4197SOL    HW113490   4.479   4.418   4.518
 4197SOL    HW213491   4.548   4.565   4.498
 4198SOL     OW13492   6.028   4.152   0.181
 4198SOL    HW113493   5.983   4.121   0.265
 4198SOL    HW213494   6.127   4.140   0.190
 4199SOL     OW13495   3.195   3.365   4.830
 4199SOL    HW113496   3.214   3.345   4.926
 4199SOL    HW213497   3.204   3.464   4.815
 4200SOL     OW13498   2.216   0.262   0.108
 4200SOL    HW113499   2.119   0.283   0.094
 4200SOL    HW213500   2.271   0.344   0.093
 4201SOL     OW13501   5.751   6.870   3.813
 4201SOL    HW113502   5.741   6.777   3.847
 4201SOL    HW213503   5.661   6.908   3.791
 4202SOL     OW13504   5.481   4.926   5.068
 4202SOL    HW113505   5.505   4.829   5.071
 4202SOL    HW213506   5.565   4.981   5.066
 4203SOL     OW13507   5.269   5.626   2.920
 4203SOL    HW113508   5.341   5.561   2.895
 4203SOL    HW213509   5.192   5.575   2.960
 4204SOL     OW13510   2.999   2.807   1.494
 4204SOL    HW113511   3.095   2.791   1.471
 4204SOL    HW213512   2.989   2.899   1.533
 4205SOL     OW13513   2.896   5.206   4.294
 4205SOL    HW113514   2.884   5.133   4.362
 4205SOL    HW213515   2.862   5.175   4.205
 4206SOL     OW13516   5.025   0.374   4.668
 4206SOL    HW113517   4.979   0.391   4.581
 4206SOL    HW213518   5.106   0.318   4.652
 4207SOL     OW13519   1.353   1.123   1.670
 4207SOL    HW113520   1.370   1.085   1.579
 4207SOL    HW213521   1.317   1.052   1.730
 4208SOL     OW13522   1.385   2.860   0.463
 4208SOL    HW113523   1.321   2.854   0.539
 4208SOL    HW213524   1.476   2.832   0.493
 4209SOL     OW13525   2.486   6.621   5.192
 4209SOL    HW113526   2.538   6.701   5.220
 4209SOL    HW213527   2.438   6.583   5.271
 4210SOL     OW13528   4.440   2.986   0.963
 4210SOL    HW113529   4.363   2.944   0.915
 4210SOL    HW213530   4.489   3.047   0.901
 4211SOL     OW13531   4.511   4.895   3.771
 4211SOL    HW113532   4.480   4.801   3.757
 4211SOL    HW213533   4.450   4.958   3.722
 4212SOL     OW13534   6.091   1.635   2.778
 4212SOL    HW113535   6.144   1.629   2.863
 4212SOL    HW213536   6.152   1.619   2.700
 4213SOL     OW13537   1.699   1.265   2.322
 4213SOL    HW113538   1.762   1.194   2.292
 4213SOL    HW213539   1.645   1.232   2.399
 4214SOL     OW13540   0.753   3.242   4.975
 4214SOL    HW113541   0.849   3.272   4.982
 4214SOL    HW213542   0.744   3.177   4.900
 4215SOL     OW13543   0.505   5.292   4.477
 4215SOL    HW113544   0.581   5.243   4.436
 4215SOL    HW213545   0.419   5.249   4.451
 4216SOL     OW13546   1.031   2.907   4.954
 4216SOL    HW113547   0.959   2.841   4.934
 4216SOL    HW213548   1.109   2.860   4.995
 4217SOL     OW13549   6.812   0.850   3.007
 4217SOL    HW113550   6.871   0.922   2.971
 4217SOL    HW213551   6.865   0.792   3.070
 4218SOL     OW13552   3.936   0.029   1.954
 4218SOL    HW113553   3.941   0.045   1.855
 4218SOL    HW213554   3.843   0.048   1.985
 4219SOL     OW13555   4.502   5.695   4.061
 4219SOL    HW113556   4.550   5.701   4.149
 4219SOL    HW213557   4.563   5.728   3.988
 4220SOL     OW13558   6.231   3.072   4.242
 4220SOL    HW113559   6.140   3.036   4.266
 4220SOL    HW213560   6.285   3.085   4.325
 4221SOL     OW13561   5.615   5.864   6.446
 4221SOL    HW113562   5.572   5.804   6.379
 4221SOL    HW213563   5.694   5.818   6.486
 4222SOL     OW13564   5.339   2.581   1.490
 4222SOL    HW113565   5.254   2.601   1.443
 4222SOL    HW213566   5.361   2.657   1.552
 4223SOL     OW13567   3.411   4.165   2.183
 4223SOL    HW113568   3.395   4.134   2.089
 4223SOL    HW213569   3.373   4.257   2.194
 4224SOL     OW13570   4.335   2.364   4.786
 4224SOL    HW113571   4.377   2.451   4.813
 4224SOL    HW213572   4.247   2.354   4.834
 4225SOL     OW13573   5.826   6.763   5.107
 4225SOL    HW113574   5.899   6.742   5.042
 4225SOL    HW213575   5.771   6.838   5.072
 4226SOL     OW13576   0.370   1.466   4.011
 4226SOL    HW113577   0.415   1.530   4.074
 4226SOL    HW213578   0.386   1.373   4.041
 4227SOL     OW13579   4.556   4.740   0.142
 4227SOL    HW113580   4.463   4.725   0.109
 4227SOL    HW213581   4.585   4.833   0.120
 4228SOL     OW13582   6.107   5.057   3.012
 4228SOL    HW113583   6.189   5.011   2.977
 4228SOL    HW213584   6.133   5.116   3.089
 4229SOL     OW13585   5.117   5.071   5.523
 4229SOL    HW113586   5.057   4.991   5.533
 4229SOL    HW213587   5.097   5.116   5.436
 4230SOL     OW13588   3.928   0.304   4.770
 4230SOL    HW113589   3.916   0.393   4.814
 4230SOL    HW213590   3.855   0.290   4.703
 4231SOL     OW13591   4.444   0.143   5.426
 4231SOL    HW113592   4.364   0.110   5.475
 4231SOL    HW213593   4.497   0.205   5.484
 4232SOL     OW13594   2.223   4.861   2.720
 4232SOL    HW113595   2.179   4.819   2.799
 4232SOL    HW213596   2.299   4.918   2.750
 4233SOL     OW13597   6.581   6.300   0.057
 4233SOL    HW113598   6.662   6.308   7.020
 4233SOL    HW213599   6.527   6.221   0.027
 4234SOL     OW13600   3.007   4.492   6.047
 4234SOL    HW113601   3.039   4.445   6.129
 4234SOL    HW213602   3.073   4.478   5.973
 4235SOL     OW13603   6.373   3.685   5.779
 4235SOL    HW113604   6.328   3.698   5.867
 4235SOL    HW213605   6.366   3.769   5.725
 4236SOL     OW13606   1.176   2.625   4.421
 4236SOL    HW113607   1.215   2.697   4.364
 4236SOL    HW213608   1.162   2.543   4.365
 4237SOL     OW13609   5.286   3.297   4.839
 4237SOL    HW113610   5.218   3.224   4.837
 4237SOL    HW213611   5.239   3.385   4.847
 4238SOL     OW13612   4.088   5.933   4.467
 4238SOL    HW113613   4.171   5.937   4.411
 4238SOL    HW213614   4.010   5.909   4.409
 4239SOL     OW13615   4.887   6.076   5.980
 4239SOL    HW113616   4.893   6.013   6.058
 4239SOL    HW213617   4.973   6.126   5.970
 4240SOL     OW13618   2.414   4.719   6.767
 4240SOL    HW113619   2.445   4.624   6.759
 4240SOL    HW213620   2.383   4.752   6.678
 4241SOL     OW13621   4.329   0.649   0.284
 4241SOL    HW113622   4.281   0.635   0.371
 4241SOL    HW213623   4.297   0.733   0.241
 4242SOL     OW13624   2.156   0.550   2.605
 4242SOL    HW113625   2.111   0.585   2.687
 4242SOL    HW213626   2.093   0.489   2.556
 4243SOL     OW13627   1.414   3.244   2.502
 4243SOL    HW113628   1.328   3.289   2.478
 4243SOL    HW213629   1.443   3.186   2.425
 4244SOL     OW13630   4.549   6.768   1.252
 4244SOL    HW113631   4.638   6.729   1.276
 4244SOL    HW213632   4.529   6.748   1.157
 4245SOL     OW13633   6.438   3.567   0.896
 4245SOL    HW113634   6.439   3.476   0.855
 4245SOL    HW213635   6.481   3.632   0.834
 4246SOL     OW13636   5.354   1.846   3.046
 4246SOL    HW113637   5.277   1.893   3.089
 4246SOL    HW213638   5.427   1.833   3.113
 4247SOL     OW13639   1.704   4.984   5.490
 4247SOL    HW113640   1.791   5.030   5.471
 4247SOL    HW213641   1.641   5.000   5.414
 4248SOL     OW13642   2.004   0.886   3.258
 4248SOL    HW113643   1.939   0.961   3.260
 4248SOL    HW213644   1.970   0.810   3.313
 4249SOL     OW13645   6.675   6.951   5.035
 4249SOL    HW113646   6.589   6.975   5.080
 4249SOL    HW213647   6.674   6.984   4.940
 4250SOL     OW13648   0.320   5.223   3.988
 4250SOL    HW113649   0.260   5.176   3.923
 4250SOL    HW213650   0.389   5.275   3.937
 4251SOL     OW13651   6.213   1.696   5.632
 4251SOL    HW113652   6.222   1.712   5.533
 4251SOL    HW213653   6.122   1.725   5.662
 4252SOL     OW13654   6.841   6.868   0.061
 4252SOL    HW113655   6.877   6.835   0.149
 4252SOL    HW213656   6.824   6.966   0.067
 4253SOL     OW13657   4.392   5.637   2.570
 4253SOL    HW113658   4.407   5.734   2.585
 4253SOL    HW213659   4.326   5.602   2.637
 4254SOL     OW13660   1.713   2.927   0.100
 4254SOL    HW113661   1.719   2.914   0.001
 4254SOL    HW213662   1.799   2.967   0.134
 4255SOL     OW13663   1.144   3.904   2.737
 4255SOL    HW113664   1.109   3.926   2.646
 4255SOL    HW213665   1.226   3.847   2.729
 4256SOL     OW13666   0.418   5.311   1.546
 4256SOL    HW113667   0.370   5.361   1.474
 4256SOL    HW213668   0.489   5.254   1.505
 4257SOL     OW13669   5.894   0.836   4.822
 4257SOL    HW113670   5.949   0.790   4.752
 4257SOL    HW213671   5.898   0.784   4.908
 4258SOL     OW13672   3.821   5.601   7.011
 4258SOL    HW113673   3.764   5.551   6.947
 4258SOL    HW213674   3.880   5.664   6.961
 4259SOL     OW13675   1.086   0.267   2.218
 4259SOL    HW113676   0.993   0.256   2.252
 4259SOL    HW213677   1.134   0.180   2.226
 4260SOL     OW13678   5.288   0.668   4.443
 4260SOL    HW113679   5.227   0.648   4.519
 4260SOL    HW213680   5.248   0.632   4.358
 4261SOL     OW13681   1.909   6.912   3.885
 4261SOL    HW113682   1.951   6.994   3.846
 4261SOL    HW213683   1.961   6.831   3.857
 4262SOL     OW13684   1.384   4.080   6.921
 4262SOL    HW113685   1.357   4.007   6.857
 4262SOL    HW213686   1.340   4.166   6.894
 4263SOL     OW13687   2.647   2.466   3.715
 4263SOL    HW113688   2.602   2.470   3.804
 4263SOL    HW213689   2.580   2.478   3.643
 4264SOL     OW13690   4.923   0.808   4.747
 4264SOL    HW113691   4.942   0.850   4.836
 4264SOL    HW213692   4.824   0.805   4.732
 4265SOL     OW13693   3.985   1.128   0.270
 4265SOL    HW113694   3.918   1.202   0.278
 4265SOL    HW213695   3.937   1.040   0.270
 4266SOL     OW13696   1.419   6.408   1.025
 4266SOL    HW113697   1.507   6.440   0.990
 4266SOL    HW213698   1.395   6.458   1.108
 4267SOL     OW13699   1.578   4.341   4.923
 4267SOL    HW113700   1.583   4.243   4.905
 4267SOL    HW213701   1.523   4.385   4.851
 4268SOL     OW13702   1.219   4.203   6.214
 4268SOL    HW113703   1.222   4.302   6.225
 4268SOL    HW213704   1.258   4.160   6.296
 4269SOL     OW13705   2.901   1.334   4.413
 4269SOL    HW113706   2.904   1.392   4.332
 4269SOL    HW213707   2.876   1.390   4.493
 4270SOL     OW13708   4.169   2.718   0.513
 4270SOL    HW113709   4.134   2.634   0.554
 4270SOL    HW213710   4.232   2.696   0.439
 4271SOL     OW13711   6.921   0.571   1.228
 4271SOL    HW113712   7.019   0.552   1.236
 4271SOL    HW213713   6.881   0.580   1.319
 4272SOL     OW13714   6.992   1.289   6.349
 4272SOL    HW113715   7.014   1.204   6.301
 4272SOL    HW213716   6.955   1.268   6.439
 4273SOL     OW13717   3.512   5.364   4.532
 4273SOL    HW113718   3.595   5.313   4.554
 4273SOL    HW213719   3.494   5.430   4.604
 4274SOL     OW13720   6.957   1.541   1.910
 4274SOL    HW113721   6.960   1.490   1.996
 4274SOL    HW213722   7.004   1.489   1.839
 4275SOL     OW13723   0.035   2.737   3.384
 4275SOL    HW113724   0.070   2.826   3.412
 4275SOL    HW213725   6.959   2.745   3.359
 4276SOL     OW13726   2.130   5.760   4.275
 4276SOL    HW113727   2.119   5.828   4.202
 4276SOL    HW213728   2.166   5.675   4.236
 4277SOL     OW13729   6.132   5.262   3.202
 4277SOL    HW113730   6.203   5.229   3.264
 4277SOL    HW213731   6.175   5.309   3.125
 4278SOL     OW13732   1.259   6.690   1.836
 4278SOL    HW113733   1.319   6.732   1.768
 4278SOL    HW213734   1.166   6.725   1.824
 4279SOL     OW13735   1.735   1.710   3.294
 4279SOL    HW113736   1.784   1.771   3.232
 4279SOL    HW213737   1.698   1.763   3.370
 4280SOL     OW13738   0.775   6.793   6.038
 4280SOL    HW113739   0.813   6.753   5.954
 4280SOL    HW213740   0.701   6.735   6.072
 4281SOL     OW13741   4.370   5.491   3.644
 4281SOL    HW113742   4.437   5.477   3.717
 4281SOL    HW213743   4.412   5.541   3.568
 4282SOL     OW13744   3.751   4.096   1.231
 4282SOL    HW113745   3.846   4.096   1.203
 4282SOL    HW213746   3.723   4.003   1.255
 4283SOL     OW13747   5.143   1.594   4.097
 4283SOL    HW113748   5.062   1.558   4.143
 4283SOL    HW213749   5.168   1.534   4.021
 4284SOL     OW13750   4.459   5.801   6.073
 4284SOL    HW113751   4.501   5.880   6.029
 4284SOL    HW213752   4.530   5.745   6.115
 4285SOL     OW13753   3.088   0.614   5.714
 4285SOL    HW113754   3.046   0.591   5.627
 4285SOL    HW213755   3.019   0.649   5.777
 4286SOL     OW13756   5.548   0.941   6.308
 4286SOL    HW113757   5.614   0.987   6.368
 4286SOL    HW213758   5.516   1.006   6.239
 4287SOL     OW13759   4.672   0.594   0.013
 4287SOL    HW113760   4.714   0.519   6.982
 4287SOL    HW213761   4.620   0.652   6.972
 4288SOL     OW13762   6.823   6.849   2.615
 4288SOL    HW113763   6.817   6.947   2.598
 4288SOL    HW213764   6.918   6.822   2.624
 4289SOL     OW13765   0.609   3.426   4.483
 4289SOL    HW113766   0.511   3.415   4.469
 4289SOL    HW213767   0.630   3.523   4.493
 4290SOL     OW13768   0.189   0.943   3.608
 4290SOL    HW113769   0.189   0.882   3.688
 4290SOL    HW213770   0.170   0.889   3.525
 4291SOL     OW13771   5.018   3.280   6.288
 4291SOL    HW113772   5.051   3.185   6.287
 4291SOL    HW213773   4.929   3.284   6.334
 4292SOL     OW13774   5.795   2.150   1.113
 4292SOL    HW113775   5.817   2.054   1.127
 4292SOL    HW213776   5.847   2.207   1.177
 4293SOL     OW13777   3.634   4.488   0.042
 4293SOL    HW113778   3.692   4.447   6.993
 4293SOL    HW213779   3.672   4.471   0.133
 4294SOL     OW13780   2.131   1.579   6.453
 4294SOL    HW113781   2.231   1.585   6.447
 4294SOL    HW213782   2.095   1.666   6.486
 4295SOL     OW13783   3.701   5.945   2.897
 4295SOL    HW113784   3.758   5.978   2.822
 4295SOL    HW213785   3.650   6.021   2.936
 4296SOL     OW13786   2.793   6.203   2.054
 4296SOL    HW113787   2.885   6.192   2.093
 4296SOL    HW213788   2.725   6.188   2.126
 4297SOL     OW13789   5.995   4.846   0.876
 4297SOL    HW113790   5.977   4.817   0.970
 4297SOL    HW213791   6.050   4.930   0.877
 4298SOL     OW13792   2.846   6.754   0.069
 4298SOL    HW113793   2.773   6.768   0.001
 4298SOL    HW213794   2.933   6.784   0.031
 4299SOL     OW13795   0.826   2.870   0.058
 4299SOL    HW113796   0.804   2.966   0.076
 4299SOL    HW213797   0.926   2.860   0.053
 4300SOL     OW13798   3.138   1.428   0.732
 4300SOL    HW113799   3.132   1.416   0.831
 4300SOL    HW213800   3.150   1.339   0.688
 4301SOL     OW13801   2.833   6.625   1.371
 4301SOL    HW113802   2.835   6.684   1.451
 4301SOL    HW213803   2.905   6.652   1.307
 4302SOL     OW13804   1.928   5.523   6.027
 4302SOL    HW113805   1.834   5.490   6.028
 4302SOL    HW213806   1.952   5.559   6.117
 4303SOL     OW13807   6.408   4.359   3.219
 4303SOL    HW113808   6.403   4.458   3.202
 4303SOL    HW213809   6.319   4.318   3.203
 4304SOL     OW13810   3.429   3.794   1.550
 4304SOL    HW113811   3.360   3.866   1.554
 4304SOL    HW213812   3.422   3.735   1.630
 4305SOL     OW13813   1.710   0.366   5.304
 4305SOL    HW113814   1.697   0.277   5.260
 4305SOL    HW213815   1.661   0.367   5.392
 4306SOL     OW13816   5.611   3.110   5.141
 4306SOL    HW113817   5.565   3.028   5.176
 4306SOL    HW213818   5.587   3.189   5.198
 4307SOL     OW13819   0.034   1.586   5.430
 4307SOL    HW113820   0.036   1.587   5.330
 4307SOL    HW213821   7.012   1.671   5.463
 4308SOL     OW13822   4.812   5.418   7.003
 4308SOL    HW113823   4.847   5.510   6.985
 4308SOL    HW213824   4.847   5.354   6.934
 4309SOL     OW13825   1.201   2.960   0.911
 4309SOL    HW113826   1.129   2.917   0.966
 4309SOL    HW213827   1.188   2.937   0.815
 4310SOL     OW13828   6.891   1.513   3.052
 4310SOL    HW113829   6.827   1.585   3.077
 4310SOL    HW213830   6.858   1.466   2.969
 4311SOL     OW13831   0.733   0.694   2.792
 4311SOL    HW113832   0.633   0.691   2.785
 4311SOL    HW213833   0.773   0.690   2.700
 4312SOL     OW13834   0.568   4.888   2.580
 4312SOL    HW113835   0.582   4.829   2.501
 4312SOL    HW213836   0.654   4.900   2.629
 4313SOL     OW13837   6.091   1.937   0.116
 4313SOL    HW113838   6.137   1.985   0.190
 4313SOL    HW213839   6.053   1.851   0.150
 4314SOL     OW13840   6.585   2.100   5.218
 4314SOL    HW113841   6.676   2.116   5.180
 4314SOL    HW213842   6.570   2.161   5.295
 4315SOL     OW13843   2.889   1.482   4.194
 4315SOL    HW113844   2.804   1.502   4.146
 4315SOL    HW213845   2.965   1.483   4.129
 4316SOL     OW13846   5.233   6.822   1.613
 4316SOL    HW113847   5.244   6.803   1.515
 4316SOL    HW213848   5.204   6.917   1.625
 4317SOL     OW13849   4.476   1.160   5.981
 4317SOL    HW113850   4.426   1.131   5.900
 4317SOL    HW213851   4.565   1.115   5.984
 4318SOL     OW13852   0.384   1.218   4.148
 4318SOL    HW113853   0.460   1.173   4.194
 4318SOL    HW213854   0.298   1.182   4.184
 4319SOL     OW13855   1.453   4.799   2.719
 4319SOL    HW113856   1.355   4.783   2.721
 4319SOL    HW213857   1.472   4.897   2.726
 4320SOL     OW13858   3.407   6.078   0.673
 4320SOL    HW113859   3.425   6.176   0.682
 4320SOL    HW213860   3.315   6.064   0.636
 4321SOL     OW13861   6.274   6.575   2.686
 4321SOL    HW113862   6.238   6.602   2.775
 4321SOL    HW213863   6.373   6.586   2.686
 4322SOL     OW13864   0.776   3.043   5.499
 4322SOL    HW113865   0.849   2.984   5.533
 4322SOL    HW213866   0.814   3.132   5.474
 4323SOL     OW13867   4.057   5.109   6.503
 4323SOL    HW113868   4.076   5.065   6.416
 4323SOL    HW213869   4.139   5.110   6.560
 4324SOL     OW13870   6.573   4.184   5.851
 4324SOL    HW113871   6.573   4.091   5.887
 4324SOL    HW213872   6.614   4.246   5.918
 4325SOL     OW13873   2.460   0.664   2.062
 4325SOL    HW113874   2.551   0.688   2.095
 4325SOL    HW213875   2.463   0.653   1.962
 4326SOL     OW13876   4.737   2.834   2.586
 4326SOL    HW113877   4.677   2.912   2.604
 4326SOL    HW213878   4.682   2.754   2.564
 4327SOL     OW13879   2.886   5.685   4.023
 4327SOL    HW113880   2.913   5.597   3.984
 4327SOL    HW213881   2.916   5.690   4.118
 4328SOL     OW13882   5.774   6.666   4.516
 4328SOL    HW113883   5.726   6.641   4.600
 4328SOL    HW213884   5.868   6.631   4.520
 4329SOL     OW13885   6.794   2.064   5.902
 4329SOL    HW113886   6.730   2.071   5.978
 4329SOL    HW213887   6.813   2.155   5.865
 4330SOL     OW13888   2.912   4.852   4.984
 4330SOL    HW113889   2.966   4.868   5.066
 4330SOL    HW213890   2.891   4.754   4.977
 4331SOL     OW13891   5.961   0.856   2.103
 4331SOL    HW113892   5.879   0.815   2.063
 4331SOL    HW213893   5.994   0.928   2.043
 4332SOL     OW13894   0.263   5.201   2.683
 4332SOL    HW113895   0.340   5.247   2.638
 4332SOL    HW213896   0.196   5.270   2.713
 4333SOL     OW13897   3.472   2.266   5.418
 4333SOL    HW113898   3.474   2.186   5.479
 4333SOL    HW213899   3.422   2.243   5.335
 4334SOL     OW13900   0.102   2.286   4.342
 4334SOL    HW113901   0.089   2.385   4.339
 4334SOL    HW213902   0.014   2.241   4.352
 4335SOL     OW13903   2.601   3.976   1.524
 4335SOL    HW113904   2.609   3.999   1.427
 4335SOL    HW213905   2.561   3.885   1.533
 4336SOL     OW13906   2.952   4.867   5.644
 4336SOL    HW113907   2.957   4.928   5.564
 4336SOL    HW213908   3.044   4.859   5.684
 4337SOL     OW13909   1.422   5.286   3.872
 4337SOL    HW113910   1.444   5.222   3.798
 4337SOL    HW213911   1.403   5.376   3.834
 4338SOL     OW13912   3.841   0.931   6.133
 4338SOL    HW113913   3.816   0.933   6.036
 4338SOL    HW213914   3.809   0.845   6.174
 4339SOL     OW13915   3.692   3.408   6.012
 4339SOL    HW113916   3.787   3.409   6.043
 4339SOL    HW213917   3.633   3.438   6.086
 4340SOL     OW13918   6.852   3.588   0.881
 4340SOL    HW113919   6.809   3.671   0.917
 4340SOL    HW213920   6.857   3.519   0.952
 4341SOL     OW13921   0.309   6.934   2.711
 4341SOL    HW113922   0.268   6.919   2.801
 4341SOL    HW213923   0.406   6.956   2.722
 4342SOL     OW13924   5.531   4.101   2.488
 4342SOL    HW113925   5.565   4.191   2.460
 4342SOL    HW213926   5.431   4.105   2.496
 4343SOL     OW13927   4.346   0.305   5.775
 4343SOL    HW113928   4.439   0.328   5.804
 4343SOL    HW213929   4.280   0.351   5.835
 4344SOL     OW13930   0.477   3.593   4.141
 4344SOL    HW113931   0.558   3.536   4.124
 4344SOL    HW213932   0.397   3.549   4.100
 4345SOL     OW13933   2.941   3.379   2.303
 4345SOL    HW113934   2.897   3.325   2.231
 4345SOL    HW213935   3.021   3.425   2.266
 4346SOL     OW13936   0.886   3.090   2.135
 4346SOL    HW113937   0.955   3.019   2.146
 4346SOL    HW213938   0.924   3.168   2.085
 4347SOL     OW13939   5.999   5.156   1.001
 4347SOL    HW113940   5.956   5.175   0.912
 4347SOL    HW213941   5.934   5.179   1.074
 4348SOL     OW13942   5.926   5.663   4.180
 4348SOL    HW113943   5.860   5.645   4.253
 4348SOL    HW213944   5.924   5.760   4.156
 4349SOL     OW13945   6.977   3.694   4.727
 4349SOL    HW113946   0.006   3.623   4.778
 4349SOL    HW213947   7.020   3.706   4.637
 4350SOL     OW13948   4.352   1.467   4.674
 4350SOL    HW113949   4.317   1.500   4.586
 4350SOL    HW213950   4.417   1.393   4.657
 4351SOL     OW13951   1.091   6.732   0.370
 4351SOL    HW113952   1.063   6.653   0.425
 4351SOL    HW213953   1.009   6.776   0.332
 4352SOL     OW13954   3.506   3.834   1.234
 4352SOL    HW113955   3.449   3.900   1.284
 4352SOL    HW213956   3.452   3.754   1.211
 4353SOL     OW13957   3.277   3.460   0.949
 4353SOL    HW113958   3.206   3.495   0.888
 4353SOL    HW213959   3.347   3.413   0.896
 4354SOL     OW13960   5.361   6.613   3.769
 4354SOL    HW113961   5.452   6.638   3.735
 4354SOL    HW213962   5.354   6.635   3.866
 4355SOL     OW13963   1.260   6.078   3.484
 4355SOL    HW113964   1.296   6.164   3.449
 4355SOL    HW213965   1.172   6.094   3.528
 4356SOL     OW13966   5.507   2.657   5.776
 4356SOL    HW113967   5.588   2.715   5.765
 4356SOL    HW213968   5.535   2.563   5.796
 4357SOL     OW13969   6.425   0.919   2.480
 4357SOL    HW113970   6.334   0.960   2.488
 4357SOL    HW213971   6.420   0.840   2.419
 4358SOL     OW13972   1.833   6.506   6.779
 4358SOL    HW113973   1.862   6.598   6.805
 4358SOL    HW213974   1.797   6.507   6.686
 4359SOL     OW13975   2.616   1.737   0.067
 4359SOL    HW113976   2.711   1.727   0.035
 4359SOL    HW213977   2.601   1.678   0.146
 4360SOL     OW13978   1.175   3.326   3.698
 4360SOL    HW113979   1.091   3.282   3.731
 4360SOL    HW213980   1.220   3.266   3.631
 4361SOL     OW13981   6.825   1.327   0.753
 4361SOL    HW113982   6.840   1.412   0.703
 4361SOL    HW213983   6.772   1.263   0.697
 4362SOL     OW13984   1.462   5.845   3.840
 4362SOL    HW113985   1.414   5.928   3.809
 4362SOL    HW213986   1.558   5.851   3.813
 4363SOL     OW13987   4.867   1.640   2.237
 4363SOL    HW113988   4.908   1.699   2.307
 4363SOL    HW213989   4.771   1.663   2.226
 4364SOL     OW13990   3.993   3.840   2.712
 4364SOL    HW113991   4.023   3.764   2.769
 4364SOL    HW213992   3.982   3.922   2.768
 4365SOL     OW13993   3.000   1.924   1.393
 4365SOL    HW113994   2.983   1.921   1.492
 4365SOL    HW213995   2.971   2.013   1.357
 4366SOL     OW13996   4.240   6.174   5.090
 4366SOL    HW113997   4.175   6.205   5.021
 4366SOL    HW213998   4.245   6.242   5.163
 4367SOL     OW13999   2.114   5.394   3.625
 4367SOL    HW114000   2.197   5.420   3.675
 4367SOL    HW214001   2.102   5.454   3.546
 4368SOL     OW14002   4.918   4.415   2.627
 4368SOL    HW114003   4.852   4.369   2.567
 4368SOL    HW214004   4.912   4.376   2.719
 4369SOL     OW14005   3.963   4.842   3.138
 4369SOL    HW114006   3.963   4.744   3.152
 4369SOL    HW214007   3.976   4.862   3.041
 4370SOL     OW14008   3.985   4.386   1.572
 4370SOL    HW114009   3.914   4.317   1.569
 4370SOL    HW214010   4.067   4.348   1.614
 4371SOL     OW14011   3.118   1.399   0.997
 4371SOL    HW114012   3.212   1.405   1.031
 4371SOL    HW214013   3.073   1.319   1.037
 4372SOL     OW14014   2.100   3.146   4.355
 4372SOL    HW114015   2.131   3.231   4.396
 4372SOL    HW214016   2.049   3.093   4.424
 4373SOL     OW14017   4.239   1.329   5.658
 4373SOL    HW114018   4.195   1.329   5.568
 4373SOL    HW214019   4.180   1.376   5.724
 4374SOL     OW14020   2.355   1.417   1.660
 4374SOL    HW114021   2.303   1.368   1.589
 4374SOL    HW214022   2.448   1.434   1.627
 4375SOL     OW14023   4.433   0.986   3.390
 4375SOL    HW114024   4.411   1.013   3.484
 4375SOL    HW214025   4.528   1.010   3.370
 4376SOL     OW14026   0.890   6.858   1.108
 4376SOL    HW114027   0.868   6.760   1.107
 4376SOL    HW214028   0.937   6.880   1.194
 4377SOL     OW14029   6.051   6.925   6.527
 4377SOL    HW114030   5.971   6.939   6.469
 4377SOL    HW214031   6.124   6.988   6.499
 4378SOL     OW14032   1.988   5.409   2.789
 4378SOL    HW114033   1.953   5.366   2.706
 4378SOL    HW214034   1.967   5.506   2.788
 4379SOL     OW14035   1.289   0.684   2.001
 4379SOL    HW114036   1.232   0.619   2.049
 4379SOL    HW214037   1.353   0.635   1.942
 4380SOL     OW14038   1.620   5.755   5.390
 4380SOL    HW114039   1.667   5.678   5.347
 4380SOL    HW214040   1.596   5.822   5.320
 4381SOL     OW14041   3.243   6.402   4.813
 4381SOL    HW114042   3.313   6.473   4.807
 4381SOL    HW214043   3.271   6.323   4.759
 4382SOL     OW14044   4.811   4.049   3.747
 4382SOL    HW114045   4.726   4.091   3.777
 4382SOL    HW214046   4.882   4.066   3.816
 4383SOL     OW14047   0.809   3.124   6.323
 4383SOL    HW114048   0.767   3.080   6.243
 4383SOL    HW214049   0.738   3.149   6.388
 4384SOL     OW14050   3.724   5.728   0.749
 4384SOL    HW114051   3.780   5.806   0.722
 4384SOL    HW214052   3.637   5.759   0.785
 4385SOL     OW14053   0.352   1.979   2.490
 4385SOL    HW114054   0.393   2.001   2.402
 4385SOL    HW214055   0.281   1.910   2.478
 4386SOL     OW14056   0.871   3.262   6.912
 4386SOL    HW114057   0.874   3.175   6.863
 4386SOL    HW214058   0.844   3.246   7.007
 4387SOL     OW14059   0.254   3.394   1.911
 4387SOL    HW114060   0.338   3.421   1.958
 4387SOL    HW214061   0.218   3.473   1.861
 4388SOL     OW14062   3.536   0.987   5.654
 4388SOL    HW114063   3.518   1.004   5.557
 4388SOL    HW214064   3.450   0.994   5.706
 4389SOL     OW14065   5.431   2.455   2.968
 4389SOL    HW114066   5.371   2.521   3.014
 4389SOL    HW214067   5.497   2.505   2.912
 4390SOL     OW14068   4.757   2.750   2.090
 4390SOL    HW114069   4.829   2.710   2.033
 4390SOL    HW214070   4.723   2.834   2.047
 4391SOL     OW14071   1.272   5.294   0.472
 4391SOL    HW114072   1.205   5.301   0.546
 4391SOL    HW214073   1.232   5.243   0.396
 4392SOL     OW14074   4.869   3.228   4.275
 4392SOL    HW114075   4.811   3.166   4.329
 4392SOL    HW214076   4.913   3.294   4.336
 4393SOL     OW14077   4.500   6.282   3.345
 4393SOL    HW114078   4.593   6.268   3.310
 4393SOL    HW214079   4.451   6.196   3.343
 4394SOL     OW14080   5.086   0.006   2.794
 4394SOL    HW114081   5.152   0.056   2.851
 4394SOL    HW214082   5.063   0.061   2.713
 4395SOL     OW14083   5.428   1.443   2.079
 4395SOL    HW114084   5.435   1.351   2.040
 4395SOL    HW214085   5.424   1.510   2.005
 4396SOL     OW14086   0.971   0.590   4.223
 4396SOL    HW114087   1.024   0.508   4.242
 4396SOL    HW214088   0.994   0.623   4.131
 4397SOL     OW14089   6.357   0.372   5.552
 4397SOL    HW114090   6.263   0.405   5.542
 4397SOL    HW214091   6.416   0.419   5.486
 4398SOL     OW14092   0.116   4.140   4.644
 4398SOL    HW114093   0.062   4.073   4.696
 4398SOL    HW214094   0.066   4.164   4.561
 4399SOL     OW14095   2.206   1.408   1.163
 4399SOL    HW114096   2.258   1.439   1.084
 4399SOL    HW214097   2.196   1.309   1.160
 4400SOL     OW14098   3.119   6.601   4.585
 4400SOL    HW114099   3.129   6.553   4.498
 4400SOL    HW214100   3.204   6.650   4.607
 4401SOL     OW14101   5.441   5.858   4.171
 4401SOL    HW114102   5.477   5.944   4.135
 4401SOL    HW214103   5.472   5.846   4.265
 4402SOL     OW14104   0.650   6.767   2.852
 4402SOL    HW114105   0.738   6.728   2.881
 4402SOL    HW214106   0.585   6.693   2.835
 4403SOL     OW14107   0.690   0.386   3.629
 4403SOL    HW114108   0.664   0.482   3.624
 4403SOL    HW214109   0.778   0.377   3.674
 4404SOL     OW14110   0.921   4.121   3.753
 4404SOL    HW114111   0.956   4.151   3.842
 4404SOL    HW214112   0.972   4.041   3.722
 4405SOL     OW14113   3.353   3.811   5.465
 4405SOL    HW114114   3.332   3.718   5.496
 4405SOL    HW214115   3.360   3.872   5.543
 4406SOL     OW14116   5.794   4.180   1.134
 4406SOL    HW114117   5.843   4.110   1.083
 4406SOL    HW214118   5.698   4.154   1.143
 4407SOL     OW14119   5.835   0.106   0.016
 4407SOL    HW114120   5.786   0.180   0.063
 4407SOL    HW214121   5.864   0.138   6.946
 4408SOL     OW14122   4.616   6.524   6.462
 4408SOL    HW114123   4.667   6.502   6.379
 4408SOL    HW214124   4.526   6.481   6.457
 4409SOL     OW14125   3.297   1.046   1.663
 4409SOL    HW114126   3.373   1.001   1.710
 4409SOL    HW214127   3.255   1.113   1.724
 4410SOL     OW14128   2.390   5.095   1.790
 4410SOL    HW114129   2.412   5.171   1.851
 4410SOL    HW214130   2.296   5.066   1.806
 4411SOL     OW14131   4.053   3.179   2.804
 4411SOL    HW114132   4.032   3.264   2.755
 4411SOL    HW214133   4.096   3.201   2.891
 4412SOL     OW14134   3.668   1.651   6.595
 4412SOL    HW114135   3.697   1.560   6.564
 4412SOL    HW214136   3.664   1.653   6.695
 4413SOL     OW14137   4.471   6.391   4.789
 4413SOL    HW114138   4.465   6.471   4.850
 4413SOL    HW214139   4.462   6.422   4.695
 4414SOL     OW14140   3.957   4.870   2.035
 4414SOL    HW114141   3.887   4.822   2.088
 4414SOL    HW214142   3.931   4.870   1.938
 4415SOL     OW14143   5.479   2.373   6.772
 4415SOL    HW114144   5.485   2.473   6.780
 4415SOL    HW214145   5.383   2.345   6.773
 4416SOL     OW14146   3.671   0.396   3.966
 4416SOL    HW114147   3.730   0.315   3.967
 4416SOL    HW214148   3.708   0.464   4.029
 4417SOL     OW14149   0.150   6.381   2.640
 4417SOL    HW114150   0.211   6.355   2.566
 4417SOL    HW214151   0.089   6.305   2.662
 4418SOL     OW14152   3.970   0.123   3.656
 4418SOL    HW114153   4.028   0.121   3.575
 4418SOL    HW214154   3.888   0.068   3.640
 4419SOL     OW14155   0.537   5.237   6.551
 4419SOL    HW114156   0.456   5.259   6.605
 4419SOL    HW214157   0.614   5.292   6.583
 4420SOL     OW14158   5.375   1.788   6.347
 4420SOL    HW114159   5.287   1.751   6.318
 4420SOL    HW214160   5.360   1.874   6.397
 4421SOL     OW14161   1.140   1.478   3.699
 4421SOL    HW114162   1.181   1.554   3.749
 4421SOL    HW214163   1.196   1.456   3.619
 4422SOL     OW14164   1.813   3.870   6.031
 4422SOL    HW114165   1.897   3.817   6.030
 4422SOL    HW214166   1.798   3.912   5.941
 4423SOL     OW14167   1.389   1.873   6.305
 4423SOL    HW114168   1.318   1.941   6.324
 4423SOL    HW214169   1.348   1.782   6.300
 4424SOL     OW14170   6.481   0.476   3.138
 4424SOL    HW114171   6.454   0.446   3.046
 4424SOL    HW214172   6.459   0.573   3.148
 4425SOL     OW14173   4.389   4.698   6.403
 4425SOL    HW114174   4.447   4.779   6.395
 4425SOL    HW214175   4.307   4.720   6.455
 4426SOL     OW14176   0.735   0.454   5.689
 4426SOL    HW114177   0.787   0.480   5.770
 4426SOL    HW214178   0.706   0.358   5.697
 4427SOL     OW14179   0.885   0.248   3.411
 4427SOL    HW114180   0.978   0.259   3.446
 4427SOL    HW214181   0.820   0.275   3.481
 4428SOL     OW14182   2.508   5.309   3.484
 4428SOL    HW114183   2.516   5.367   3.403
 4428SOL    HW214184   2.595   5.264   3.502
 4429SOL     OW14185   3.775   0.055   3.173
 4429SOL    HW114186   3.739   0.147   3.190
 4429SOL    HW214187   3.701   7.009   3.181
 4430SOL     OW14188   2.227   0.770   2.171
 4430SOL    HW114189   2.241   0.824   2.255
 4430SOL    HW214190   2.315   0.734   2.141
 4431SOL     OW14191   2.230   2.255   3.016
 4431SOL    HW114192   2.277   2.229   3.100
 4431SOL    HW214193   2.265   2.343   2.983
 4432SOL     OW14194   3.093   3.757   3.171
 4432SOL    HW114195   3.175   3.808   3.198
 4432SOL    HW214196   3.110   3.707   3.087
 4433SOL     OW14197   6.318   0.145   2.568
 4433SOL    HW114198   6.329   0.060   2.619
 4433SOL    HW214199   6.281   0.125   2.478
 4434SOL     OW14200   6.176   2.502   4.203
 4434SOL    HW114201   6.202   2.511   4.299
 4434SOL    HW214202   6.207   2.413   4.168
 4435SOL     OW14203   3.369   3.195   1.594
 4435SOL    HW114204   3.451   3.243   1.566
 4435SOL    HW214205   3.394   3.111   1.642
 4436SOL     OW14206   5.141   1.835   6.664
 4436SOL    HW114207   5.117   1.775   6.740
 4436SOL    HW214208   5.215   1.895   6.691
 4437SOL     OW14209   3.283   0.782   4.599
 4437SOL    HW114210   3.366   0.746   4.555
 4437SOL    HW214211   3.306   0.866   4.648
 4438SOL     OW14212   4.330   2.875   0.019
 4438SOL    HW114213   4.249   2.836   0.064
 4438SOL    HW214214   4.405   2.881   0.084
 4439SOL     OW14215   1.970   5.930   2.157
 4439SOL    HW114216   2.011   5.845   2.190
 4439SOL    HW214217   1.958   5.993   2.234
 4440SOL     OW14218   0.890   6.791   6.473
 4440SOL    HW114219   0.924   6.859   6.539
 4440SOL    HW214220   0.796   6.767   6.496
 4441SOL     OW14221   5.783   2.960   3.137
 4441SOL    HW114222   5.722   3.038   3.131
 4441SOL    HW214223   5.875   2.991   3.163
 4442SOL     OW14224   3.344   6.309   3.349
 4442SOL    HW114225   3.419   6.354   3.398
 4442SOL    HW214226   3.318   6.225   3.397
 4443SOL     OW14227   2.361   1.866   5.708
 4443SOL    HW114228   2.364   1.911   5.619
 4443SOL    HW214229   2.387   1.770   5.698
 4444SOL     OW14230   5.731   0.770   1.018
 4444SOL    HW114231   5.712   0.774   0.920
 4444SOL    HW214232   5.649   0.741   1.067
 4445SOL     OW14233   1.011   0.909   6.426
 4445SOL    HW114234   1.081   0.860   6.374
 4445SOL    HW214235   0.971   0.980   6.369
 4446SOL     OW14236   6.415   0.397   2.896
 4446SOL    HW114237   6.463   0.413   2.810
 4446SOL    HW214238   6.327   0.354   2.878
 4447SOL     OW14239   5.894   2.469   5.589
 4447SOL    HW114240   5.955   2.416   5.530
 4447SOL    HW214241   5.828   2.519   5.533
 4448SOL     OW14242   2.284   3.742   6.717
 4448SOL    HW114243   2.277   3.842   6.708
 4448SOL    HW214244   2.362   3.719   6.774
 4449SOL     OW14245   1.204   1.681   5.063
 4449SOL    HW114246   1.209   1.646   5.157
 4449SOL    HW214247   1.108   1.683   5.034
 4450SOL     OW14248   3.971   3.610   3.453
 4450SOL    HW114249   3.908   3.660   3.393
 4450SOL    HW214250   3.988   3.519   3.415
 4451SOL     OW14251   6.470   4.602   2.131
 4451SOL    HW114252   6.506   4.554   2.051
 4451SOL    HW214253   6.545   4.643   2.182
 4452SOL     OW14254   6.386   6.257   6.137
 4452SOL    HW114255   6.456   6.316   6.096
 4452SOL    HW214256   6.311   6.313   6.172
 4453SOL     OW14257   5.695   2.759   1.162
 4453SOL    HW114258   5.718   2.666   1.190
 4453SOL    HW214259   5.678   2.760   1.064
 4454SOL     OW14260   5.497   3.333   1.462
 4454SOL    HW114261   5.584   3.318   1.416
 4454SOL    HW214262   5.434   3.382   1.401
 4455SOL     OW14263   3.827   1.539   2.359
 4455SOL    HW114264   3.736   1.523   2.322
 4455SOL    HW214265   3.873   1.451   2.372
 4456SOL     OW14266   1.201   5.233   3.251
 4456SOL    HW114267   1.220   5.175   3.171
 4456SOL    HW214268   1.137   5.185   3.311
 4457SOL     OW14269   5.513   2.378   6.135
 4457SOL    HW114270   5.516   2.410   6.040
 4457SOL    HW214271   5.605   2.383   6.175
 4458SOL     OW14272   3.865   2.508   5.953
 4458SOL    HW114273   3.915   2.553   5.879
 4458SOL    HW214274   3.872   2.563   6.036
 4459SOL     OW14275   4.849   6.304   4.806
 4459SOL    HW114276   4.916   6.342   4.870
 4459SOL    HW214277   4.791   6.239   4.854
 4460SOL     OW14278   2.589   1.744   6.333
 4460SOL    HW114279   2.497   1.769   6.363
 4460SOL    HW214280   2.641   1.827   6.312
 4461SOL     OW14281   2.226   0.282   2.269
 4461SOL    HW114282   2.165   0.345   2.317
 4461SOL    HW214283   2.302   0.333   2.229
 4462SOL     OW14284   6.909   5.386   1.519
 4462SOL    HW114285   6.997   5.382   1.567
 4462SOL    HW214286   6.893   5.299   1.472
 4463SOL     OW14287   1.405   3.634   6.071
 4463SOL    HW114288   1.504   3.626   6.084
 4463SOL    HW214289   1.358   3.569   6.131
 4464SOL     OW14290   5.702   3.348   6.823
 4464SOL    HW114291   5.619   3.304   6.788
 4464SOL    HW214292   5.777   3.335   6.759
 4465SOL     OW14293   1.249   6.480   2.225
 4465SOL    HW114294   1.226   6.493   2.322
 4465SOL    HW214295   1.231   6.385   2.200
 4466SOL     OW14296   0.826   1.856   3.225
 4466SOL    HW114297   0.729   1.840   3.211
 4466SOL    HW214298   0.839   1.927   3.294
 4467SOL     OW14299   1.196   6.429   3.567
 4467SOL    HW114300   1.202   6.410   3.665
 4467SOL    HW214301   1.118   6.490   3.550
 4468SOL     OW14302   1.329   2.780   0.211
 4468SOL    HW114303   1.329   2.816   0.304
 4468SOL    HW214304   1.394   2.831   0.155
 4469SOL     OW14305   4.089   0.105   0.685
 4469SOL    HW114306   4.139   0.144   0.762
 4469SOL    HW214307   4.154   0.065   0.620
 4470SOL     OW14308   5.082   3.921   0.851
 4470SOL    HW114309   5.009   3.857   0.877
 4470SOL    HW214310   5.167   3.893   0.895
 4471SOL     OW14311   6.405   3.144   1.376
 4471SOL    HW114312   6.444   3.119   1.464
 4471SOL    HW214313   6.456   3.220   1.337
 4472SOL     OW14314   1.675   4.089   2.463
 4472SOL    HW114315   1.588   4.055   2.429
 4472SOL    HW214316   1.660   4.165   2.525
 4473SOL     OW14317   6.753   6.841   4.299
 4473SOL    HW114318   6.803   6.757   4.276
 4473SOL    HW214319   6.800   6.920   4.257
 4474SOL     OW14320   4.362   0.168   2.870
 4474SOL    HW114321   4.341   0.133   2.962
 4474SOL    HW214322   4.461   0.178   2.860
 4475SOL     OW14323   1.953   3.853   0.393
 4475SOL    HW114324   1.981   3.947   0.413
 4475SOL    HW214325   1.977   3.831   0.299
 4476SOL     OW14326   4.980   6.163   2.027
 4476SOL    HW114327   4.880   6.176   2.023
 4476SOL    HW214328   5.023   6.250   2.050
 4477SOL     OW14329   1.414   1.308   0.566
 4477SOL    HW114330   1.501   1.312   0.517
 4477SOL    HW214331   1.414   1.376   0.639
 4478SOL     OW14332   2.262   6.561   1.792
 4478SOL    HW114333   2.286   6.500   1.716
 4478SOL    HW214334   2.345   6.581   1.845
 4479SOL     OW14335   1.020   0.054   5.429
 4479SOL    HW114336   1.061   0.122   5.489
 4479SOL    HW214337   0.921   0.065   5.428
 4480SOL     OW14338   0.696   4.642   4.014
 4480SOL    HW114339   0.631   4.646   3.938
 4480SOL    HW214340   0.662   4.579   4.084
 4481SOL     OW14341   0.941   6.198   4.218
 4481SOL    HW114342   0.934   6.251   4.302
 4481SOL    HW214343   0.974   6.106   4.239
 4482SOL     OW14344   7.011   4.697   4.067
 4482SOL    HW114345   6.997   4.620   4.004
 4482SOL    HW214346   0.087   4.703   4.091
 4483SOL     OW14347   5.470   3.047   2.118
 4483SOL    HW114348   5.544   3.078   2.179
 4483SOL    HW214349   5.395   3.113   2.122
 4484SOL     OW14350   4.137   2.854   5.843
 4484SOL    HW114351   4.176   2.809   5.763
 4484SOL    HW214352   4.061   2.912   5.815
 4485SOL     OW14353   5.577   1.754   6.565
 4485SOL    HW114354   5.670   1.770   6.535
 4485SOL    HW214355   5.513   1.789   6.496
 4486SOL     OW14356   6.312   3.093   4.508
 4486SOL    HW114357   6.228   3.122   4.555
 4486SOL    HW214358   6.389   3.149   4.538
 4487SOL     OW14359   3.040   2.928   6.023
 4487SOL    HW114360   2.969   2.994   5.998
 4487SOL    HW214361   3.129   2.972   6.022
 4488SOL     OW14362   7.009   1.502   4.227
 4488SOL    HW114363   6.986   1.563   4.303
 4488SOL    HW214364   0.061   1.440   4.255
 4489SOL     OW14365   6.077   6.812   4.348
 4489SOL    HW114366   6.068   6.792   4.250
 4489SOL    HW214367   6.143   6.749   4.389
 4490SOL     OW14368   6.506   1.738   2.806
 4490SOL    HW114369   6.576   1.782   2.863
 4490SOL    HW214370   6.549   1.698   2.725
 4491SOL     OW14371   0.941   3.539   2.482
 4491SOL    HW114372   0.967   3.626   2.523
 4491SOL    HW214373   0.920   3.473   2.554
 4492SOL     OW14374   4.737   3.230   0.115
 4492SOL    HW114375   4.693   3.280   0.190
 4492SOL    HW214376   4.678   3.230   0.035
 4493SOL     OW14377   5.755   5.323   4.432
 4493SOL    HW114378   5.853   5.300   4.430
 4493SOL    HW214379   5.719   5.323   4.339
 4494SOL     OW14380   5.989   4.027   5.020
 4494SOL    HW114381   5.992   3.927   5.024
 4494SOL    HW214382   6.077   4.063   5.051
 4495SOL     OW14383   4.676   6.111   1.779
 4495SOL    HW114384   4.724   6.040   1.728
 4495SOL    HW214385   4.641   6.180   1.715
 4496SOL     OW14386   4.706   3.915   5.597
 4496SOL    HW114387   4.804   3.903   5.615
 4496SOL    HW214388   4.653   3.871   5.669
 4497SOL     OW14389   6.429   5.158   0.359
 4497SOL    HW114390   6.462   5.067   0.384
 4497SOL    HW214391   6.463   5.226   0.424
 4498SOL     OW14392   6.761   3.399   0.301
 4498SOL    HW114393   6.842   3.417   0.245
 4498SOL    HW214394   6.779   3.428   0.395
 4499SOL     OW14395   6.997   2.749   6.028
 4499SOL    HW114396   6.916   2.793   6.066
 4499SOL    HW214397   0.030   2.816   5.976
 4500SOL     OW14398   3.050   3.717   4.606
 4500SOL    HW114399   3.053   3.749   4.701
 4500SOL    HW214400   3.122   3.649   4.592
 4501SOL     OW14401   6.772   4.405   5.378
 4501SOL    HW114402   6.755   4.422   5.475
 4501SOL    HW214403   6.834   4.328   5.368
 4502SOL     OW14404   0.438   2.378   6.794
 4502SOL    HW114405   0.458   2.468   6.754
 4502SOL    HW214406   0.363   2.335   6.742
 4503SOL     OW14407   0.769   1.822   4.060
 4503SOL    HW114408   0.748   1.851   3.966
 4503SOL    HW214409   0.801   1.728   4.059
 4504SOL     OW14410   5.166   2.342   4.147
 4504SOL    HW114411   5.226   2.394   4.085
 4504SOL    HW214412   5.175   2.379   4.239
 4505SOL     OW14413   1.715   6.572   5.478
 4505SOL    HW114414   1.710   6.662   5.521
 4505SOL    HW214415   1.643   6.513   5.514
 4506SOL     OW14416   4.063   0.396   5.016
 4506SOL    HW114417   4.072   0.495   5.002
 4506SOL    HW214418   3.970   0.375   5.046
 4507SOL     OW14419   5.831   4.656   0.655
 4507SOL    HW114420   5.885   4.712   0.718
 4507SOL    HW214421   5.769   4.599   0.708
 4508SOL     OW14422   0.987   3.702   6.945
 4508SOL    HW114423   0.887   3.692   6.954
 4508SOL    HW214424   1.013   3.795   6.972
 4509SOL     OW14425   2.914   1.803   4.210
 4509SOL    HW114426   2.967   1.738   4.265
 4509SOL    HW214427   2.817   1.793   4.232
 4510SOL     OW14428   4.646   6.786   5.089
 4510SOL    HW114429   4.586   6.842   5.145
 4510SOL    HW214430   4.642   6.817   4.994
 4511SOL     OW14431   6.386   2.475   0.743
 4511SOL    HW114432   6.373   2.575   0.743
 4511SOL    HW214433   6.483   2.454   0.731
 4512SOL     OW14434   2.948   5.916   6.982
 4512SOL    HW114435   3.041   5.886   6.963
 4512SOL    HW214436   2.950   5.998   0.019
 4513SOL     OW14437   5.016   0.671   1.567
 4513SOL    HW114438   4.927   0.714   1.580
 4513SOL    HW214439   5.077   0.696   1.642
 4514SOL     OW14440   2.810   1.470   5.295
 4514SOL    HW114441   2.825   1.371   5.298
 4514SOL    HW214442   2.796   1.504   5.388
 4515SOL     OW14443   0.519   5.211   1.100
 4515SOL    HW114444   0.475   5.142   1.042
 4515SOL    HW214445   0.469   5.297   1.093
 4516SOL     OW14446   1.044   0.847   4.887
 4516SOL    HW114447   1.021   0.764   4.937
 4516SOL    HW214448   0.999   0.846   4.798
 4517SOL     OW14449   3.434   6.645   5.434
 4517SOL    HW114450   3.492   6.571   5.467
 4517SOL    HW214451   3.342   6.609   5.415
 4518SOL     OW14452   1.072   2.340   4.089
 4518SOL    HW114453   1.129   2.311   4.167
 4518SOL    HW214454   1.025   2.261   4.051
 4519SOL     OW14455   0.072   3.196   3.802
 4519SOL    HW114456   0.172   3.204   3.798
 4519SOL    HW214457   0.031   3.280   3.765
 4520SOL     OW14458   0.006   4.432   3.249
 4520SOL    HW114459   0.075   4.455   3.317
 4520SOL    HW214460   0.051   4.408   3.163
 4521SOL     OW14461   5.226   2.463   6.870
 4521SOL    HW114462   5.127   2.477   6.868
 4521SOL    HW214463   5.271   2.544   6.907
 4522SOL     OW14464   6.004   0.112   4.354
 4522SOL    HW114465   6.101   0.089   4.364
 4522SOL    HW214466   5.973   0.164   4.434
 4523SOL     OW14467   3.268   4.090   6.790
 4523SOL    HW114468   3.231   4.181   6.810
 4523SOL    HW214469   3.222   4.022   6.846
 4524SOL     OW14470   5.382   0.187   4.867
 4524SOL    HW114471   5.327   0.195   4.784
 4524SOL    HW214472   5.375   0.094   4.903
 4525SOL     OW14473   6.289   1.730   4.981
 4525SOL    HW114474   6.364   1.665   4.968
 4525SOL    HW214475   6.254   1.759   4.892
 4526SOL     OW14476   4.659   6.818   0.842
 4526SOL    HW114477   4.710   6.816   0.756
 4526SOL    HW214478   4.718   6.789   0.917
 4527SOL     OW14479   4.845   0.631   2.229
 4527SOL    HW114480   4.762   0.665   2.274
 4527SOL    HW214481   4.827   0.617   2.132
 4528SOL     OW14482   5.893   0.110   0.836
 4528SOL    HW114483   5.877   0.095   0.738
 4528SOL    HW214484   5.806   0.124   0.882
 4529SOL     OW14485   3.445   6.715   3.105
 4529SOL    HW114486   3.409   6.632   3.062
 4529SOL    HW214487   3.374   6.785   3.108
 4530SOL     OW14488   0.452   3.066   5.999
 4530SOL    HW114489   0.373   3.065   6.060
 4530SOL    HW214490   0.472   2.973   5.969
 4531SOL     OW14491   0.190   3.264   4.289
 4531SOL    HW114492   0.240   3.186   4.327
 4531SOL    HW214493   0.095   3.236   4.272
 4532SOL     OW14494   6.253   1.232   0.711
 4532SOL    HW114495   6.301   1.146   0.696
 4532SOL    HW214496   6.163   1.228   0.667
 4533SOL     OW14497   2.027   5.455   3.065
 4533SOL    HW114498   1.967   5.532   3.085
 4533SOL    HW214499   2.000   5.414   2.977
 4534SOL     OW14500   5.982   3.636   4.868
 4534SOL    HW114501   5.977   3.589   4.780
 4534SOL    HW214502   6.059   3.700   4.868
 4535SOL     OW14503   4.900   3.295   1.978
 4535SOL    HW114504   4.888   3.237   2.058
 4535SOL    HW214505   4.976   3.261   1.923
 4536SOL     OW14506   6.066   0.834   4.284
 4536SOL    HW114507   6.102   0.817   4.192
 4536SOL    HW214508   6.041   0.930   4.294
 4537SOL     OW14509   3.766   2.822   6.778
 4537SOL    HW114510   3.742   2.919   6.784
 4537SOL    HW214511   3.720   2.781   6.700
 4538SOL     OW14512   3.361   1.001   2.694
 4538SOL    HW114513   3.448   0.973   2.654
 4538SOL    HW214514   3.286   0.973   2.635
 4539SOL     OW14515   1.902   1.614   3.031
 4539SOL    HW114516   1.953   1.576   3.108
 4539SOL    HW214517   1.858   1.539   2.981
 4540SOL     OW14518   3.788   3.467   4.464
 4540SOL    HW114519   3.834   3.394   4.413
 4540SOL    HW214520   3.833   3.479   4.553
 4541SOL     OW14521   5.020   2.002   1.321
 4541SOL    HW114522   5.056   2.093   1.340
 4541SOL    HW214523   4.931   1.991   1.365
 4542SOL     OW14524   5.894   6.877   2.627
 4542SOL    HW114525   5.912   6.912   2.535
 4542SOL    HW214526   5.927   6.942   2.695
 4543SOL     OW14527   5.511   1.550   1.016
 4543SOL    HW114528   5.491   1.646   1.035
 4543SOL    HW214529   5.523   1.538   0.917
 4544SOL     OW14530   3.391   5.390   6.407
 4544SOL    HW114531   3.443   5.390   6.492
 4544SOL    HW214532   3.299   5.355   6.423
 4545SOL     OW14533   3.896   2.299   5.501
 4545SOL    HW114534   3.987   2.340   5.499
 4545SOL    HW214535   3.896   2.221   5.564
 4546SOL     OW14536   1.218   6.146   6.311
 4546SOL    HW114537   1.222   6.115   6.406
 4546SOL    HW214538   1.310   6.165   6.279
 4547SOL     OW14539   5.183   2.431   1.985
 4547SOL    HW114540   5.267   2.469   1.946
 4547SOL    HW214541   5.173   2.336   1.956
 4548SOL     OW14542   0.690   4.206   3.615
 4548SOL    HW114543   0.670   4.145   3.539
 4548SOL    HW214544   0.776   4.179   3.659
 4549SOL     OW14545   6.930   2.909   2.626
 4549SOL    HW114546   6.868   2.986   2.642
 4549SOL    HW214547   6.876   2.826   2.612
 4550SOL     OW14548   1.041   5.349   4.198
 4550SOL    HW114549   1.101   5.387   4.128
 4550SOL    HW214550   0.962   5.408   4.210
 4551SOL     OW14551   1.092   2.616   5.811
 4551SOL    HW114552   1.094   2.715   5.824
 4551SOL    HW214553   1.104   2.595   5.714
 4552SOL     OW14554   0.255   3.543   4.758
 4552SOL    HW114555   0.219   3.475   4.822
 4552SOL    HW214556   0.355   3.541   4.760
 4553SOL     OW14557   4.389   4.874   0.447
 4553SOL    HW114558   4.328   4.801   0.415
 4553SOL    HW214559   4.431   4.846   0.533
 4554SOL     OW14560   5.051   6.601   2.791
 4554SOL    HW114561   5.007   6.538   2.854
 4554SOL    HW214562   5.150   6.585   2.792
 4555SOL     OW14563   5.240   2.487   6.596
 4555SOL    HW114564   5.187   2.517   6.675
 4555SOL    HW214565   5.199   2.404   6.558
 4556SOL     OW14566   4.255   0.791   3.316
 4556SOL    HW114567   4.177   0.853   3.317
 4556SOL    HW214568   4.336   0.839   3.349
 4557SOL     OW14569   5.278   0.012   5.994
 4557SOL    HW114570   5.240   0.103   6.010
 4557SOL    HW214571   5.334   7.005   6.072
 4558SOL     OW14572   6.627   3.184   0.204
 4558SOL    HW114573   6.679   3.267   0.225
 4558SOL    HW214574   6.689   3.110   0.179
 4559SOL     OW14575   1.492   6.707   1.353
 4559SOL    HW114576   1.545   6.623   1.366
 4559SOL    HW214577   1.553   6.781   1.326
 4560SOL     OW14578   5.178   3.375   2.830
 4560SOL    HW114579   5.137   3.377   2.739
 4560SOL    HW214580   5.108   3.356   2.898
 4561SOL     OW14581   3.473   0.305   6.569
 4561SOL    HW114582   3.552   0.364   6.549
 4561SOL    HW214583   3.505   0.217   6.603
 4562SOL     OW14584   2.852   4.986   6.943
 4562SOL    HW114585   2.831   5.049   6.868
 4562SOL    HW214586   2.814   5.021   0.008
 4563SOL     OW14587   5.827   1.882   6.483
 4563SOL    HW114588   5.851   1.964   6.432
 4563SOL    HW214589   5.891   1.869   6.559
 4564SOL     OW14590   1.693   6.418   0.463
 4564SOL    HW114591   1.712   6.491   0.398
 4564SOL    HW214592   1.718   6.330   0.421
 4565SOL     OW14593   1.375   0.708   5.312
 4565SOL    HW114594   1.279   0.721   5.286
 4565SOL    HW214595   1.381   0.696   5.411
 4566SOL     OW14596   6.711   0.937   0.009
 4566SOL    HW114597   6.784   1.004   0.018
 4566SOL    HW214598   6.721   0.888   6.943
 4567SOL     OW14599   6.709   1.004   1.000
 4567SOL    HW114600   6.784   0.954   1.043
 4567SOL    HW214601   6.626   0.994   1.054
 4568SOL     OW14602   3.114   4.413   5.807
 4568SOL    HW114603   3.173   4.466   5.746
 4568SOL    HW214604   3.025   4.401   5.763
 4569SOL     OW14605   0.889   1.125   4.280
 4569SOL    HW114606   0.897   1.027   4.303
 4569SOL    HW214607   0.980   1.163   4.265
 4570SOL     OW14608   0.168   5.783   3.956
 4570SOL    HW114609   0.149   5.709   3.891
 4570SOL    HW214610   0.091   5.793   4.019
 4571SOL     OW14611   3.504   3.376   4.488
 4571SOL    HW114612   3.479   3.294   4.436
 4571SOL    HW214613   3.583   3.420   4.445
 4572SOL     OW14614   1.657   6.942   1.361
 4572SOL    HW114615   1.736   6.885   1.340
 4572SOL    HW214616   1.688   0.008   1.401
 4573SOL     OW14617   5.603   6.220   0.778
 4573SOL    HW114618   5.564   6.185   0.694
 4573SOL    HW214619   5.541   6.203   0.854
 4574SOL     OW14620   6.845   4.209   1.507
 4574SOL    HW114621   6.939   4.243   1.501
 4574SOL    HW214622   6.782   4.287   1.509
 4575SOL     OW14623   6.789   0.427   2.054
 4575SOL    HW114624   6.783   0.425   2.154
 4575SOL    HW214625   6.780   0.334   2.018
 4576SOL     OW14626   3.364   5.337   6.136
 4576SOL    HW114627   3.417   5.353   6.219
 4576SOL    HW214628   3.288   5.275   6.156
 4577SOL     OW14629   1.154   3.396   3.285
 4577SOL    HW114630   1.119   3.475   3.334
 4577SOL    HW214631   1.237   3.421   3.234
 4578SOL     OW14632   0.120   3.694   4.216
 4578SOL    HW114633   0.144   3.597   4.205
 4578SOL    HW214634   0.117   3.716   4.314
 4579SOL     OW14635   5.687   2.208   3.550
 4579SOL    HW114636   5.649   2.236   3.462
 4579SOL    HW214637   5.675   2.110   3.563
 4580SOL     OW14638   6.507   6.374   0.830
 4580SOL    HW114639   6.498   6.358   0.731
 4580SOL    HW214640   6.417   6.367   0.872
 4581SOL     OW14641   3.025   5.479   3.061
 4581SOL    HW114642   2.978   5.550   3.010
 4581SOL    HW214643   2.961   5.406   3.085
 4582SOL     OW14644   5.673   6.457   2.936
 4582SOL    HW114645   5.726   6.380   2.972
 4582SOL    HW214646   5.675   6.454   2.836
 4583SOL     OW14647   3.475   2.050   5.563
 4583SOL    HW114648   3.506   2.083   5.652
 4583SOL    HW214649   3.381   2.016   5.571
 4584SOL     OW14650   0.871   5.345   5.426
 4584SOL    HW114651   0.821   5.359   5.341
 4584SOL    HW214652   0.859   5.424   5.486
 4585SOL     OW14653   3.618   6.239   2.929
 4585SOL    HW114654   3.526   6.224   2.964
 4585SOL    HW214655   3.643   6.335   2.942
 4586SOL     OW14656   3.577   5.886   1.947
 4586SOL    HW114657   3.599   5.888   1.850
 4586SOL    HW214658   3.632   5.953   1.996
 4587SOL     OW14659   2.662   3.589   1.332
 4587SOL    HW114660   2.734   3.654   1.307
 4587SOL    HW214661   2.696   3.496   1.319
 4588SOL     OW14662   4.055   3.533   5.487
 4588SOL    HW114663   4.071   3.620   5.440
 4588SOL    HW214664   4.132   3.471   5.470
 4589SOL     OW14665   6.465   2.284   4.486
 4589SOL    HW114666   6.410   2.367   4.480
 4589SOL    HW214667   6.547   2.301   4.541
 4590SOL     OW14668   4.466   5.260   2.704
 4590SOL    HW114669   4.433   5.311   2.624
 4590SOL    HW214670   4.467   5.162   2.683
 4591SOL     OW14671   5.361   5.902   5.581
 4591SOL    HW114672   5.398   5.845   5.655
 4591SOL    HW214673   5.406   5.878   5.495
 4592SOL     OW14674   3.977   2.425   6.883
 4592SOL    HW114675   4.019   2.403   6.795
 4592SOL    HW214676   3.961   2.340   6.934
 4593SOL     OW14677   3.492   6.493   2.607
 4593SOL    HW114678   3.550   6.574   2.609
 4593SOL    HW214679   3.406   6.512   2.654
 4594SOL     OW14680   2.161   1.560   2.295
 4594SOL    HW114681   2.130   1.638   2.241
 4594SOL    HW214682   2.081   1.510   2.329
 4595SOL     OW14683   4.023   3.146   6.695
 4595SOL    HW114684   3.928   3.170   6.674
 4595SOL    HW214685   4.085   3.213   6.654
 4596SOL     OW14686   5.438   0.111   1.706
 4596SOL    HW114687   5.495   0.184   1.667
 4596SOL    HW214688   5.416   0.134   1.801
 4597SOL     OW14689   5.065   4.112   6.674
 4597SOL    HW114690   5.136   4.043   6.685
 4597SOL    HW214691   5.098   4.184   6.614
 4598SOL     OW14692   2.347   5.354   6.666
 4598SOL    HW114693   2.267   5.385   6.614
 4598SOL    HW214694   2.402   5.433   6.693
 4599SOL     OW14695   1.572   4.820   1.317
 4599SOL    HW114696   1.537   4.864   1.234
 4599SOL    HW214697   1.555   4.722   1.312
 4600SOL     OW14698   2.770   5.579   0.677
 4600SOL    HW114699   2.702   5.647   0.651
 4600SOL    HW214700   2.814   5.607   0.762
 4601SOL     OW14701   1.982   0.249   5.288
 4601SOL    HW114702   1.919   0.286   5.356
 4601SOL    HW214703   1.945   0.265   5.196
 4602SOL     OW14704   1.401   0.257   2.126
 4602SOL    HW114705   1.471   0.326   2.143
 4602SOL    HW214706   1.360   0.272   2.036
 4603SOL     OW14707   3.222   6.556   1.322
 4603SOL    HW114708   3.212   6.588   1.416
 4603SOL    HW214709   3.304   6.499   1.314
 4604SOL     OW14710   3.537   6.797   1.899
 4604SOL    HW114711   3.625   6.752   1.917
 4604SOL    HW214712   3.554   6.890   1.866
 4605SOL     OW14713   5.306   6.773   4.959
 4605SOL    HW114714   5.348   6.783   4.869
 4605SOL    HW214715   5.302   6.862   5.005
 4606SOL     OW14716   6.661   6.094   5.013
 4606SOL    HW114717   6.677   6.148   4.931
 4606SOL    HW214718   6.563   6.088   5.031
 4607SOL     OW14719   3.101   1.638   1.646
 4607SOL    HW114720   3.094   1.541   1.625
 4607SOL    HW214721   3.189   1.656   1.690
 4608SOL     OW14722   2.149   4.013   5.706
 4608SOL    HW114723   2.128   4.109   5.686
 4608SOL    HW214724   2.093   3.955   5.647
 4609SOL     OW14725   5.028   6.917   6.703
 4609SOL    HW114726   5.122   6.887   6.684
 4609SOL    HW214727   4.995   6.972   6.627
 4610SOL     OW14728   0.055   3.131   6.618
 4610SOL    HW114729   0.024   3.153   6.711
 4610SOL    HW214730   6.996   3.117   6.559
 4611SOL     OW14731   0.687   4.077   7.006
 4611SOL    HW114732   0.768   4.063   0.042
 4611SOL    HW214733   0.639   4.159   0.016
 4612SOL     OW14734   2.405   6.797   6.869
 4612SOL    HW114735   2.501   6.777   6.890
 4612SOL    HW214736   2.399   6.881   6.815
 4613SOL     OW14737   3.262   5.333   2.374
 4613SOL    HW114738   3.346   5.347   2.426
 4613SOL    HW214739   3.225   5.242   2.395
 4614SOL     OW14740   1.382   5.590   0.397
 4614SOL    HW114741   1.461   5.567   0.339
 4614SOL    HW214742   1.323   5.509   0.405
 4615SOL     OW14743   1.141   2.318   0.644
 4615SOL    HW114744   1.185   2.249   0.587
 4615SOL    HW214745   1.157   2.409   0.606
 4616SOL     OW14746   5.389   1.416   6.211
 4616SOL    HW114747   5.301   1.464   6.202
 4616SOL    HW214748   5.463   1.478   6.186
 4617SOL     OW14749   0.495   2.554   1.523
 4617SOL    HW114750   0.465   2.636   1.572
 4617SOL    HW214751   0.479   2.474   1.581
 4618SOL     OW14752   1.360   2.212   6.411
 4618SOL    HW114753   1.432   2.244   6.472
 4618SOL    HW214754   1.360   2.267   6.328
 4619SOL     OW14755   4.117   0.528   3.368
 4619SOL    HW114756   4.090   0.606   3.312
 4619SOL    HW214757   4.061   0.526   3.452
 4620SOL     OW14758   2.764   4.458   6.597
 4620SOL    HW114759   2.724   4.541   6.559
 4620SOL    HW214760   2.695   4.406   6.647
 4621SOL     OW14761   0.447   6.955   5.558
 4621SOL    HW114762   0.436   0.005   5.488
 4621SOL    HW214763   0.474   6.998   5.644
 4622SOL     OW14764   1.561   4.078   0.815
 4622SOL    HW114765   1.508   4.031   0.744
 4622SOL    HW214766   1.573   4.016   0.893
 4623SOL     OW14767   6.887   5.135   1.391
 4623SOL    HW114768   6.817   5.112   1.459
 4623SOL    HW214769   6.924   5.051   1.351
 4624SOL     OW14770   5.260   0.244   4.635
 4624SOL    HW114771   5.327   0.300   4.586
 4624SOL    HW214772   5.260   0.152   4.598
 4625SOL     OW14773   1.009   4.240   6.611
 4625SOL    HW114774   0.933   4.177   6.630
 4625SOL    HW214775   1.049   4.217   6.522
 4626SOL     OW14776   6.671   5.182   1.172
 4626SOL    HW114777   6.697   5.238   1.250
 4626SOL    HW214778   6.752   5.163   1.116
 4627SOL     OW14779   3.697   6.028   5.344
 4627SOL    HW114780   3.618   5.973   5.373
 4627SOL    HW214781   3.781   5.978   5.364
 4628SOL     OW14782   6.773   4.276   2.055
 4628SOL    HW114783   6.859   4.229   2.075
 4628SOL    HW214784   6.754   4.269   1.957
 4629SOL     OW14785   1.939   4.595   5.677
 4629SOL    HW114786   1.923   4.690   5.654
 4629SOL    HW214787   2.006   4.589   5.752
 4630SOL     OW14788   2.384   6.010   3.002
 4630SOL    HW114789   2.457   5.979   2.941
 4630SOL    HW214790   2.390   6.110   3.013
 4631SOL     OW14791   2.720   6.618   2.558
 4631SOL    HW114792   2.712   6.577   2.467
 4631SOL    HW214793   2.644   6.588   2.615
 4632SOL     OW14794   5.244   5.575   4.220
 4632SOL    HW114795   5.195   5.489   4.208
 4632SOL    HW214796   5.201   5.646   4.164
 4633SOL     OW14797   6.351   2.065   4.345
 4633SOL    HW114798   6.390   2.144   4.393
 4633SOL    HW214799   6.392   2.057   4.254
 4634SOL     OW14800   3.054   4.692   0.804
 4634SOL    HW114801   3.077   4.602   0.768
 4634SOL    HW214802   2.956   4.697   0.823
 4635SOL     OW14803   5.163   3.298   1.843
 4635SOL    HW114804   5.156   3.219   1.781
 4635SOL    HW214805   5.248   3.348   1.823
 4636SOL     OW14806   3.069   5.513   0.411
 4636SOL    HW114807   3.167   5.531   0.421
 4636SOL    HW214808   3.027   5.588   0.360
 4637SOL     OW14809   1.133   1.063   5.371
 4637SOL    HW114810   1.209   1.055   5.436
 4637SOL    HW214811   1.055   1.106   5.416
 4638SOL     OW14812   4.974   3.473   5.709
 4638SOL    HW114813   4.942   3.414   5.783
 4638SOL    HW214814   4.899   3.487   5.643
 4639SOL     OW14815   0.272   3.947   5.550
 4639SOL    HW114816   0.201   3.962   5.481
 4639SOL    HW214817   0.231   3.910   5.633
 4640SOL     OW14818   5.656   4.329   2.590
 4640SOL    HW114819   5.664   4.258   2.660
 4640SOL    HW214820   5.561   4.359   2.584
 4641SOL     OW14821   2.086   4.963   4.727
 4641SOL    HW114822   2.099   4.922   4.636
 4641SOL    HW214823   2.124   4.902   4.796
 4642SOL     OW14824   6.029   5.885   4.896
 4642SOL    HW114825   5.967   5.807   4.901
 4642SOL    HW214826   6.002   5.945   4.821
 4643SOL     OW14827   3.826   2.216   1.719
 4643SOL    HW114828   3.890   2.290   1.703
 4643SOL    HW214829   3.750   2.249   1.775
 4644SOL     OW14830   1.887   6.119   4.708
 4644SOL    HW114831   1.890   6.133   4.807
 4644SOL    HW214832   1.821   6.048   4.687
 4645SOL     OW14833   1.840   6.369   4.653
 4645SOL    HW114834   1.841   6.384   4.555
 4645SOL    HW214835   1.830   6.271   4.672
 4646SOL     OW14836   3.652   0.799   2.072
 4646SOL    HW114837   3.670   0.740   1.994
 4646SOL    HW214838   3.724   0.788   2.140
 4647SOL     OW14839   6.200   0.503   4.328
 4647SOL    HW114840   6.202   0.560   4.246
 4647SOL    HW214841   6.241   0.414   4.307
 4648SOL     OW14842   2.210   5.702   2.685
 4648SOL    HW114843   2.305   5.676   2.705
 4648SOL    HW214844   2.153   5.682   2.765
 4649SOL     OW14845   5.305   0.874   5.800
 4649SOL    HW114846   5.212   0.862   5.765
 4649SOL    HW214847   5.303   0.881   5.899
 4650SOL     OW14848   5.510   5.177   2.279
 4650SOL    HW114849   5.561   5.213   2.201
 4650SOL    HW214850   5.511   5.077   2.276
 4651SOL     OW14851   0.473   2.361   1.717
 4651SOL    HW114852   0.455   2.369   1.815
 4651SOL    HW214853   0.502   2.268   1.696
 4652SOL     OW14854   6.815   6.913   5.684
 4652SOL    HW114855   6.829   6.939   5.588
 4652SOL    HW214856   6.738   6.965   5.722
 4653SOL     OW14857   0.193   6.345   6.977
 4653SOL    HW114858   0.210   6.307   6.886
 4653SOL    HW214859   0.240   6.433   6.986
 4654SOL     OW14860   1.474   0.689   0.073
 4654SOL    HW114861   1.508   0.644   7.010
 4654SOL    HW214862   1.432   0.622   0.133
 4655SOL     OW14863   0.390   4.653   3.278
 4655SOL    HW114864   0.342   4.693   3.356
 4655SOL    HW214865   0.463   4.593   3.311
 4656SOL     OW14866   1.183   0.457   3.760
 4656SOL    HW114867   1.252   0.440   3.691
 4656SOL    HW214868   1.174   0.556   3.775
 4657SOL     OW14869   5.063   0.024   0.988
 4657SOL    HW114870   5.031   0.020   0.893
 4657SOL    HW214871   4.995   0.070   1.044
 4658SOL     OW14872   4.940   0.297   3.026
 4658SOL    HW114873   4.940   0.296   2.926
 4658SOL    HW214874   4.873   0.364   3.058
 4659SOL     OW14875   1.895   2.649   4.975
 4659SOL    HW114876   1.843   2.728   5.008
 4659SOL    HW214877   1.940   2.604   5.052
 4660SOL     OW14878   0.098   1.073   6.219
 4660SOL    HW114879   0.110   1.005   6.147
 4660SOL    HW214880   0.125   1.034   6.307
 4661SOL     OW14881   3.033   3.622   3.809
 4661SOL    HW114882   3.032   3.722   3.811
 4661SOL    HW214883   3.011   3.586   3.899
 4662SOL     OW14884   4.847   0.496   5.398
 4662SOL    HW114885   4.916   0.567   5.395
 4662SOL    HW214886   4.851   0.440   5.315
 4663SOL     OW14887   0.392   2.302   2.437
 4663SOL    HW114888   0.468   2.344   2.488
 4663SOL    HW214889   0.428   2.233   2.375
 4664SOL     OW14890   3.268   2.172   0.405
 4664SOL    HW114891   3.227   2.083   0.386
 4664SOL    HW214892   3.311   2.207   0.323
 4665SOL     OW14893   5.068   0.156   0.003
 4665SOL    HW114894   4.998   0.207   0.053
 4665SOL    HW214895   5.042   0.059   7.019
 4666SOL     OW14896   2.537   1.337   0.443
 4666SOL    HW114897   2.510   1.336   0.539
 4666SOL    HW214898   2.636   1.322   0.436
 4667SOL     OW14899   0.074   5.105   6.581
 4667SOL    HW114900   0.120   5.165   6.516
 4667SOL    HW214901   6.995   5.117   6.573
 4668SOL     OW14902   6.637   1.744   3.951
 4668SOL    HW114903   6.692   1.675   3.998
 4668SOL    HW214904   6.613   1.817   4.016
 4669SOL     OW14905   1.416   0.295   0.372
 4669SOL    HW114906   1.321   0.327   0.373
 4669SOL    HW214907   1.436   0.246   0.457
 4670SOL     OW14908   2.381   2.124   3.947
 4670SOL    HW114909   2.313   2.190   3.979
 4670SOL    HW214910   2.408   2.065   4.023
 4671SOL     OW14911   5.652   3.588   1.702
 4671SOL    HW114912   5.752   3.588   1.703
 4671SOL    HW214913   5.619   3.613   1.611
 4672SOL     OW14914   2.092   3.553   6.275
 4672SOL    HW114915   1.997   3.583   6.288
 4672SOL    HW214916   2.151   3.600   6.341
 4673SOL     OW14917   4.187   0.827   2.857
 4673SOL    HW114918   4.283   0.855   2.854
 4673SOL    HW214919   4.181   0.728   2.847
 4674SOL     OW14920   4.657   5.715   5.425
 4674SOL    HW114921   4.568   5.700   5.383
 4674SOL    HW214922   4.670   5.813   5.441
 4675SOL     OW14923   0.828   4.410   0.248
 4675SOL    HW114924   0.909   4.352   0.255
 4675SOL    HW214925   0.850   4.502   0.281
 4676SOL     OW14926   1.134   5.585   3.514
 4676SOL    HW114927   1.075   5.504   3.505
 4676SOL    HW214928   1.205   5.566   3.583
 4677SOL     OW14929   1.830   2.799   0.370
 4677SOL    HW114930   1.763   2.863   0.332
 4677SOL    HW214931   1.791   2.707   0.371
 4678SOL     OW14932   2.087   4.700   2.900
 4678SOL    HW114933   2.033   4.784   2.892
 4678SOL    HW214934   2.061   4.637   2.827
 4679SOL     OW14935   5.146   0.067   1.671
 4679SOL    HW114936   5.198   0.148   1.646
 4679SOL    HW214937   5.048   0.088   1.672
 4680SOL     OW14938   2.330   1.311   1.907
 4680SOL    HW114939   2.337   1.351   1.815
 4680SOL    HW214940   2.352   1.214   1.903
 4681SOL     OW14941   5.585   4.140   1.355
 4681SOL    HW114942   5.493   4.107   1.379
 4681SOL    HW214943   5.635   4.162   1.438
 4682SOL     OW14944   4.088   3.557   6.621
 4682SOL    HW114945   4.158   3.623   6.647
 4682SOL    HW214946   4.127   3.465   6.620
 4683SOL     OW14947   6.189   4.229   3.579
 4683SOL    HW114948   6.166   4.222   3.676
 4683SOL    HW214949   6.285   4.204   3.565
 4684SOL     OW14950   4.752   6.156   0.244
 4684SOL    HW114951   4.697   6.185   0.322
 4684SOL    HW214952   4.820   6.089   0.274
 4685SOL     OW14953   2.574   3.419   5.851
 4685SOL    HW114954   2.475   3.425   5.865
 4685SOL    HW214955   2.596   3.337   5.798
 4686SOL     OW14956   2.899   6.197   0.244
 4686SOL    HW114957   2.818   6.250   0.221
 4686SOL    HW214958   2.951   6.179   0.161
 4687SOL     OW14959   2.947   0.521   2.690
 4687SOL    HW114960   2.955   0.463   2.609
 4687SOL    HW214961   2.850   0.538   2.709
 4688SOL     OW14962   5.655   3.401   5.789
 4688SOL    HW114963   5.723   3.411   5.716
 4688SOL    HW214964   5.595   3.482   5.789
 4689SOL     OW14965   5.603   0.798   0.748
 4689SOL    HW114966   5.568   0.871   0.689
 4689SOL    HW214967   5.659   0.735   0.694
 4690SOL     OW14968   2.823   1.317   0.506
 4690SOL    HW114969   2.786   1.225   0.511
 4690SOL    HW214970   2.908   1.316   0.453
 4691SOL     OW14971   6.387   4.615   0.874
 4691SOL    HW114972   6.459   4.639   0.940
 4691SOL    HW214973   6.345   4.698   0.840
 4692SOL     OW14974   6.350   3.922   2.916
 4692SOL    HW114975   6.415   3.958   2.850
 4692SOL    HW214976   6.380   3.945   3.009
 4693SOL     OW14977   2.053   0.977   3.875
 4693SOL    HW114978   2.014   0.976   3.783
 4693SOL    HW214979   2.110   0.896   3.889
 4694SOL     OW14980   2.663   1.415   0.161
 4694SOL    HW114981   2.727   1.464   0.220
 4694SOL    HW214982   2.570   1.439   0.186
 4695SOL     OW14983   1.089   5.899   1.545
 4695SOL    HW114984   1.133   5.988   1.535
 4695SOL    HW214985   1.151   5.835   1.591
 4696SOL     OW14986   0.963   4.859   6.255
 4696SOL    HW114987   1.062   4.853   6.243
 4696SOL    HW214988   0.917   4.843   6.168
 4697SOL     OW14989   2.718   4.670   0.714
 4697SOL    HW114990   2.730   4.769   0.716
 4697SOL    HW214991   2.730   4.633   0.806
 4698SOL     OW14992   4.804   0.735   2.904
 4698SOL    HW114993   4.895   0.695   2.909
 4698SOL    HW214994   4.800   0.799   2.827
 4699SOL     OW14995   1.084   0.105   2.581
 4699SOL    HW114996   1.117   0.034   2.520
 4699SOL    HW214997   1.155   0.128   2.648
 4700SOL     OW14998   5.831   2.079   2.826
 4700SOL    HW114999   5.877   1.990   2.824
 4700SOL    HW215000   5.787   2.095   2.737
 4701SOL     OW15001   3.223   1.912   1.993
 4701SOL    HW115002   3.185   1.973   1.923
 4701SOL    HW215003   3.322   1.925   1.997
 4702SOL     OW15004   5.294   4.741   6.120
 4702SOL    HW115005   5.336   4.783   6.040
 4702SOL    HW215006   5.326   4.788   6.203
 4703SOL     OW15007   0.686   4.658   3.411
 4703SOL    HW115008   0.775   4.627   3.446
 4703SOL    HW215009   0.613   4.624   3.472
 4704SOL     OW15010   0.862   5.039   5.511
 4704SOL    HW115011   0.869   5.074   5.418
 4704SOL    HW215012   0.768   5.009   5.529
 4705SOL     OW15013   3.158   2.872   1.847
 4705SOL    HW115014   3.196   2.868   1.940
 4705SOL    HW215015   3.127   2.780   1.820
 4706SOL     OW15016   1.477   1.028   0.304
 4706SOL    HW115017   1.548   1.077   0.254
 4706SOL    HW215018   1.497   1.032   0.402
 4707SOL     OW15019   1.048   0.280   1.322
 4707SOL    HW115020   1.044   0.303   1.419
 4707SOL    HW215021   1.143   0.274   1.293
 4708SOL     OW15022   0.418   2.664   4.203
 4708SOL    HW115023   0.407   2.577   4.155
 4708SOL    HW215024   0.384   2.738   4.145
 4709SOL     OW15025   4.589   3.938   5.310
 4709SOL    HW115026   4.609   3.894   5.398
 4709SOL    HW215027   4.675   3.967   5.268
 4710SOL     OW15028   5.801   6.267   4.198
 4710SOL    HW115029   5.786   6.202   4.273
 4710SOL    HW215030   5.713   6.305   4.169
 4711SOL     OW15031   6.021   3.093   3.189
 4711SOL    HW115032   6.026   3.172   3.250
 4711SOL    HW215033   6.005   3.125   3.095
 4712SOL     OW15034   4.324   4.105   5.327
 4712SOL    HW115035   4.276   4.120   5.241
 4712SOL    HW215036   4.388   4.028   5.317
 4713SOL     OW15037   5.870   4.282   0.890
 4713SOL    HW115038   5.849   4.264   0.986
 4713SOL    HW215039   5.786   4.279   0.835
 4714SOL     OW15040   6.168   0.762   6.118
 4714SOL    HW115041   6.223   0.745   6.200
 4714SOL    HW215042   6.183   0.856   6.087
 4715SOL     OW15043   6.130   1.537   1.760
 4715SOL    HW115044   6.168   1.480   1.833
 4715SOL    HW215045   6.130   1.486   1.674
 4716SOL     OW15046   4.019   4.603   5.716
 4716SOL    HW115047   3.972   4.657   5.645
 4716SOL    HW215048   4.051   4.517   5.676
 4717SOL     OW15049   2.836   5.485   5.173
 4717SOL    HW115050   2.831   5.404   5.232
 4717SOL    HW215051   2.789   5.467   5.087
 4718SOL     OW15052   5.334   4.298   1.251
 4718SOL    HW115053   5.257   4.247   1.290
 4718SOL    HW215054   5.403   4.315   1.322
 4719SOL     OW15055   6.868   3.370   3.749
 4719SOL    HW115056   6.782   3.333   3.712
 4719SOL    HW215057   6.872   3.352   3.848
 4720SOL     OW15058   2.925   4.036   6.840
 4720SOL    HW115059   2.861   4.079   6.904
 4720SOL    HW215060   2.946   4.098   6.765
 4721SOL     OW15061   6.546   3.681   2.623
 4721SOL    HW115062   6.506   3.764   2.583
 4721SOL    HW215063   6.501   3.661   2.710
 4722SOL     OW15064   0.985   4.222   6.348
 4722SOL    HW115065   0.897   4.262   6.320
 4722SOL    HW215066   1.049   4.227   6.272
 4723SOL     OW15067   3.921   3.733   6.518
 4723SOL    HW115068   3.978   3.657   6.550
 4723SOL    HW215069   3.959   3.819   6.552
 4724SOL     OW15070   1.073   6.659   4.487
 4724SOL    HW115071   1.118   6.742   4.455
 4724SOL    HW215072   1.029   6.613   4.409
 4725SOL     OW15073   6.219   6.017   0.644
 4725SOL    HW115074   6.293   5.972   0.595
 4725SOL    HW215075   6.232   6.005   0.742
 4726SOL     OW15076   1.658   3.052   5.499
 4726SOL    HW115077   1.701   3.007   5.421
 4726SOL    HW215078   1.637   3.147   5.476
 4727SOL     OW15079   0.969   5.715   0.485
 4727SOL    HW115080   1.034   5.787   0.506
 4727SOL    HW215081   0.877   5.753   0.479
 4728SOL     OW15082   6.212   1.403   3.877
 4728SOL    HW115083   6.172   1.366   3.962
 4728SOL    HW215084   6.300   1.359   3.860
 4729SOL     OW15085   6.151   0.895   0.434
 4729SOL    HW115086   6.237   0.853   0.463
 4729SOL    HW215087   6.114   0.846   0.355
 4730SOL     OW15088   3.668   0.222   5.016
 4730SOL    HW115089   3.613   0.303   4.996
 4730SOL    HW215090   3.721   0.238   5.099
 4731SOL     OW15091   3.155   0.612   0.795
 4731SOL    HW115092   3.150   0.514   0.779
 4731SOL    HW215093   3.175   0.629   0.891
 4732SOL     OW15094   6.676   4.141   4.448
 4732SOL    HW115095   6.721   4.103   4.367
 4732SOL    HW215096   6.713   4.098   4.530
 4733SOL     OW15097   2.111   3.219   3.040
 4733SOL    HW115098   2.097   3.313   3.009
 4733SOL    HW215099   2.090   3.212   3.137
 4734SOL     OW15100   4.927   3.871   6.555
 4734SOL    HW115101   4.977   3.945   6.600
 4734SOL    HW215102   4.946   3.784   6.602
 4735SOL     OW15103   0.431   6.401   4.941
 4735SOL    HW115104   0.333   6.412   4.926
 4735SOL    HW215105   0.451   6.306   4.963
 4736SOL     OW15106   6.347   2.001   2.832
 4736SOL    HW115107   6.360   1.902   2.821
 4736SOL    HW215108   6.349   2.024   2.930
 4737SOL     OW15109   2.253   5.115   1.038
 4737SOL    HW115110   2.342   5.070   1.050
 4737SOL    HW215111   2.181   5.059   1.077
 4738SOL     OW15112   2.068   0.117   3.777
 4738SOL    HW115113   2.161   0.150   3.792
 4738SOL    HW215114   2.005   0.167   3.835
 4739SOL     OW15115   5.772   3.444   4.313
 4739SOL    HW115116   5.719   3.460   4.230
 4739SOL    HW215117   5.732   3.496   4.388
 4740SOL     OW15118   0.444   1.095   1.375
 4740SOL    HW115119   0.420   1.160   1.303
 4740SOL    HW215120   0.362   1.069   1.425
 4741SOL     OW15121   4.666   4.708   1.655
 4741SOL    HW115122   4.723   4.626   1.644
 4741SOL    HW215123   4.613   4.724   1.572
 4742SOL     OW15124   2.624   5.878   1.359
 4742SOL    HW115125   2.613   5.864   1.457
 4742SOL    HW215126   2.713   5.918   1.340
 4743SOL     OW15127   2.245   2.338   0.302
 4743SOL    HW115128   2.264   2.353   0.399
 4743SOL    HW215129   2.206   2.247   0.290
 4744SOL     OW15130   2.114   3.599   5.514
 4744SOL    HW115131   2.050   3.656   5.463
 4744SOL    HW215132   2.208   3.623   5.489
 4745SOL     OW15133   3.457   5.636   4.649
 4745SOL    HW115134   3.366   5.609   4.681
 4745SOL    HW215135   3.506   5.683   4.722
 4746SOL     OW15136   6.512   6.739   1.132
 4746SOL    HW115137   6.526   6.812   1.065
 4746SOL    HW215138   6.575   6.752   1.208
 4747SOL     OW15139   6.713   1.805   0.649
 4747SOL    HW115140   6.731   1.882   0.586
 4747SOL    HW215141   6.630   1.824   0.701
 4748SOL     OW15142   1.156   1.107   1.340
 4748SOL    HW115143   1.083   1.132   1.404
 4748SOL    HW215144   1.207   1.030   1.377
 4749SOL     OW15145   2.121   6.729   0.191
 4749SOL    HW115146   2.077   6.797   0.249
 4749SOL    HW215147   2.210   6.762   0.160
 4750SOL     OW15148   0.098   0.467   4.345
 4750SOL    HW115149   0.100   0.400   4.420
 4750SOL    HW215150   0.153   0.546   4.370
 4751SOL     OW15151   1.407   4.634   6.069
 4751SOL    HW115152   1.499   4.594   6.066
 4751SOL    HW215153   1.341   4.565   6.099
 4752SOL     OW15154   2.992   6.098   1.865
 4752SOL    HW115155   2.940   6.153   1.930
 4752SOL    HW215156   3.075   6.063   1.909
 4753SOL     OW15157   5.762   6.602   5.533
 4753SOL    HW115158   5.690   6.546   5.574
 4753SOL    HW215159   5.852   6.566   5.560
 4754SOL     OW15160   0.441   0.628   5.844
 4754SOL    HW115161   0.507   0.657   5.776
 4754SOL    HW215162   0.348   0.636   5.806
 4755SOL     OW15163   2.305   1.126   6.050
 4755SOL    HW115164   2.281   1.221   6.031
 4755SOL    HW215165   2.224   1.076   6.080
 4756SOL     OW15166   4.865   2.867   1.548
 4756SOL    HW115167   4.902   2.774   1.544
 4756SOL    HW215168   4.825   2.891   1.460
 4757SOL     OW15169   2.225   2.164   1.699
 4757SOL    HW115170   2.313   2.159   1.745
 4757SOL    HW215171   2.153   2.134   1.761
 4758SOL     OW15172   5.060   5.201   5.307
 4758SOL    HW115173   5.101   5.289   5.286
 4758SOL    HW215174   5.022   5.161   5.224
 4759SOL     OW15175   5.500   5.626   6.358
 4759SOL    HW115176   5.588   5.583   6.374
 4759SOL    HW215177   5.472   5.612   6.263
 4760SOL     OW15178   1.865   1.118   1.498
 4760SOL    HW115179   1.900   1.181   1.568
 4760SOL    HW215180   1.941   1.082   1.444
 4761SOL     OW15181   6.757   6.951   6.415
 4761SOL    HW115182   6.687   6.947   6.343
 4761SOL    HW215183   6.845   6.923   6.376
 4762SOL     OW15184   2.305   5.814   1.776
 4762SOL    HW115185   2.356   5.785   1.857
 4762SOL    HW215186   2.233   5.878   1.804
 4763SOL     OW15187   5.986   6.181   3.542
 4763SOL    HW115188   6.019   6.111   3.605
 4763SOL    HW215189   5.889   6.199   3.560
 4764SOL     OW15190   3.778   3.922   4.936
 4764SOL    HW115191   3.825   3.947   4.851
 4764SOL    HW215192   3.841   3.875   4.997
 4765SOL     OW15193   5.079   5.901   4.687
 4765SOL    HW115194   5.147   5.835   4.720
 4765SOL    HW215195   5.026   5.860   4.613
 4766SOL     OW15196   2.544   6.949   3.182
 4766SOL    HW115197   2.604   6.935   3.103
 4766SOL    HW215198   2.582   6.900   3.261
 4767SOL     OW15199   4.204   6.535   6.564
 4767SOL    HW115200   4.136   6.579   6.622
 4767SOL    HW215201   4.288   6.588   6.564
 4768SOL     OW15202   6.377   0.481   4.750
 4768SOL    HW115203   6.470   0.445   4.757
 4768SOL    HW215204   6.374   0.552   4.680
 4769SOL     OW15205   4.318   6.282   1.902
 4769SOL    HW115206   4.283   6.225   1.976
 4769SOL    HW215207   4.257   6.359   1.887
 4770SOL     OW15208   2.924   0.481   3.296
 4770SOL    HW115209   2.966   0.560   3.342
 4770SOL    HW215210   2.857   0.439   3.358
 4771SOL     OW15211   4.080   4.051   5.913
 4771SOL    HW115212   4.033   4.056   5.825
 4771SOL    HW215213   4.158   3.990   5.906
 4772SOL     OW15214   2.886   1.423   1.583
 4772SOL    HW115215   2.830   1.468   1.653
 4772SOL    HW215216   2.895   1.483   1.504
 4773SOL     OW15217   0.034   5.916   3.539
 4773SOL    HW115218   7.009   5.830   3.561
 4773SOL    HW215219   0.121   5.897   3.494
 4774SOL     OW15220   0.534   3.641   1.121
 4774SOL    HW115221   0.577   3.716   1.070
 4774SOL    HW215222   0.557   3.554   1.078
 4775SOL     OW15223   4.238   0.411   2.409
 4775SOL    HW115224   4.229   0.439   2.314
 4775SOL    HW215225   4.335   0.409   2.434
 4776SOL     OW15226   2.618   5.905   2.499
 4776SOL    HW115227   2.562   5.970   2.448
 4776SOL    HW215228   2.715   5.921   2.480
 4777SOL     OW15229   2.969   4.463   1.273
 4777SOL    HW115230   2.894   4.454   1.338
 4777SOL    HW215231   2.966   4.554   1.230
 4778SOL     OW15232   4.882   3.831   2.224
 4778SOL    HW115233   4.841   3.741   2.204
 4778SOL    HW215234   4.965   3.842   2.169
 4779SOL     OW15235   5.932   0.676   3.037
 4779SOL    HW115236   5.971   0.585   3.023
 4779SOL    HW215237   5.944   0.731   2.955
 4780SOL     OW15238   1.477   6.798   6.550
 4780SOL    HW115239   1.421   6.874   6.582
 4780SOL    HW215240   1.573   6.825   6.549
 4781SOL     OW15241   2.727   5.467   1.326
 4781SOL    HW115242   2.705   5.467   1.424
 4781SOL    HW215243   2.665   5.530   1.279
 4782SOL     OW15244   5.380   6.580   6.993
 4782SOL    HW115245   5.393   6.552   0.068
 4782SOL    HW215246   5.357   6.500   6.937
 4783SOL     OW15247   5.591   4.196   0.778
 4783SOL    HW115248   5.598   4.277   0.720
 4783SOL    HW215249   5.503   4.196   0.826
 4784SOL     OW15250   5.362   4.930   4.796
 4784SOL    HW115251   5.418   4.929   4.879
 4784SOL    HW215252   5.350   4.837   4.763
 4785SOL     OW15253   6.641   6.133   1.217
 4785SOL    HW115254   6.690   6.208   1.173
 4785SOL    HW215255   6.561   6.169   1.264
 4786SOL     OW15256   2.044   3.224   1.910
 4786SOL    HW115257   2.084   3.248   1.999
 4786SOL    HW215258   2.076   3.288   1.840
 4787SOL     OW15259   3.211   2.116   3.202
 4787SOL    HW115260   3.277   2.111   3.277
 4787SOL    HW215261   3.120   2.138   3.239
 4788SOL     OW15262   1.188   4.934   4.399
 4788SOL    HW115263   1.271   4.919   4.345
 4788SOL    HW215264   1.121   4.863   4.378
 4789SOL     OW15265   5.593   0.509   6.843
 4789SOL    HW115266   5.653   0.553   6.910
 4789SOL    HW215267   5.528   0.576   6.808
 4790SOL     OW15268   5.739   2.554   6.455
 4790SOL    HW115269   5.715   2.651   6.450
 4790SOL    HW215270   5.655   2.500   6.460
 4791SOL     OW15271   5.414   6.903   1.909
 4791SOL    HW115272   5.332   6.950   1.873
 4791SOL    HW215273   5.388   6.815   1.948
 4792SOL     OW15274   2.108   2.547   2.877
 4792SOL    HW115275   2.117   2.494   2.793
 4792SOL    HW215276   2.132   2.642   2.859
 4793SOL     OW15277   1.671   6.802   6.265
 4793SOL    HW115278   1.600   6.778   6.332
 4793SOL    HW215279   1.698   6.720   6.215
 4794SOL     OW15280   2.737   0.140   2.917
 4794SOL    HW115281   2.646   0.172   2.891
 4794SOL    HW215282   2.801   0.217   2.915
 4795SOL     OW15283   6.617   3.065   4.314
 4795SOL    HW115284   6.638   3.084   4.410
 4795SOL    HW215285   6.589   2.970   4.303
 4796SOL     OW15286   6.072   3.533   0.980
 4796SOL    HW115287   6.138   3.603   0.952
 4796SOL    HW215288   6.102   3.444   0.943
 4797SOL     OW15289   0.592   4.772   5.827
 4797SOL    HW115290   0.492   4.771   5.827
 4797SOL    HW215291   0.627   4.679   5.832
 4798SOL     OW15292   0.388   4.016   4.488
 4798SOL    HW115293   0.353   4.110   4.481
 4798SOL    HW215294   0.315   3.952   4.464
 4799SOL     OW15295   4.129   1.425   5.159
 4799SOL    HW115296   4.052   1.467   5.109
 4799SOL    HW215297   4.156   1.485   5.234
 4800SOL     OW15298   2.225   2.575   5.442
 4800SOL    HW115299   2.234   2.674   5.432
 4800SOL    HW215300   2.159   2.540   5.375
 4801SOL     OW15301   1.476   1.626   0.689
 4801SOL    HW115302   1.382   1.660   0.696
 4801SOL    HW215303   1.539   1.704   0.685
 4802SOL     OW15304   3.214   0.247   1.815
 4802SOL    HW115305   3.238   0.329   1.866
 4802SOL    HW215306   3.262   0.248   1.727
 4803SOL     OW15307   0.765   0.168   0.325
 4803SOL    HW115308   0.801   0.165   0.418
 4803SOL    HW215309   0.812   0.240   0.273
 4804SOL     OW15310   3.938   5.386   6.092
 4804SOL    HW115311   3.895   5.323   6.027
 4804SOL    HW215312   4.038   5.375   6.088
 4805SOL     OW15313   0.075   1.579   0.439
 4805SOL    HW115314   0.143   1.626   0.495
 4805SOL    HW215315   7.006   1.582   0.484
 4806SOL     OW15316   0.448   3.166   2.629
 4806SOL    HW115317   0.362   3.216   2.625
 4806SOL    HW215318   0.433   3.078   2.675
 4807SOL     OW15319   0.406   6.456   1.278
 4807SOL    HW115320   0.430   6.553   1.277
 4807SOL    HW215321   0.418   6.419   1.370
 4808SOL     OW15322   5.333   3.566   1.391
 4808SOL    HW115323   5.415   3.621   1.410
 4808SOL    HW215324   5.255   3.606   1.440
 4809SOL     OW15325   3.555   5.107   6.793
 4809SOL    HW115326   3.510   5.048   6.726
 4809SOL    HW215327   3.547   5.066   6.884
 4810SOL     OW15328   0.832   6.501   1.715
 4810SOL    HW115329   0.750   6.558   1.711
 4810SOL    HW215330   0.816   6.416   1.666
 4811SOL     OW15331   3.488   5.114   2.184
 4811SOL    HW115332   3.463   5.069   2.098
 4811SOL    HW215333   3.579   5.083   2.212
 4812SOL     OW15334   0.200   5.388   4.245
 4812SOL    HW115335   0.193   5.338   4.332
 4812SOL    HW215336   0.235   5.327   4.174
 4813SOL     OW15337   4.895   2.265   2.523
 4813SOL    HW115338   4.896   2.279   2.424
 4813SOL    HW215339   4.902   2.353   2.570
 4814SOL     OW15340   0.230   3.931   0.929
 4814SOL    HW115341   0.140   3.902   0.896
 4814SOL    HW215342   0.301   3.883   0.877
 4815SOL     OW15343   4.925   5.602   1.323
 4815SOL    HW115344   4.858   5.527   1.326
 4815SOL    HW215345   4.877   5.688   1.303
 4816SOL     OW15346   5.244   5.221   2.682
 4816SOL    HW115347   5.306   5.170   2.623
 4816SOL    HW215348   5.178   5.271   2.626
 4817SOL     OW15349   1.641   2.412   6.255
 4817SOL    HW115350   1.620   2.343   6.185
 4817SOL    HW215351   1.560   2.429   6.311
 4818SOL     OW15352   0.364   6.857   3.874
 4818SOL    HW115353   0.316   6.917   3.810
 4818SOL    HW215354   0.440   6.908   3.917
 4819SOL     OW15355   1.238   3.134   0.242
 4819SOL    HW115356   1.259   3.140   0.340
 4819SOL    HW215357   1.313   3.087   0.195
 4820SOL     OW15358   0.071   3.210   1.821
 4820SOL    HW115359   7.005   3.261   1.825
 4820SOL    HW215360   0.145   3.266   1.858
 4821SOL     OW15361   6.543   5.940   2.685
 4821SOL    HW115362   6.450   5.949   2.651
 4821SOL    HW215363   6.544   5.879   2.764
 4822SOL     OW15364   1.115   3.569   4.260
 4822SOL    HW115365   1.193   3.594   4.203
 4822SOL    HW215366   1.066   3.651   4.288
 4823SOL     OW15367   1.675   2.585   2.061
 4823SOL    HW115368   1.752   2.523   2.050
 4823SOL    HW215369   1.660   2.602   2.159
 4824SOL     OW15370   6.280   1.138   5.161
 4824SOL    HW115371   6.209   1.093   5.216
 4824SOL    HW215372   6.242   1.162   5.071
 4825SOL     OW15373   1.646   6.980   3.950
 4825SOL    HW115374   1.742   6.959   3.933
 4825SOL    HW215375   1.618   6.940   4.037
 4826SOL     OW15376   4.430   0.467   1.805
 4826SOL    HW115377   4.434   0.452   1.706
 4826SOL    HW215378   4.461   0.385   1.853
 4827SOL     OW15379   6.922   1.954   1.267
 4827SOL    HW115380   6.862   1.876   1.246
 4827SOL    HW215381   7.002   1.952   1.207
 4828SOL     OW15382   4.585   0.627   2.374
 4828SOL    HW115383   4.489   0.650   2.389
 4828SOL    HW215384   4.628   0.606   2.461
 4829SOL     OW15385   3.870   0.232   5.225
 4829SOL    HW115386   3.936   0.157   5.221
 4829SOL    HW215387   3.864   0.266   5.319
 4830SOL     OW15388   3.212   5.825   3.552
 4830SOL    HW115389   3.311   5.837   3.558
 4830SOL    HW215390   3.189   5.786   3.463
 4831SOL     OW15391   3.352   4.847   6.259
 4831SOL    HW115392   3.295   4.928   6.247
 4831SOL    HW215393   3.398   4.851   6.347
 4832SOL     OW15394   3.218   3.014   4.167
 4832SOL    HW115395   3.279   3.072   4.113
 4832SOL    HW215396   3.145   3.070   4.207
 4833SOL     OW15397   0.007   2.702   4.205
 4833SOL    HW115398   6.965   2.780   4.214
 4833SOL    HW215399   0.070   2.719   4.129
 4834SOL     OW15400   1.814   4.946   1.886
 4834SOL    HW115401   1.765   4.985   1.964
 4834SOL    HW215402   1.802   5.006   1.806
 4835SOL     OW15403   6.903   2.572   5.307
 4835SOL    HW115404   6.929   2.592   5.212
 4835SOL    HW215405   6.880   2.658   5.354
 4836SOL     OW15406   4.732   1.300   5.420
 4836SOL    HW115407   4.741   1.341   5.511
 4836SOL    HW215408   4.704   1.204   5.430
 4837SOL     OW15409   6.805   4.094   4.686
 4837SOL    HW115410   6.867   4.027   4.728
 4837SOL    HW215411   6.812   4.181   4.736
 4838SOL     OW15412   1.261   4.646   6.677
 4838SOL    HW115413   1.334   4.582   6.654
 4838SOL    HW215414   1.266   4.726   6.617
 4839SOL     OW15415   2.626   1.405   6.915
 4839SOL    HW115416   2.538   1.449   6.898
 4839SOL    HW215417   2.658   1.430   7.007
 4840SOL     OW15418   5.684   3.539   4.827
 4840SOL    HW115419   5.646   3.551   4.919
 4840SOL    HW215420   5.692   3.442   4.807
 4841SOL     OW15421   2.935   5.688   2.863
 4841SOL    HW115422   2.980   5.652   2.782
 4841SOL    HW215423   2.999   5.744   2.916
 4842SOL     OW15424   2.681   5.433   3.060
 4842SOL    HW115425   2.735   5.355   3.091
 4842SOL    HW215426   2.597   5.439   3.114
 4843SOL     OW15427   0.670   2.478   2.153
 4843SOL    HW115428   0.734   2.469   2.229
 4843SOL    HW215429   0.712   2.532   2.080
 4844SOL     OW15430   0.977   5.668   4.697
 4844SOL    HW115431   0.995   5.633   4.790
 4844SOL    HW215432   0.970   5.591   4.634
 4845SOL     OW15433   4.873   3.916   4.885
 4845SOL    HW115434   4.832   3.825   4.896
 4845SOL    HW215435   4.950   3.909   4.821
 4846SOL     OW15436   6.850   3.489   5.014
 4846SOL    HW115437   6.949   3.481   4.999
 4846SOL    HW215438   6.834   3.547   5.095
 4847SOL     OW15439   2.507   6.820   6.343
 4847SOL    HW115440   2.512   6.786   6.437
 4847SOL    HW215441   2.567   6.766   6.284
 4848SOL     OW15442   3.028   0.685   4.135
 4848SOL    HW115443   3.096   0.754   4.108
 4848SOL    HW215444   2.983   0.649   4.053
 4849SOL     OW15445   1.890   6.914   1.224
 4849SOL    HW115446   1.851   6.923   1.133
 4849SOL    HW215447   1.988   6.895   1.217
 4850SOL     OW15448   4.731   0.486   0.506
 4850SOL    HW115449   4.646   0.483   0.558
 4850SOL    HW215450   4.718   0.544   0.425
 4851SOL     OW15451   3.824   5.269   6.542
 4851SOL    HW115452   3.799   5.322   6.460
 4851SOL    HW215453   3.908   5.217   6.523
 4852SOL     OW15454   4.884   5.266   4.795
 4852SOL    HW115455   4.830   5.344   4.763
 4852SOL    HW215456   4.957   5.248   4.730
 4853SOL     OW15457   3.909   0.101   2.458
 4853SOL    HW115458   3.926   0.180   2.400
 4853SOL    HW215459   3.842   0.041   2.414
 4854SOL     OW15460   6.036   6.175   1.636
 4854SOL    HW115461   5.961   6.208   1.579
 4854SOL    HW215462   6.034   6.075   1.640
 4855SOL     OW15463   6.338   5.067   4.912
 4855SOL    HW115464   6.329   4.969   4.929
 4855SOL    HW215465   6.434   5.093   4.915
 4856SOL     OW15466   0.352   3.964   3.010
 4856SOL    HW115467   0.276   4.029   3.013
 4856SOL    HW215468   0.355   3.921   2.920
 4857SOL     OW15469   2.911   1.886   4.855
 4857SOL    HW115470   2.883   1.837   4.937
 4857SOL    HW215471   2.855   1.969   4.846
 4858SOL     OW15472   0.384   5.968   3.929
 4858SOL    HW115473   0.298   5.924   3.955
 4858SOL    HW215474   0.439   5.985   4.011
 4859SOL     OW15475   0.843   5.957   2.454
 4859SOL    HW115476   0.830   5.890   2.381
 4859SOL    HW215477   0.818   5.917   2.542
 4860SOL     OW15478   4.191   5.628   0.969
 4860SOL    HW115479   4.277   5.591   0.933
 4860SOL    HW215480   4.200   5.642   1.068
 4861SOL     OW15481   0.302   4.793   6.650
 4861SOL    HW115482   0.376   4.851   6.682
 4861SOL    HW215483   0.214   4.839   6.665
 4862SOL     OW15484   2.390   4.807   5.532
 4862SOL    HW115485   2.402   4.710   5.554
 4862SOL    HW215486   2.370   4.816   5.434
 4863SOL     OW15487   4.395   1.936   2.885
 4863SOL    HW115488   4.364   1.881   2.963
 4863SOL    HW215489   4.463   2.003   2.917
 4864SOL     OW15490   2.917   1.213   1.809
 4864SOL    HW115491   2.913   1.285   1.740
 4864SOL    HW215492   2.940   1.252   1.898
 4865SOL     OW15493   3.747   5.695   5.339
 4865SOL    HW115494   3.708   5.675   5.429
 4865SOL    HW215495   3.815   5.768   5.347
 4866SOL     OW15496   6.593   4.637   1.056
 4866SOL    HW115497   6.635   4.603   1.141
 4866SOL    HW215498   6.521   4.703   1.079
 4867SOL     OW15499   5.078   6.005   2.912
 4867SOL    HW115500   5.161   6.010   2.968
 4867SOL    HW215501   5.103   6.011   2.815
 4868SOL     OW15502   0.578   6.028   1.188
 4868SOL    HW115503   0.609   5.996   1.098
 4868SOL    HW215504   0.500   5.973   1.218
 4869SOL     OW15505   6.347   0.746   0.543
 4869SOL    HW115506   6.311   0.733   0.635
 4869SOL    HW215507   6.359   0.657   0.499
 4870SOL     OW15508   6.181   6.352   2.237
 4870SOL    HW115509   6.194   6.253   2.226
 4870SOL    HW215510   6.217   6.381   2.325
 4871SOL     OW15511   1.224   3.299   4.146
 4871SOL    HW115512   1.278   3.288   4.062
 4871SOL    HW215513   1.185   3.391   4.149
 4872SOL     OW15514   1.216   0.886   2.765
 4872SOL    HW115515   1.139   0.846   2.714
 4872SOL    HW215516   1.203   0.984   2.773
 4873SOL     OW15517   0.430   5.754   5.507
 4873SOL    HW115518   0.358   5.684   5.510
 4873SOL    HW215519   0.390   5.840   5.477
 4874SOL     OW15520   5.294   3.584   3.161
 4874SOL    HW115521   5.225   3.623   3.101
 4874SOL    HW215522   5.281   3.618   3.254
 4875SOL     OW15523   5.913   2.420   0.089
 4875SOL    HW115524   5.917   2.435   7.010
 4875SOL    HW215525   5.859   2.493   0.131
 4876SOL     OW15526   0.483   1.395   6.786
 4876SOL    HW115527   0.470   1.419   6.882
 4876SOL    HW215528   0.578   1.413   6.760
 4877SOL     OW15529   6.638   1.020   1.270
 4877SOL    HW115530   6.636   0.921   1.283
 4877SOL    HW215531   6.647   1.065   1.359
 4878SOL     OW15532   0.274   1.917   1.788
 4878SOL    HW115533   0.252   1.820   1.803
 4878SOL    HW215534   0.274   1.936   1.690
 4879SOL     OW15535   4.322   5.077   3.601
 4879SOL    HW115536   4.262   5.036   3.532
 4879SOL    HW215537   4.388   5.137   3.557
 4880SOL     OW15538   5.520   1.901   5.658
 4880SOL    HW115539   5.557   1.832   5.597
 4880SOL    HW215540   5.423   1.914   5.639
 4881SOL     OW15541   3.516   6.294   6.347
 4881SOL    HW115542   3.590   6.354   6.376
 4881SOL    HW215543   3.508   6.295   6.247
 4882SOL     OW15544   5.329   0.366   5.589
 4882SOL    HW115545   5.368   0.458   5.597
 4882SOL    HW215546   5.361   0.322   5.506
 4883SOL     OW15547   0.179   5.389   1.618
 4883SOL    HW115548   0.159   5.486   1.604
 4883SOL    HW215549   0.278   5.375   1.617
 4884SOL     OW15550   3.286   6.556   1.588
 4884SOL    HW115551   3.297   6.586   1.683
 4884SOL    HW215552   3.254   6.461   1.588
 4885SOL     OW15553   1.747   7.004   1.632
 4885SOL    HW115554   1.769   0.013   1.725
 4885SOL    HW215555   1.716   0.063   1.579
 4886SOL     OW15556   6.551   0.601   6.510
 4886SOL    HW115557   6.556   0.629   6.414
 4886SOL    HW215558   6.468   0.640   6.552
 4887SOL     OW15559   0.251   1.906   4.159
 4887SOL    HW115560   0.260   1.883   4.256
 4887SOL    HW215561   0.342   1.905   4.117
 4888SOL     OW15562   2.863   5.280   2.716
 4888SOL    HW115563   2.817   5.365   2.739
 4888SOL    HW215564   2.930   5.297   2.644
 4889SOL     OW15565   1.238   1.923   0.252
 4889SOL    HW115566   1.292   1.846   0.219
 4889SOL    HW215567   1.143   1.912   0.223
 4890SOL     OW15568   1.185   0.617   4.511
 4890SOL    HW115569   1.191   0.517   4.502
 4890SOL    HW215570   1.102   0.650   4.466
 4891SOL     OW15571   0.907   4.752   6.991
 4891SOL    HW115572   0.977   4.815   6.958
 4891SOL    HW215573   0.915   4.665   6.943
 4892SOL     OW15574   0.774   5.421   1.121
 4892SOL    HW115575   0.690   5.464   1.155
 4892SOL    HW215576   0.843   5.422   1.193
 4893SOL     OW15577   0.383   3.495   6.580
 4893SOL    HW115578   0.291   3.498   6.619
 4893SOL    HW215579   0.447   3.539   6.643
 4894SOL     OW15580   2.609   1.076   2.837
 4894SOL    HW115581   2.534   1.040   2.892
 4894SOL    HW215582   2.678   1.004   2.823
 4895SOL     OW15583   0.774   3.587   0.184
 4895SOL    HW115584   0.857   3.572   0.237
 4895SOL    HW215585   0.781   3.673   0.134
 4896SOL     OW15586   3.854   5.565   4.282
 4896SOL    HW115587   3.938   5.610   4.254
 4896SOL    HW215588   3.875   5.475   4.320
 4897SOL     OW15589   3.354   5.644   6.272
 4897SOL    HW115590   3.306   5.624   6.187
 4897SOL    HW215591   3.387   5.558   6.312
 4898SOL     OW15592   5.670   2.050   5.139
 4898SOL    HW115593   5.647   2.122   5.204
 4898SOL    HW215594   5.704   1.969   5.188
 4899SOL     OW15595   5.546   4.047   4.209
 4899SOL    HW115596   5.463   4.094   4.178
 4899SOL    HW215597   5.594   4.105   4.274
 4900SOL     OW15598   1.208   6.817   5.292
 4900SOL    HW115599   1.135   6.796   5.357
 4900SOL    HW215600   1.272   6.882   5.335
 4901SOL     OW15601   1.057   0.065   3.757
 4901SOL    HW115602   1.073   7.005   3.700
 4901SOL    HW215603   1.125   0.069   3.829
 4902SOL     OW15604   2.597   4.580   1.915
 4902SOL    HW115605   2.692   4.584   1.945
 4902SOL    HW215606   2.591   4.522   1.834
 4903SOL     OW15607   4.951   0.063   6.508
 4903SOL    HW115608   4.894   0.145   6.505
 4903SOL    HW215609   4.970   0.033   6.414
 4904SOL     OW15610   2.911   5.932   3.712
 4904SOL    HW115611   2.925   5.877   3.630
 4904SOL    HW215612   2.999   5.969   3.743
 4905SOL     OW15613   5.725   3.439   2.136
 4905SOL    HW115614   5.683   3.529   2.143
 4905SOL    HW215615   5.729   3.411   2.040
 4906SOL     OW15616   5.312   0.511   0.638
 4906SOL    HW115617   5.321   0.412   0.628
 4906SOL    HW215618   5.229   0.541   0.590
 4907SOL     OW15619   3.393   0.732   2.414
 4907SOL    HW115620   3.417   0.697   2.504
 4907SOL    HW215621   3.401   0.832   2.414
 4908SOL     OW15622   2.751   6.119   6.730
 4908SOL    HW115623   2.665   6.094   6.685
 4908SOL    HW215624   2.825   6.063   6.694
 4909SOL     OW15625   0.118   6.776   5.192
 4909SOL    HW115626   0.131   6.804   5.287
 4909SOL    HW215627   0.079   6.684   5.189
 4910SOL     OW15628   5.722   6.999   4.998
 4910SOL    HW115629   5.805   0.024   5.030
 4910SOL    HW215630   5.643   0.012   5.050
 4911SOL     OW15631   6.752   2.458   6.131
 4911SOL    HW115632   6.831   2.473   6.190
 4911SOL    HW215633   6.771   2.384   6.067
 4912SOL     OW15634   2.472   2.151   1.871
 4912SOL    HW115635   2.411   2.147   1.950
 4912SOL    HW215636   2.546   2.085   1.882
 4913SOL     OW15637   2.885   3.342   3.247
 4913SOL    HW115638   2.836   3.295   3.319
 4913SOL    HW215639   2.899   3.438   3.273
 4914SOL     OW15640   2.062   6.388   3.746
 4914SOL    HW115641   2.032   6.369   3.653
 4914SOL    HW215642   2.061   6.303   3.799
 4915SOL     OW15643   3.193   5.626   3.769
 4915SOL    HW115644   3.182   5.718   3.731
 4915SOL    HW215645   3.245   5.631   3.854
 4916SOL     OW15646   2.368   1.189   2.486
 4916SOL    HW115647   2.410   1.279   2.486
 4916SOL    HW215648   2.271   1.197   2.507
 4917SOL     OW15649   1.713   5.208   0.925
 4917SOL    HW115650   1.680   5.114   0.917
 4917SOL    HW215651   1.671   5.252   1.004
 4918SOL     OW15652   2.727   0.434   1.735
 4918SOL    HW115653   2.768   0.463   1.821
 4918SOL    HW215654   2.635   0.471   1.726
 4919SOL     OW15655   2.419   2.507   2.294
 4919SOL    HW115656   2.368   2.593   2.285
 4919SOL    HW215657   2.441   2.472   2.203
 4920SOL     OW15658   4.503   0.803   0.492
 4920SOL    HW115659   4.544   0.751   0.417
 4920SOL    HW215660   4.418   0.760   0.521
 4921SOL     OW15661   1.457   5.124   1.741
 4921SOL    HW115662   1.475   5.051   1.675
 4921SOL    HW215663   1.484   5.212   1.701
 4922SOL     OW15664   1.589   2.711   5.481
 4922SOL    HW115665   1.569   2.661   5.396
 4922SOL    HW215666   1.683   2.692   5.509
 4923SOL     OW15667   4.605   1.207   0.841
 4923SOL    HW115668   4.616   1.301   0.808
 4923SOL    HW215669   4.516   1.199   0.888
 4924SOL     OW15670   0.503   3.924   4.899
 4924SOL    HW115671   0.563   3.857   4.944
 4924SOL    HW215672   0.506   4.010   4.950
 4925SOL     OW15673   4.594   6.163   0.015
 4925SOL    HW115674   4.661   6.176   0.088
 4925SOL    HW215675   4.604   6.236   6.967
 4926SOL     OW15676   4.908   2.535   1.972
 4926SOL    HW115677   4.853   2.457   2.001
 4926SOL    HW215678   5.005   2.515   1.984
 4927SOL     OW15679   3.607   3.203   3.243
 4927SOL    HW115680   3.544   3.127   3.224
 4927SOL    HW215681   3.617   3.259   3.161
 4928SOL     OW15682   0.393   6.136   6.833
 4928SOL    HW115683   0.299   6.166   6.813
 4928SOL    HW215684   0.413   6.052   6.782
 4929SOL     OW15685   0.804   4.950   4.198
 4929SOL    HW115686   0.884   4.929   4.144
 4929SOL    HW215687   0.820   5.034   4.250
 4930SOL     OW15688   0.336   2.063   0.973
 4930SOL    HW115689   0.298   2.052   0.881
 4930SOL    HW215690   0.425   2.018   0.977
 4931SOL     OW15691   6.940   0.731   0.560
 4931SOL    HW115692   7.015   0.762   0.501
 4931SOL    HW215693   6.899   0.810   0.606
 4932SOL     OW15694   2.595   2.518   1.625
 4932SOL    HW115695   2.588   2.477   1.716
 4932SOL    HW215696   2.686   2.559   1.613
 4933SOL     OW15697   3.111   0.571   4.355
 4933SOL    HW115698   3.086   0.594   4.261
 4933SOL    HW215699   3.074   0.640   4.417
 4934SOL     OW15700   0.957   6.192   4.739
 4934SOL    HW115701   0.887   6.197   4.810
 4934SOL    HW215702   0.982   6.096   4.723
 4935SOL     OW15703   1.504   1.049   0.604
 4935SOL    HW115704   1.435   0.986   0.639
 4935SOL    HW215705   1.462   1.139   0.588
 4936SOL     OW15706   3.894   5.632   0.547
 4936SOL    HW115707   3.855   5.664   0.461
 4936SOL    HW215708   3.822   5.628   0.617
 4937SOL     OW15709   0.323   3.166   6.454
 4937SOL    HW115710   0.318   3.264   6.437
 4937SOL    HW215711   0.239   3.135   6.500
 4938SOL     OW15712   3.555   4.830   1.414
 4938SOL    HW115713   3.527   4.786   1.500
 4938SOL    HW215714   3.493   4.803   1.341
 4939SOL     OW15715   1.758   1.822   2.187
 4939SOL    HW115716   1.677   1.810   2.130
 4939SOL    HW215717   1.772   1.919   2.206
 4940SOL     OW15718   0.377   2.111   4.912
 4940SOL    HW115719   0.411   2.174   4.982
 4940SOL    HW215720   0.378   2.157   4.823
 4941SOL     OW15721   4.009   2.085   5.200
 4941SOL    HW115722   3.938   2.104   5.268
 4941SOL    HW215723   4.040   1.990   5.210
 4942SOL     OW15724   6.395   2.022   4.060
 4942SOL    HW115725   6.312   1.979   4.026
 4942SOL    HW215726   6.457   2.041   3.983
 4943SOL     OW15727   5.493   3.040   6.469
 4943SOL    HW115728   5.579   3.088   6.486
 4943SOL    HW215729   5.464   3.058   6.375
 4944SOL     OW15730   1.330   5.384   1.199
 4944SOL    HW115731   1.288   5.474   1.190
 4944SOL    HW215732   1.330   5.357   1.296
 4945SOL     OW15733   1.836   1.219   4.882
 4945SOL    HW115734   1.791   1.153   4.943
 4945SOL    HW215735   1.859   1.301   4.934
 4946SOL     OW15736   2.230   5.275   6.912
 4946SOL    HW115737   2.277   5.304   6.829
 4946SOL    HW215738   2.285   5.298   6.992
 4947SOL     OW15739   1.555   0.927   1.727
 4947SOL    HW115740   1.588   0.956   1.816
 4947SOL    HW215741   1.456   0.921   1.727
 4948SOL     OW15742   1.329   2.425   1.849
 4948SOL    HW115743   1.386   2.481   1.909
 4948SOL    HW215744   1.316   2.335   1.890
 4949SOL     OW15745   0.048   3.771   0.164
 4949SOL    HW115746   0.055   3.864   0.198
 4949SOL    HW215747   0.119   3.714   0.205
 4950SOL     OW15748   2.161   3.830   5.244
 4950SOL    HW115749   2.096   3.854   5.171
 4950SOL    HW215750   2.254   3.852   5.214
 4951SOL     OW15751   4.976   5.417   3.846
 4951SOL    HW115752   4.894   5.430   3.902
 4951SOL    HW215753   5.048   5.478   3.879
 4952SOL     OW15754   0.286   6.580   5.991
 4952SOL    HW115755   0.342   6.659   5.963
 4952SOL    HW215756   0.272   6.520   5.912
 4953SOL     OW15757   0.635   2.280   4.805
 4953SOL    HW115758   0.654   2.250   4.898
 4953SOL    HW215759   0.689   2.362   4.785
 4954SOL     OW15760   3.180   4.207   5.290
 4954SOL    HW115761   3.184   4.297   5.334
 4954SOL    HW215762   3.243   4.204   5.213
 4955SOL     OW15763   3.548   5.313   6.628
 4955SOL    HW115764   3.642   5.291   6.602
 4955SOL    HW215765   3.515   5.245   6.692
 4956SOL     OW15766   2.533   6.789   4.861
 4956SOL    HW115767   2.618   6.825   4.899
 4956SOL    HW215768   2.465   6.782   4.934
 4957SOL     OW15769   5.761   4.439   0.376
 4957SOL    HW115770   5.825   4.513   0.393
 4957SOL    HW215771   5.754   4.423   0.277
 4958SOL     OW15772   3.062   6.170   0.012
 4958SOL    HW115773   3.037   6.215   6.946
 4958SOL    HW215774   3.152   6.203   0.041
 4959SOL     OW15775   1.183   3.365   2.429
 4959SOL    HW115776   1.170   3.419   2.346
 4959SOL    HW215777   1.126   3.402   2.502
 4960SOL     OW15778   4.393   5.635   4.425
 4960SOL    HW115779   4.332   5.709   4.397
 4960SOL    HW215780   4.391   5.627   4.525
 4961SOL     OW15781   4.147   1.263   0.092
 4961SOL    HW115782   4.058   1.260   0.139
 4961SOL    HW215783   4.219   1.279   0.159
 4962SOL     OW15784   1.233   4.498   0.928
 4962SOL    HW115785   1.191   4.408   0.942
 4962SOL    HW215786   1.220   4.527   0.833
 4963SOL     OW15787   0.813   3.944   5.960
 4963SOL    HW115788   0.895   4.000   5.953
 4963SOL    HW215789   0.756   3.976   6.035
 4964SOL     OW15790   3.040   0.057   4.481
 4964SOL    HW115791   2.946   0.025   4.469
 4964SOL    HW215792   3.053   0.091   4.574
 4965SOL     OW15793   1.805   6.229   2.871
 4965SOL    HW115794   1.843   6.255   2.782
 4965SOL    HW215795   1.786   6.311   2.925
 4966SOL     OW15796   3.567   6.302   4.694
 4966SOL    HW115797   3.482   6.250   4.693
 4966SOL    HW215798   3.570   6.362   4.614
 4967SOL     OW15799   4.200   4.782   5.166
 4967SOL    HW115800   4.152   4.732   5.237
 4967SOL    HW215801   4.243   4.717   5.102
 4968SOL     OW15802   6.861   1.835   3.144
 4968SOL    HW115803   6.881   1.932   3.129
 4968SOL    HW215804   6.932   1.795   3.202
 4969SOL     OW15805   0.856   6.269   3.232
 4969SOL    HW115806   0.835   6.324   3.151
 4969SOL    HW215807   0.919   6.196   3.208
 4970SOL     OW15808   1.272   1.390   1.708
 4970SOL    HW115809   1.289   1.292   1.696
 4970SOL    HW215810   1.355   1.441   1.688
 4971SOL     OW15811   6.918   6.444   3.196
 4971SOL    HW115812   6.832   6.460   3.147
 4971SOL    HW215813   6.901   6.448   3.295
 4972SOL     OW15814   1.587   4.453   1.370
 4972SOL    HW115815   1.514   4.405   1.419
 4972SOL    HW215816   1.648   4.387   1.327
 4973SOL     OW15817   6.875   0.784   1.066
 4973SOL    HW115818   6.875   0.693   1.109
 4973SOL    HW215819   6.964   0.801   1.025
 4974SOL     OW15820   3.637   5.250   5.100
 4974SOL    HW115821   3.581   5.306   5.161
 4974SOL    HW215822   3.733   5.256   5.127
 4975SOL     OW15823   5.827   3.824   0.496
 4975SOL    HW115824   5.913   3.814   0.445
 4975SOL    HW215825   5.845   3.820   0.594
 4976SOL     OW15826   1.798   0.096   4.221
 4976SOL    HW115827   1.713   0.146   4.234
 4976SOL    HW215828   1.812   0.032   4.297
 4977SOL     OW15829   2.341   4.727   6.487
 4977SOL    HW115830   2.368   4.777   6.405
 4977SOL    HW215831   2.269   4.662   6.464
 4978SOL     OW15832   5.033   4.656   4.965
 4978SOL    HW115833   5.015   4.595   4.888
 4978SOL    HW215834   5.076   4.604   5.039
 4979SOL     OW15835   2.191   6.837   6.359
 4979SOL    HW115836   2.270   6.783   6.329
 4979SOL    HW215837   2.111   6.778   6.367
 4980SOL     OW15838   5.807   3.547   3.048
 4980SOL    HW115839   5.844   3.454   3.051
 4980SOL    HW215840   5.785   3.578   3.140
 4981SOL     OW15841   3.688   5.038   1.992
 4981SOL    HW115842   3.747   5.026   1.912
 4981SOL    HW215843   3.655   4.948   2.022
 4982SOL     OW15844   4.427   1.468   6.527
 4982SOL    HW115845   4.360   1.432   6.463
 4982SOL    HW215846   4.498   1.399   6.543
 4983SOL     OW15847   0.162   5.473   3.180
 4983SOL    HW115848   0.146   5.562   3.136
 4983SOL    HW215849   0.107   5.403   3.135
 4984SOL     OW15850   5.264   4.521   2.826
 4984SOL    HW115851   5.330   4.480   2.888
 4984SOL    HW215852   5.236   4.611   2.861
 4985SOL     OW15853   5.802   6.232   2.827
 4985SOL    HW115854   5.746   6.202   2.750
 4985SOL    HW215855   5.895   6.252   2.795
 4986SOL     OW15856   0.922   4.924   2.582
 4986SOL    HW115857   0.978   4.859   2.531
 4986SOL    HW215858   0.897   4.884   2.670
 4987SOL     OW15859   0.526   0.942   2.306
 4987SOL    HW115860   0.434   0.983   2.304
 4987SOL    HW215861   0.534   0.876   2.231
 4988SOL     OW15862   5.996   0.053   3.467
 4988SOL    HW115863   5.908   0.101   3.477
 4988SOL    HW215864   6.051   0.099   3.398
 4989SOL     OW15865   4.279   0.610   2.673
 4989SOL    HW115866   4.372   0.573   2.677
 4989SOL    HW215867   4.214   0.535   2.659
 4990SOL     OW15868   4.722   1.736   5.649
 4990SOL    HW115869   4.682   1.825   5.626
 4990SOL    HW215870   4.662   1.663   5.616
 4991SOL     OW15871   0.997   5.569   4.940
 4991SOL    HW115872   1.096   5.559   4.930
 4991SOL    HW215873   0.963   5.506   5.010
 4992SOL     OW15874   0.068   1.497   3.395
 4992SOL    HW115875   7.001   1.546   3.400
 4992SOL    HW215876   0.065   1.416   3.453
 4993SOL     OW15877   4.059   6.457   4.601
 4993SOL    HW115878   4.113   6.505   4.670
 4993SOL    HW215879   3.985   6.407   4.646
 4994SOL     OW15880   3.077   5.166   5.779
 4994SOL    HW115881   3.114   5.217   5.702
 4994SOL    HW215882   2.977   5.170   5.777
 4995SOL     OW15883   0.681   0.316   5.420
 4995SOL    HW115884   0.677   0.221   5.448
 4995SOL    HW215885   0.649   0.375   5.495
 4996SOL     OW15886   6.949   0.862   4.623
 4996SOL    HW115887   6.965   0.955   4.589
 4996SOL    HW215888   6.913   0.866   4.716
 4997SOL     OW15889   3.564   1.952   0.843
 4997SOL    HW115890   3.557   1.863   0.797
 4997SOL    HW215891   3.507   1.952   0.925
 4998SOL     OW15892   0.812   3.136   4.082
 4998SOL    HW115893   0.743   3.066   4.105
 4998SOL    HW215894   0.871   3.151   4.161
 4999SOL     OW15895   0.596   4.033   4.658
 4999SOL    HW115896   0.528   4.010   4.589
 4999SOL    HW215897   0.574   3.988   4.744
 5000SOL     OW15898   2.956   5.133   3.379
 5000SOL    HW115899   2.906   5.171   3.457
 5000SOL    HW215900   3.041   5.184   3.366
 5001SOL     OW15901   0.670   5.227   2.936
 5001SOL    HW115902   0.707   5.140   2.969
 5001SOL    HW215903   0.736   5.300   2.954
 5002SOL     OW15904   0.599   3.590   3.273
 5002SOL    HW115905   0.604   3.525   3.198
 5002SOL    HW215906   0.508   3.631   3.276
 5003SOL     OW15907   4.508   6.425   4.037
 5003SOL    HW115908   4.496   6.487   3.959
 5003SOL    HW215909   4.506   6.330   4.005
 5004SOL     OW15910   2.435   5.909   6.391
 5004SOL    HW115911   2.490   5.967   6.451
 5004SOL    HW215912   2.454   5.813   6.412
 5005SOL     OW15913   2.844   2.721   6.620
 5005SOL    HW115914   2.912   2.697   6.688
 5005SOL    HW215915   2.880   2.705   6.528
 5006SOL     OW15916   5.604   1.812   1.925
 5006SOL    HW115917   5.574   1.776   1.837
 5006SOL    HW215918   5.531   1.868   1.965
 5007SOL     OW15919   5.829   0.056   1.988
 5007SOL    HW115920   5.901   7.007   1.984
 5007SOL    HW215921   5.849   0.129   1.923
 5008SOL     OW15922   5.821   6.634   1.821
 5008SOL    HW115923   5.814   6.537   1.843
 5008SOL    HW215924   5.821   6.646   1.721
 5009SOL     OW15925   0.616   2.557   0.466
 5009SOL    HW115926   0.531   2.565   0.414
 5009SOL    HW215927   0.641   2.460   0.473
 5010SOL     OW15928   3.427   3.618   0.714
 5010SOL    HW115929   3.402   3.528   0.680
 5010SOL    HW215930   3.522   3.638   0.689
 5011SOL     OW15931   1.922   3.933   6.761
 5011SOL    HW115932   1.827   3.961   6.774
 5011SOL    HW215933   1.955   3.968   6.673
 5012SOL     OW15934   6.036   1.701   5.076
 5012SOL    HW115935   6.041   1.601   5.077
 5012SOL    HW215936   6.125   1.739   5.051
 5013SOL     OW15937   5.947   0.370   5.689
 5013SOL    HW115938   5.915   0.276   5.675
 5013SOL    HW215939   5.870   0.428   5.717
 5014SOL     OW15940   6.555   3.373   1.588
 5014SOL    HW115941   6.486   3.321   1.639
 5014SOL    HW215942   6.525   3.383   1.493
 5015SOL     OW15943   5.690   6.639   3.925
 5015SOL    HW115944   5.644   6.621   4.012
 5015SOL    HW215945   5.733   6.555   3.891
 5016SOL     OW15946   1.650   3.616   4.779
 5016SOL    HW115947   1.602   3.663   4.705
 5016SOL    HW215948   1.673   3.523   4.750
 5017SOL     OW15949   0.764   2.302   1.562
 5017SOL    HW115950   0.694   2.242   1.600
 5017SOL    HW215951   0.748   2.396   1.592
 5018SOL     OW15952   0.729   6.230   1.705
 5018SOL    HW115953   0.724   6.232   1.805
 5018SOL    HW215954   0.740   6.135   1.675
 5019SOL     OW15955   1.290   5.103   5.048
 5019SOL    HW115956   1.357   5.176   5.048
 5019SOL    HW215957   1.222   5.119   4.976
 5020SOL     OW15958   1.103   0.088   4.562
 5020SOL    HW115959   1.109   0.012   4.497
 5020SOL    HW215960   1.064   0.054   4.648
 5021SOL     OW15961   1.780   0.777   1.269
 5021SOL    HW115962   1.779   0.825   1.182
 5021SOL    HW215963   1.725   0.827   1.336
 5022SOL     OW15964   0.673   3.247   1.718
 5022SOL    HW115965   0.736   3.185   1.764
 5022SOL    HW215966   0.589   3.197   1.695
 5023SOL     OW15967   0.341   4.351   2.338
 5023SOL    HW115968   0.348   4.278   2.270
 5023SOL    HW215969   0.432   4.370   2.376
 5024SOL     OW15970   5.259   3.854   1.473
 5024SOL    HW115971   5.204   3.843   1.556
 5024SOL    HW215972   5.199   3.874   1.396
 5025SOL     OW15973   4.266   1.166   3.224
 5025SOL    HW115974   4.190   1.101   3.233
 5025SOL    HW215975   4.335   1.146   3.293
 5026SOL     OW15976   5.954   6.328   5.305
 5026SOL    HW115977   5.902   6.397   5.255
 5026SOL    HW215978   5.916   6.318   5.397
 5027SOL     OW15979   5.209   1.000   6.677
 5027SOL    HW115980   5.144   0.951   6.619
 5027SOL    HW215981   5.228   1.090   6.637
 5028SOL     OW15982   0.580   2.347   2.828
 5028SOL    HW115983   0.640   2.425   2.812
 5028SOL    HW215984   0.554   2.344   2.924
 5029SOL     OW15985   6.471   2.188   2.145
 5029SOL    HW115986   6.442   2.273   2.101
 5029SOL    HW215987   6.507   2.125   2.076
 5030SOL     OW15988   6.842   5.265   6.853
 5030SOL    HW115989   6.764   5.239   6.911
 5030SOL    HW215990   6.843   5.207   6.771
 5031SOL     OW15991   6.907   0.595   5.731
 5031SOL    HW115992   6.867   0.595   5.639
 5031SOL    HW215993   6.838   0.620   5.798
 5032SOL     OW15994   3.341   2.897   5.416
 5032SOL    HW115995   3.305   2.822   5.361
 5032SOL    HW215996   3.297   2.983   5.389
 5033SOL     OW15997   2.280   1.329   0.367
 5033SOL    HW115998   2.266   1.264   0.292
 5033SOL    HW215999   2.378   1.343   0.381
 5034SOL     OW16000   4.732   5.941   3.944
 5034SOL    HW116001   4.713   5.848   3.915
 5034SOL    HW216002   4.683   5.961   4.029
 5035SOL     OW16003   0.436   4.676   4.315
 5035SOL    HW116004   0.495   4.755   4.299
 5035SOL    HW216005   0.489   4.592   4.302
 5036SOL     OW16006   6.410   3.394   5.179
 5036SOL    HW116007   6.453   3.443   5.254
 5036SOL    HW216008   6.355   3.457   5.125
 5037SOL     OW16009   4.280   4.287   1.184
 5037SOL    HW116010   4.276   4.211   1.249
 5037SOL    HW216011   4.268   4.251   1.091
 5038SOL     OW16012   3.244   3.404   4.020
 5038SOL    HW116013   3.319   3.469   4.009
 5038SOL    HW216014   3.280   3.312   4.033
 5039SOL     OW16015   1.579   2.787   6.727
 5039SOL    HW116016   1.654   2.794   6.793
 5039SOL    HW216017   1.496   2.829   6.766
 5040SOL     OW16018   1.134   5.683   5.904
 5040SOL    HW116019   1.230   5.682   5.932
 5040SOL    HW216020   1.092   5.595   5.926
 5041SOL     OW16021   0.242   3.133   2.155
 5041SOL    HW116022   0.319   3.082   2.194
 5041SOL    HW216023   0.185   3.071   2.102
 5042SOL     OW16024   6.847   3.146   5.981
 5042SOL    HW116025   6.831   3.062   6.034
 5042SOL    HW216026   6.944   3.154   5.961
 5043SOL     OW16027   4.303   0.445   0.860
 5043SOL    HW116028   4.326   0.363   0.807
 5043SOL    HW216029   4.352   0.442   0.948
 5044SOL     OW16030   6.873   5.566   0.460
 5044SOL    HW116031   6.798   5.624   0.430
 5044SOL    HW216032   6.944   5.623   0.503
 5045SOL     OW16033   6.001   3.914   6.200
 5045SOL    HW116034   6.031   3.994   6.148
 5045SOL    HW216035   5.902   3.906   6.194
 5046SOL     OW16036   3.388   3.170   4.037
 5046SOL    HW116037   3.392   3.167   3.937
 5046SOL    HW216038   3.473   3.206   4.073
 5047SOL     OW16039   1.743   3.492   3.153
 5047SOL    HW116040   1.767   3.586   3.176
 5047SOL    HW216041   1.695   3.491   3.065
 5048SOL     OW16042   1.202   1.374   5.836
 5048SOL    HW116043   1.259   1.329   5.768
 5048SOL    HW216044   1.106   1.354   5.817
 5049SOL     OW16045   5.909   0.783   6.193
 5049SOL    HW116046   5.991   0.787   6.136
 5049SOL    HW216047   5.838   0.733   6.144
 5050SOL     OW16048   1.778   0.715   0.449
 5050SOL    HW116049   1.800   0.701   0.352
 5050SOL    HW216050   1.765   0.813   0.466
 5051SOL     OW16051   3.824   4.855   1.506
 5051SOL    HW116052   3.732   4.843   1.468
 5051SOL    HW216053   3.887   4.792   1.461
 5052SOL     OW16054   3.558   1.895   5.357
 5052SOL    HW116055   3.554   1.948   5.441
 5052SOL    HW216056   3.651   1.860   5.344
 5053SOL     OW16057   0.405   5.629   2.374
 5053SOL    HW116058   0.361   5.548   2.334
 5053SOL    HW216059   0.502   5.630   2.350
 5054SOL     OW16060   3.783   5.084   4.856
 5054SOL    HW116061   3.852   5.048   4.918
 5054SOL    HW216062   3.722   5.146   4.906
 5055SOL     OW16063   6.437   3.095   6.630
 5055SOL    HW116064   6.387   3.026   6.683
 5055SOL    HW216065   6.500   3.144   6.691
 5056SOL     OW16066   4.965   3.687   5.227
 5056SOL    HW116067   4.941   3.675   5.130
 5056SOL    HW216068   4.883   3.679   5.283
 5057SOL     OW16069   0.989   6.491   2.613
 5057SOL    HW116070   0.996   6.475   2.711
 5057SOL    HW216071   0.907   6.447   2.577
 5058SOL     OW16072   3.010   4.608   6.657
 5058SOL    HW116073   2.929   4.560   6.624
 5058SOL    HW216074   3.004   4.621   6.756
 5059SOL     OW16075   0.437   0.680   2.916
 5059SOL    HW116076   0.452   0.584   2.937
 5059SOL    HW216077   0.383   0.687   2.832
 5060SOL     OW16078   6.146   1.930   5.966
 5060SOL    HW116079   6.103   1.994   6.030
 5060SOL    HW216080   6.130   1.836   5.997
 5061SOL     OW16081   4.759   3.375   0.368
 5061SOL    HW116082   4.729   3.342   0.457
 5061SOL    HW216083   4.829   3.445   0.381
 5062SOL     OW16084   0.070   0.223   1.230
 5062SOL    HW116085   0.093   0.315   1.260
 5062SOL    HW216086   0.104   0.157   1.297
 5063SOL     OW16087   0.969   6.869   2.184
 5063SOL    HW116088   0.914   6.892   2.264
 5063SOL    HW216089   0.950   6.934   2.110
 5064SOL     OW16090   4.657   3.265   0.591
 5064SOL    HW116091   4.640   3.309   0.679
 5064SOL    HW216092   4.741   3.210   0.597
 5065SOL     OW16093   2.736   6.558   5.454
 5065SOL    HW116094   2.718   6.648   5.415
 5065SOL    HW216095   2.820   6.561   5.508
 5066SOL     OW16096   6.038   4.742   1.432
 5066SOL    HW116097   5.990   4.739   1.344
 5066SOL    HW216098   6.049   4.649   1.467
 5067SOL     OW16099   5.064   0.607   0.543
 5067SOL    HW116100   5.014   0.523   0.524
 5067SOL    HW216101   5.022   0.654   0.620
 5068SOL     OW16102   2.906   4.698   6.897
 5068SOL    HW116103   2.866   4.786   6.923
 5068SOL    HW216104   2.839   4.625   6.912
 5069SOL     OW16105   1.041   4.447   2.696
 5069SOL    HW116106   1.012   4.376   2.760
 5069SOL    HW216107   0.972   4.458   2.625
 5070SOL     OW16108   4.943   3.367   4.029
 5070SOL    HW116109   5.021   3.311   4.056
 5070SOL    HW216110   4.859   3.322   4.059
 5071SOL     OW16111   4.678   2.125   5.629
 5071SOL    HW116112   4.747   2.074   5.682
 5071SOL    HW216113   4.594   2.071   5.624
 5072SOL     OW16114   0.226   4.199   1.194
 5072SOL    HW116115   0.295   4.140   1.152
 5072SOL    HW216116   0.270   4.275   1.241
 5073SOL     OW16117   5.660   0.188   2.455
 5073SOL    HW116118   5.668   0.169   2.357
 5073SOL    HW216119   5.565   0.176   2.483
 5074SOL     OW16120   2.658   4.078   6.622
 5074SOL    HW116121   2.755   4.063   6.643
 5074SOL    HW216122   2.633   4.027   6.540
 5075SOL     OW16123   0.104   5.280   4.736
 5075SOL    HW116124   0.090   5.217   4.813
 5075SOL    HW216125   0.057   5.366   4.754
 5076SOL     OW16126   3.445   0.980   0.997
 5076SOL    HW116127   3.543   0.966   1.006
 5076SOL    HW216128   3.396   0.911   1.052
 5077SOL     OW16129   1.173   2.782   3.756
 5077SOL    HW116130   1.208   2.873   3.779
 5077SOL    HW216131   1.167   2.726   3.840
 5078SOL     OW16132   1.491   1.858   4.458
 5078SOL    HW116133   1.582   1.879   4.494
 5078SOL    HW216134   1.481   1.759   4.450
 5079SOL     OW16135   3.638   4.813   5.650
 5079SOL    HW116136   3.695   4.853   5.722
 5079SOL    HW216137   3.542   4.826   5.673
 5080SOL     OW16138   5.377   6.751   5.668
 5080SOL    HW116139   5.301   6.809   5.639
 5080SOL    HW216140   5.358   6.656   5.642
 5081SOL     OW16141   3.398   3.638   3.506
 5081SOL    HW116142   3.366   3.620   3.413
 5081SOL    HW216143   3.463   3.713   3.506
 5082SOL     OW16144   5.345   5.920   6.072
 5082SOL    HW116145   5.276   5.929   6.143
 5082SOL    HW216146   5.428   5.969   6.099
 5083SOL     OW16147   1.790   6.870   1.980
 5083SOL    HW116148   1.758   6.789   1.930
 5083SOL    HW216149   1.790   6.949   1.918
 5084SOL     OW16150   1.136   5.684   4.274
 5084SOL    HW116151   1.173   5.737   4.350
 5084SOL    HW216152   1.038   5.669   4.288
 5085SOL     OW16153   5.841   1.750   6.231
 5085SOL    HW116154   5.883   1.661   6.247
 5085SOL    HW216155   5.816   1.792   6.318
 5086SOL     OW16156   6.202   5.070   3.781
 5086SOL    HW116157   6.231   5.061   3.685
 5086SOL    HW216158   6.238   5.156   3.818
 5087SOL     OW16159   6.818   5.469   5.265
 5087SOL    HW116160   6.887   5.458   5.194
 5087SOL    HW216161   6.742   5.524   5.229
 5088SOL     OW16162   6.018   0.579   5.968
 5088SOL    HW116163   5.921   0.600   5.976
 5088SOL    HW216164   6.068   0.619   6.045
 5089SOL     OW16165   5.860   3.652   2.809
 5089SOL    HW116166   5.866   3.580   2.740
 5089SOL    HW216167   5.835   3.612   2.897
 5090SOL     OW16168   1.790   5.120   1.663
 5090SOL    HW116169   1.713   5.177   1.689
 5090SOL    HW216170   1.775   5.082   1.572
 5091SOL     OW16171   1.160   6.166   2.773
 5091SOL    HW116172   1.203   6.189   2.686
 5091SOL    HW216173   1.072   6.122   2.756
 5092SOL     OW16174   3.836   2.112   0.823
 5092SOL    HW116175   3.872   2.125   0.915
 5092SOL    HW216176   3.753   2.057   0.826
 5093SOL     OW16177   1.675   2.099   2.266
 5093SOL    HW116178   1.622   2.164   2.211
 5093SOL    HW216179   1.614   2.048   2.326
 5094SOL     OW16180   0.828   6.456   5.003
 5094SOL    HW116181   0.795   6.544   5.037
 5094SOL    HW216182   0.928   6.456   4.998
 5095SOL     OW16183   2.876   0.426   5.136
 5095SOL    HW116184   2.868   0.478   5.220
 5095SOL    HW216185   2.904   0.332   5.157
 5096SOL     OW16186   5.164   3.600   0.870
 5096SOL    HW116187   5.070   3.625   0.891
 5096SOL    HW216188   5.165   3.522   0.808
 5097SOL     OW16189   1.597   6.642   5.991
 5097SOL    HW116190   1.614   6.734   5.956
 5097SOL    HW216191   1.633   6.574   5.926
 5098SOL     OW16192   0.133   1.584   2.818
 5098SOL    HW116193   0.173   1.672   2.845
 5098SOL    HW216194   0.059   1.560   2.880
 5099SOL     OW16195   1.347   0.233   5.183
 5099SOL    HW116196   1.286   0.312   5.189
 5099SOL    HW216197   1.434   0.255   5.228
 5100SOL     OW16198   5.744   6.102   0.114
 5100SOL    HW116199   5.660   6.054   0.139
 5100SOL    HW216200   5.767   6.167   0.187
 5101SOL     OW16201   4.033   6.367   6.907
 5101SOL    HW116202   4.112   6.417   6.870
 5101SOL    HW216203   3.964   6.433   6.938
 5102SOL     OW16204   4.038   6.787   4.929
 5102SOL    HW116205   3.940   6.796   4.910
 5102SOL    HW216206   4.087   6.862   4.885
 5103SOL     OW16207   6.890   0.288   4.035
 5103SOL    HW116208   6.878   0.339   4.121
 5103SOL    HW216209   6.823   0.320   3.968
 5104SOL     OW16210   1.221   0.906   1.837
 5104SOL    HW116211   1.126   0.923   1.810
 5104SOL    HW216212   1.226   0.824   1.894
 5105SOL     OW16213   3.220   3.634   6.299
 5105SOL    HW116214   3.263   3.602   6.383
 5105SOL    HW216215   3.137   3.686   6.321
 5106SOL     OW16216   3.736   0.558   2.257
 5106SOL    HW116217   3.734   0.602   2.346
 5106SOL    HW216218   3.819   0.585   2.208
 5107SOL     OW16219   2.284   0.077   6.113
 5107SOL    HW116220   2.373   0.098   6.071
 5107SOL    HW216221   2.288   0.097   6.211
 5108SOL     OW16222   3.020   3.924   4.428
 5108SOL    HW116223   3.032   3.839   4.478
 5108SOL    HW216224   2.951   3.910   4.356
 5109SOL     OW16225   0.157   1.019   1.496
 5109SOL    HW116226   0.209   0.948   1.544
 5109SOL    HW216227   0.077   0.977   1.452
 5110SOL     OW16228   1.575   5.430   5.718
 5110SOL    HW116229   1.480   5.418   5.690
 5110SOL    HW216230   1.578   5.456   5.815
 5111SOL     OW16231   2.055   1.505   0.342
 5111SOL    HW116232   2.125   1.437   0.319
 5111SOL    HW216233   2.001   1.526   0.261
 5112SOL     OW16234   0.425   6.033   3.674
 5112SOL    HW116235   0.524   6.046   3.678
 5112SOL    HW216236   0.390   6.019   3.766
 5113SOL     OW16237   1.709   1.071   6.601
 5113SOL    HW116238   1.778   1.113   6.659
 5113SOL    HW216239   1.717   1.108   6.508
 5114SOL     OW16240   3.483   4.902   6.511
 5114SOL    HW116241   3.573   4.893   6.469
 5114SOL    HW216242   3.477   4.842   6.591
 5115SOL     OW16243   1.561   3.299   5.418
 5115SOL    HW116244   1.504   3.374   5.452
 5115SOL    HW216245   1.588   3.318   5.324
 5116SOL     OW16246   6.345   4.765   0.420
 5116SOL    HW116247   6.444   4.771   0.408
 5116SOL    HW216248   6.324   4.757   0.518
 5117SOL     OW16249   2.484   4.435   4.596
 5117SOL    HW116250   2.498   4.508   4.663
 5117SOL    HW216251   2.447   4.354   4.642
 5118SOL     OW16252   4.207   6.222   0.533
 5118SOL    HW116253   4.112   6.240   0.508
 5118SOL    HW216254   4.221   6.245   0.629
 5119SOL     OW16255   5.740   0.366   2.100
 5119SOL    HW116256   5.716   0.272   2.123
 5119SOL    HW216257   5.694   0.393   2.015
 5120SOL     OW16258   4.993   2.013   2.612
 5120SOL    HW116259   4.954   2.094   2.568
 5120SOL    HW216260   5.063   2.041   2.678
 5121SOL     OW16261   0.164   3.362   5.261
 5121SOL    HW116262   0.122   3.272   5.262
 5121SOL    HW216263   0.094   3.432   5.270
 5122SOL     OW16264   2.261   6.857   3.638
 5122SOL    HW116265   2.257   6.901   3.548
 5122SOL    HW216266   2.297   6.921   3.705
 5123SOL     OW16267   5.134   4.841   2.281
 5123SOL    HW116268   5.175   4.851   2.191
 5123SOL    HW216269   5.154   4.749   2.317
 5124SOL     OW16270   3.220   6.628   6.556
 5124SOL    HW116271   3.145   6.673   6.507
 5124SOL    HW216272   3.219   6.530   6.536
 5125SOL     OW16273   0.388   2.592   4.587
 5125SOL    HW116274   0.347   2.534   4.658
 5125SOL    HW216275   0.329   2.592   4.506
 5126SOL     OW16276   6.027   4.156   6.082
 5126SOL    HW116277   5.956   4.227   6.082
 5126SOL    HW216278   6.061   4.142   5.989
 5127SOL     OW16279   5.632   3.053   6.754
 5127SOL    HW116280   5.700   3.038   6.682
 5127SOL    HW216281   5.678   3.061   6.842
 5128SOL     OW16282   0.147   0.579   0.055
 5128SOL    HW116283   0.140   0.515   0.131
 5128SOL    HW216284   0.065   0.636   0.053
 5129SOL     OW16285   4.762   1.943   2.382
 5129SOL    HW116286   4.703   1.991   2.447
 5129SOL    HW216287   4.825   1.883   2.431
 5130SOL     OW16288   0.723   5.698   4.183
 5130SOL    HW116289   0.699   5.782   4.232
 5130SOL    HW216290   0.653   5.679   4.114
 5131SOL     OW16291   2.993   4.857   3.356
 5131SOL    HW116292   3.022   4.826   3.265
 5131SOL    HW216293   2.965   4.952   3.351
 5132SOL     OW16294   3.964   1.560   6.667
 5132SOL    HW116295   4.005   1.532   6.754
 5132SOL    HW216296   3.871   1.524   6.661
 5133SOL     OW16297   4.187   4.278   6.745
 5133SOL    HW116298   4.265   4.292   6.685
 5133SOL    HW216299   4.123   4.354   6.735
 5134SOL     OW16300   6.992   5.776   1.425
 5134SOL    HW116301   6.938   5.854   1.394
 5134SOL    HW216302   6.960   5.693   1.381
 5135SOL     OW16303   6.520   3.240   2.141
 5135SOL    HW116304   6.514   3.214   2.237
 5135SOL    HW216305   6.616   3.246   2.114
 5136SOL     OW16306   0.819   0.546   5.943
 5136SOL    HW116307   0.894   0.480   5.943
 5136SOL    HW216308   0.844   0.625   5.998
 5137SOL     OW16309   5.281   1.105   4.706
 5137SOL    HW116310   5.273   1.085   4.609
 5137SOL    HW216311   5.375   1.133   4.727
 5138SOL     OW16312   3.477   2.886   3.857
 5138SOL    HW116313   3.489   2.886   3.957
 5138SOL    HW216314   3.382   2.908   3.835
 5139SOL     OW16315   2.387   0.153   4.926
 5139SOL    HW116316   2.448   0.183   4.853
 5139SOL    HW216317   2.300   0.123   4.886
 5140SOL     OW16318   4.579   2.275   6.434
 5140SOL    HW116319   4.620   2.189   6.462
 5140SOL    HW216320   4.489   2.258   6.393
 5141SOL     OW16321   6.337   2.984   1.840
 5141SOL    HW116322   6.284   3.010   1.921
 5141SOL    HW216323   6.380   2.895   1.856
 5142SOL     OW16324   0.025   0.402   2.658
 5142SOL    HW116325   0.013   0.501   2.651
 5142SOL    HW216326   0.119   0.382   2.686
 5143SOL     OW16327   0.393   5.764   3.611
 5143SOL    HW116328   0.356   5.697   3.675
 5143SOL    HW216329   0.395   5.854   3.654
 5144SOL     OW16330   2.623   2.730   5.432
 5144SOL    HW116331   2.549   2.794   5.416
 5144SOL    HW216332   2.657   2.741   5.526
 5145SOL     OW16333   2.699   6.453   6.776
 5145SOL    HW116334   2.767   6.500   6.719
 5145SOL    HW216335   2.622   6.425   6.719
 5146SOL     OW16336   5.146   4.606   6.312
 5146SOL    HW116337   5.182   4.644   6.227
 5146SOL    HW216338   5.080   4.534   6.291
 5147SOL     OW16339   4.604   2.686   3.499
 5147SOL    HW116340   4.564   2.758   3.556
 5147SOL    HW216341   4.599   2.599   3.549
 5148SOL     OW16342   0.504   0.099   0.332
 5148SOL    HW116343   0.465   0.183   0.369
 5148SOL    HW216344   0.595   0.119   0.295
 5149SOL     OW16345   5.091   4.605   3.245
 5149SOL    HW116346   5.063   4.645   3.158
 5149SOL    HW216347   5.011   4.579   3.298
 5150SOL     OW16348   0.145   6.130   3.677
 5150SOL    HW116349   0.056   6.151   3.637
 5150SOL    HW216350   0.184   6.050   3.631
 5151SOL     OW16351   6.259   5.197   1.538
 5151SOL    HW116352   6.268   5.143   1.621
 5151SOL    HW216353   6.191   5.154   1.478
 5152SOL     OW16354   0.913   1.309   6.602
 5152SOL    HW116355   0.893   1.214   6.582
 5152SOL    HW216356   0.926   1.321   6.701
 5153SOL     OW16357   1.208   1.949   0.867
 5153SOL    HW116358   1.121   1.951   0.915
 5153SOL    HW216359   1.207   1.876   0.799
 5154SOL     OW16360   6.806   2.949   0.076
 5154SOL    HW116361   6.818   2.988   7.005
 5154SOL    HW216362   6.876   2.879   0.092
 5155SOL     OW16363   1.830   1.337   0.713
 5155SOL    HW116364   1.777   1.363   0.794
 5155SOL    HW216365   1.927   1.336   0.735
 5156SOL     OW16366   5.433   5.782   5.834
 5156SOL    HW116367   5.449   5.694   5.879
 5156SOL    HW216368   5.381   5.842   5.896
 5157SOL     OW16369   4.015   0.241   1.441
 5157SOL    HW116370   4.067   0.326   1.437
 5157SOL    HW216371   3.977   0.220   1.351
 5158SOL     OW16372   2.306   1.829   2.244
 5158SOL    HW116373   2.379   1.896   2.230
 5158SOL    HW216374   2.347   1.739   2.262
 5159SOL     OW16375   6.293   3.061   5.291
 5159SOL    HW116376   6.352   3.003   5.347
 5159SOL    HW216377   6.211   3.010   5.264
 5160SOL     OW16378   6.530   6.301   3.650
 5160SOL    HW116379   6.558   6.244   3.573
 5160SOL    HW216380   6.594   6.288   3.726
 5161SOL     OW16381   1.233   3.832   0.360
 5161SOL    HW116382   1.259   3.910   0.303
 5161SOL    HW216383   1.311   3.770   0.370
 5162SOL     OW16384   0.184   6.908   3.325
 5162SOL    HW116385   0.266   6.862   3.292
 5162SOL    HW216386   0.160   6.873   3.416
 5163SOL     OW16387   3.015   6.866   1.982
 5163SOL    HW116388   3.008   6.895   1.887
 5163SOL    HW216389   3.109   6.876   2.013
 5164SOL     OW16390   3.194   3.744   0.828
 5164SOL    HW116391   3.288   3.712   0.819
 5164SOL    HW216392   3.146   3.732   0.741
 5165SOL     OW16393   1.427   4.399   6.913
 5165SOL    HW116394   1.331   4.378   6.930
 5165SOL    HW216395   1.473   4.415   7.001
 5166SOL     OW16396   1.839   5.925   1.652
 5166SOL    HW116397   1.876   5.843   1.610
 5166SOL    HW216398   1.881   6.006   1.611
 5167SOL     OW16399   5.374   2.547   4.914
 5167SOL    HW116400   5.348   2.547   4.817
 5167SOL    HW216401   5.295   2.523   4.970
 5168SOL     OW16402   4.517   2.410   2.086
 5168SOL    HW116403   4.518   2.324   2.137
 5168SOL    HW216404   4.589   2.409   2.017
 5169SOL     OW16405   4.208   6.246   3.973
 5169SOL    HW116406   4.199   6.332   4.024
 5169SOL    HW216407   4.272   6.260   3.897
 5170SOL     OW16408   1.562   3.462   6.328
 5170SOL    HW116409   1.638   3.463   6.264
 5170SOL    HW216410   1.596   3.477   6.421
 5171SOL     OW16411   1.774   5.993   5.502
 5171SOL    HW116412   1.699   5.930   5.483
 5171SOL    HW216413   1.799   6.040   5.417
 5172SOL     OW16414   6.594   5.031   4.431
 5172SOL    HW116415   6.503   4.997   4.406
 5172SOL    HW216416   6.659   5.008   4.358
 5173SOL     OW16417   4.353   4.164   5.613
 5173SOL    HW116418   4.331   4.253   5.653
 5173SOL    HW216419   4.357   4.172   5.513
 5174SOL     OW16420   2.501   6.249   3.337
 5174SOL    HW116421   2.588   6.241   3.384
 5174SOL    HW216422   2.428   6.264   3.404
 5175SOL     OW16423   3.133   3.927   6.970
 5175SOL    HW116424   3.049   3.964   6.929
 5175SOL    HW216425   3.109   3.861   0.021
 5176SOL     OW16426   5.718   5.656   0.453
 5176SOL    HW116427   5.635   5.695   0.491
 5176SOL    HW216428   5.775   5.729   0.414
 5177SOL     OW16429   5.498   6.968   0.357
 5177SOL    HW116430   5.597   6.953   0.355
 5177SOL    HW216431   5.477   0.035   0.314
 5178SOL     OW16432   0.809   4.268   1.826
 5178SOL    HW116433   0.881   4.312   1.880
 5178SOL    HW216434   0.745   4.337   1.793
 5179SOL     OW16435   5.645   5.027   2.758
 5179SOL    HW116436   5.587   4.949   2.780
 5179SOL    HW216437   5.713   5.040   2.830
 5180SOL     OW16438   2.421   6.996   2.338
 5180SOL    HW116439   2.378   0.064   2.355
 5180SOL    HW216440   2.495   6.981   2.403
 5181SOL     OW16441   0.457   0.277   6.183
 5181SOL    HW116442   0.378   0.239   6.134
 5181SOL    HW216443   0.501   0.346   6.126
 5182SOL     OW16444   3.481   5.263   3.102
 5182SOL    HW116445   3.461   5.321   3.023
 5182SOL    HW216446   3.420   5.183   3.100
 5183SOL     OW16447   3.806   1.512   3.757
 5183SOL    HW116448   3.856   1.598   3.764
 5183SOL    HW216449   3.784   1.478   3.849
 5184SOL     OW16450   2.916   1.219   3.918
 5184SOL    HW116451   2.871   1.167   3.990
 5184SOL    HW216452   2.964   1.297   3.957
 5185SOL     OW16453   6.102   0.789   1.739
 5185SOL    HW116454   6.097   0.724   1.815
 5185SOL    HW216455   6.147   0.744   1.661
 5186SOL     OW16456   6.837   3.151   6.430
 5186SOL    HW116457   6.846   3.199   6.343
 5186SOL    HW216458   6.767   3.196   6.486
 5187SOL     OW16459   1.908   4.774   5.326
 5187SOL    HW116460   1.926   4.780   5.424
 5187SOL    HW216461   1.810   4.773   5.309
 5188SOL     OW16462   6.212   6.728   2.117
 5188SOL    HW116463   6.278   6.754   2.188
 5188SOL    HW216464   6.125   6.704   2.160
 5189SOL     OW16465   5.358   6.994   6.386
 5189SOL    HW116466   5.441   0.029   6.398
 5189SOL    HW216467   5.356   6.955   6.294
 5190SOL     OW16468   1.301   4.352   0.671
 5190SOL    HW116469   1.371   4.423   0.660
 5190SOL    HW216470   1.233   4.360   0.598
 5191SOL     OW16471   3.187   4.835   2.668
 5191SOL    HW116472   3.115   4.837   2.598
 5191SOL    HW216473   3.271   4.799   2.627
 5192SOL     OW16474   2.301   4.800   2.284
 5192SOL    HW116475   2.335   4.890   2.255
 5192SOL    HW216476   2.335   4.731   2.220
 5193SOL     OW16477   5.465   0.287   6.134
 5193SOL    HW116478   5.374   0.268   6.172
 5193SOL    HW216479   5.535   0.257   6.198
 5194SOL     OW16480   5.358   2.069   6.435
 5194SOL    HW116481   5.448   2.106   6.457
 5194SOL    HW216482   5.330   2.103   6.345
 5195SOL     OW16483   0.114   0.256   4.534
 5195SOL    HW116484   0.090   0.160   4.525
 5195SOL    HW216485   0.214   0.266   4.538
 5196SOL     OW16486   5.533   6.490   2.617
 5196SOL    HW116487   5.536   6.419   2.546
 5196SOL    HW216488   5.605   6.557   2.600
 5197SOL     OW16489   1.428   3.963   5.404
 5197SOL    HW116490   1.451   4.050   5.360
 5197SOL    HW216491   1.331   3.944   5.390
 5198SOL     OW16492   5.978   5.819   2.411
 5198SOL    HW116493   5.892   5.768   2.415
 5198SOL    HW216494   6.047   5.764   2.363
 5199SOL     OW16495   6.771   4.702   0.871
 5199SOL    HW116496   6.697   4.674   0.932
 5199SOL    HW216497   6.846   4.741   0.924
 5200SOL     OW16498   0.259   3.801   4.915
 5200SOL    HW116499   0.260   3.707   4.881
 5200SOL    HW216500   0.349   3.842   4.905
 5201SOL     OW16501   1.508   5.019   4.035
 5201SOL    HW116502   1.476   5.114   4.027
 5201SOL    HW216503   1.608   5.017   4.032
 5202SOL     OW16504   0.164   4.843   0.856
 5202SOL    HW116505   0.110   4.859   0.939
 5202SOL    HW216506   0.203   4.751   0.859
 5203SOL     OW16507   1.327   2.166   0.155
 5203SOL    HW116508   1.304   2.079   0.200
 5203SOL    HW216509   1.246   2.223   0.150
 5204SOL     OW16510   4.701   4.939   0.028
 5204SOL    HW116511   4.799   4.932   0.008
 5204SOL    HW216512   4.671   5.034   0.018
 5205SOL     OW16513   1.366   0.332   1.869
 5205SOL    HW116514   1.372   0.278   1.785
 5205SOL    HW216515   1.425   0.412   1.862
 5206SOL     OW16516   0.250   4.208   6.325
 5206SOL    HW116517   0.323   4.250   6.380
 5206SOL    HW216518   0.171   4.269   6.324
 5207SOL     OW16519   1.960   4.755   4.339
 5207SOL    HW116520   1.880   4.814   4.327
 5207SOL    HW216521   1.932   4.667   4.375
 5208SOL     OW16522   3.709   1.396   6.704
 5208SOL    HW116523   3.672   1.318   6.653
 5208SOL    HW216524   3.651   1.415   6.783
 5209SOL     OW16525   5.583   6.038   3.053
 5209SOL    HW116526   5.548   6.056   3.145
 5209SOL    HW216527   5.629   6.119   3.019
 5210SOL     OW16528   5.245   5.007   3.979
 5210SOL    HW116529   5.212   5.013   3.885
 5210SOL    HW216530   5.170   4.982   4.039
 5211SOL     OW16531   4.035   3.361   3.379
 5211SOL    HW116532   4.011   3.292   3.311
 5211SOL    HW216533   4.083   3.318   3.456
 5212SOL     OW16534   0.987   2.052   1.017
 5212SOL    HW116535   0.930   2.034   1.097
 5212SOL    HW216536   1.043   2.134   1.034
 5213SOL     OW16537   4.790   2.584   5.428
 5213SOL    HW116538   4.784   2.508   5.363
 5213SOL    HW216539   4.832   2.553   5.513
 5214SOL     OW16540   5.468   1.083   5.375
 5214SOL    HW116541   5.488   1.056   5.281
 5214SOL    HW216542   5.552   1.115   5.419
 5215SOL     OW16543   5.166   4.780   2.859
 5215SOL    HW116544   5.089   4.780   2.922
 5215SOL    HW216545   5.134   4.758   2.767
 5216SOL     OW16546   4.799   4.906   0.676
 5216SOL    HW116547   4.741   4.976   0.717
 5216SOL    HW216548   4.773   4.893   0.580
 5217SOL     OW16549   2.440   5.131   4.378
 5217SOL    HW116550   2.397   5.148   4.467
 5217SOL    HW216551   2.492   5.045   4.382
 5218SOL     OW16552   1.638   6.759   3.417
 5218SOL    HW116553   1.574   6.819   3.465
 5218SOL    HW216554   1.729   6.769   3.457
 5219SOL     OW16555   3.561   6.920   6.265
 5219SOL    HW116556   3.566   6.825   6.235
 5219SOL    HW216557   3.521   6.924   6.357
 5220SOL     OW16558   0.977   6.407   2.888
 5220SOL    HW116559   0.886   6.366   2.879
 5220SOL    HW216560   1.047   6.336   2.884
 5221SOL     OW16561   4.970   1.148   4.726
 5221SOL    HW116562   5.011   1.096   4.801
 5221SOL    HW216563   5.012   1.238   4.720
 5222SOL     OW16564   1.705   0.535   3.674
 5222SOL    HW116565   1.683   0.442   3.645
 5222SOL    HW216566   1.624   0.576   3.718
 5223SOL     OW16567   4.514   0.461   1.508
 5223SOL    HW116568   4.540   0.437   1.414
 5223SOL    HW216569   4.595   0.485   1.560
 5224SOL     OW16570   6.098   1.864   2.165
 5224SOL    HW116571   6.019   1.832   2.112
 5224SOL    HW216572   6.094   1.825   2.257
 5225SOL     OW16573   5.746   6.024   4.345
 5225SOL    HW116574   5.819   6.017   4.413
 5225SOL    HW216575   5.658   6.004   4.389
 5226SOL     OW16576   1.156   6.270   4.042
 5226SOL    HW116577   1.068   6.255   4.088
 5226SOL    HW216578   1.228   6.219   4.089
 5227SOL     OW16579   6.022   4.499   2.909
 5227SOL    HW116580   6.000   4.595   2.888
 5227SOL    HW216581   6.030   4.488   3.008
 5228SOL     OW16582   5.437   1.656   0.612
 5228SOL    HW116583   5.435   1.661   0.512
 5228SOL    HW216584   5.426   1.747   0.651
 5229SOL     OW16585   1.143   3.888   5.402
 5229SOL    HW116586   1.120   3.904   5.498
 5229SOL    HW216587   1.096   3.806   5.369
 5230SOL     OW16588   0.075   0.403   0.274
 5230SOL    HW116589   0.101   0.472   0.342
 5230SOL    HW216590   0.072   0.313   0.318
 5231SOL     OW16591   4.064   3.306   3.890
 5231SOL    HW116592   4.074   3.272   3.796
 5231SOL    HW216593   3.976   3.276   3.927
 5232SOL     OW16594   4.278   2.504   6.837
 5232SOL    HW116595   4.202   2.466   6.785
 5232SOL    HW216596   4.365   2.472   6.797
 5233SOL     OW16597   0.752   6.431   2.415
 5233SOL    HW116598   0.692   6.369   2.466
 5233SOL    HW216599   0.697   6.505   2.376
 5234SOL     OW16600   3.606   6.727   0.687
 5234SOL    HW116601   3.658   6.685   0.612
 5234SOL    HW216602   3.656   6.806   0.722
 5235SOL     OW16603   1.136   3.247   0.572
 5235SOL    HW116604   1.233   3.244   0.548
 5235SOL    HW216605   1.100   3.153   0.578
 5236SOL     OW16606   5.217   3.425   1.128
 5236SOL    HW116607   5.270   3.427   1.212
 5236SOL    HW216608   5.222   3.514   1.083
 5237SOL     OW16609   2.589   2.218   5.585
 5237SOL    HW116610   2.503   2.231   5.535
 5237SOL    HW216611   2.576   2.247   5.680
 5238SOL     OW16612   1.888   4.895   0.955
 5238SOL    HW116613   1.948   4.916   1.032
 5238SOL    HW216614   1.919   4.810   0.912
 5239SOL     OW16615   3.296   2.923   3.417
 5239SOL    HW116616   3.376   2.928   3.477
 5239SOL    HW216617   3.236   2.849   3.449
 5240SOL     OW16618   3.571   2.083   5.101
 5240SOL    HW116619   3.491   2.061   5.156
 5240SOL    HW216620   3.547   2.152   5.032
 5241SOL     OW16621   1.911   6.212   6.478
 5241SOL    HW116622   1.976   6.222   6.554
 5241SOL    HW216623   1.822   6.186   6.513
 5242SOL     OW16624   6.182   1.311   5.844
 5242SOL    HW116625   6.162   1.257   5.926
 5242SOL    HW216626   6.279   1.336   5.845
 5243SOL     OW16627   1.275   5.254   0.952
 5243SOL    HW116628   1.264   5.315   1.030
 5243SOL    HW216629   1.359   5.202   0.961
 5244SOL     OW16630   5.280   4.555   5.366
 5244SOL    HW116631   5.221   4.570   5.446
 5244SOL    HW216632   5.372   4.588   5.386
 5245SOL     OW16633   4.906   3.883   6.910
 5245SOL    HW116634   4.889   3.971   6.866
 5245SOL    HW216635   4.996   3.848   6.881
 5246SOL     OW16636   1.201   3.598   2.641
 5246SOL    HW116637   1.213   3.649   2.556
 5246SOL    HW216638   1.280   3.537   2.655
 5247SOL     OW16639   0.165   5.187   0.943
 5247SOL    HW116640   0.261   5.175   0.970
 5247SOL    HW216641   0.151   5.152   0.851
 5248SOL     OW16642   4.940   0.538   5.872
 5248SOL    HW116643   4.931   0.603   5.947
 5248SOL    HW216644   5.034   0.503   5.870
 5249SOL     OW16645   0.912   5.076   4.969
 5249SOL    HW116646   0.981   5.104   4.902
 5249SOL    HW216647   0.858   5.000   4.933
 5250SOL     OW16648   0.536   1.601   6.497
 5250SOL    HW116649   0.584   1.513   6.491
 5250SOL    HW216650   0.500   1.625   6.407
 5251SOL     OW16651   6.242   2.964   1.208
 5251SOL    HW116652   6.243   2.880   1.262
 5251SOL    HW216653   6.300   3.033   1.253
 5252SOL     OW16654   3.816   5.925   0.418
 5252SOL    HW116655   3.851   5.996   0.357
 5252SOL    HW216656   3.864   5.932   0.506
 5253SOL     OW16657   5.680   3.589   4.549
 5253SOL    HW116658   5.681   3.568   4.647
 5253SOL    HW216659   5.670   3.688   4.537
 5254SOL     OW16660   4.306   0.618   3.582
 5254SOL    HW116661   4.403   0.608   3.600
 5254SOL    HW216662   4.289   0.612   3.483
 5255SOL     OW16663   3.014   6.594   5.100
 5255SOL    HW116664   3.075   6.516   5.088
 5255SOL    HW216665   2.920   6.562   5.111
 5256SOL     OW16666   5.067   0.247   3.269
 5256SOL    HW116667   5.030   0.260   3.177
 5256SOL    HW216668   5.065   0.150   3.293
 5257SOL     OW16669   4.024   0.279   0.052
 5257SOL    HW116670   4.040   0.377   0.052
 5257SOL    HW216671   4.071   0.237   0.129
 5258SOL     OW16672   5.034   4.215   2.372
 5258SOL    HW116673   4.939   4.186   2.382
 5258SOL    HW216674   5.042   4.274   2.292
 5259SOL     OW16675   4.929   5.357   2.809
 5259SOL    HW116676   4.959   5.265   2.835
 5259SOL    HW216677   4.928   5.364   2.710
 5260SOL     OW16678   5.562   3.709   1.450
 5260SOL    HW116679   5.624   3.697   1.372
 5260SOL    HW216680   5.578   3.799   1.492
 5261SOL     OW16681   0.721   2.066   4.647
 5261SOL    HW116682   0.797   2.016   4.688
 5261SOL    HW216683   0.682   2.129   4.715
 5262SOL     OW16684   3.053   6.499   1.845
 5262SOL    HW116685   3.122   6.567   1.818
 5262SOL    HW216686   3.060   6.483   1.943
 5263SOL     OW16687   1.772   0.041   6.215
 5263SOL    HW116688   1.741   6.966   6.209
 5263SOL    HW216689   1.863   0.049   6.173
 5264SOL     OW16690   0.264   2.308   1.124
 5264SOL    HW116691   0.311   2.234   1.077
 5264SOL    HW216692   0.272   2.294   1.223
 5265SOL     OW16693   5.470   4.841   1.640
 5265SOL    HW116694   5.384   4.809   1.602
 5265SOL    HW216695   5.542   4.836   1.571
 5266SOL     OW16696   1.462   6.732   1.657
 5266SOL    HW116697   1.411   6.726   1.571
 5266SOL    HW216698   1.560   6.734   1.638
 5267SOL     OW16699   5.011   4.874   5.117
 5267SOL    HW116700   5.088   4.907   5.172
 5267SOL    HW216701   5.041   4.797   5.061
 5268SOL     OW16702   6.091   5.351   5.389
 5268SOL    HW116703   6.164   5.372   5.324
 5268SOL    HW216704   6.063   5.434   5.437
 5269SOL     OW16705   1.926   5.422   4.174
 5269SOL    HW116706   1.853   5.441   4.109
 5269SOL    HW216707   1.938   5.323   4.182
 5270SOL     OW16708   6.317   2.506   1.851
 5270SOL    HW116709   6.254   2.570   1.807
 5270SOL    HW216710   6.267   2.450   1.917
 5271SOL     OW16711   5.455   4.327   5.196
 5271SOL    HW116712   5.375   4.376   5.160
 5271SOL    HW216713   5.424   4.253   5.256
 5272SOL     OW16714   0.556   7.019   4.437
 5272SOL    HW116715   0.504   6.985   4.359
 5272SOL    HW216716   0.559   6.949   4.508
 5273SOL     OW16717   0.737   1.507   3.806
 5273SOL    HW116718   0.792   1.501   3.889
 5273SOL    HW216719   0.680   1.589   3.810
 5274SOL     OW16720   6.595   5.184   3.966
 5274SOL    HW116721   6.692   5.187   3.992
 5274SOL    HW216722   6.548   5.265   4.003
 5275SOL     OW16723   2.685   0.320   6.893
 5275SOL    HW116724   2.768   0.295   6.943
 5275SOL    HW216725   2.606   0.277   6.937
 5276SOL     OW16726   6.921   6.801   1.786
 5276SOL    HW116727   6.949   6.779   1.879
 5276SOL    HW216728   6.995   6.851   1.741
 5277SOL     OW16729   0.999   1.678   3.109
 5277SOL    HW116730   1.023   1.600   3.166
 5277SOL    HW216731   0.950   1.746   3.164
 5278SOL     OW16732   0.660   5.390   5.626
 5278SOL    HW116733   0.590   5.452   5.661
 5278SOL    HW216734   0.740   5.392   5.686
 5279SOL     OW16735   1.347   5.564   6.349
 5279SOL    HW116736   1.423   5.621   6.318
 5279SOL    HW216737   1.314   5.508   6.274
 5280SOL     OW16738   3.927   5.793   4.870
 5280SOL    HW116739   3.968   5.870   4.821
 5280SOL    HW216740   3.880   5.734   4.805
 5281SOL     OW16741   2.141   0.519   4.714
 5281SOL    HW116742   2.188   0.508   4.801
 5281SOL    HW216743   2.043   0.506   4.727
 5282SOL     OW16744   1.468   0.338   2.448
 5282SOL    HW116745   1.372   0.341   2.475
 5282SOL    HW216746   1.490   0.248   2.412
 5283SOL     OW16747   6.868   0.978   4.225
 5283SOL    HW116748   6.772   0.952   4.232
 5283SOL    HW216749   6.899   1.016   4.312
 5284SOL     OW16750   5.378   1.965   1.988
 5284SOL    HW116751   5.288   2.004   1.973
 5284SOL    HW216752   5.381   1.919   2.077
 5285SOL     OW16753   0.734   3.067   3.805
 5285SOL    HW116754   0.775   2.983   3.771
 5285SOL    HW216755   0.703   3.054   3.899
 5286SOL     OW16756   6.387   2.792   1.374
 5286SOL    HW116757   6.373   2.701   1.334
 5286SOL    HW216758   6.462   2.787   1.441
 5287SOL     OW16759   3.269   4.963   1.489
 5287SOL    HW116760   3.276   5.011   1.401
 5287SOL    HW216761   3.355   4.972   1.539
 5288SOL     OW16762   5.246   0.713   2.076
 5288SOL    HW116763   5.168   0.661   2.043
 5288SOL    HW216764   5.267   0.786   2.012
 5289SOL     OW16765   1.939   4.788   6.470
 5289SOL    HW116766   1.903   4.695   6.479
 5289SOL    HW216767   1.976   4.818   6.558
 5290SOL     OW16768   1.688   3.346   5.679
 5290SOL    HW116769   1.684   3.304   5.588
 5290SOL    HW216770   1.608   3.317   5.732
 5291SOL     OW16771   2.723   4.599   5.300
 5291SOL    HW116772   2.809   4.584   5.250
 5291SOL    HW216773   2.690   4.692   5.283
 5292SOL     OW16774   6.476   4.275   6.533
 5292SOL    HW116775   6.567   4.316   6.545
 5292SOL    HW216776   6.465   4.199   6.596
 5293SOL     OW16777   2.061   5.385   4.597
 5293SOL    HW116778   2.130   5.347   4.536
 5293SOL    HW216779   1.971   5.378   4.554
 5294SOL     OW16780   4.198   0.706   5.234
 5294SOL    HW116781   4.158   0.619   5.263
 5294SOL    HW216782   4.220   0.702   5.136
 5295SOL     OW16783   3.318   0.887   2.051
 5295SOL    HW116784   3.222   0.866   2.070
 5295SOL    HW216785   3.374   0.858   2.128
 5296SOL     OW16786   3.927   4.318   1.055
 5296SOL    HW116787   3.923   4.281   0.962
 5296SOL    HW216788   3.999   4.271   1.106
 5297SOL     OW16789   2.284   4.049   0.324
 5297SOL    HW116790   2.374   4.090   0.308
 5297SOL    HW216791   2.275   3.967   0.268
 5298SOL     OW16792   2.439   0.085   0.184
 5298SOL    HW116793   2.398   0.005   0.141
 5298SOL    HW216794   2.367   0.150   0.208
 5299SOL     OW16795   3.000   2.041   0.465
 5299SOL    HW116796   3.093   2.025   0.431
 5299SOL    HW216797   2.981   1.978   0.541
 5300SOL     OW16798   1.779   4.697   0.508
 5300SOL    HW116799   1.741   4.720   0.418
 5300SOL    HW216800   1.748   4.763   0.575
 5301SOL     OW16801   4.602   0.463   6.604
 5301SOL    HW116802   4.572   0.391   6.541
 5301SOL    HW216803   4.669   0.521   6.560
 5302SOL     OW16804   4.926   5.603   3.245
 5302SOL    HW116805   4.897   5.527   3.303
 5302SOL    HW216806   4.987   5.663   3.296
 5303SOL     OW16807   6.797   5.049   6.167
 5303SOL    HW116808   6.800   4.949   6.163
 5303SOL    HW216809   6.747   5.084   6.087
 5304SOL     OW16810   6.435   1.110   1.084
 5304SOL    HW116811   6.403   1.201   1.059
 5304SOL    HW216812   6.506   1.117   1.153
 5305SOL     OW16813   1.190   5.487   2.704
 5305SOL    HW116814   1.098   5.503   2.741
 5305SOL    HW216815   1.257   5.533   2.763
 5306SOL     OW16816   6.558   3.925   6.079
 5306SOL    HW116817   6.651   3.959   6.074
 5306SOL    HW216818   6.517   3.953   6.166
 5307SOL     OW16819   4.600   2.405   0.598
 5307SOL    HW116820   4.522   2.362   0.643
 5307SOL    HW216821   4.571   2.491   0.556
 5308SOL     OW16822   1.381   4.581   2.969
 5308SOL    HW116823   1.368   4.484   2.992
 5308SOL    HW216824   1.355   4.596   2.874
 5309SOL     OW16825   4.017   6.194   2.952
 5309SOL    HW116826   4.104   6.238   2.927
 5309SOL    HW216827   4.002   6.205   3.051
 5310SOL     OW16828   6.127   3.329   2.798
 5310SOL    HW116829   6.093   3.318   2.705
 5310SOL    HW216830   6.226   3.318   2.799
 5311SOL     OW16831   5.831   6.771   0.580
 5311SOL    HW116832   5.844   6.751   0.483
 5311SOL    HW216833   5.856   6.691   0.634
 5312SOL     OW16834   0.536   6.574   1.702
 5312SOL    HW116835   0.448   6.590   1.658
 5312SOL    HW216836   0.552   6.645   1.770
 5313SOL     OW16837   6.892   5.128   5.532
 5313SOL    HW116838   6.849   5.057   5.587
 5313SOL    HW216839   6.982   5.150   5.571
 5314SOL     OW16840   5.854   6.851   0.904
 5314SOL    HW116841   5.866   6.947   0.879
 5314SOL    HW216842   5.758   6.825   0.894
 5315SOL     OW16843   4.447   2.045   3.469
 5315SOL    HW116844   4.517   2.063   3.400
 5315SOL    HW216845   4.371   1.994   3.428
 5316SOL     OW16846   0.686   3.006   5.224
 5316SOL    HW116847   0.734   3.023   5.310
 5316SOL    HW216848   0.673   3.093   5.175
 5317SOL     OW16849   6.541   0.979   5.754
 5317SOL    HW116850   6.611   0.968   5.683
 5317SOL    HW216851   6.571   1.047   5.821
 5318SOL     OW16852   6.494   3.134   0.438
 5318SOL    HW116853   6.545   3.161   0.356
 5318SOL    HW216854   6.444   3.214   0.474
 5319SOL     OW16855   4.423   6.593   1.018
 5319SOL    HW116856   4.381   6.506   1.045
 5319SOL    HW216857   4.357   6.667   1.028
 5320SOL     OW16858   3.919   5.608   1.628
 5320SOL    HW116859   3.966   5.520   1.638
 5320SOL    HW216860   3.849   5.616   1.698
 5321SOL     OW16861   1.343   4.606   5.178
 5321SOL    HW116862   1.422   4.666   5.184
 5321SOL    HW216863   1.273   4.648   5.120
 5322SOL     OW16864   5.515   6.666   1.700
 5322SOL    HW116865   5.598   6.624   1.662
 5322SOL    HW216866   5.456   6.595   1.738
 5323SOL     OW16867   4.669   1.429   5.799
 5323SOL    HW116868   4.605   1.491   5.843
 5323SOL    HW216869   4.622   1.375   5.729
 5324SOL     OW16870   2.705   2.446   6.626
 5324SOL    HW116871   2.628   2.389   6.654
 5324SOL    HW216872   2.679   2.543   6.634
 5325SOL     OW16873   3.077   1.778   5.211
 5325SOL    HW116874   3.076   1.877   5.198
 5325SOL    HW216875   3.170   1.748   5.230
 5326SOL     OW16876   6.564   5.770   2.914
 5326SOL    HW116877   6.497   5.741   2.982
 5326SOL    HW216878   6.631   5.698   2.900
 5327SOL     OW16879   5.292   2.449   4.671
 5327SOL    HW116880   5.238   2.370   4.644
 5327SOL    HW216881   5.379   2.449   4.621
 5328SOL     OW16882   4.362   3.904   6.059
 5328SOL    HW116883   4.297   3.828   6.070
 5328SOL    HW216884   4.368   3.929   5.962
 5329SOL     OW16885   1.334   5.587   6.615
 5329SOL    HW116886   1.355   5.583   6.518
 5329SOL    HW216887   1.407   5.542   6.667
 5330SOL     OW16888   3.872   3.649   0.626
 5330SOL    HW116889   3.816   3.572   0.654
 5330SOL    HW216890   3.968   3.622   0.625
 5331SOL     OW16891   6.913   2.150   6.636
 5331SOL    HW116892   6.816   2.127   6.641
 5331SOL    HW216893   6.923   2.245   6.604
 5332SOL     OW16894   1.248   4.603   1.468
 5332SOL    HW116895   1.238   4.594   1.369
 5332SOL    HW216896   1.336   4.565   1.496
 5333SOL     OW16897   1.603   0.423   3.225
 5333SOL    HW116898   1.658   0.449   3.304
 5333SOL    HW216899   1.606   0.323   3.215
 5334SOL     OW16900   2.738   0.179   4.951
 5334SOL    HW116901   2.682   0.260   4.934
 5334SOL    HW216902   2.795   0.195   5.032
 5335SOL     OW16903   6.635   5.702   0.359
 5335SOL    HW116904   6.544   5.663   0.370
 5335SOL    HW216905   6.635   5.766   0.281
 5336SOL     OW16906   1.901   3.582   2.104
 5336SOL    HW116907   1.842   3.545   2.033
 5336SOL    HW216908   1.861   3.666   2.141
 5337SOL     OW16909   4.917   3.988   1.168
 5337SOL    HW116910   4.944   3.906   1.118
 5337SOL    HW216911   4.993   4.020   1.223
 5338SOL     OW16912   6.741   1.786   0.110
 5338SOL    HW116913   6.701   1.828   0.029
 5338SOL    HW216914   6.684   1.807   0.190
 5339SOL     OW16915   6.785   2.079   3.846
 5339SOL    HW116916   6.687   2.074   3.829
 5339SOL    HW216917   6.806   2.032   3.932
 5340SOL     OW16918   5.763   2.604   6.864
 5340SOL    HW116919   5.721   2.637   6.780
 5340SOL    HW216920   5.766   2.677   6.932
 5341SOL     OW16921   4.138   1.895   5.465
 5341SOL    HW116922   4.104   1.859   5.552
 5341SOL    HW216923   4.081   1.863   5.390
 5342SOL     OW16924   4.051   0.652   4.908
 5342SOL    HW116925   4.140   0.668   4.866
 5342SOL    HW216926   4.023   0.735   4.958
 5343SOL     OW16927   4.077   3.517   2.580
 5343SOL    HW116928   4.116   3.573   2.653
 5343SOL    HW216929   4.000   3.463   2.615
 5344SOL     OW16930   1.407   2.546   2.711
 5344SOL    HW116931   1.397   2.597   2.796
 5344SOL    HW216932   1.376   2.603   2.634
 5345SOL     OW16933   4.754   6.044   1.022
 5345SOL    HW116934   4.665   6.049   1.067
 5345SOL    HW216935   4.741   6.034   0.923
 5346SOL     OW16936   3.125   6.075   3.406
 5346SOL    HW116937   3.049   6.086   3.342
 5346SOL    HW216938   3.116   5.987   3.453
 5347SOL     OW16939   0.411   2.021   2.006
 5347SOL    HW116940   0.420   2.118   1.984
 5347SOL    HW216941   0.376   1.972   1.927
 5348SOL     OW16942   0.932   1.342   0.530
 5348SOL    HW116943   0.971   1.418   0.582
 5348SOL    HW216944   0.962   1.348   0.435
 5349SOL     OW16945   0.176   2.146   0.262
 5349SOL    HW116946   0.178   2.123   0.164
 5349SOL    HW216947   0.086   2.180   0.286
 5350SOL     OW16948   2.388   0.418   6.264
 5350SOL    HW116949   2.443   0.390   6.343
 5350SOL    HW216950   2.420   0.506   6.230
 5351SOL     OW16951   5.005   5.902   1.441
 5351SOL    HW116952   4.991   6.000   1.455
 5351SOL    HW216953   4.949   5.872   1.364
 5352SOL     OW16954   2.236   6.052   4.115
 5352SOL    HW116955   2.320   6.062   4.168
 5352SOL    HW216956   2.250   5.986   4.041
 5353SOL     OW16957   4.613   6.296   5.058
 5353SOL    HW116958   4.569   6.316   4.970
 5353SOL    HW216959   4.643   6.200   5.059
 5354SOL     OW16960   2.619   4.894   2.221
 5354SOL    HW116961   2.696   4.931   2.273
 5354SOL    HW216962   2.653   4.850   2.138
 5355SOL     OW16963   4.243   1.804   3.802
 5355SOL    HW116964   4.204   1.815   3.710
 5355SOL    HW216965   4.334   1.765   3.794
 5356SOL     OW16966   6.155   3.668   1.650
 5356SOL    HW116967   6.203   3.599   1.596
 5356SOL    HW216968   6.222   3.727   1.695
 5357SOL     OW16969   3.991   0.528   0.325
 5357SOL    HW116970   3.981   0.448   0.384
 5357SOL    HW216971   3.948   0.608   0.367
 5358SOL     OW16972   4.003   2.181   0.637
 5358SOL    HW116973   3.946   2.139   0.708
 5358SOL    HW216974   3.948   2.198   0.555
 5359SOL     OW16975   2.471   1.716   1.081
 5359SOL    HW116976   2.525   1.632   1.090
 5359SOL    HW216977   2.505   1.770   1.004
 5360SOL     OW16978   3.610   6.698   5.140
 5360SOL    HW116979   3.687   6.762   5.145
 5360SOL    HW216980   3.624   6.623   5.205
 5361SOL     OW16981   2.423   1.133   4.612
 5361SOL    HW116982   2.454   1.106   4.521
 5361SOL    HW216983   2.407   1.232   4.614
 5362SOL     OW16984   4.909   4.334   2.891
 5362SOL    HW116985   4.986   4.361   2.950
 5362SOL    HW216986   4.866   4.252   2.929
 5363SOL     OW16987   1.063   6.163   5.714
 5363SOL    HW116988   1.102   6.078   5.750
 5363SOL    HW216989   1.123   6.198   5.642
 5364SOL     OW16990   6.588   6.049   0.923
 5364SOL    HW116991   6.625   6.076   1.012
 5364SOL    HW216992   6.506   6.102   0.903
 5365SOL     OW16993   4.341   2.967   6.088
 5365SOL    HW116994   4.318   2.919   6.003
 5365SOL    HW216995   4.258   2.984   6.141
 5366SOL     OW16996   3.949   4.740   0.572
 5366SOL    HW116997   3.925   4.663   0.512
 5366SOL    HW216998   3.931   4.715   0.667
 5367SOL     OW16999   0.356   5.100   0.594
 5367SOL    HW117000   0.376   5.170   0.526
 5367SOL    HW217001   0.343   5.012   0.549
 5368SOL     OW17002   5.483   1.802   2.206
 5368SOL    HW117003   5.472   1.783   2.303
 5368SOL    HW217004   5.572   1.767   2.175
 5369SOL     OW17005   2.301   4.734   3.332
 5369SOL    HW117006   2.216   4.782   3.310
 5369SOL    HW217007   2.374   4.765   3.271
 5370SOL     OW17008   3.804   3.076   1.604
 5370SOL    HW117009   3.889   3.108   1.562
 5370SOL    HW217010   3.825   3.023   1.686
 5371SOL     OW17011   1.850   4.191   4.808
 5371SOL    HW117012   1.787   4.171   4.733
 5371SOL    HW217013   1.832   4.128   4.884
 5372SOL     OW17014   3.305   5.530   2.193
 5372SOL    HW117015   3.298   5.468   2.271
 5372SOL    HW217016   3.218   5.578   2.180
 5373SOL     OW17017   3.158   4.938   4.523
 5373SOL    HW117018   3.250   4.930   4.486
 5373SOL    HW217019   3.157   4.905   4.618
 5374SOL     OW17020   1.491   3.312   6.673
 5374SOL    HW117021   1.536   3.228   6.643
 5374SOL    HW217022   1.482   3.312   6.773
 5375SOL     OW17023   1.312   4.069   5.108
 5375SOL    HW117024   1.303   4.166   5.087
 5375SOL    HW217025   1.227   4.022   5.085
 5376SOL     OW17026   1.763   3.345   1.629
 5376SOL    HW117027   1.812   3.258   1.634
 5376SOL    HW217028   1.743   3.377   1.722
 5377SOL     OW17029   6.868   0.141   1.947
 5377SOL    HW117030   6.797   0.109   1.884
 5377SOL    HW217031   6.948   0.171   1.895
 5378SOL     OW17032   6.170   0.362   0.239
 5378SOL    HW117033   6.159   0.322   0.148
 5378SOL    HW217034   6.266   0.359   0.266
 5379SOL     OW17035   0.174   4.986   3.870
 5379SOL    HW117036   0.185   4.919   3.944
 5379SOL    HW217037   0.083   4.979   3.830
 5380SOL     OW17038   2.373   0.513   3.622
 5380SOL    HW117039   2.368   0.471   3.531
 5380SOL    HW217040   2.468   0.536   3.643
 5381SOL     OW17041   6.179   3.777   0.869
 5381SOL    HW117042   6.097   3.828   0.893
 5381SOL    HW217043   6.185   3.768   0.769
 5382SOL     OW17044   3.257   0.309   1.368
 5382SOL    HW117045   3.299   0.318   1.278
 5382SOL    HW217046   3.166   0.270   1.359
 5383SOL     OW17047   2.868   2.256   5.557
 5383SOL    HW117048   2.899   2.287   5.467
 5383SOL    HW217049   2.768   2.259   5.560
 5384SOL     OW17050   6.441   6.363   4.375
 5384SOL    HW117051   6.377   6.323   4.441
 5384SOL    HW217052   6.391   6.387   4.291
 5385SOL     OW17053   2.950   3.756   2.900
 5385SOL    HW117054   2.943   3.689   2.974
 5385SOL    HW217055   2.950   3.709   2.812
 5386SOL     OW17056   4.859   6.202   4.201
 5386SOL    HW117057   4.818   6.234   4.115
 5386SOL    HW217058   4.788   6.161   4.258
 5387SOL     OW17059   2.488   5.691   2.374
 5387SOL    HW117060   2.557   5.748   2.417
 5387SOL    HW217061   2.415   5.672   2.439
 5388SOL     OW17062   5.427   6.266   2.430
 5388SOL    HW117063   5.337   6.306   2.444
 5388SOL    HW217064   5.418   6.168   2.412
 5389SOL     OW17065   4.865   1.054   1.743
 5389SOL    HW117066   4.899   1.041   1.650
 5389SOL    HW217067   4.941   1.048   1.808
 5390SOL     OW17068   5.322   4.998   4.303
 5390SOL    HW117069   5.363   5.009   4.393
 5390SOL    HW217070   5.353   4.912   4.263
 5391SOL     OW17071   2.739   3.537   0.217
 5391SOL    HW117072   2.752   3.557   0.120
 5391SOL    HW217073   2.806   3.468   0.246
 5392SOL     OW17074   6.010   3.008   1.472
 5392SOL    HW117075   6.087   2.976   1.528
 5392SOL    HW217076   6.012   3.107   1.464
 5393SOL     OW17077   6.918   6.946   6.802
 5393SOL    HW117078   6.836   6.933   6.857
 5393SOL    HW217079   6.929   6.870   6.739
 5394SOL     OW17080   0.726   4.031   6.208
 5394SOL    HW117081   0.647   4.029   6.270
 5394SOL    HW217082   0.807   4.064   6.258
 5395SOL     OW17083   4.510   0.470   0.662
 5395SOL    HW117084   4.432   0.456   0.601
 5395SOL    HW217085   4.505   0.408   0.740
 5396SOL     OW17086   5.297   3.680   2.109
 5396SOL    HW117087   5.254   3.731   2.184
 5396SOL    HW217088   5.226   3.633   2.056
 5397SOL     OW17089   6.858   3.334   1.836
 5397SOL    HW117090   6.817   3.391   1.764
 5397SOL    HW217091   6.795   3.260   1.860
 5398SOL     OW17092   3.167   2.597   1.741
 5398SOL    HW117093   3.101   2.553   1.802
 5398SOL    HW217094   3.131   2.595   1.647
 5399SOL     OW17095   2.957   6.377   0.852
 5399SOL    HW117096   2.951   6.435   0.771
 5399SOL    HW217097   2.870   6.382   0.902
 5400SOL     OW17098   2.793   4.268   0.528
 5400SOL    HW117099   2.858   4.195   0.507
 5400SOL    HW217100   2.835   4.356   0.508
 5401SOL     OW17101   5.949   3.139   2.282
 5401SOL    HW117102   5.950   3.171   2.188
 5401SOL    HW217103   6.025   3.075   2.297
 5402SOL     OW17104   2.561   5.913   1.692
 5402SOL    HW117105   2.466   5.900   1.719
 5402SOL    HW217106   2.595   5.999   1.728
 5403SOL     OW17107   0.170   3.506   6.247
 5403SOL    HW117108   0.198   3.451   6.168
 5403SOL    HW217109   0.252   3.535   6.297
 5404SOL     OW17110   1.375   2.967   3.513
 5404SOL    HW117111   1.283   2.986   3.547
 5404SOL    HW217112   1.417   2.894   3.567
 5405SOL     OW17113   6.843   5.542   6.836
 5405SOL    HW117114   6.923   5.580   6.790
 5405SOL    HW217115   6.856   5.443   6.848
 5406SOL     OW17116   1.603   2.250   0.492
 5406SOL    HW117117   1.572   2.156   0.480
 5406SOL    HW217118   1.563   2.308   0.421
 5407SOL     OW17119   4.428   3.573   0.546
 5407SOL    HW117120   4.480   3.618   0.618
 5407SOL    HW217121   4.395   3.484   0.579
 5408SOL     OW17122   2.552   1.122   5.457
 5408SOL    HW117123   2.503   1.159   5.377
 5408SOL    HW217124   2.494   1.056   5.504
 5409SOL     OW17125   5.219   0.175   2.953
 5409SOL    HW117126   5.147   0.242   2.972
 5409SOL    HW217127   5.291   0.184   3.021
 5410SOL     OW17128   3.068   2.153   1.868
 5410SOL    HW117129   3.156   2.183   1.831
 5410SOL    HW217130   3.017   2.232   1.901
 5411SOL     OW17131   6.650   4.889   5.921
 5411SOL    HW117132   6.672   4.797   5.952
 5411SOL    HW217133   6.563   4.918   5.963
 5412SOL     OW17134   4.923   2.867   0.589
 5412SOL    HW117135   4.839   2.845   0.540
 5412SOL    HW217136   4.997   2.809   0.555
 5413SOL     OW17137   2.660   1.915   1.566
 5413SOL    HW117138   2.674   1.891   1.470
 5413SOL    HW217139   2.747   1.941   1.607
 5414SOL     OW17140   5.149   1.636   4.615
 5414SOL    HW117141   5.155   1.724   4.663
 5414SOL    HW217142   5.162   1.651   4.517
 5415SOL     OW17143   0.223   6.265   1.234
 5415SOL    HW117144   0.308   6.316   1.245
 5415SOL    HW217145   0.229   6.179   1.285
 5416SOL     OW17146   3.970   4.975   5.065
 5416SOL    HW117147   4.020   5.051   5.107
 5416SOL    HW217148   4.026   4.892   5.068
 5417SOL     OW17149   3.549   0.033   5.198
 5417SOL    HW117150   3.628   6.995   5.181
 5417SOL    HW217151   3.562   0.121   5.152
 5418SOL     OW17152   3.604   0.234   2.464
 5418SOL    HW117153   3.615   0.324   2.506
 5418SOL    HW217154   3.671   0.223   2.391
 5419SOL     OW17155   3.607   4.745   0.204
 5419SOL    HW117156   3.636   4.669   0.146
 5419SOL    HW217157   3.526   4.718   0.256
 5420SOL     OW17158   2.050   2.803   3.331
 5420SOL    HW117159   2.114   2.826   3.403
 5420SOL    HW217160   2.094   2.742   3.265
 5421SOL     OW17161   1.554   3.721   1.257
 5421SOL    HW117162   1.582   3.737   1.163
 5421SOL    HW217163   1.635   3.710   1.315
 5422SOL     OW17164   1.193   4.912   1.165
 5422SOL    HW117165   1.215   4.932   1.069
 5422SOL    HW217166   1.099   4.940   1.184
 5423SOL     OW17167   6.280   2.854   6.731
 5423SOL    HW117168   6.198   2.886   6.778
 5423SOL    HW217169   6.344   2.815   6.798
 5424SOL     OW17170   4.910   3.573   4.209
 5424SOL    HW117171   4.894   3.488   4.159
 5424SOL    HW217172   4.997   3.567   4.258
 5425SOL     OW17173   4.255   1.197   5.015
 5425SOL    HW117174   4.189   1.141   5.065
 5425SOL    HW217175   4.243   1.293   5.041
 5426SOL     OW17176   5.527   6.340   4.209
 5426SOL    HW117177   5.556   6.352   4.304
 5426SOL    HW217178   5.511   6.430   4.168
 5427SOL     OW17179   4.280   5.929   6.459
 5427SOL    HW117180   4.262   5.900   6.553
 5427SOL    HW217181   4.194   5.957   6.415
 5428SOL     OW17182   0.641   0.451   0.827
 5428SOL    HW117183   0.736   0.478   0.843
 5428SOL    HW217184   0.634   0.352   0.829
 5429SOL     OW17185   1.871   1.503   0.124
 5429SOL    HW117186   1.916   1.459   0.046
 5429SOL    HW217187   1.818   1.582   0.092
 5430SOL     OW17188   0.330   2.056   6.369
 5430SOL    HW117189   0.319   2.022   6.462
 5430SOL    HW217190   0.422   2.033   6.337
 5431SOL     OW17191   3.544   6.659   6.549
 5431SOL    HW117192   3.474   6.599   6.589
 5431SOL    HW217193   3.514   6.754   6.557
 5432SOL     OW17194   5.483   7.018   6.893
 5432SOL    HW117195   5.559   0.051   6.930
 5432SOL    HW217196   5.402   0.056   6.884
 5433SOL     OW17197   0.260   1.823   4.442
 5433SOL    HW117198   0.165   1.835   4.470
 5433SOL    HW217199   0.283   1.726   4.444
 5434SOL     OW17200   2.984   0.020   5.533
 5434SOL    HW117201   3.025   0.102   5.572
 5434SOL    HW217202   3.055   6.971   5.518
 5435SOL     OW17203   4.923   6.927   2.079
 5435SOL    HW117204   4.913   6.881   1.991
 5435SOL    HW217205   4.911   6.860   2.153
 5436SOL     OW17206   4.771   4.283   3.257
 5436SOL    HW117207   4.774   4.225   3.339
 5436SOL    HW217208   4.744   4.228   3.178
 5437SOL     OW17209   2.529   4.178   0.274
 5437SOL    HW117210   2.611   4.159   0.220
 5437SOL    HW217211   2.547   4.253   0.337
 5438SOL     OW17212   6.820   2.544   1.783
 5438SOL    HW117213   6.799   2.547   1.685
 5438SOL    HW217214   6.867   2.458   1.804
 5439SOL     OW17215   1.802   1.993   1.389
 5439SOL    HW117216   1.766   2.057   1.321
 5439SOL    HW217217   1.901   2.002   1.394
 5440SOL     OW17218   1.536   1.543   1.412
 5440SOL    HW117219   1.475   1.486   1.356
 5440SOL    HW217220   1.597   1.594   1.352
 5441SOL     OW17221   3.601   2.064   4.118
 5441SOL    HW117222   3.700   2.077   4.117
 5441SOL    HW217223   3.563   2.092   4.206
 5442SOL     OW17224   4.030   6.404   2.474
 5442SOL    HW117225   3.965   6.398   2.550
 5442SOL    HW217226   4.095   6.328   2.479
 5443SOL     OW17227   2.819   0.191   5.375
 5443SOL    HW117228   2.861   0.125   5.437
 5443SOL    HW217229   2.733   0.154   5.339
 5444SOL     OW17230   0.718   0.560   4.098
 5444SOL    HW117231   0.789   0.569   4.169
 5444SOL    HW217232   0.740   0.481   4.041
 5445SOL     OW17233   6.386   3.936   3.441
 5445SOL    HW117234   6.354   3.853   3.395
 5445SOL    HW217235   6.484   3.929   3.458
 5446SOL     OW17236   5.631   5.550   4.967
 5446SOL    HW117237   5.643   5.521   4.872
 5446SOL    HW217238   5.626   5.470   5.026
 5447SOL     OW17239   3.043   2.692   6.871
 5447SOL    HW117240   2.997   2.627   6.931
 5447SOL    HW217241   3.089   2.761   6.926
 5448SOL     OW17242   5.254   2.149   5.145
 5448SOL    HW117243   5.217   2.068   5.190
 5448SOL    HW217244   5.350   2.135   5.121
 5449SOL     OW17245   1.571   2.605   6.545
 5449SOL    HW117246   1.571   2.680   6.611
 5449SOL    HW217247   1.481   2.597   6.504
 5450SOL     OW17248   2.427   1.025   1.910
 5450SOL    HW117249   2.470   0.937   1.892
 5450SOL    HW217250   2.407   1.034   2.008
 5451SOL     OW17251   1.042   6.050   3.166
 5451SOL    HW117252   1.056   6.009   3.076
 5451SOL    HW217253   1.053   5.979   3.237
 5452SOL     OW17254   2.040   4.162   0.195
 5452SOL    HW117255   1.965   4.211   0.239
 5452SOL    HW217256   2.120   4.162   0.256
 5453SOL     OW17257   6.670   4.107   0.581
 5453SOL    HW117258   6.688   4.114   0.483
 5453SOL    HW217259   6.752   4.073   0.628
 5454SOL     OW17260   6.927   4.547   6.417
 5454SOL    HW117261   6.835   4.586   6.413
 5454SOL    HW217262   6.972   4.578   6.501
 5455SOL     OW17263   0.252   3.092   1.131
 5455SOL    HW117264   0.235   3.111   1.228
 5455SOL    HW217265   0.266   2.993   1.119
 5456SOL     OW17266   3.422   0.931   6.223
 5456SOL    HW117267   3.351   0.995   6.252
 5456SOL    HW217268   3.410   0.909   6.126
 5457SOL     OW17269   5.572   2.699   0.751
 5457SOL    HW117270   5.527   2.610   0.761
 5457SOL    HW217271   5.515   2.759   0.696
 5458SOL     OW17272   0.896   4.521   6.859
 5458SOL    HW117273   0.935   4.445   6.909
 5458SOL    HW217274   0.955   4.544   6.781
 5459SOL     OW17275   2.015   5.073   0.067
 5459SOL    HW117276   1.927   5.026   0.063
 5459SOL    HW217277   2.057   5.073   6.997
 5460SOL     OW17278   3.393   0.295   1.607
 5460SOL    HW117279   3.433   0.205   1.593
 5460SOL    HW217280   3.339   0.320   1.526
 5461SOL     OW17281   5.094   6.422   5.365
 5461SOL    HW117282   5.147   6.507   5.367
 5461SOL    HW217283   5.156   6.344   5.362
 5462SOL     OW17284   1.683   0.826   0.862
 5462SOL    HW117285   1.750   0.837   0.936
 5462SOL    HW217286   1.709   0.884   0.785
 5463SOL     OW17287   6.163   2.342   0.669
 5463SOL    HW117288   6.095   2.399   0.715
 5463SOL    HW217289   6.254   2.383   0.679
 5464SOL     OW17290   1.792   0.551   4.139
 5464SOL    HW117291   1.760   0.639   4.105
 5464SOL    HW217292   1.727   0.480   4.112
 5465SOL     OW17293   4.162   6.759   3.659
 5465SOL    HW117294   4.143   6.675   3.710
 5465SOL    HW217295   4.091   6.771   3.588
 5466SOL     OW17296   5.268   4.255   4.817
 5466SOL    HW117297   5.340   4.200   4.861
 5466SOL    HW217298   5.268   4.347   4.856
 5467SOL     OW17299   5.368   1.916   2.793
 5467SOL    HW117300   5.354   1.842   2.728
 5467SOL    HW217301   5.382   1.879   2.885
 5468SOL     OW17302   4.800   1.625   4.564
 5468SOL    HW117303   4.749   1.685   4.627
 5468SOL    HW217304   4.889   1.666   4.545
 5469SOL     OW17305   4.100   4.489   6.312
 5469SOL    HW117306   4.199   4.485   6.301
 5469SOL    HW217307   4.057   4.477   6.222
 5470SOL     OW17308   2.108   5.122   3.909
 5470SOL    HW117309   2.150   5.040   3.870
 5470SOL    HW217310   2.019   5.137   3.867
 5471SOL     OW17311   5.420   6.151   0.957
 5471SOL    HW117312   5.323   6.146   0.931
 5471SOL    HW217313   5.432   6.223   1.025
 5472SOL     OW17314   4.394   3.714   6.308
 5472SOL    HW117315   4.380   3.799   6.257
 5472SOL    HW217316   4.325   3.647   6.280
 5473SOL     OW17317   0.977   3.807   2.933
 5473SOL    HW117318   1.041   3.838   2.863
 5473SOL    HW217319   1.025   3.799   3.021
 5474SOL     OW17320   2.232   5.116   4.211
 5474SOL    HW117321   2.312   5.103   4.269
 5474SOL    HW217322   2.261   5.136   4.117
 5475SOL     OW17323   3.457   2.407   1.016
 5475SOL    HW117324   3.534   2.348   1.039
 5475SOL    HW217325   3.383   2.393   1.083
 5476SOL     OW17326   1.705   3.325   6.122
 5476SOL    HW117327   1.738   3.391   6.054
 5476SOL    HW217328   1.699   3.234   6.081
 5477SOL     OW17329   2.156   3.333   3.536
 5477SOL    HW117330   2.187   3.395   3.608
 5477SOL    HW217331   2.129   3.246   3.576
 5478SOL     OW17332   5.251   5.914   6.336
 5478SOL    HW117333   5.204   5.827   6.353
 5478SOL    HW217334   5.299   5.942   6.419
 5479SOL     OW17335   4.882   0.477   4.383
 5479SOL    HW117336   4.936   0.395   4.363
 5479SOL    HW217337   4.930   0.557   4.347
 5480SOL     OW17338   0.861   4.113   4.651
 5480SOL    HW117339   0.877   4.127   4.749
 5480SOL    HW217340   0.763   4.097   4.635
 5481SOL     OW17341   3.225   0.208   4.735
 5481SOL    HW117342   3.221   0.254   4.824
 5481SOL    HW217343   3.200   0.112   4.746
 5482SOL     OW17344   3.553   4.469   1.711
 5482SOL    HW117345   3.594   4.545   1.761
 5482SOL    HW217346   3.476   4.502   1.656
 5483SOL     OW17347   0.433   2.431   6.237
 5483SOL    HW117348   0.341   2.408   6.269
 5483SOL    HW217349   0.491   2.349   6.239
 5484SOL     OW17350   4.618   0.388   4.411
 5484SOL    HW117351   4.583   0.374   4.504
 5484SOL    HW217352   4.715   0.413   4.415
 5485SOL     OW17353   2.609   6.177   5.296
 5485SOL    HW117354   2.633   6.106   5.362
 5485SOL    HW217355   2.671   6.173   5.218
 5486SOL     OW17356   2.732   5.763   4.899
 5486SOL    HW117357   2.762   5.814   4.979
 5486SOL    HW217358   2.659   5.813   4.852
 5487SOL     OW17359   2.881   4.374   5.631
 5487SOL    HW117360   2.797   4.330   5.601
 5487SOL    HW217361   2.880   4.470   5.605
 5488SOL     OW17362   5.737   1.413   0.631
 5488SOL    HW117363   5.720   1.447   0.539
 5488SOL    HW217364   5.651   1.403   0.680
 5489SOL     OW17365   6.800   3.224   2.142
 5489SOL    HW117366   6.848   3.265   2.219
 5489SOL    HW217367   6.799   3.124   2.152
 5490SOL     OW17368   1.012   6.732   2.829
 5490SOL    HW117369   1.099   6.778   2.808
 5490SOL    HW217370   1.018   6.636   2.801
 5491SOL     OW17371   0.186   3.147   0.874
 5491SOL    HW117372   0.111   3.210   0.854
 5491SOL    HW217373   0.202   3.144   0.972
 5492SOL     OW17374   0.278   1.912   5.619
 5492SOL    HW117375   0.362   1.965   5.628
 5492SOL    HW217376   0.225   1.947   5.542
 5493SOL     OW17377   4.112   3.603   1.774
 5493SOL    HW117378   4.109   3.685   1.718
 5493SOL    HW217379   4.095   3.627   1.869
 5494SOL     OW17380   5.852   4.233   5.147
 5494SOL    HW117381   5.904   4.167   5.092
 5494SOL    HW217382   5.821   4.189   5.231
 5495SOL     OW17383   5.934   0.616   0.406
 5495SOL    HW117384   5.850   0.611   0.352
 5495SOL    HW217385   5.998   0.680   0.363
 5496SOL     OW17386   4.299   0.996   4.305
 5496SOL    HW117387   4.382   0.945   4.328
 5496SOL    HW217388   4.251   0.949   4.231
 5497SOL     OW17389   0.888   1.047   6.192
 5497SOL    HW117390   0.969   1.094   6.157
 5497SOL    HW217391   0.842   1.000   6.117
 5498SOL     OW17392   1.027   4.922   1.910
 5498SOL    HW117393   0.963   4.973   1.968
 5498SOL    HW217394   1.069   4.984   1.844
 5499SOL     OW17395   0.747   0.443   4.986
 5499SOL    HW117396   0.768   0.396   5.071
 5499SOL    HW217397   0.831   0.454   4.932
 5500SOL     OW17398   2.400   0.784   0.387
 5500SOL    HW117399   2.358   0.799   0.297
 5500SOL    HW217400   2.414   0.686   0.401
 5501SOL     OW17401   3.905   2.182   0.054
 5501SOL    HW117402   3.965   2.239   0.110
 5501SOL    HW217403   3.915   2.086   0.081
 5502SOL     OW17404   4.640   2.419   7.017
 5502SOL    HW117405   4.694   2.337   0.012
 5502SOL    HW217406   4.672   2.466   6.934
 5503SOL     OW17407   0.479   3.430   0.102
 5503SOL    HW117408   0.568   3.441   0.147
 5503SOL    HW217409   0.489   3.366   0.025
 5504SOL     OW17410   3.530   0.871   6.783
 5504SOL    HW117411   3.556   0.903   6.692
 5504SOL    HW217412   3.578   0.786   6.804
 5505SOL     OW17413   2.777   4.688   4.417
 5505SOL    HW117414   2.780   4.697   4.517
 5505SOL    HW217415   2.860   4.726   4.377
 5506SOL     OW17416   0.324   3.446   6.013
 5506SOL    HW117417   0.405   3.499   6.039
 5506SOL    HW217418   0.339   3.350   6.037
 5507SOL     OW17419   3.110   0.097   6.229
 5507SOL    HW117420   3.057   0.166   6.279
 5507SOL    HW217421   3.170   0.142   6.163
 5508SOL     OW17422   0.619   0.968   6.763
 5508SOL    HW117423   0.557   0.919   6.701
 5508SOL    HW217424   0.704   0.990   6.714
 5509SOL     OW17425   0.008   5.640   0.704
 5509SOL    HW117426   0.024   5.721   0.761
 5509SOL    HW217427   6.976   5.573   0.757
 5510SOL     OW17428   4.244   5.300   6.782
 5510SOL    HW117429   4.237   5.229   6.851
 5510SOL    HW217430   4.157   5.349   6.774
 5511SOL     OW17431   0.466   1.301   5.467
 5511SOL    HW117432   0.459   1.288   5.368
 5511SOL    HW217433   0.489   1.397   5.486
 5512SOL     OW17434   4.099   0.962   2.200
 5512SOL    HW117435   4.182   0.919   2.164
 5512SOL    HW217436   4.100   1.059   2.177
 5513SOL     OW17437   4.261   5.087   6.942
 5513SOL    HW117438   4.264   4.999   6.896
 5513SOL    HW217439   4.242   5.073   0.019
 5514SOL     OW17440   2.915   0.408   5.896
 5514SOL    HW117441   2.922   0.403   5.797
 5514SOL    HW217442   3.007   0.410   5.935
 5515SOL     OW17443   2.126   5.972   1.931
 5515SOL    HW117444   2.069   5.954   2.012
 5515SOL    HW217445   2.121   6.069   1.908
 5516SOL     OW17446   2.373   2.670   5.149
 5516SOL    HW117447   2.411   2.640   5.236
 5516SOL    HW217448   2.379   2.770   5.143
 5517SOL     OW17449   1.761   3.761   3.112
 5517SOL    HW117450   1.818   3.740   3.032
 5517SOL    HW217451   1.735   3.857   3.110
 5518SOL     OW17452   4.676   4.440   5.531
 5518SOL    HW117453   4.591   4.457   5.481
 5518SOL    HW217454   4.660   4.370   5.602
 5519SOL     OW17455   4.581   2.449   3.618
 5519SOL    HW117456   4.616   2.382   3.684
 5519SOL    HW217457   4.514   2.405   3.559
 5520SOL     OW17458   5.721   6.769   2.040
 5520SOL    HW117459   5.753   6.748   1.947
 5520SOL    HW217460   5.643   6.831   2.035
 5521SOL     OW17461   6.023   5.868   1.552
 5521SOL    HW117462   6.067   5.859   1.463
 5521SOL    HW217463   6.043   5.786   1.607
 5522SOL     OW17464   6.493   5.020   0.893
 5522SOL    HW117465   6.506   5.013   0.992
 5522SOL    HW217466   6.454   5.110   0.871
 5523SOL     OW17467   5.763   1.269   2.176
 5523SOL    HW117468   5.753   1.230   2.085
 5523SOL    HW217469   5.681   1.252   2.230
 5524SOL     OW17470   2.940   0.658   4.577
 5524SOL    HW117471   2.922   0.730   4.644
 5524SOL    HW217472   2.964   0.573   4.625
 5525SOL     OW17473   6.511   2.239   1.306
 5525SOL    HW117474   6.583   2.235   1.375
 5525SOL    HW217475   6.429   2.194   1.340
 5526SOL     OW17476   4.632   4.922   3.307
 5526SOL    HW117477   4.539   4.892   3.286
 5526SOL    HW217478   4.677   4.952   3.223
 5527SOL     OW17479   5.666   2.119   3.929
 5527SOL    HW117480   5.571   2.123   3.900
 5527SOL    HW217481   5.707   2.210   3.921
 5528SOL     OW17482   1.064   1.936   1.530
 5528SOL    HW117483   1.064   2.014   1.592
 5528SOL    HW217484   1.111   1.859   1.573
 5529SOL     OW17485   3.874   0.795   2.221
 5529SOL    HW117486   3.946   0.864   2.210
 5529SOL    HW217487   3.814   0.822   2.296
 5530SOL     OW17488   6.804   2.532   1.517
 5530SOL    HW117489   6.763   2.441   1.524
 5530SOL    HW217490   6.889   2.527   1.466
 5531SOL     OW17491   3.106   3.939   1.287
 5531SOL    HW117492   3.168   3.864   1.311
 5531SOL    HW217493   3.050   3.963   1.367
 5532SOL     OW17494   1.561   3.073   1.575
 5532SOL    HW117495   1.628   3.003   1.550
 5532SOL    HW217496   1.574   3.099   1.670
 5533SOL     OW17497   4.087   1.534   3.935
 5533SOL    HW117498   4.046   1.566   4.020
 5533SOL    HW217499   4.055   1.590   3.859
 5534SOL     OW17500   1.003   1.396   4.829
 5534SOL    HW117501   0.934   1.328   4.807
 5534SOL    HW217502   1.076   1.392   4.761
 5535SOL     OW17503   0.825   2.049   3.440
 5535SOL    HW117504   0.863   2.056   3.533
 5535SOL    HW217505   0.773   2.132   3.420
 5536SOL     OW17506   3.312   0.410   4.449
 5536SOL    HW117507   3.238   0.465   4.411
 5536SOL    HW217508   3.361   0.364   4.375
 5537SOL     OW17509   2.975   1.130   2.840
 5537SOL    HW117510   3.039   1.206   2.851
 5537SOL    HW217511   2.913   1.127   2.919
 5538SOL     OW17512   4.898   5.792   4.524
 5538SOL    HW117513   4.873   5.739   4.604
 5538SOL    HW217514   4.906   5.731   4.445
 5539SOL     OW17515   2.735   3.228   0.563
 5539SOL    HW117516   2.735   3.301   0.631
 5539SOL    HW217517   2.642   3.197   0.547
 5540SOL     OW17518   5.242   4.579   2.348
 5540SOL    HW117519   5.277   4.486   2.342
 5540SOL    HW217520   5.282   4.624   2.428
 5541SOL     OW17521   4.511   1.303   5.621
 5541SOL    HW117522   4.419   1.332   5.646
 5541SOL    HW217523   4.508   1.211   5.581
 5542SOL     OW17524   4.594   4.583   6.109
 5542SOL    HW117525   4.523   4.557   6.174
 5542SOL    HW217526   4.578   4.676   6.077
 5543SOL     OW17527   6.287   2.461   5.791
 5543SOL    HW117528   6.335   2.417   5.867
 5543SOL    HW217529   6.206   2.406   5.768
 5544SOL     OW17530   5.747   1.123   6.068
 5544SOL    HW117531   5.805   1.191   6.024
 5544SOL    HW217532   5.717   1.055   6.000
 5545SOL     OW17533   2.928   2.154   2.208
 5545SOL    HW117534   2.832   2.129   2.224
 5545SOL    HW217535   2.933   2.222   2.135
 5546SOL     OW17536   1.716   4.861   5.900
 5546SOL    HW117537   1.740   4.764   5.911
 5546SOL    HW217538   1.667   4.873   5.814
 5547SOL     OW17539   3.742   5.666   4.516
 5547SOL    HW117540   3.780   5.614   4.439
 5547SOL    HW217541   3.646   5.641   4.529
 5548SOL     OW17542   6.198   3.450   5.656
 5548SOL    HW117543   6.275   3.461   5.718
 5548SOL    HW217544   6.194   3.356   5.623
 5549SOL     OW17545   2.624   4.689   0.067
 5549SOL    HW117546   2.526   4.669   0.057
 5549SOL    HW217547   2.677   4.612   0.031
 5550SOL     OW17548   4.286   6.190   1.303
 5550SOL    HW117549   4.309   6.139   1.387
 5550SOL    HW217550   4.272   6.286   1.325
 5551SOL     OW17551   0.802   1.416   3.021
 5551SOL    HW117552   0.810   1.412   3.121
 5551SOL    HW217553   0.843   1.333   2.981
 5552SOL     OW17554   0.193   2.550   1.797
 5552SOL    HW117555   0.199   2.585   1.890
 5552SOL    HW217556   0.165   2.624   1.735
 5553SOL     OW17557   4.820   5.895   0.404
 5553SOL    HW117558   4.839   5.956   0.480
 5553SOL    HW217559   4.886   5.912   0.331
 5554SOL     OW17560   2.833   2.115   4.601
 5554SOL    HW117561   2.826   2.123   4.701
 5554SOL    HW217562   2.922   2.149   4.571
 5555SOL     OW17563   0.311   5.812   2.819
 5555SOL    HW117564   0.298   5.712   2.823
 5555SOL    HW217565   0.376   5.834   2.747
 5556SOL     OW17566   0.327   1.172   4.887
 5556SOL    HW117567   0.319   1.085   4.935
 5556SOL    HW217568   0.254   1.233   4.917
 5557SOL     OW17569   2.338   0.209   3.830
 5557SOL    HW117570   2.383   0.166   3.908
 5557SOL    HW217571   2.399   0.206   3.751
 5558SOL     OW17572   5.221   2.820   4.987
 5558SOL    HW117573   5.198   2.893   5.051
 5558SOL    HW217574   5.222   2.732   5.035
 5559SOL     OW17575   2.272   0.609   1.364
 5559SOL    HW117576   2.210   0.610   1.286
 5559SOL    HW217577   2.219   0.604   1.449
 5560SOL     OW17578   0.263   0.705   4.399
 5560SOL    HW117579   0.247   0.742   4.491
 5560SOL    HW217580   0.206   0.755   4.333
 5561SOL     OW17581   1.521   3.298   3.664
 5561SOL    HW117582   1.583   3.359   3.616
 5561SOL    HW217583   1.450   3.264   3.601
 5562SOL     OW17584   2.549   2.540   5.686
 5562SOL    HW117585   2.487   2.619   5.683
 5562SOL    HW217586   2.511   2.470   5.746
 5563SOL     OW17587   4.401   5.534   1.404
 5563SOL    HW117588   4.463   5.492   1.470
 5563SOL    HW217589   4.403   5.634   1.414
 5564SOL     OW17590   5.575   4.426   1.684
 5564SOL    HW117591   5.572   4.460   1.590
 5564SOL    HW217592   5.502   4.360   1.698
 5565SOL     OW17593   3.298   3.513   5.494
 5565SOL    HW117594   3.348   3.524   5.408
 5565SOL    HW217595   3.215   3.461   5.479
 5566SOL     OW17596   2.061   4.927   1.179
 5566SOL    HW117597   2.030   4.949   1.272
 5566SOL    HW217598   2.083   4.830   1.174
 5567SOL     OW17599   1.560   5.366   2.126
 5567SOL    HW117600   1.482   5.428   2.119
 5567SOL    HW217601   1.559   5.320   2.214
 5568SOL     OW17602   3.270   2.313   1.506
 5568SOL    HW117603   3.290   2.222   1.468
 5568SOL    HW217604   3.174   2.317   1.533
 5569SOL     OW17605   5.699   1.880   0.083
 5569SOL    HW117606   5.727   1.976   0.087
 5569SOL    HW217607   5.643   1.865   0.002
 5570SOL     OW17608   6.631   4.391   6.036
 5570SOL    HW117609   6.585   4.465   5.988
 5570SOL    HW217610   6.612   4.399   6.134
 5571SOL     OW17611   6.856   4.610   5.953
 5571SOL    HW117612   6.884   4.680   6.019
 5571SOL    HW217613   6.761   4.584   5.970
 5572SOL     OW17614   4.968   2.716   5.660
 5572SOL    HW117615   4.931   2.806   5.640
 5572SOL    HW217616   5.064   2.725   5.688
 5573SOL     OW17617   1.065   4.229   0.279
 5573SOL    HW117618   1.137   4.160   0.292
 5573SOL    HW217619   1.072   4.298   0.351
 5574SOL     OW17620   0.356   5.849   4.644
 5574SOL    HW117621   0.395   5.843   4.552
 5574SOL    HW217622   0.428   5.832   4.712
 5575SOL     OW17623   2.028   1.135   0.899
 5575SOL    HW117624   2.099   1.071   0.868
 5575SOL    HW217625   1.939   1.104   0.867
 5576SOL     OW17626   6.129   6.308   6.300
 5576SOL    HW117627   6.119   6.358   6.386
 5576SOL    HW217628   6.156   6.214   6.319
 5577SOL     OW17629   2.001   3.878   5.505
 5577SOL    HW117630   1.905   3.884   5.478
 5577SOL    HW217631   2.060   3.898   5.427
 5578SOL     OW17632   4.073   2.313   6.127
 5578SOL    HW117633   4.066   2.401   6.174
 5578SOL    HW217634   4.109   2.327   6.035
 5579SOL     OW17635   5.193   4.968   0.396
 5579SOL    HW117636   5.169   5.063   0.374
 5579SOL    HW217637   5.123   4.906   0.360
 5580SOL     OW17638   5.806   1.463   0.941
 5580SOL    HW117639   5.809   1.454   0.842
 5580SOL    HW217640   5.730   1.523   0.967
 5581SOL     OW17641   2.915   2.533   0.017
 5581SOL    HW117642   2.983   2.475   0.062
 5581SOL    HW217643   2.823   2.498   0.036
 5582SOL     OW17644   3.818   3.376   3.604
 5582SOL    HW117645   3.735   3.392   3.550
 5582SOL    HW217646   3.885   3.448   3.583
 5583SOL     OW17647   3.969   0.669   0.656
 5583SOL    HW117648   3.990   0.578   0.620
 5583SOL    HW217649   3.875   0.694   0.631
 5584SOL     OW17650   6.019   2.829   3.478
 5584SOL    HW117651   6.043   2.853   3.384
 5584SOL    HW217652   5.968   2.904   3.520
 5585SOL     OW17653   6.296   7.003   4.363
 5585SOL    HW117654   6.329   6.964   4.277
 5585SOL    HW217655   6.242   6.935   4.412
 5586SOL     OW17656   2.209   0.803   6.318
 5586SOL    HW117657   2.306   0.805   6.339
 5586SOL    HW217658   2.178   0.708   6.309
 5587SOL     OW17659   3.588   6.880   3.951
 5587SOL    HW117660   3.538   6.946   3.895
 5587SOL    HW217661   3.525   6.812   3.987
 5588SOL     OW17662   4.092   0.322   6.329
 5588SOL    HW117663   4.050   0.232   6.336
 5588SOL    HW217664   4.154   0.324   6.250
 5589SOL     OW17665   3.837   3.173   6.440
 5589SOL    HW117666   3.885   3.087   6.462
 5589SOL    HW217667   3.859   3.201   6.347
 5590SOL     OW17668   7.003   6.774   3.187
 5590SOL    HW117669   0.017   6.838   3.255
 5590SOL    HW217670   6.918   6.733   3.219
 5591SOL     OW17671   4.899   0.750   0.009
 5591SOL    HW117672   4.827   0.681   0.013
 5591SOL    HW217673   4.902   0.801   0.095
 5592SOL     OW17674   2.050   1.822   2.723
 5592SOL    HW117675   2.092   1.781   2.804
 5592SOL    HW217676   1.951   1.803   2.723
 5593SOL     OW17677   1.654   3.391   5.187
 5593SOL    HW117678   1.561   3.401   5.152
 5593SOL    HW217679   1.713   3.353   5.116
 5594SOL     OW17680   2.963   0.672   6.752
 5594SOL    HW117681   2.972   0.769   6.730
 5594SOL    HW217682   2.983   0.658   6.849
 5595SOL     OW17683   0.133   1.381   4.916
 5595SOL    HW117684   0.118   1.345   5.008
 5595SOL    HW217685   0.213   1.441   4.917
 5596SOL     OW17686   5.093   1.742   2.816
 5596SOL    HW117687   5.079   1.839   2.840
 5596SOL    HW217688   5.158   1.702   2.880
 5597SOL     OW17689   0.160   1.293   6.049
 5597SOL    HW117690   0.243   1.275   5.996
 5597SOL    HW217691   0.147   1.220   6.116
 5598SOL     OW17692   6.759   2.334   4.159
 5598SOL    HW117693   6.807   2.325   4.072
 5598SOL    HW217694   6.667   2.370   4.142
 5599SOL     OW17695   4.808   2.834   3.279
 5599SOL    HW117696   4.740   2.791   3.338
 5599SOL    HW217697   4.779   2.824   3.183
 5600SOL     OW17698   2.577   1.412   2.079
 5600SOL    HW117699   2.545   1.334   2.026
 5600SOL    HW217700   2.615   1.380   2.166
 5601SOL     OW17701   6.040   2.885   5.606
 5601SOL    HW117702   6.038   2.826   5.525
 5601SOL    HW217703   6.128   2.875   5.653
 5602SOL     OW17704   6.664   2.382   2.937
 5602SOL    HW117705   6.761   2.390   2.961
 5602SOL    HW217706   6.646   2.292   2.898
 5603SOL     OW17707   4.451   1.089   5.454
 5603SOL    HW117708   4.403   1.162   5.406
 5603SOL    HW217709   4.463   1.011   5.393
 5604SOL     OW17710   0.934   0.304   3.718
 5604SOL    HW117711   0.959   0.226   3.775
 5604SOL    HW217712   1.015   0.361   3.703
 5605SOL     OW17713   4.383   6.480   4.512
 5605SOL    HW117714   4.446   6.456   4.438
 5605SOL    HW217715   4.319   6.404   4.527
 5606SOL     OW17716   4.733   2.795   0.415
 5606SOL    HW117717   4.738   2.809   0.316
 5606SOL    HW217718   4.648   2.749   0.438
 5607SOL     OW17719   6.439   2.385   2.514
 5607SOL    HW117720   6.490   2.457   2.563
 5607SOL    HW217721   6.344   2.415   2.502
 5608SOL     OW17722   4.898   0.702   3.234
 5608SOL    HW117723   4.884   0.791   3.278
 5608SOL    HW217724   4.946   0.715   3.148
 5609SOL     OW17725   0.157   0.419   0.761
 5609SOL    HW117726   0.125   0.329   0.732
 5609SOL    HW217727   0.078   0.474   0.790
 5610SOL     OW17728   5.220   4.864   1.441
 5610SOL    HW117729   5.232   4.942   1.502
 5610SOL    HW217730   5.123   4.838   1.438
 5611SOL     OW17731   6.247   5.052   1.775
 5611SOL    HW117732   6.241   4.969   1.719
 5611SOL    HW217733   6.211   5.034   1.866
 5612SOL     OW17734   3.641   1.586   1.104
 5612SOL    HW117735   3.652   1.685   1.117
 5612SOL    HW217736   3.710   1.537   1.158
 5613SOL     OW17737   5.433   4.474   6.105
 5613SOL    HW117738   5.503   4.450   6.172
 5613SOL    HW217739   5.383   4.555   6.137
 5614SOL     OW17740   5.173   3.734   4.009
 5614SOL    HW117741   5.159   3.636   3.992
 5614SOL    HW217742   5.084   3.779   4.014
 5615SOL     OW17743   6.951   2.251   3.245
 5615SOL    HW117744   7.014   2.308   3.194
 5615SOL    HW217745   6.981   2.244   3.340
 5616SOL     OW17746   1.651   2.915   2.348
 5616SOL    HW117747   1.678   2.907   2.444
 5616SOL    HW217748   1.731   2.899   2.290
 5617SOL     OW17749   1.839   4.984   6.099
 5617SOL    HW117750   1.816   4.931   6.018
 5617SOL    HW217751   1.787   4.950   6.177
 5618SOL     OW17752   5.667   6.709   2.570
 5618SOL    HW117753   5.732   6.783   2.588
 5618SOL    HW217754   5.667   6.689   2.472
 5619SOL     OW17755   3.897   2.963   3.644
 5619SOL    HW117756   3.821   2.998   3.590
 5619SOL    HW217757   3.864   2.931   3.733
 5620SOL     OW17758   5.055   4.080   4.993
 5620SOL    HW117759   4.971   4.037   4.960
 5620SOL    HW217760   5.110   4.111   4.915
 5621SOL     OW17761   0.859   2.210   6.004
 5621SOL    HW117762   0.919   2.178   6.077
 5621SOL    HW217763   0.886   2.303   5.978
 5622SOL     OW17764   4.638   6.059   3.704
 5622SOL    HW117765   4.703   5.990   3.671
 5622SOL    HW217766   4.660   6.084   3.798
 5623SOL     OW17767   5.038   5.358   4.303
 5623SOL    HW117768   4.955   5.314   4.338
 5623SOL    HW217769   5.102   5.288   4.270
 5624SOL     OW17770   5.935   4.889   3.271
 5624SOL    HW117771   6.015   4.857   3.220
 5624SOL    HW217772   5.917   4.984   3.248
 5625SOL     OW17773   1.694   6.187   5.711
 5625SOL    HW117774   1.714   6.126   5.634
 5625SOL    HW217775   1.665   6.132   5.790
 5626SOL     OW17776   0.906   4.758   6.530
 5626SOL    HW117777   0.950   4.669   6.536
 5626SOL    HW217778   0.911   4.792   6.436
 5627SOL     OW17779   0.794   5.573   0.222
 5627SOL    HW117780   0.891   5.580   0.245
 5627SOL    HW217781   0.778   5.489   0.169
 5628SOL     OW17782   2.702   3.076   0.899
 5628SOL    HW117783   2.609   3.075   0.862
 5628SOL    HW217784   2.697   3.083   0.999
 5629SOL     OW17785   5.869   3.431   2.626
 5629SOL    HW117786   5.900   3.468   2.538
 5629SOL    HW217787   5.817   3.347   2.610
 5630SOL     OW17788   1.041   3.951   6.294
 5630SOL    HW117789   1.124   3.922   6.246
 5630SOL    HW217790   1.045   4.049   6.312
 5631SOL     OW17791   3.707   1.830   2.025
 5631SOL    HW117792   3.731   1.878   1.941
 5631SOL    HW217793   3.717   1.892   2.103
 5632SOL     OW17794   5.004   0.157   5.777
 5632SOL    HW117795   5.082   0.098   5.756
 5632SOL    HW217796   4.999   0.231   5.709
 5633SOL     OW17797   0.879   4.754   5.241
 5633SOL    HW117798   0.972   4.764   5.275
 5633SOL    HW217799   0.821   4.716   5.313
 5634SOL     OW17800   2.271   0.218   1.165
 5634SOL    HW117801   2.300   0.123   1.148
 5634SOL    HW217802   2.352   0.274   1.184
 5635SOL     OW17803   2.603   0.348   0.868
 5635SOL    HW117804   2.612   0.276   0.798
 5635SOL    HW217805   2.691   0.395   0.877
 5636SOL     OW17806   5.534   1.381   5.604
 5636SOL    HW117807   5.440   1.364   5.578
 5636SOL    HW217808   5.595   1.322   5.551
 5637SOL     OW17809   5.171   6.577   4.514
 5637SOL    HW117810   5.236   6.592   4.588
 5637SOL    HW217811   5.124   6.490   4.528
 5638SOL     OW17812   6.198   5.014   1.090
 5638SOL    HW117813   6.122   5.078   1.076
 5638SOL    HW217814   6.249   5.004   1.005
 5639SOL     OW17815   2.203   0.512   1.685
 5639SOL    HW117816   2.165   0.420   1.690
 5639SOL    HW217817   2.286   0.517   1.740
 5640SOL     OW17818   2.929   6.495   2.719
 5640SOL    HW117819   2.882   6.538   2.642
 5640SOL    HW217820   2.941   6.397   2.701
 5641SOL     OW17821   0.302   4.500   3.955
 5641SOL    HW117822   0.245   4.480   3.875
 5641SOL    HW217823   0.373   4.430   3.962
 5642SOL     OW17824   1.567   4.118   0.088
 5642SOL    HW117825   1.561   4.216   0.109
 5642SOL    HW217826   1.500   4.096   0.017
 5643SOL     OW17827   4.605   2.169   5.138
 5643SOL    HW117828   4.508   2.150   5.151
 5643SOL    HW217829   4.659   2.090   5.166
 5644SOL     OW17830   4.219   1.180   4.748
 5644SOL    HW117831   4.282   1.231   4.689
 5644SOL    HW217832   4.249   1.189   4.843
 5645SOL     OW17833   6.190   5.720   4.246
 5645SOL    HW117834   6.253   5.797   4.254
 5645SOL    HW217835   6.103   5.751   4.207
 5646SOL     OW17836   0.486   5.749   4.394
 5646SOL    HW117837   0.508   5.839   4.357
 5646SOL    HW217838   0.387   5.735   4.391
 5647SOL     OW17839   5.659   5.064   6.374
 5647SOL    HW117840   5.591   5.137   6.361
 5647SOL    HW217841   5.708   5.049   6.287
 5648SOL     OW17842   2.203   1.836   5.156
 5648SOL    HW117843   2.140   1.839   5.078
 5648SOL    HW217844   2.297   1.843   5.122
 5649SOL     OW17845   0.996   0.785   5.518
 5649SOL    HW117846   1.029   0.783   5.423
 5649SOL    HW217847   1.062   0.834   5.574
 5650SOL     OW17848   6.510   4.691   0.047
 5650SOL    HW117849   6.445   4.713   6.995
 5650SOL    HW217850   6.485   4.603   0.089
 5651SOL     OW17851   6.300   1.352   2.846
 5651SOL    HW117852   6.309   1.352   2.747
 5651SOL    HW217853   6.206   1.333   2.872
 5652SOL     OW17854   4.717   4.764   0.431
 5652SOL    HW117855   4.691   4.696   0.499
 5652SOL    HW217856   4.643   4.775   0.365
 5653SOL     OW17857   1.860   6.318   6.166
 5653SOL    HW117858   1.876   6.245   6.100
 5653SOL    HW217859   1.769   6.307   6.208
 5654SOL     OW17860   0.802   6.100   5.786
 5654SOL    HW117861   0.791   6.163   5.863
 5654SOL    HW217862   0.882   6.127   5.732
 5655SOL     OW17863   0.073   3.430   3.618
 5655SOL    HW117864   0.072   3.476   3.529
 5655SOL    HW217865   7.000   3.420   3.651
 5656SOL     OW17866   3.362   4.575   0.025
 5656SOL    HW117867   3.451   4.529   0.028
 5656SOL    HW217868   3.361   4.649   0.092
 5657SOL     OW17869   4.222   6.055   2.149
 5657SOL    HW117870   4.131   6.087   2.178
 5657SOL    HW217871   4.216   5.958   2.125
 5658SOL     OW17872   4.718   6.908   5.583
 5658SOL    HW117873   4.624   6.873   5.586
 5658SOL    HW217874   4.747   6.916   5.487
 5659SOL     OW17875   3.797   3.642   2.713
 5659SOL    HW117876   3.868   3.710   2.696
 5659SOL    HW217877   3.713   3.667   2.665
 5660SOL     OW17878   5.741   6.485   0.720
 5660SOL    HW117879   5.712   6.392   0.739
 5660SOL    HW217880   5.759   6.533   0.806
 5661SOL     OW17881   6.197   5.682   4.550
 5661SOL    HW117882   6.240   5.772   4.560
 5661SOL    HW217883   6.175   5.666   4.454
 5662SOL     OW17884   2.551   4.566   4.356
 5662SOL    HW117885   2.646   4.598   4.365
 5662SOL    HW217886   2.529   4.505   4.432
 5663SOL     OW17887   1.079   3.949   6.975
 5663SOL    HW117888   1.039   4.008   6.905
 5663SOL    HW217889   1.179   3.954   6.970
 5664SOL     OW17890   0.434   4.612   2.742
 5664SOL    HW117891   0.431   4.711   2.732
 5664SOL    HW217892   0.385   4.584   2.825
 5665SOL     OW17893   2.347   2.543   6.084
 5665SOL    HW117894   2.440   2.505   6.084
 5665SOL    HW217895   2.283   2.474   6.050
 5666SOL     OW17896   5.850   5.422   0.504
 5666SOL    HW117897   5.928   5.437   0.564
 5666SOL    HW217898   5.795   5.505   0.500
 5667SOL     OW17899   0.036   5.301   3.690
 5667SOL    HW117900   7.014   5.236   3.628
 5667SOL    HW217901   0.136   5.296   3.680
 5668SOL     OW17902   6.101   2.254   5.728
 5668SOL    HW117903   6.005   2.237   5.708
 5668SOL    HW217904   6.158   2.193   5.673
 5669SOL     OW17905   6.526   3.442   6.118
 5669SOL    HW117906   6.444   3.468   6.168
 5669SOL    HW217907   6.547   3.513   6.050
 5670SOL     OW17908   0.714   4.321   3.948
 5670SOL    HW117909   0.732   4.380   3.869
 5670SOL    HW217910   0.801   4.297   3.992
 5671SOL     OW17911   1.827   1.361   5.910
 5671SOL    HW117912   1.908   1.313   5.879
 5671SOL    HW217913   1.853   1.432   5.975
 5672SOL     OW17914   5.242   5.119   5.749
 5672SOL    HW117915   5.186   5.116   5.666
 5672SOL    HW217916   5.224   5.037   5.804
 5673SOL     OW17917   0.842   0.600   2.274
 5673SOL    HW117918   0.875   0.593   2.180
 5673SOL    HW217919   0.745   0.622   2.274
 5674SOL     OW17920   6.783   3.479   1.553
 5674SOL    HW117921   6.697   3.432   1.574
 5674SOL    HW217922   6.838   3.421   1.492
 5675SOL     OW17923   4.380   2.417   5.447
 5675SOL    HW117924   4.293   2.386   5.409
 5675SOL    HW217925   4.413   2.497   5.397
 5676SOL     OW17926   3.066   0.480   1.493
 5676SOL    HW117927   3.125   0.406   1.461
 5676SOL    HW217928   3.010   0.514   1.417
 5677SOL     OW17929   6.871   0.411   4.275
 5677SOL    HW117930   6.965   0.436   4.296
 5677SOL    HW217931   6.819   0.494   4.251
 5678SOL     OW17932   1.682   5.572   3.197
 5678SOL    HW117933   1.722   5.610   3.113
 5678SOL    HW217934   1.745   5.506   3.237
 5679SOL     OW17935   1.659   6.049   5.083
 5679SOL    HW117936   1.653   6.130   5.141
 5679SOL    HW217937   1.732   6.062   5.015
 5680SOL     OW17938   2.529   6.786   6.621
 5680SOL    HW117939   2.489   6.729   6.693
 5680SOL    HW217940   2.526   6.882   6.649
 5681SOL     OW17941   1.180   3.166   6.989
 5681SOL    HW117942   1.194   3.140   0.064
 5681SOL    HW217943   1.193   3.264   6.978
 5682SOL     OW17944   1.085   3.372   4.633
 5682SOL    HW117945   1.046   3.284   4.659
 5682SOL    HW217946   1.151   3.358   4.559
 5683SOL     OW17947   3.686   2.422   5.641
 5683SOL    HW117948   3.767   2.476   5.665
 5683SOL    HW217949   3.663   2.362   5.717
 5684SOL     OW17950   2.980   3.879   3.753
 5684SOL    HW117951   2.899   3.928   3.786
 5684SOL    HW217952   2.994   3.900   3.656
 5685SOL     OW17953   0.188   5.586   1.958
 5685SOL    HW117954   0.109   5.596   1.897
 5685SOL    HW217955   0.273   5.595   1.905
 5686SOL     OW17956   3.652   6.650   6.842
 5686SOL    HW117957   3.582   6.581   6.826
 5686SOL    HW217958   3.644   6.723   6.774
 5687SOL     OW17959   5.372   5.479   5.889
 5687SOL    HW117960   5.312   5.513   5.816
 5687SOL    HW217961   5.343   5.388   5.917
 5688SOL     OW17962   5.665   1.834   1.305
 5688SOL    HW117963   5.685   1.829   1.403
 5688SOL    HW217964   5.749   1.827   1.253
 5689SOL     OW17965   3.346   2.617   0.690
 5689SOL    HW117966   3.300   2.536   0.726
 5689SOL    HW217967   3.427   2.635   0.746
 5690SOL     OW17968   4.957   6.515   1.220
 5690SOL    HW117969   4.905   6.521   1.305
 5690SOL    HW217970   4.951   6.422   1.184
 5691SOL     OW17971   1.108   0.344   1.939
 5691SOL    HW117972   1.088   0.334   2.037
 5691SOL    HW217973   1.207   0.337   1.925
 5692SOL     OW17974   5.649   2.825   6.435
 5692SOL    HW117975   5.570   2.880   6.410
 5692SOL    HW217976   5.728   2.853   6.381
 5693SOL     OW17977   4.771   2.751   3.011
 5693SOL    HW117978   4.759   2.746   2.911
 5693SOL    HW217979   4.807   2.665   3.045
 5694SOL     OW17980   6.993   1.755   4.067
 5694SOL    HW117981   0.068   1.782   4.052
 5694SOL    HW217982   6.981   1.659   4.042
 5695SOL     OW17983   1.775   3.342   3.378
 5695SOL    HW117984   1.808   3.248   3.373
 5695SOL    HW217985   1.792   3.389   3.291
 5696SOL     OW17986   2.969   0.561   5.488
 5696SOL    HW117987   2.891   0.503   5.509
 5696SOL    HW217988   2.937   0.647   5.449
 5697SOL     OW17989   6.259   3.047   6.983
 5697SOL    HW117990   6.225   3.139   7.005
 5697SOL    HW217991   6.183   2.990   6.951
 5698SOL     OW17992   0.287   3.702   1.917
 5698SOL    HW117993   0.379   3.741   1.930
 5698SOL    HW217994   0.247   3.683   2.006
 5699SOL     OW17995   6.161   0.792   5.097
 5699SOL    HW117996   6.123   0.881   5.121
 5699SOL    HW217997   6.260   0.795   5.104
 5700SOL     OW17998   1.461   5.516   3.755
 5700SOL    HW117999   1.503   5.523   3.664
 5700SOL    HW218000   1.529   5.535   3.825
 5701SOL     OW18001   6.127   5.560   1.334
 5701SOL    HW118002   6.125   5.531   1.430
 5701SOL    HW218003   6.192   5.503   1.284
 5702SOL     OW18004   2.063   0.569   6.692
 5702SOL    HW118005   2.005   0.488   6.691
 5702SOL    HW218006   2.077   0.598   6.787
 5703SOL     OW18007   4.260   4.484   0.825
 5703SOL    HW118008   4.259   4.584   0.833
 5703SOL    HW218009   4.201   4.457   0.749
 5704SOL     OW18010   3.537   5.261   3.417
 5704SOL    HW118011   3.541   5.347   3.467
 5704SOL    HW218012   3.508   5.278   3.323
 5705SOL     OW18013   6.405   0.830   1.891
 5705SOL    HW118014   6.446   0.822   1.801
 5705SOL    HW218015   6.307   0.846   1.882
 5706SOL     OW18016   1.394   1.198   6.865
 5706SOL    HW118017   1.392   1.271   6.933
 5706SOL    HW218018   1.326   1.129   6.888
 5707SOL     OW18019   2.610   2.102   0.489
 5707SOL    HW118020   2.510   2.102   0.480
 5707SOL    HW218021   2.644   2.196   0.486
 5708SOL     OW18022   5.191   6.636   1.805
 5708SOL    HW118023   5.208   6.677   1.715
 5708SOL    HW218024   5.220   6.540   1.804
 5709SOL     OW18025   1.616   0.540   2.794
 5709SOL    HW118026   1.644   0.549   2.699
 5709SOL    HW218027   1.530   0.588   2.808
 5710SOL     OW18028   2.927   3.511   6.401
 5710SOL    HW118029   2.880   3.586   6.448
 5710SOL    HW218030   2.913   3.521   6.302
 5711SOL     OW18031   4.135   1.085   3.689
 5711SOL    HW118032   4.233   1.094   3.702
 5711SOL    HW218033   4.088   1.166   3.726
 5712SOL     OW18034   6.972   6.160   6.338
 5712SOL    HW118035   6.977   6.109   6.252
 5712SOL    HW218036   6.885   6.141   6.383
 5713SOL     OW18037   6.754   2.167   2.559
 5713SOL    HW118038   6.731   2.246   2.503
 5713SOL    HW218039   6.687   2.158   2.633
 5714SOL     OW18040   1.337   0.951   6.300
 5714SOL    HW118041   1.291   0.872   6.261
 5714SOL    HW218042   1.371   0.928   6.391
 5715SOL     OW18043   1.165   6.440   3.187
 5715SOL    HW118044   1.219   6.406   3.264
 5715SOL    HW218045   1.068   6.445   3.214
 5716SOL     OW18046   2.297   3.382   6.149
 5716SOL    HW118047   2.331   3.406   6.058
 5716SOL    HW218048   2.226   3.448   6.176
 5717SOL     OW18049   1.101   4.032   0.544
 5717SOL    HW118050   1.138   4.027   0.636
 5717SOL    HW218051   1.145   3.962   0.487
 5718SOL     OW18052   2.586   4.346   5.606
 5718SOL    HW118053   2.575   4.446   5.608
 5718SOL    HW218054   2.505   4.303   5.646
 5719SOL     OW18055   3.618   1.157   6.546
 5719SOL    HW118056   3.565   1.074   6.528
 5719SOL    HW218057   3.712   1.131   6.568
 5720SOL     OW18058   1.058   4.886   4.727
 5720SOL    HW118059   1.032   4.825   4.801
 5720SOL    HW218060   1.054   4.836   4.640
 5721SOL     OW18061   0.538   4.160   1.396
 5721SOL    HW118062   0.502   4.139   1.306
 5721SOL    HW218063   0.495   4.100   1.464
 5722SOL     OW18064   5.749   6.868   4.331
 5722SOL    HW118065   5.806   6.950   4.333
 5722SOL    HW218066   5.779   6.805   4.403
 5723SOL     OW18067   2.823   5.239   1.041
 5723SOL    HW118068   2.728   5.207   1.033
 5723SOL    HW218069   2.879   5.169   1.085
 5724SOL     OW18070   5.137   1.640   6.834
 5724SOL    HW118071   5.112   1.555   6.878
 5724SOL    HW218072   5.221   1.676   6.875
 5725SOL     OW18073   5.185   5.415   6.242
 5725SOL    HW118074   5.269   5.460   6.209
 5725SOL    HW218075   5.118   5.412   6.167
 5726SOL     OW18076   5.556   3.509   6.158
 5726SOL    HW118077   5.558   3.583   6.225
 5726SOL    HW218078   5.499   3.535   6.081
 5727SOL     OW18079   6.013   2.260   3.638
 5727SOL    HW118080   6.085   2.241   3.571
 5727SOL    HW218081   5.924   2.235   3.599
 5728SOL     OW18082   6.062   0.697   5.699
 5728SOL    HW118083   6.049   0.620   5.762
 5728SOL    HW218084   6.145   0.747   5.724
 5729SOL     OW18085   0.633   2.242   6.185
 5729SOL    HW118086   0.658   2.147   6.200
 5729SOL    HW218087   0.671   2.273   6.097
 5730SOL     OW18088   5.384   4.690   5.678
 5730SOL    HW118089   5.303   4.643   5.711
 5730SOL    HW218090   5.462   4.626   5.677
 5731SOL     OW18091   3.401   0.726   3.937
 5731SOL    HW118092   3.490   0.737   3.892
 5731SOL    HW218093   3.334   0.786   3.894
 5732SOL     OW18094   5.600   4.670   4.764
 5732SOL    HW118095   5.587   4.666   4.863
 5732SOL    HW218096   5.616   4.764   4.736
 5733SOL     OW18097   3.600   1.396   0.043
 5733SOL    HW118098   3.522   1.411   7.003
 5733SOL    HW218099   3.568   1.354   0.128
 5734SOL     OW18100   2.346   6.260   5.601
 5734SOL    HW118101   2.423   6.298   5.549
 5734SOL    HW218102   2.321   6.171   5.563
 5735SOL     OW18103   4.379   0.948   1.807
 5735SOL    HW118104   4.437   1.029   1.793
 5735SOL    HW218105   4.428   0.867   1.775
 5736SOL     OW18106   4.890   4.254   6.822
 5736SOL    HW118107   4.954   4.200   6.768
 5736SOL    HW218108   4.849   4.325   6.765
 5737SOL     OW18109   3.944   5.503   1.018
 5737SOL    HW118110   4.026   5.556   1.037
 5737SOL    HW218111   3.865   5.545   1.062
 5738SOL     OW18112   3.424   1.442   6.572
 5738SOL    HW118113   3.353   1.372   6.569
 5738SOL    HW218114   3.395   1.521   6.517
 5739SOL     OW18115   2.160   0.527   5.588
 5739SOL    HW118116   2.093   0.456   5.569
 5739SOL    HW218117   2.233   0.523   5.519
 5740SOL     OW18118   5.451   3.426   2.222
 5740SOL    HW118119   5.547   3.402   2.204
 5740SOL    HW218120   5.426   3.507   2.168
 5741SOL     OW18121   0.331   3.444   4.482
 5741SOL    HW118122   0.323   3.345   4.472
 5741SOL    HW218123   0.300   3.471   4.573
 5742SOL     OW18124   5.104   0.278   3.572
 5742SOL    HW118125   5.191   0.322   3.598
 5742SOL    HW218126   5.113   0.238   3.481
 5743SOL     OW18127   4.189   3.682   5.689
 5743SOL    HW118128   4.158   3.654   5.780
 5743SOL    HW218129   4.134   3.636   5.620
 5744SOL     OW18130   5.898   6.299   2.406
 5744SOL    HW118131   5.820   6.343   2.361
 5744SOL    HW218132   5.967   6.275   2.337
 5745SOL     OW18133   1.875   2.241   2.802
 5745SOL    HW118134   1.913   2.216   2.713
 5745SOL    HW218135   1.795   2.300   2.790
 5746SOL     OW18136   4.524   0.369   3.341
 5746SOL    HW118137   4.550   0.465   3.354
 5746SOL    HW218138   4.590   0.326   3.279
 5747SOL     OW18139   0.870   6.426   1.336
 5747SOL    HW118140   0.896   6.351   1.274
 5747SOL    HW218141   0.804   6.392   1.403
 5748SOL     OW18142   0.600   6.026   0.574
 5748SOL    HW118143   0.616   5.955   0.642
 5748SOL    HW218144   0.672   6.023   0.504
 5749SOL     OW18145   1.910   6.023   5.267
 5749SOL    HW118146   1.986   5.963   5.293
 5749SOL    HW218147   1.941   6.118   5.266
 5750SOL     OW18148   6.548   4.418   4.170
 5750SOL    HW118149   6.571   4.496   4.112
 5750SOL    HW218150   6.453   4.392   4.156
 5751SOL     OW18151   2.111   3.674   4.473
 5751SOL    HW118152   2.086   3.612   4.548
 5751SOL    HW218153   2.109   3.769   4.507
 5752SOL     OW18154   5.101   0.542   0.847
 5752SOL    HW118155   5.134   0.573   0.937
 5752SOL    HW218156   5.177   0.543   0.782
 5753SOL     OW18157   3.078   4.066   4.851
 5753SOL    HW118158   3.099   4.081   4.755
 5753SOL    HW218159   3.029   4.146   4.887
 5754SOL     OW18160   0.834   5.992   1.572
 5754SOL    HW118161   0.925   5.950   1.578
 5754SOL    HW218162   0.821   6.030   1.481
 5755SOL     OW18163   1.549   2.518   6.930
 5755SOL    HW118164   1.583   2.549   7.019
 5755SOL    HW218165   1.624   2.516   6.864
 5756SOL     OW18166   5.761   5.927   1.511
 5756SOL    HW118167   5.852   5.926   1.553
 5756SOL    HW218168   5.770   5.944   1.413
 5757SOL     OW18169   6.320   6.950   4.080
 5757SOL    HW118170   6.242   6.889   4.072
 5757SOL    HW218171   6.398   6.912   4.032
 5758SOL     OW18172   0.437   0.394   2.970
 5758SOL    HW118173   0.400   0.376   3.061
 5758SOL    HW218174   0.401   0.328   2.905
 5759SOL     OW18175   3.395   0.301   0.767
 5759SOL    HW118176   3.453   0.230   0.726
 5759SOL    HW218177   3.452   0.376   0.800
 5760SOL     OW18178   0.465   3.002   1.384
 5760SOL    HW118179   0.468   3.101   1.397
 5760SOL    HW218180   0.369   2.973   1.375
 5761SOL     OW18181   5.543   5.799   5.362
 5761SOL    HW118182   5.516   5.703   5.368
 5761SOL    HW218183   5.637   5.805   5.327
 5762SOL     OW18184   5.700   4.797   6.708
 5762SOL    HW118185   5.608   4.835   6.701
 5762SOL    HW218186   5.767   4.871   6.698
 5763SOL     OW18187   5.447   0.317   0.029
 5763SOL    HW118188   5.424   0.297   6.954
 5763SOL    HW218189   5.381   0.272   0.089
 5764SOL     OW18190   4.056   5.910   4.042
 5764SOL    HW118191   4.142   5.959   4.051
 5764SOL    HW218192   4.044   5.881   3.947
 5765SOL     OW18193   6.419   5.572   1.062
 5765SOL    HW118194   6.433   5.501   1.131
 5765SOL    HW218195   6.460   5.658   1.094
 5766SOL     OW18196   0.886   1.869   4.390
 5766SOL    HW118197   0.796   1.910   4.377
 5766SOL    HW218198   0.876   1.773   4.414
 5767SOL     OW18199   2.521   0.669   0.921
 5767SOL    HW118200   2.511   0.590   0.861
 5767SOL    HW218201   2.605   0.660   0.975
 5768SOL     OW18202   0.513   6.466   4.641
 5768SOL    HW118203   0.477   6.450   4.733
 5768SOL    HW218204   0.469   6.547   4.602
 5769SOL     OW18205   1.218   5.155   6.295
 5769SOL    HW118206   1.203   5.175   6.198
 5769SOL    HW218207   1.296   5.209   6.328
 5770SOL     OW18208   2.176   4.943   1.527
 5770SOL    HW118209   2.171   4.877   1.602
 5770SOL    HW218210   2.084   4.979   1.510
 5771SOL     OW18211   2.534   5.332   4.201
 5771SOL    HW118212   2.533   5.270   4.280
 5771SOL    HW218213   2.449   5.321   4.149
 5772SOL     OW18214   4.434   0.615   2.060
 5772SOL    HW118215   4.513   0.562   2.092
 5772SOL    HW218216   4.420   0.599   1.962
 5773SOL     OW18217   4.172   2.203   2.417
 5773SOL    HW118218   4.237   2.140   2.376
 5773SOL    HW218219   4.080   2.180   2.387
 5774SOL     OW18220   0.191   6.290   3.411
 5774SOL    HW118221   0.115   6.302   3.347
 5774SOL    HW218222   0.158   6.245   3.494
 5775SOL     OW18223   0.074   5.740   2.173
 5775SOL    HW118224   0.113   5.664   2.120
 5775SOL    HW218225   0.036   5.704   2.258
 5776SOL     OW18226   2.269   0.535   3.287
 5776SOL    HW118227   2.355   0.487   3.299
 5776SOL    HW218228   2.269   0.582   3.199
 5777SOL     OW18229   1.830   0.293   3.332
 5777SOL    HW118230   1.802   0.223   3.267
 5777SOL    HW218231   1.920   0.269   3.371
 5778SOL     OW18232   0.980   1.362   6.848
 5778SOL    HW118233   0.920   1.358   6.928
 5778SOL    HW218234   1.063   1.414   6.871
 5779SOL     OW18235   5.504   2.409   6.474
 5779SOL    HW118236   5.454   2.344   6.417
 5779SOL    HW218237   5.463   2.413   6.565
 5780SOL     OW18238   5.363   5.199   3.314
 5780SOL    HW118239   5.283   5.253   3.340
 5780SOL    HW218240   5.445   5.254   3.327
 5781SOL     OW18241   0.389   3.535   5.589
 5781SOL    HW118242   0.471   3.476   5.592
 5781SOL    HW218243   0.417   3.631   5.591
 5782SOL     OW18244   0.390   1.174   0.787
 5782SOL    HW118245   0.416   1.163   0.692
 5782SOL    HW218246   0.472   1.175   0.844
 5783SOL     OW18247   2.071   1.696   2.068
 5783SOL    HW118248   1.974   1.670   2.070
 5783SOL    HW218249   2.110   1.675   1.978
 5784SOL     OW18250   0.562   6.374   6.564
 5784SOL    HW118251   0.658   6.396   6.546
 5784SOL    HW218252   0.506   6.456   6.552
 5785SOL     OW18253   1.920   1.571   1.119
 5785SOL    HW118254   1.952   1.497   1.179
 5785SOL    HW218255   1.867   1.637   1.173
 5786SOL     OW18256   0.279   3.705   0.742
 5786SOL    HW118257   0.267   3.635   0.812
 5786SOL    HW218258   0.375   3.734   0.741
 5787SOL     OW18259   2.802   1.860   5.773
 5787SOL    HW118260   2.740   1.782   5.770
 5787SOL    HW218261   2.896   1.829   5.758
 5788SOL     OW18262   2.791   0.766   3.079
 5788SOL    HW118263   2.760   0.783   2.986
 5788SOL    HW218264   2.868   0.702   3.078
 5789SOL     OW18265   4.219   4.944   6.267
 5789SOL    HW118266   4.238   4.945   6.169
 5789SOL    HW218267   4.304   4.958   6.318
 5790SOL     OW18268   0.564   2.918   4.083
 5790SOL    HW118269   0.592   2.822   4.085
 5790SOL    HW218270   0.465   2.924   4.085
 5791SOL     OW18271   2.620   0.318   2.682
 5791SOL    HW118272   2.699   0.269   2.646
 5791SOL    HW218273   2.581   0.376   2.611
 5792SOL     OW18274   6.932   2.074   3.053
 5792SOL    HW118275   6.939   2.090   2.954
 5792SOL    HW218276   6.935   2.161   3.102
 5793SOL     OW18277   6.476   1.357   3.740
 5793SOL    HW118278   6.575   1.362   3.744
 5793SOL    HW218279   6.437   1.449   3.737
 5794SOL     OW18280   3.596   3.476   6.793
 5794SOL    HW118281   3.672   3.410   6.795
 5794SOL    HW218282   3.514   3.431   6.757
 5795SOL     OW18283   5.834   4.328   5.828
 5795SOL    HW118284   5.809   4.303   5.922
 5795SOL    HW218285   5.893   4.409   5.830
 5796SOL     OW18286   3.694   1.710   6.885
 5796SOL    HW118287   3.713   1.807   6.872
 5796SOL    HW218288   3.632   1.697   6.962
 5797SOL     OW18289   3.417   2.138   4.599
 5797SOL    HW118290   3.350   2.167   4.668
 5797SOL    HW218291   3.498   2.102   4.645
 5798SOL     OW18292   6.742   4.527   5.091
 5798SOL    HW118293   6.831   4.567   5.069
 5798SOL    HW218294   6.671   4.572   5.036
 5799SOL     OW18295   5.127   6.932   3.157
 5799SOL    HW118296   5.205   6.922   3.095
 5799SOL    HW218297   5.057   6.988   3.113
 5800SOL     OW18298   5.650   4.726   1.094
 5800SOL    HW118299   5.660   4.751   0.998
 5800SOL    HW218300   5.590   4.647   1.102
 5801SOL     OW18301   0.763   0.639   3.340
 5801SOL    HW118302   0.701   0.561   3.339
 5801SOL    HW218303   0.756   0.688   3.254
 5802SOL     OW18304   6.973   3.778   5.999
 5802SOL    HW118305   6.961   3.765   5.900
 5802SOL    HW218306   6.910   3.717   6.048
 5803SOL     OW18307   1.175   4.658   0.695
 5803SOL    HW118308   1.129   4.719   0.760
 5803SOL    HW218309   1.273   4.677   0.696
 5804SOL     OW18310   5.969   4.294   4.192
 5804SOL    HW118311   6.020   4.299   4.279
 5804SOL    HW218312   5.876   4.262   4.210
 5805SOL     OW18313   4.604   4.083   6.508
 5805SOL    HW118314   4.587   3.996   6.463
 5805SOL    HW218315   4.682   4.075   6.570
 5806SOL     OW18316   0.811   6.125   6.939
 5806SOL    HW118317   0.802   6.223   6.958
 5806SOL    HW218318   0.727   6.078   6.966
 5807SOL     OW18319   1.376   3.557   0.997
 5807SOL    HW118320   1.473   3.533   1.006
 5807SOL    HW218321   1.329   3.537   1.083
 5808SOL     OW18322   5.821   4.352   2.206
 5808SOL    HW118323   5.723   4.333   2.207
 5808SOL    HW218324   5.836   4.451   2.197
 5809SOL     OW18325   6.997   3.069   4.472
 5809SOL    HW118326   6.937   3.142   4.505
 5809SOL    HW218327   6.943   2.986   4.457
 5810SOL     OW18328   3.280   1.429   3.655
 5810SOL    HW118329   3.302   1.455   3.561
 5810SOL    HW218330   3.239   1.506   3.703
 5811SOL     OW18331   2.557   0.227   4.671
 5811SOL    HW118332   2.574   0.312   4.721
 5811SOL    HW218333   2.548   0.247   4.574
 5812SOL     OW18334   4.640   0.216   2.828
 5812SOL    HW118335   4.664   0.133   2.879
 5812SOL    HW218336   4.709   0.286   2.843
 5813SOL     OW18337   1.321   1.041   5.565
 5813SOL    HW118338   1.240   1.006   5.612
 5813SOL    HW218339   1.395   0.975   5.572
 5814SOL     OW18340   6.949   4.877   1.004
 5814SOL    HW118341   6.982   4.867   1.098
 5814SOL    HW218342   6.907   4.967   0.992
 5815SOL     OW18343   3.994   2.209   2.976
 5815SOL    HW118344   4.051   2.241   2.901
 5815SOL    HW218345   3.904   2.183   2.942
 5816SOL     OW18346   4.495   0.090   6.980
 5816SOL    HW118347   4.518   0.151   0.035
 5816SOL    HW218348   4.567   0.093   6.911
 5817SOL     OW18349   5.236   3.451   5.880
 5817SOL    HW118350   5.227   3.389   5.958
 5817SOL    HW218351   5.150   3.452   5.828
 5818SOL     OW18352   5.579   6.949   5.725
 5818SOL    HW118353   5.511   6.893   5.773
 5818SOL    HW218354   5.658   6.893   5.700
 5819SOL     OW18355   5.634   0.429   0.893
 5819SOL    HW118356   5.714   0.463   0.942
 5819SOL    HW218357   5.559   0.413   0.958
 5820SOL     OW18358   4.868   6.589   3.367
 5820SOL    HW118359   4.837   6.496   3.386
 5820SOL    HW218360   4.807   6.654   3.412
 5821SOL     OW18361   3.049   0.593   1.754
 5821SOL    HW118362   2.987   0.545   1.816
 5821SOL    HW218363   3.029   0.566   1.660
 5822SOL     OW18364   0.931   2.208   1.948
 5822SOL    HW118365   0.917   2.138   1.878
 5822SOL    HW218366   0.883   2.182   2.031
 5823SOL     OW18367   1.905   1.418   5.060
 5823SOL    HW118368   1.981   1.413   5.125
 5823SOL    HW218369   1.837   1.483   5.094
 5824SOL     OW18370   6.726   6.711   3.268
 5824SOL    HW118371   6.717   6.749   3.360
 5824SOL    HW218372   6.698   6.615   3.269
 5825SOL     OW18373   2.307   0.910   6.916
 5825SOL    HW118374   2.356   0.991   6.950
 5825SOL    HW218375   2.302   0.841   6.989
 5826SOL     OW18376   6.305   6.109   4.928
 5826SOL    HW118377   6.331   6.164   5.008
 5826SOL    HW218378   6.262   6.025   4.959
 5827SOL     OW18379   0.375   5.353   4.757
 5827SOL    HW118380   0.283   5.314   4.763
 5827SOL    HW218381   0.395   5.376   4.662
 5828SOL     OW18382   0.481   3.838   2.311
 5828SOL    HW118383   0.464   3.936   2.309
 5828SOL    HW218384   0.546   3.817   2.385
 5829SOL     OW18385   3.045   1.307   2.065
 5829SOL    HW118386   3.051   1.250   2.147
 5829SOL    HW218387   3.011   1.398   2.089
 5830SOL     OW18388   3.722   0.895   5.866
 5830SOL    HW118389   3.662   0.937   5.797
 5830SOL    HW218390   3.695   0.800   5.880
 5831SOL     OW18391   5.991   6.441   2.997
 5831SOL    HW118392   5.945   6.456   2.909
 5831SOL    HW218393   6.059   6.513   3.010
 5832SOL     OW18394   4.103   3.771   5.376
 5832SOL    HW118395   4.078   3.849   5.433
 5832SOL    HW218396   4.201   3.772   5.358
 5833SOL     OW18397   2.977   3.359   3.945
 5833SOL    HW118398   3.072   3.363   3.975
 5833SOL    HW218399   2.967   3.292   3.872
 5834SOL     OW18400   5.659   1.952   0.711
 5834SOL    HW118401   5.562   1.967   0.730
 5834SOL    HW218402   5.699   2.036   0.673
 5835SOL     OW18403   4.958   2.455   3.398
 5835SOL    HW118404   5.051   2.474   3.366
 5835SOL    HW218405   4.959   2.445   3.498
 5836SOL     OW18406   3.005   6.202   2.235
 5836SOL    HW118407   2.950   6.235   2.312
 5836SOL    HW218408   3.078   6.144   2.269
 5837SOL     OW18409   4.818   4.483   0.340
 5837SOL    HW118410   4.786   4.575   0.361
 5837SOL    HW218411   4.833   4.432   0.424
 5838SOL     OW18412   1.030   1.779   5.811
 5838SOL    HW118413   1.099   1.741   5.750
 5838SOL    HW218414   1.069   1.855   5.863
 5839SOL     OW18415   6.861   3.861   2.904
 5839SOL    HW118416   6.931   3.855   2.974
 5839SOL    HW218417   6.799   3.783   2.913
 5840SOL     OW18418   1.673   5.846   6.746
 5840SOL    HW118419   1.728   5.765   6.768
 5840SOL    HW218420   1.669   5.907   6.824
 5841SOL     OW18421   6.411   3.170   3.789
 5841SOL    HW118422   6.419   3.142   3.693
 5841SOL    HW218423   6.375   3.094   3.843
 5842SOL     OW18424   4.067   3.059   0.675
 5842SOL    HW118425   4.071   3.103   0.585
 5842SOL    HW218426   3.971   3.045   0.700
 5843SOL     OW18427   1.966   3.214   2.623
 5843SOL    HW118428   1.875   3.255   2.627
 5843SOL    HW218429   1.996   3.207   2.528
 5844SOL     OW18430   0.081   5.874   6.171
 5844SOL    HW118431   0.051   5.867   6.075
 5844SOL    HW218432   0.177   5.845   6.177
 5845SOL     OW18433   1.117   2.384   3.821
 5845SOL    HW118434   1.097   2.478   3.848
 5845SOL    HW218435   1.146   2.332   3.901
 5846SOL     OW18436   6.839   2.819   5.427
 5846SOL    HW118437   6.915   2.873   5.462
 5846SOL    HW218438   6.758   2.878   5.417
 5847SOL     OW18439   2.059   2.218   2.493
 5847SOL    HW118440   2.137   2.158   2.509
 5847SOL    HW218441   2.018   2.196   2.404
 5848SOL     OW18442   1.855   4.814   3.487
 5848SOL    HW118443   1.849   4.714   3.492
 5848SOL    HW218444   1.912   4.848   3.561
 5849SOL     OW18445   1.433   0.444   5.776
 5849SOL    HW118446   1.504   0.397   5.829
 5849SOL    HW218447   1.348   0.391   5.780
 5850SOL     OW18448   1.515   4.288   2.170
 5850SOL    HW118449   1.529   4.203   2.221
 5850SOL    HW218450   1.549   4.365   2.224
 5851SOL     OW18451   6.332   4.321   2.579
 5851SOL    HW118452   6.289   4.385   2.515
 5851SOL    HW218453   6.265   4.294   2.649
 5852SOL     OW18454   3.935   5.999   2.747
 5852SOL    HW118455   3.985   6.048   2.819
 5852SOL    HW218456   3.980   5.912   2.729
 5853SOL     OW18457   3.436   4.724   5.993
 5853SOL    HW118458   3.414   4.743   6.089
 5853SOL    HW218459   3.451   4.810   5.944
 5854SOL     OW18460   6.740   2.003   5.638
 5854SOL    HW118461   6.676   2.010   5.714
 5854SOL    HW218462   6.713   2.067   5.566
 5855SOL     OW18463   1.319   0.876   4.503
 5855SOL    HW118464   1.288   0.781   4.495
 5855SOL    HW218465   1.303   0.909   4.596
 5856SOL     OW18466   2.400   4.936   3.144
 5856SOL    HW118467   2.483   4.940   3.199
 5856SOL    HW218468   2.348   5.021   3.156
 5857SOL     OW18469   6.536   2.463   4.762
 5857SOL    HW118470   6.439   2.488   4.760
 5857SOL    HW218471   6.552   2.398   4.837
 5858SOL     OW18472   2.994   0.804   2.450
 5858SOL    HW118473   3.084   0.783   2.411
 5858SOL    HW218474   3.005   0.829   2.546
 5859SOL     OW18475   6.660   6.559   0.974
 5859SOL    HW118476   6.601   6.597   1.044
 5859SOL    HW218477   6.604   6.517   0.902
 5860SOL     OW18478   1.487   4.429   1.702
 5860SOL    HW118479   1.408   4.398   1.755
 5860SOL    HW218480   1.509   4.362   1.631
 5861SOL     OW18481   5.525   2.402   4.013
 5861SOL    HW118482   5.432   2.392   3.978
 5861SOL    HW218483   5.588   2.420   3.937
 5862SOL     OW18484   4.070   5.239   2.966
 5862SOL    HW118485   4.166   5.262   2.986
 5862SOL    HW218486   4.014   5.253   3.047
 5863SOL     OW18487   2.067   1.001   6.152
 5863SOL    HW118488   2.134   0.955   6.210
 5863SOL    HW218489   1.977   0.960   6.167
 5864SOL     OW18490   4.223   4.281   1.651
 5864SOL    HW118491   4.255   4.292   1.557
 5864SOL    HW218492   4.300   4.257   1.710
 5865SOL     OW18493   5.144   0.946   3.293
 5865SOL    HW118494   5.057   0.961   3.340
 5865SOL    HW218495   5.199   1.029   3.297
 5866SOL     OW18496   4.096   6.820   5.401
 5866SOL    HW118497   4.192   6.817   5.430
 5866SOL    HW218498   4.037   6.819   5.482
 5867SOL     OW18499   0.657   2.918   1.583
 5867SOL    HW118500   0.585   2.962   1.531
 5867SOL    HW218501   0.690   2.980   1.654
 5868SOL     OW18502   1.605   0.078   5.630
 5868SOL    HW118503   1.675   0.112   5.693
 5868SOL    HW218504   1.568   0.155   5.577
 5869SOL     OW18505   2.718   4.739   4.692
 5869SOL    HW118506   2.620   4.738   4.674
 5869SOL    HW218507   2.738   4.685   4.774
 5870SOL     OW18508   5.198   5.311   4.046
 5870SOL    HW118509   5.174   5.249   3.971
 5870SOL    HW218510   5.282   5.278   4.091
 5871SOL     OW18511   3.747   3.064   6.919
 5871SOL    HW118512   3.821   3.023   6.971
 5871SOL    HW218513   3.665   3.008   6.926
 5872SOL     OW18514   4.181   5.850   6.159
 5872SOL    HW118515   4.276   5.844   6.129
 5872SOL    HW218516   4.164   5.941   6.196
 5873SOL     OW18517   2.831   3.084   0.355
 5873SOL    HW118518   2.768   3.099   0.279
 5873SOL    HW218519   2.802   3.141   0.432
 5874SOL     OW18520   2.315   3.548   1.637
 5874SOL    HW118521   2.324   3.475   1.704
 5874SOL    HW218522   2.303   3.635   1.684
 5875SOL     OW18523   3.528   2.410   6.962
 5875SOL    HW118524   3.580   2.492   6.982
 5875SOL    HW218525   3.440   2.435   6.921
 5876SOL     OW18526   3.158   3.453   6.558
 5876SOL    HW118527   3.185   3.522   6.625
 5876SOL    HW218528   3.072   3.480   6.516
 5877SOL     OW18529   6.353   0.572   1.578
 5877SOL    HW118530   6.416   0.527   1.641
 5877SOL    HW218531   6.371   0.671   1.578
 5878SOL     OW18532   4.526   5.365   2.096
 5878SOL    HW118533   4.592   5.302   2.135
 5878SOL    HW218534   4.545   5.458   2.129
 5879SOL     OW18535   3.257   3.219   6.447
 5879SOL    HW118536   3.189   3.149   6.425
 5879SOL    HW218537   3.211   3.301   6.479
 5880SOL     OW18538   5.066   3.820   5.659
 5880SOL    HW118539   5.137   3.850   5.722
 5880SOL    HW218540   5.108   3.777   5.579
 5881SOL     OW18541   0.901   6.284   2.216
 5881SOL    HW118542   0.850   6.198   2.226
 5881SOL    HW218543   0.850   6.358   2.260
 5882SOL     OW18544   1.535   6.401   5.593
 5882SOL    HW118545   1.601   6.327   5.606
 5882SOL    HW218546   1.488   6.390   5.505
 5883SOL     OW18547   0.503   3.880   0.797
 5883SOL    HW118548   0.530   3.928   0.714
 5883SOL    HW218549   0.574   3.814   0.823
 5884SOL     OW18550   5.853   1.757   3.666
 5884SOL    HW118551   5.815   1.848   3.650
 5884SOL    HW218552   5.863   1.743   3.765
 5885SOL     OW18553   0.202   5.557   0.059
 5885SOL    HW118554   0.103   5.542   0.063
 5885SOL    HW218555   0.228   5.620   0.133
 5886SOL     OW18556   1.276   4.058   3.764
 5886SOL    HW118557   1.223   4.003   3.699
 5886SOL    HW218558   1.359   4.008   3.790
 5887SOL     OW18559   2.167   2.925   1.325
 5887SOL    HW118560   2.070   2.951   1.317
 5887SOL    HW218561   2.181   2.874   1.409
 5888SOL     OW18562   2.666   6.448   1.489
 5888SOL    HW118563   2.707   6.414   1.574
 5888SOL    HW218564   2.731   6.508   1.442
 5889SOL     OW18565   6.744   0.374   1.089
 5889SOL    HW118566   6.830   0.403   1.131
 5889SOL    HW218567   6.715   0.443   1.022
 5890SOL     OW18568   2.664   6.521   2.286
 5890SOL    HW118569   2.647   6.462   2.206
 5890SOL    HW218570   2.680   6.614   2.255
 5891SOL     OW18571   2.640   3.616   0.639
 5891SOL    HW118572   2.609   3.532   0.683
 5891SOL    HW218573   2.565   3.682   0.634
 5892SOL     OW18574   0.669   3.140   0.885
 5892SOL    HW118575   0.587   3.083   0.877
 5892SOL    HW218576   0.674   3.177   0.978
 5893SOL     OW18577   1.056   5.733   1.916
 5893SOL    HW118578   1.133   5.766   1.861
 5893SOL    HW218579   1.011   5.810   1.961
 5894SOL     OW18580   1.929   5.689   5.820
 5894SOL    HW118581   1.886   5.645   5.742
 5894SOL    HW218582   1.940   5.622   5.894
 5895SOL     OW18583   5.556   2.945   4.351
 5895SOL    HW118584   5.584   2.993   4.433
 5895SOL    HW218585   5.472   2.986   4.315
 5896SOL     OW18586   6.016   2.203   1.590
 5896SOL    HW118587   6.107   2.178   1.557
 5896SOL    HW218588   6.024   2.259   1.672
 5897SOL     OW18589   4.733   1.728   0.762
 5897SOL    HW118590   4.731   1.790   0.840
 5897SOL    HW218591   4.826   1.722   0.726
 5898SOL     OW18592   1.695   1.651   5.355
 5898SOL    HW118593   1.756   1.729   5.340
 5898SOL    HW218594   1.664   1.652   5.450
 5899SOL     OW18595   0.106   5.195   5.718
 5899SOL    HW118596   0.035   5.137   5.757
 5899SOL    HW218597   0.096   5.288   5.753
 5900SOL     OW18598   6.444   6.186   3.188
 5900SOL    HW118599   6.491   6.124   3.125
 5900SOL    HW218600   6.349   6.157   3.197
 5901SOL     OW18601   2.066   6.948   6.067
 5901SOL    HW118602   2.134   0.001   6.066
 5901SOL    HW218603   2.078   6.891   6.148
 5902SOL     OW18604   5.320   4.065   5.297
 5902SOL    HW118605   5.356   3.990   5.242
 5902SOL    HW218606   5.259   4.028   5.368
 5903SOL     OW18607   6.124   1.767   6.474
 5903SOL    HW118608   6.079   1.701   6.533
 5903SOL    HW218609   6.160   1.843   6.529
 5904SOL     OW18610   1.875   4.377   2.764
 5904SOL    HW118611   1.960   4.419   2.731
 5904SOL    HW218612   1.866   4.393   2.862
 5905SOL     OW18613   5.991   1.110   4.307
 5905SOL    HW118614   6.010   1.144   4.399
 5905SOL    HW218615   5.892   1.104   4.294
 5906SOL     OW18616   5.135   0.733   5.031
 5906SOL    HW118617   5.179   0.684   4.955
 5906SOL    HW218618   5.036   0.714   5.029
 5907SOL     OW18619   1.952   2.392   0.195
 5907SOL    HW118620   2.039   2.443   0.193
 5907SOL    HW218621   1.930   2.369   0.289
 5908SOL     OW18622   4.446   3.269   6.221
 5908SOL    HW118623   4.489   3.337   6.280
 5908SOL    HW218624   4.496   3.183   6.227
 5909SOL     OW18625   0.043   4.525   4.963
 5909SOL    HW118626   0.040   4.463   5.041
 5909SOL    HW218627   0.037   4.472   4.878
 5910SOL     OW18628   1.949   3.948   1.255
 5910SOL    HW118629   2.024   3.894   1.216
 5910SOL    HW218630   1.893   3.985   1.181
 5911SOL     OW18631   6.268   5.419   6.158
 5911SOL    HW118632   6.170   5.439   6.161
 5911SOL    HW218633   6.282   5.332   6.109
 5912SOL     OW18634   6.275   4.072   0.120
 5912SOL    HW118635   6.348   4.094   0.184
 5912SOL    HW218636   6.303   3.995   0.062
 5913SOL     OW18637   1.793   1.562   5.708
 5913SOL    HW118638   1.883   1.568   5.664
 5913SOL    HW218639   1.791   1.481   5.767
 5914SOL     OW18640   1.831   5.623   0.915
 5914SOL    HW118641   1.922   5.649   0.947
 5914SOL    HW218642   1.820   5.650   0.820
 5915SOL     OW18643   4.860   2.849   2.341
 5915SOL    HW118644   4.782   2.850   2.404
 5915SOL    HW218645   4.829   2.819   2.251
 5916SOL     OW18646   3.797   0.251   5.843
 5916SOL    HW118647   3.702   0.219   5.837
 5916SOL    HW218648   3.855   0.196   5.784
 5917SOL     OW18649   3.510   3.474   2.635
 5917SOL    HW118650   3.434   3.412   2.656
 5917SOL    HW218651   3.596   3.424   2.646
 5918SOL     OW18652   1.882   3.259   4.114
 5918SOL    HW118653   1.964   3.214   4.150
 5918SOL    HW218654   1.907   3.314   4.034
 5919SOL     OW18655   1.806   2.785   6.862
 5919SOL    HW118656   1.857   2.855   6.813
 5919SOL    HW218657   1.869   2.728   6.914
 5920SOL     OW18658   3.642   0.636   6.839
 5920SOL    HW118659   3.698   0.565   6.797
 5920SOL    HW218660   3.670   0.648   6.935
 5921SOL     OW18661   3.845   4.701   5.499
 5921SOL    HW118662   3.770   4.734   5.556
 5921SOL    HW218663   3.823   4.611   5.463
 5922SOL     OW18664   6.286   4.505   2.854
 5922SOL    HW118665   6.316   4.414   2.827
 5922SOL    HW218666   6.187   4.506   2.867
 5923SOL     OW18667   6.862   0.145   3.717
 5923SOL    HW118668   6.780   0.183   3.760
 5923SOL    HW218669   6.910   0.217   3.666
 5924SOL     OW18670   5.119   2.281   4.515
 5924SOL    HW118671   5.042   2.344   4.523
 5924SOL    HW218672   5.085   2.187   4.517
 5925SOL     OW18673   5.084   6.053   1.065
 5925SOL    HW118674   5.160   5.989   1.075
 5925SOL    HW218675   5.094   6.103   0.979
 5926SOL     OW18676   3.902   5.126   1.508
 5926SOL    HW118677   3.879   5.030   1.491
 5926SOL    HW218678   3.849   5.185   1.448
 5927SOL     OW18679   2.650   5.843   2.148
 5927SOL    HW118680   2.739   5.843   2.102
 5927SOL    HW218681   2.608   5.933   2.139
 5928SOL     OW18682   1.506   0.123   2.861
 5928SOL    HW118683   1.525   0.026   2.843
 5928SOL    HW218684   1.592   0.174   2.862
 5929SOL     OW18685   1.772   6.486   6.513
 5929SOL    HW118686   1.679   6.497   6.478
 5929SOL    HW218687   1.818   6.413   6.461
 5930SOL     OW18688   6.622   1.410   4.750
 5930SOL    HW118689   6.628   1.343   4.825
 5930SOL    HW218690   6.645   1.365   4.664
 5931SOL     OW18691   6.583   5.780   1.478
 5931SOL    HW118692   6.581   5.844   1.554
 5931SOL    HW218693   6.547   5.823   1.396
 5932SOL     OW18694   2.361   6.801   0.760
 5932SOL    HW118695   2.326   6.743   0.833
 5932SOL    HW218696   2.324   6.894   0.771
 5933SOL     OW18697   0.007   3.833   3.118
 5933SOL    HW118698   0.056   3.820   3.204
 5933SOL    HW218699   7.012   3.931   3.103
 5934SOL     OW18700   3.728   3.545   2.985
 5934SOL    HW118701   3.632   3.562   3.007
 5934SOL    HW218702   3.765   3.622   2.933
 5935SOL     OW18703   4.068   3.758   4.319
 5935SOL    HW118704   4.012   3.836   4.348
 5935SOL    HW218705   4.067   3.688   4.391
 5936SOL     OW18706   5.452   5.326   0.040
 5936SOL    HW118707   5.394   5.352   0.117
 5936SOL    HW218708   5.396   5.322   6.977
 5937SOL     OW18709   2.046   3.566   1.230
 5937SOL    HW118710   1.990   3.560   1.312
 5937SOL    HW218711   2.090   3.477   1.212
 5938SOL     OW18712   1.725   4.190   3.123
 5938SOL    HW118713   1.790   4.142   3.064
 5938SOL    HW218714   1.698   4.276   3.080
 5939SOL     OW18715   3.218   0.379   2.696
 5939SOL    HW118716   3.267   0.417   2.618
 5939SOL    HW218717   3.130   0.427   2.707
 5940SOL     OW18718   4.203   6.603   3.033
 5940SOL    HW118719   4.225   6.693   3.071
 5940SOL    HW218720   4.192   6.538   3.108
 5941SOL     OW18721   6.232   4.890   2.609
 5941SOL    HW118722   6.307   4.922   2.551
 5941SOL    HW218723   6.149   4.881   2.555
 5942SOL     OW18724   4.432   3.513   6.059
 5942SOL    HW118725   4.430   3.427   6.110
 5942SOL    HW218726   4.500   3.574   6.099
 5943SOL     OW18727   1.780   6.018   0.648
 5943SOL    HW118728   1.852   6.077   0.684
 5943SOL    HW218729   1.713   5.999   0.720
 5944SOL     OW18730   5.006   1.777   2.428
 5944SOL    HW118731   5.037   1.845   2.494
 5944SOL    HW218732   5.063   1.782   2.346
 5945SOL     OW18733   6.292   4.870   5.927
 5945SOL    HW118734   6.303   4.904   5.834
 5945SOL    HW218735   6.199   4.889   5.959
 5946SOL     OW18736   4.919   3.020   5.854
 5946SOL    HW118737   4.982   2.991   5.781
 5946SOL    HW218738   4.962   3.004   5.943
 5947SOL     OW18739   4.386   3.626   1.596
 5947SOL    HW118740   4.378   3.555   1.666
 5947SOL    HW218741   4.331   3.706   1.623
 5948SOL     OW18742   3.974   4.825   2.864
 5948SOL    HW118743   4.012   4.811   2.773
 5948SOL    HW218744   3.877   4.848   2.856
 5949SOL     OW18745   4.108   5.037   1.347
 5949SOL    HW118746   4.201   5.049   1.381
 5949SOL    HW218747   4.059   5.123   1.354
 5950SOL     OW18748   6.293   2.300   4.053
 5950SOL    HW118749   6.234   2.310   3.973
 5950SOL    HW218750   6.313   2.204   4.069
 5951SOL     OW18751   1.886   5.815   4.001
 5951SOL    HW118752   1.824   5.759   4.056
 5951SOL    HW218753   1.888   5.908   4.038
 5952SOL     OW18754   6.975   6.731   3.874
 5952SOL    HW118755   6.897   6.674   3.899
 5952SOL    HW218756   0.038   6.677   3.876
 5953SOL     OW18757   6.509   2.956   6.244
 5953SOL    HW118758   6.529   3.026   6.176
 5953SOL    HW218759   6.418   2.917   6.228
 5954SOL     OW18760   0.052   4.876   6.764
 5954SOL    HW118761   0.073   4.962   6.718
 5954SOL    HW218762   0.041   4.892   6.862
 5955SOL     OW18763   4.989   5.267   1.773
 5955SOL    HW118764   4.932   5.347   1.754
 5955SOL    HW218765   5.057   5.291   1.842
 5956SOL     OW18766   5.297   2.311   0.145
 5956SOL    HW118767   5.336   2.362   0.068
 5956SOL    HW218768   5.358   2.236   0.169
 5957SOL     OW18769   5.967   6.154   6.012
 5957SOL    HW118770   6.017   6.180   6.094
 5957SOL    HW218771   5.872   6.134   6.035
 5958SOL     OW18772   6.770   5.625   2.102
 5958SOL    HW118773   6.671   5.617   2.114
 5958SOL    HW218774   6.789   5.669   2.015
 5959SOL     OW18775   2.177   1.810   6.099
 5959SOL    HW118776   2.163   1.872   6.023
 5959SOL    HW218777   2.176   1.861   6.185
 5960SOL     OW18778   3.070   0.088   3.852
 5960SOL    HW118779   3.149   0.136   3.814
 5960SOL    HW218780   3.078   0.086   3.951
 5961SOL     OW18781   3.348   0.514   4.733
 5961SOL    HW118782   3.339   0.469   4.644
 5961SOL    HW218783   3.311   0.607   4.726
 5962SOL     OW18784   4.924   5.309   2.169
 5962SOL    HW118785   5.004   5.249   2.160
 5962SOL    HW218786   4.954   5.405   2.167
 5963SOL     OW18787   3.899   3.767   2.451
 5963SOL    HW118788   3.970   3.732   2.390
 5963SOL    HW218789   3.942   3.805   2.533
 5964SOL     OW18790   7.009   5.434   6.294
 5964SOL    HW118791   0.010   5.337   6.297
 5964SOL    HW218792   0.005   5.475   6.384
 5965SOL     OW18793   2.327   2.782   6.226
 5965SOL    HW118794   2.332   2.710   6.156
 5965SOL    HW218795   2.299   2.868   6.183
 5966SOL     OW18796   3.077   5.908   4.722
 5966SOL    HW118797   3.100   5.946   4.633
 5966SOL    HW218798   3.007   5.837   4.711
 5967SOL     OW18799   4.600   6.332   2.954
 5967SOL    HW118800   4.536   6.404   2.983
 5967SOL    HW218801   4.693   6.367   2.959
 5968SOL     OW18802   6.760   2.502   3.405
 5968SOL    HW118803   6.740   2.454   3.490
 5968SOL    HW218804   6.778   2.436   3.332
 5969SOL     OW18805   5.762   3.990   3.526
 5969SOL    HW118806   5.772   4.055   3.601
 5969SOL    HW218807   5.667   3.959   3.520
 5970SOL     OW18808   1.669   3.364   2.469
 5970SOL    HW118809   1.577   3.327   2.481
 5970SOL    HW218810   1.722   3.303   2.410
 5971SOL     OW18811   2.008   6.707   2.744
 5971SOL    HW118812   2.089   6.736   2.693
 5971SOL    HW218813   1.949   6.651   2.685
 5972SOL     OW18814   4.944   6.929   0.201
 5972SOL    HW118815   4.851   6.966   0.203
 5972SOL    HW218816   4.963   6.894   0.109
 5973SOL     OW18817   1.622   4.416   2.967
 5973SOL    HW118818   1.534   4.371   2.952
 5973SOL    HW218819   1.632   4.492   2.903
 5974SOL     OW18820   0.165   4.000   0.328
 5974SOL    HW118821   0.254   3.957   0.313
 5974SOL    HW218822   0.175   4.099   0.328
 5975SOL     OW18823   2.861   2.915   1.189
 5975SOL    HW118824   2.930   2.859   1.143
 5975SOL    HW218825   2.788   2.856   1.223
 5976SOL     OW18826   3.050   3.153   4.778
 5976SOL    HW118827   3.083   3.247   4.786
 5976SOL    HW218828   3.003   3.127   4.862
 5977SOL     OW18829   1.254   4.333   2.090
 5977SOL    HW118830   1.351   4.310   2.093
 5977SOL    HW218831   1.207   4.288   2.166
 5978SOL     OW18832   5.588   4.899   2.293
 5978SOL    HW118833   5.581   4.855   2.203
 5978SOL    HW218834   5.607   4.830   2.363
 5979SOL     OW18835   6.564   0.931   3.208
 5979SOL    HW118836   6.568   0.909   3.305
 5979SOL    HW218837   6.646   0.979   3.180
 5980SOL     OW18838   5.232   4.303   0.661
 5980SOL    HW118839   5.262   4.329   0.569
 5980SOL    HW218840   5.231   4.204   0.669
 5981SOL     OW18841   5.344   0.734   2.357
 5981SOL    HW118842   5.303   0.768   2.272
 5981SOL    HW218843   5.384   0.644   2.342
 5982SOL     OW18844   0.061   2.198   6.884
 5982SOL    HW118845   0.110   2.243   6.809
 5982SOL    HW218846   7.016   2.133   6.846
 5983SOL     OW18847   1.449   1.199   4.091
 5983SOL    HW118848   1.532   1.161   4.049
 5983SOL    HW218849   1.423   1.142   4.169
 5984SOL     OW18850   0.304   6.040   4.865
 5984SOL    HW118851   0.323   5.960   4.807
 5984SOL    HW218852   0.388   6.067   4.912
 5985SOL     OW18853   4.566   1.866   4.087
 5985SOL    HW118854   4.498   1.793   4.076
 5985SOL    HW218855   4.619   1.875   4.003
 5986SOL     OW18856   3.213   3.401   2.637
 5986SOL    HW118857   3.142   3.342   2.600
 5986SOL    HW218858   3.194   3.496   2.613
 5987SOL     OW18859   4.240   6.928   4.744
 5987SOL    HW118860   4.258   6.844   4.693
 5987SOL    HW218861   4.323   6.983   4.749
 5988SOL     OW18862   4.618   6.770   4.063
 5988SOL    HW118863   4.524   6.741   4.047
 5988SOL    HW218864   4.655   6.722   4.142
 5989SOL     OW18865   3.287   0.242   6.102
 5989SOL    HW118866   3.265   0.324   6.049
 5989SOL    HW218867   3.386   0.226   6.099
 5990SOL     OW18868   3.135   5.296   0.944
 5990SOL    HW118869   3.113   5.320   0.850
 5990SOL    HW218870   3.078   5.219   0.973
 5991SOL     OW18871   3.108   5.554   4.267
 5991SOL    HW118872   3.128   5.514   4.356
 5991SOL    HW218873   3.068   5.485   4.207
 5992SOL     OW18874   4.131   0.517   3.787
 5992SOL    HW118875   4.056   0.466   3.746
 5992SOL    HW218876   4.184   0.563   3.715
 5993SOL     OW18877   2.564   6.178   5.927
 5993SOL    HW118878   2.623   6.156   6.004
 5993SOL    HW218879   2.471   6.148   5.947
 5994SOL     OW18880   6.000   2.536   2.360
 5994SOL    HW118881   6.051   2.619   2.337
 5994SOL    HW218882   5.958   2.499   2.277
 5995SOL     OW18883   6.789   5.303   0.831
 5995SOL    HW118884   6.692   5.325   0.833
 5995SOL    HW218885   6.809   5.247   0.751
 5996SOL     OW18886   0.156   5.556   6.078
 5996SOL    HW118887   0.120   5.485   6.138
 5996SOL    HW218888   0.151   5.526   5.983
 5997SOL     OW18889   0.572   6.771   1.930
 5997SOL    HW118890   0.574   6.866   1.959
 5997SOL    HW218891   0.513   6.718   1.991
 5998SOL     OW18892   5.730   2.298   2.401
 5998SOL    HW118893   5.676   2.382   2.398
 5998SOL    HW218894   5.783   2.289   2.317
 5999SOL     OW18895   1.420   2.173   2.865
 5999SOL    HW118896   1.438   2.147   2.960
 5999SOL    HW218897   1.452   2.266   2.849
 6000SOL     OW18898   4.527   5.474   2.418
 6000SOL    HW118899   4.520   5.376   2.434
 6000SOL    HW218900   4.462   5.523   2.477
 6001SOL     OW18901   6.560   2.575   6.508
 6001SOL    HW118902   6.587   2.562   6.603
 6001SOL    HW218903   6.496   2.503   6.481
 6002SOL     OW18904   1.789   0.126   1.872
 6002SOL    HW118905   1.799   0.162   1.964
 6002SOL    HW218906   1.833   0.188   1.807
 6003SOL     OW18907   4.807   4.031   5.194
 6003SOL    HW118908   4.881   4.090   5.225
 6003SOL    HW218909   4.839   3.974   5.118
 6004SOL     OW18910   0.606   3.315   2.304
 6004SOL    HW118911   0.653   3.403   2.314
 6004SOL    HW218912   0.652   3.247   2.362
 6005SOL     OW18913   3.344   5.510   3.394
 6005SOL    HW118914   3.366   5.502   3.491
 6005SOL    HW218915   3.309   5.423   3.360
 6006SOL     OW18916   3.231   7.000   6.458
 6006SOL    HW118917   3.232   0.055   6.392
 6006SOL    HW218918   3.154   6.939   6.438
 6007SOL     OW18919   5.906   2.344   4.001
 6007SOL    HW118920   5.876   2.413   4.067
 6007SOL    HW218921   5.837   2.334   3.929
 6008SOL     OW18922   2.976   4.813   5.989
 6008SOL    HW118923   2.913   4.812   5.912
 6008SOL    HW218924   3.002   4.720   6.013
 6009SOL     OW18925   2.452   1.924   4.131
 6009SOL    HW118926   2.472   1.922   4.033
 6009SOL    HW218927   2.379   1.859   4.151
 6010SOL     OW18928   1.937   4.109   2.772
 6010SOL    HW118929   1.923   4.208   2.764
 6010SOL    HW218930   1.905   4.064   2.689
 6011SOL     OW18931   5.393   2.899   2.464
 6011SOL    HW118932   5.377   2.846   2.547
 6011SOL    HW218933   5.397   2.996   2.486
 6012SOL     OW18934   6.658   3.110   1.104
 6012SOL    HW118935   6.651   3.060   1.190
 6012SOL    HW218936   6.702   3.198   1.121
 6013SOL     OW18937   5.717   0.829   2.776
 6013SOL    HW118938   5.691   0.736   2.751
 6013SOL    HW218939   5.757   0.875   2.696
 6014SOL     OW18940   5.691   0.304   0.125
 6014SOL    HW118941   5.600   0.323   0.088
 6014SOL    HW218942   5.697   0.341   0.217
 6015SOL     OW18943   5.419   2.014   4.282
 6015SOL    HW118944   5.453   2.102   4.315
 6015SOL    HW218945   5.325   2.026   4.248
 6016SOL     OW18946   2.192   0.893   5.478
 6016SOL    HW118947   2.163   0.813   5.531
 6016SOL    HW218948   2.137   0.972   5.506
 6017SOL     OW18949   6.643   5.373   2.674
 6017SOL    HW118950   6.642   5.282   2.714
 6017SOL    HW218951   6.682   5.369   2.582
 6018SOL     OW18952   2.772   3.800   0.792
 6018SOL    HW118953   2.708   3.852   0.849
 6018SOL    HW218954   2.723   3.726   0.746
 6019SOL     OW18955   3.880   0.954   4.074
 6019SOL    HW118956   3.879   1.014   3.994
 6019SOL    HW218957   3.880   0.859   4.044
 6020SOL     OW18958   3.924   0.666   2.495
 6020SOL    HW118959   3.983   0.621   2.562
 6020SOL    HW218960   3.980   0.697   2.418
 6021SOL     OW18961   4.506   1.523   2.378
 6021SOL    HW118962   4.581   1.533   2.444
 6021SOL    HW218963   4.424   1.493   2.425
 6022SOL     OW18964   3.764   1.581   3.477
 6022SOL    HW118965   3.823   1.516   3.430
 6022SOL    HW218966   3.772   1.569   3.576
 6023SOL     OW18967   0.510   1.551   3.035
 6023SOL    HW118968   0.459   1.490   3.096
 6023SOL    HW218969   0.600   1.511   3.016
 6024SOL     OW18970   0.636   4.882   1.577
 6024SOL    HW118971   0.573   4.888   1.655
 6024SOL    HW218972   0.716   4.828   1.603
 6025SOL     OW18973   4.637   1.546   1.239
 6025SOL    HW118974   4.625   1.452   1.269
 6025SOL    HW218975   4.734   1.568   1.233
 6026SOL     OW18976   6.526   4.383   5.200
 6026SOL    HW118977   6.444   4.426   5.164
 6026SOL    HW218978   6.604   4.444   5.188
 6027SOL     OW18979   2.745   3.180   6.578
 6027SOL    HW118980   2.723   3.116   6.505
 6027SOL    HW218981   2.827   3.150   6.626
 6028SOL     OW18982   1.673   3.802   0.443
 6028SOL    HW118983   1.634   3.887   0.405
 6028SOL    HW218984   1.773   3.807   0.439
 6029SOL     OW18985   2.159   6.554   1.326
 6029SOL    HW118986   2.154   6.613   1.245
 6029SOL    HW218987   2.255   6.533   1.346
 6030SOL     OW18988   2.140   0.993   1.794
 6030SOL    HW118989   2.231   1.017   1.830
 6030SOL    HW218990   2.073   1.061   1.826
 6031SOL     OW18991   4.856   6.454   5.478
 6031SOL    HW118992   4.935   6.461   5.417
 6031SOL    HW218993   4.882   6.405   5.561
 6032SOL     OW18994   1.154   2.898   2.453
 6032SOL    HW118995   1.150   2.987   2.497
 6032SOL    HW218996   1.144   2.826   2.521
 6033SOL     OW18997   1.045   1.816   3.621
 6033SOL    HW118998   1.111   1.809   3.696
 6033SOL    HW218999   1.061   1.742   3.556
 6034SOL     OW19000   1.685   4.465   5.125
 6034SOL    HW119001   1.637   4.427   5.046
 6034SOL    HW219002   1.655   4.559   5.140
 6035SOL     OW19003   5.925   0.237   4.116
 6035SOL    HW119004   5.843   0.215   4.064
 6035SOL    HW219005   5.939   0.166   4.186
 6036SOL     OW19006   0.472   6.608   5.513
 6036SOL    HW119007   0.512   6.690   5.471
 6036SOL    HW219008   0.374   6.607   5.496
 6037SOL     OW19009   5.797   5.768   5.255
 6037SOL    HW119010   5.763   5.768   5.161
 6037SOL    HW219011   5.852   5.850   5.272
 6038SOL     OW19012   6.238   4.370   5.906
 6038SOL    HW119013   6.286   4.373   5.818
 6038SOL    HW219014   6.275   4.296   5.962
 6039SOL     OW19015   3.292   3.659   2.517
 6039SOL    HW119016   3.279   3.724   2.592
 6039SOL    HW219017   3.371   3.601   2.537
 6040SOL     OW19018   0.482   2.055   0.213
 6040SOL    HW119019   0.455   2.124   0.146
 6040SOL    HW219020   0.446   2.079   0.303
 6041SOL     OW19021   0.989   1.666   6.997
 6041SOL    HW119022   1.065   1.614   6.958
 6041SOL    HW219023   0.957   1.733   6.930
 6042SOL     OW19024   5.283   5.178   2.950
 6042SOL    HW119025   5.372   5.198   2.993
 6042SOL    HW219026   5.287   5.204   2.853
 6043SOL     OW19027   0.963   4.613   4.584
 6043SOL    HW119028   0.866   4.633   4.601
 6043SOL    HW219029   0.982   4.619   4.486
 6044SOL     OW19030   0.363   0.515   0.989
 6044SOL    HW119031   0.291   0.546   0.926
 6044SOL    HW219032   0.446   0.569   0.974
 6045SOL     OW19033   6.340   4.543   1.288
 6045SOL    HW119034   6.360   4.562   1.385
 6045SOL    HW219035   6.338   4.629   1.237
 6046SOL     OW19036   3.067   2.702   0.513
 6046SOL    HW119037   3.165   2.692   0.496
 6046SOL    HW219038   3.023   2.744   0.434
 6047SOL     OW19039   6.578   0.059   4.532
 6047SOL    HW119040   6.637   0.098   4.462
 6047SOL    HW219041   6.492   0.029   4.489
 6048SOL     OW19042   4.438   0.083   4.167
 6048SOL    HW119043   4.476   0.050   4.081
 6048SOL    HW219044   4.349   0.040   4.183
 6049SOL     OW19045   5.193   4.370   6.673
 6049SOL    HW119046   5.260   4.298   6.693
 6049SOL    HW219047   5.240   4.451   6.638
 6050SOL     OW19048   4.459   4.521   5.385
 6050SOL    HW119049   4.488   4.617   5.383
 6050SOL    HW219050   4.377   4.512   5.441
 6051SOL     OW19051   1.774   1.878   2.796
 6051SOL    HW119052   1.693   1.824   2.775
 6051SOL    HW219053   1.749   1.950   2.862
 6052SOL     OW19054   0.713   1.412   0.941
 6052SOL    HW119055   0.712   1.507   0.907
 6052SOL    HW219056   0.744   1.351   0.868
 6053SOL     OW19057   1.714   6.840   6.704
 6053SOL    HW119058   1.662   6.885   6.777
 6053SOL    HW219059   1.811   6.838   6.728
 6054SOL     OW19060   1.677   4.777   0.253
 6054SOL    HW119061   1.601   4.764   0.189
 6054SOL    HW219062   1.698   4.875   0.260
 6055SOL     OW19063   4.687   0.982   5.002
 6055SOL    HW119064   4.775   1.009   5.040
 6055SOL    HW219065   4.614   1.031   5.049
 6056SOL     OW19066   4.180   2.160   6.471
 6056SOL    HW119067   4.204   2.073   6.514
 6056SOL    HW219068   4.228   2.169   6.384
 6057SOL     OW19069   3.009   0.914   4.710
 6057SOL    HW119070   3.077   0.859   4.662
 6057SOL    HW219071   3.013   1.008   4.677
 6058SOL     OW19072   5.771   2.008   4.374
 6058SOL    HW119073   5.684   1.977   4.336
 6058SOL    HW219074   5.820   2.063   4.306
 6059SOL     OW19075   5.447   4.176   0.075
 6059SOL    HW119076   5.451   4.157   0.173
 6059SOL    HW219077   5.364   4.136   0.036
 6060SOL     OW19078   4.614   5.384   5.323
 6060SOL    HW119079   4.524   5.353   5.353
 6060SOL    HW219080   4.603   5.461   5.260
 6061SOL     OW19081   3.320   1.667   6.454
 6061SOL    HW119082   3.243   1.653   6.516
 6061SOL    HW219083   3.387   1.727   6.497
 6062SOL     OW19084   1.735   0.814   5.001
 6062SOL    HW119085   1.780   0.880   5.061
 6062SOL    HW219086   1.637   0.836   4.996
 6063SOL     OW19087   4.277   0.897   0.128
 6063SOL    HW119088   4.358   0.942   0.088
 6063SOL    HW219089   4.245   0.951   0.206
 6064SOL     OW19090   0.890   5.609   3.669
 6064SOL    HW119091   0.985   5.624   3.694
 6064SOL    HW219092   0.884   5.583   3.572
 6065SOL     OW19093   6.721   6.746   0.785
 6065SOL    HW119094   6.809   6.718   0.744
 6065SOL    HW219095   6.697   6.682   0.857
 6066SOL     OW19096   4.169   2.283   0.880
 6066SOL    HW119097   4.183   2.303   0.977
 6066SOL    HW219098   4.083   2.324   0.849
 6067SOL     OW19099   6.211   1.268   6.209
 6067SOL    HW119100   6.185   1.183   6.254
 6067SOL    HW219101   6.273   1.320   6.268
 6068SOL     OW19102   4.679   2.761   4.832
 6068SOL    HW119103   4.684   2.822   4.912
 6068SOL    HW219104   4.749   2.787   4.766
 6069SOL     OW19105   6.592   3.755   5.068
 6069SOL    HW119106   6.503   3.797   5.084
 6069SOL    HW219107   6.614   3.694   5.144
 6070SOL     OW19108   4.258   2.488   6.412
 6070SOL    HW119109   4.191   2.525   6.347
 6070SOL    HW219110   4.324   2.560   6.434
 6071SOL     OW19111   4.007   6.698   5.192
 6071SOL    HW119112   4.032   6.733   5.102
 6071SOL    HW219113   4.039   6.763   5.262
 6072SOL     OW19114   0.657   1.613   1.850
 6072SOL    HW119115   0.603   1.658   1.779
 6072SOL    HW219116   0.742   1.579   1.810
 6073SOL     OW19117   6.779   2.598   0.959
 6073SOL    HW119118   6.698   2.559   1.003
 6073SOL    HW219119   6.754   2.681   0.909
 6074SOL     OW19120   0.164   0.133   4.904
 6074SOL    HW119121   0.192   0.075   4.827
 6074SOL    HW219122   0.081   0.095   4.944
 6075SOL     OW19123   5.977   3.537   0.433
 6075SOL    HW119124   5.938   3.551   0.524
 6075SOL    HW219125   5.926   3.592   0.366
 6076SOL     OW19126   1.874   6.456   3.513
 6076SOL    HW119127   1.939   6.532   3.514
 6076SOL    HW219128   1.828   6.453   3.424
 6077SOL     OW19129   5.916   6.084   1.917
 6077SOL    HW119130   5.919   6.019   1.993
 6077SOL    HW219131   5.826   6.080   1.874
 6078SOL     OW19132   2.896   4.756   3.847
 6078SOL    HW119133   2.989   4.742   3.814
 6078SOL    HW219134   2.831   4.715   3.782
 6079SOL     OW19135   2.476   2.090   6.970
 6079SOL    HW119136   2.528   2.135   0.023
 6079SOL    HW219137   2.400   2.149   6.943
 6080SOL     OW19138   5.948   2.303   1.278
 6080SOL    HW119139   6.038   2.334   1.246
 6080SOL    HW219140   5.941   2.318   1.377
 6081SOL     OW19141   6.698   3.056   3.820
 6081SOL    HW119142   6.614   3.109   3.823
 6081SOL    HW219143   6.688   2.973   3.875
 6082SOL     OW19144   4.181   1.370   2.829
 6082SOL    HW119145   4.169   1.298   2.761
 6082SOL    HW219146   4.190   1.459   2.784
 6083SOL     OW19147   1.474   6.231   0.082
 6083SOL    HW119148   1.414   6.311   0.092
 6083SOL    HW219149   1.567   6.262   0.063
 6084SOL     OW19150   6.967   5.587   5.498
 6084SOL    HW119151   6.958   5.686   5.514
 6084SOL    HW219152   6.926   5.563   5.411
 6085SOL     OW19153   5.916   3.768   6.869
 6085SOL    HW119154   5.982   3.831   6.827
 6085SOL    HW219155   5.878   3.809   6.951
 6086SOL     OW19156   3.257   2.154   4.090
 6086SOL    HW119157   3.313   2.168   4.172
 6086SOL    HW219158   3.173   2.105   4.115
 6087SOL     OW19159   5.814   6.748   6.489
 6087SOL    HW119160   5.876   6.670   6.495
 6087SOL    HW219161   5.738   6.735   6.552
 6088SOL     OW19162   0.700   0.170   5.096
 6088SOL    HW119163   0.686   0.097   5.162
 6088SOL    HW219164   0.675   0.138   5.005
 6089SOL     OW19165   0.266   3.472   0.940
 6089SOL    HW119166   0.268   3.530   1.021
 6089SOL    HW219167   0.328   3.394   0.953
 6090SOL     OW19168   0.771   5.505   5.232
 6090SOL    HW119169   0.725   5.472   5.149
 6090SOL    HW219170   0.727   5.589   5.263
 6091SOL     OW19171   6.313   1.338   1.901
 6091SOL    HW119172   6.410   1.364   1.902
 6091SOL    HW219173   6.276   1.346   1.994
 6092SOL     OW19174   2.017   1.338   2.776
 6092SOL    HW119175   2.074   1.358   2.855
 6092SOL    HW219176   1.928   1.382   2.787
 6093SOL     OW19177   1.222   2.847   1.441
 6093SOL    HW119178   1.182   2.912   1.376
 6093SOL    HW219179   1.295   2.796   1.396
 6094SOL     OW19180   0.838   1.199   1.242
 6094SOL    HW119181   0.881   1.199   1.333
 6094SOL    HW219182   0.746   1.235   1.249
 6095SOL     OW19183   6.381   3.366   6.567
 6095SOL    HW119184   6.316   3.365   6.491
 6095SOL    HW219185   6.402   3.271   6.593
 6096SOL     OW19186   3.698   1.880   3.746
 6096SOL    HW119187   3.695   1.976   3.718
 6096SOL    HW219188   3.612   1.836   3.721
 6097SOL     OW19189   2.664   1.115   2.204
 6097SOL    HW119190   2.749   1.070   2.231
 6097SOL    HW219191   2.655   1.202   2.254
 6098SOL     OW19192   2.122   2.229   5.775
 6098SOL    HW119193   2.040   2.206   5.722
 6098SOL    HW219194   2.174   2.299   5.725
 6099SOL     OW19195   5.646   5.809   5.044
 6099SOL    HW119196   5.667   5.863   4.963
 6099SOL    HW219197   5.629   5.714   5.017
 6100SOL     OW19198   6.123   2.686   0.215
 6100SOL    HW119199   6.189   2.662   0.143
 6100SOL    HW219200   6.045   2.732   0.173
 6101SOL     OW19201   6.499   1.349   5.492
 6101SOL    HW119202   6.450   1.273   5.535
 6101SOL    HW219203   6.563   1.314   5.424
 6102SOL     OW19204   2.773   0.808   4.812
 6102SOL    HW119205   2.846   0.847   4.757
 6102SOL    HW219206   2.808   0.729   4.862
 6103SOL     OW19207   6.623   6.662   4.990
 6103SOL    HW119208   6.708   6.615   5.015
 6103SOL    HW219209   6.623   6.754   5.030
 6104SOL     OW19210   6.376   1.688   6.387
 6104SOL    HW119211   6.390   1.594   6.419
 6104SOL    HW219212   6.286   1.720   6.416
 6105SOL     OW19213   3.291   5.739   5.185
 6105SOL    HW119214   3.274   5.752   5.088
 6105SOL    HW219215   3.313   5.643   5.203
 6106SOL     OW19216   3.437   5.005   5.956
 6106SOL    HW119217   3.503   5.014   6.032
 6106SOL    HW219218   3.344   5.014   5.991
 6107SOL     OW19219   2.100   4.507   5.095
 6107SOL    HW119220   2.055   4.474   5.178
 6107SOL    HW219221   2.033   4.515   5.022
 6108SOL     OW19222   1.154   1.796   4.388
 6108SOL    HW119223   1.188   1.840   4.305
 6108SOL    HW219224   1.061   1.828   4.408
 6109SOL     OW19225   5.810   3.579   0.988
 6109SOL    HW119226   5.905   3.551   0.992
 6109SOL    HW219227   5.799   3.650   0.917
 6110SOL     OW19228   3.290   1.447   4.947
 6110SOL    HW119229   3.280   1.544   4.969
 6110SOL    HW219230   3.385   1.429   4.922
 6111SOL     OW19231   1.343   4.630   3.272
 6111SOL    HW119232   1.264   4.571   3.259
 6111SOL    HW219233   1.394   4.599   3.352
 6112SOL     OW19234   0.825   1.984   2.971
 6112SOL    HW119235   0.798   1.991   3.068
 6112SOL    HW219236   0.751   1.941   2.920
 6113SOL     OW19237   2.200   6.662   5.705
 6113SOL    HW119238   2.184   6.696   5.797
 6113SOL    HW219239   2.118   6.615   5.671
 6114SOL     OW19240   4.319   5.931   0.914
 6114SOL    HW119241   4.240   5.879   0.881
 6114SOL    HW219242   4.338   5.906   1.009
 6115SOL     OW19243   5.431   5.093   2.527
 6115SOL    HW119244   5.505   5.040   2.570
 6115SOL    HW219245   5.466   5.137   2.444
 6116SOL     OW19246   3.861   1.118   1.957
 6116SOL    HW119247   3.844   1.216   1.969
 6116SOL    HW219248   3.959   1.101   1.954
 6117SOL     OW19249   5.670   6.902   4.683
 6117SOL    HW119250   5.733   6.899   4.605
 6117SOL    HW219251   5.712   6.952   4.758
 6118SOL     OW19252   6.063   0.891   3.497
 6118SOL    HW119253   6.077   0.972   3.441
 6118SOL    HW219254   6.086   0.809   3.445
 6119SOL     OW19255   6.942   5.056   4.677
 6119SOL    HW119256   6.924   4.965   4.641
 6119SOL    HW219257   0.020   5.070   4.686
 6120SOL     OW19258   2.156   6.849   2.581
 6120SOL    HW119259   2.173   6.947   2.572
 6120SOL    HW219260   2.164   6.806   2.491
 6121SOL     OW19261   0.513   2.271   4.036
 6121SOL    HW119262   0.561   2.218   4.106
 6121SOL    HW219263   0.580   2.308   3.970
 6122SOL     OW19264   3.858   5.827   3.193
 6122SOL    HW119265   3.825   5.733   3.196
 6122SOL    HW219266   3.844   5.864   3.101
 6123SOL     OW19267   6.099   1.208   2.418
 6123SOL    HW119268   6.000   1.224   2.417
 6123SOL    HW219269   6.130   1.189   2.324
 6124SOL     OW19270   3.358   0.409   5.754
 6124SOL    HW119271   3.453   0.382   5.768
 6124SOL    HW219272   3.347   0.446   5.662
 6125SOL     OW19273   2.263   6.358   1.558
 6125SOL    HW119274   2.214   6.316   1.481
 6125SOL    HW219275   2.317   6.435   1.524
 6126SOL     OW19276   5.359   4.675   2.587
 6126SOL    HW119277   5.392   4.716   2.672
 6126SOL    HW219278   5.273   4.628   2.604
 6127SOL     OW19279   1.991   6.112   1.564
 6127SOL    HW119280   2.032   6.144   1.650
 6127SOL    HW219281   2.045   6.144   1.487
 6128SOL     OW19282   6.210   2.047   0.315
 6128SOL    HW119283   6.135   2.109   0.338
 6128SOL    HW219284   6.263   2.026   0.398
 6129SOL     OW19285   6.263   4.218   2.852
 6129SOL    HW119286   6.317   4.137   2.875
 6129SOL    HW219287   6.192   4.231   2.922
 6130SOL     OW19288   4.917   3.276   2.983
 6130SOL    HW119289   4.911   3.333   3.065
 6130SOL    HW219290   4.893   3.181   3.006
 6131SOL     OW19291   6.430   1.046   5.520
 6131SOL    HW119292   6.449   1.048   5.619
 6131SOL    HW219293   6.377   0.964   5.499
 6132SOL     OW19294   4.185   2.921   0.883
 6132SOL    HW119295   4.119   2.857   0.922
 6132SOL    HW219296   4.164   2.937   0.787
 6133SOL     OW19297   0.797   4.302   1.303
 6133SOL    HW119298   0.863   4.239   1.262
 6133SOL    HW219299   0.728   4.250   1.353
 6134SOL     OW19300   4.260   3.730   6.742
 6134SOL    HW119301   4.248   3.770   6.832
 6134SOL    HW219302   4.341   3.770   6.698
 6135SOL     OW19303   6.141   6.658   1.325
 6135SOL    HW119304   6.205   6.659   1.248
 6135SOL    HW219305   6.164   6.583   1.386
 6136SOL     OW19306   1.260   1.634   1.904
 6136SOL    HW119307   1.252   1.551   1.849
 6136SOL    HW219308   1.310   1.614   1.988
 6137SOL     OW19309   2.980   6.351   5.761
 6137SOL    HW119310   2.890   6.360   5.804
 6137SOL    HW219311   2.995   6.429   5.700
 6138SOL     OW19312   3.809   6.059   3.312
 6138SOL    HW119313   3.712   6.056   3.339
 6138SOL    HW219314   3.832   5.974   3.265
 6139SOL     OW19315   1.472   4.470   4.662
 6139SOL    HW119316   1.471   4.370   4.653
 6139SOL    HW219317   1.465   4.512   4.571
 6140SOL     OW19318   1.330   0.014   1.480
 6140SOL    HW119319   1.305   7.014   1.574
 6140SOL    HW219320   1.426   7.013   1.465
 6141SOL     OW19321   6.487   5.502   5.866
 6141SOL    HW119322   6.449   5.593   5.882
 6141SOL    HW219323   6.584   5.502   5.893
 6142SOL     OW19324   6.886   4.329   1.082
 6142SOL    HW119325   6.944   4.335   1.001
 6142SOL    HW219326   6.798   4.287   1.057
 6143SOL     OW19327   5.847   5.084   6.587
 6143SOL    HW119328   5.785   5.072   6.510
 6143SOL    HW219329   5.794   5.110   6.668
 6144SOL     OW19330   6.986   3.859   4.063
 6144SOL    HW119331   0.021   3.942   4.073
 6144SOL    HW219332   0.015   3.781   4.103
 6145SOL     OW19333   5.057   5.501   3.013
 6145SOL    HW119334   5.001   5.474   2.935
 6145SOL    HW219335   4.998   5.521   3.091
 6146SOL     OW19336   5.403   1.462   3.544
 6146SOL    HW119337   5.360   1.384   3.590
 6146SOL    HW219338   5.503   1.455   3.555
 6147SOL     OW19339   2.051   3.529   2.432
 6147SOL    HW119340   2.100   3.595   2.375
 6147SOL    HW219341   2.041   3.443   2.381
 6148SOL     OW19342   5.948   6.007   4.556
 6148SOL    HW119343   5.877   6.074   4.576
 6148SOL    HW219344   6.004   6.039   4.479
 6149SOL     OW19345   3.140   5.632   3.255
 6149SOL    HW119346   3.236   5.617   3.280
 6149SOL    HW219347   3.112   5.563   3.188
 6150SOL     OW19348   4.571   6.029   5.942
 6150SOL    HW119349   4.661   6.072   5.935
 6150SOL    HW219350   4.528   6.026   5.852
 6151SOL     OW19351   5.274   2.616   5.294
 6151SOL    HW119352   5.261   2.574   5.205
 6151SOL    HW219353   5.191   2.666   5.320
 6152SOL     OW19354   6.227   4.405   6.548
 6152SOL    HW119355   6.322   4.376   6.545
 6152SOL    HW219356   6.175   4.357   6.478
 6153SOL     OW19357   4.215   3.845   1.668
 6153SOL    HW119358   4.154   3.905   1.616
 6153SOL    HW219359   4.303   3.890   1.682
 6154SOL     OW19360   5.069   2.960   3.324
 6154SOL    HW119361   4.989   2.901   3.318
 6154SOL    HW219362   5.151   2.904   3.339
 6155SOL     OW19363   0.483   3.670   5.284
 6155SOL    HW119364   0.487   3.573   5.257
 6155SOL    HW219365   0.514   3.679   5.378
 6156SOL     OW19366   6.302   6.815   3.299
 6156SOL    HW119367   6.369   6.836   3.370
 6156SOL    HW219368   6.294   6.716   3.289
 6157SOL     OW19369   2.450   1.379   4.157
 6157SOL    HW119370   2.393   1.300   4.134
 6157SOL    HW219371   2.399   1.441   4.216
 6158SOL     OW19372   4.797   1.309   6.142
 6158SOL    HW119373   4.773   1.386   6.201
 6158SOL    HW219374   4.874   1.334   6.084
 6159SOL     OW19375   5.161   2.981   0.268
 6159SOL    HW119376   5.091   3.047   0.239
 6159SOL    HW219377   5.131   2.888   0.245
 6160SOL     OW19378   5.633   5.868   1.921
 6160SOL    HW119379   5.706   5.806   1.948
 6160SOL    HW219380   5.666   5.930   1.850
 6161SOL     OW19381   5.611   0.365   5.919
 6161SOL    HW119382   5.548   0.289   5.933
 6161SOL    HW219383   5.676   0.369   5.995
 6162SOL     OW19384   6.829   4.899   4.921
 6162SOL    HW119385   6.914   4.845   4.917
 6162SOL    HW219386   6.821   4.954   4.838
 6163SOL     OW19387   6.053   4.470   1.169
 6163SOL    HW119388   6.083   4.470   1.265
 6163SOL    HW219389   6.117   4.417   1.114
 6164SOL     OW19390   3.691   1.850   1.173
 6164SOL    HW119391   3.608   1.895   1.141
 6164SOL    HW219392   3.732   1.905   1.246
 6165SOL     OW19393   3.339   6.243   0.064
 6165SOL    HW119394   3.382   6.158   0.033
 6165SOL    HW219395   3.398   6.320   0.042
 6166SOL     OW19396   2.721   1.392   6.126
 6166SOL    HW119397   2.690   1.380   6.032
 6166SOL    HW219398   2.644   1.376   6.188
 6167SOL     OW19399   0.622   3.975   3.429
 6167SOL    HW119400   0.554   3.948   3.497
 6167SOL    HW219401   0.585   3.963   3.337
 6168SOL     OW19402   0.194   4.323   2.617
 6168SOL    HW119403   0.096   4.316   2.636
 6168SOL    HW219404   0.210   4.309   2.519
 6169SOL     OW19405   1.912   3.998   2.489
 6169SOL    HW119406   1.954   3.996   2.398
 6169SOL    HW219407   1.824   4.046   2.484
 6170SOL     OW19408   0.432   2.948   5.384
 6170SOL    HW119409   0.372   2.940   5.304
 6170SOL    HW219410   0.525   2.969   5.355
 6171SOL     OW19411   0.286   0.743   6.289
 6171SOL    HW119412   0.337   0.689   6.357
 6171SOL    HW219413   0.190   0.718   6.293
 6172SOL     OW19414   0.627   3.289   2.786
 6172SOL    HW119415   0.555   3.243   2.733
 6172SOL    HW219416   0.631   3.385   2.760
 6173SOL     OW19417   6.655   6.950   3.118
 6173SOL    HW119418   6.709   6.867   3.123
 6173SOL    HW219419   6.659   6.998   3.206
 6174SOL     OW19420   5.634   3.843   3.038
 6174SOL    HW119421   5.673   3.875   2.951
 6174SOL    HW219422   5.600   3.750   3.027
 6175SOL     OW19423   2.296   1.906   5.437
 6175SOL    HW119424   2.235   1.864   5.370
 6175SOL    HW219425   2.349   1.979   5.393
 6176SOL     OW19426   4.112   4.419   5.350
 6176SOL    HW119427   4.184   4.400   5.283
 6176SOL    HW219428   4.023   4.394   5.310
 6177SOL     OW19429   5.893   0.967   1.756
 6177SOL    HW119430   5.921   1.057   1.723
 6177SOL    HW219431   5.973   0.911   1.773
 6178SOL     OW19432   4.830   4.494   1.627
 6178SOL    HW119433   4.803   4.445   1.544
 6178SOL    HW219434   4.930   4.492   1.635
 6179SOL     OW19435   5.757   4.726   3.113
 6179SOL    HW119436   5.657   4.731   3.102
 6179SOL    HW219437   5.784   4.780   3.193
 6180SOL     OW19438   2.745   4.139   0.119
 6180SOL    HW119439   2.714   4.095   0.035
 6180SOL    HW219440   2.801   4.074   0.172
 6181SOL     OW19441   5.078   5.132   6.088
 6181SOL    HW119442   5.044   5.042   6.058
 6181SOL    HW219443   5.070   5.138   6.187
 6182SOL     OW19444   3.182   3.302   0.174
 6182SOL    HW119445   3.274   3.322   0.141
 6182SOL    HW219446   3.186   3.227   0.240
 6183SOL     OW19447   0.825   1.786   1.597
 6183SOL    HW119448   0.842   1.704   1.652
 6183SOL    HW219449   0.911   1.833   1.581
 6184SOL     OW19450   2.880   0.801   5.842
 6184SOL    HW119451   2.879   0.811   5.742
 6184SOL    HW219452   2.834   0.880   5.883
 6185SOL     OW19453   3.202   2.661   5.717
 6185SOL    HW119454   3.143   2.681   5.639
 6185SOL    HW219455   3.146   2.657   5.800
 6186SOL     OW19456   6.594   1.424   1.918
 6186SOL    HW119457   6.566   1.433   2.014
 6186SOL    HW219458   6.688   1.390   1.914
 6187SOL     OW19459   5.473   1.634   5.260
 6187SOL    HW119460   5.487   1.697   5.184
 6187SOL    HW219461   5.440   1.547   5.226
 6188SOL     OW19462   1.517   2.292   5.285
 6188SOL    HW119463   1.431   2.298   5.234
 6188SOL    HW219464   1.498   2.273   5.381
 6189SOL     OW19465   6.265   6.120   2.586
 6189SOL    HW119466   6.184   6.066   2.607
 6189SOL    HW219467   6.297   6.097   2.494
 6190SOL     OW19468   0.153   2.462   5.653
 6190SOL    HW119469   0.205   2.413   5.723
 6190SOL    HW219470   0.166   2.561   5.665
 6191SOL     OW19471   3.694   3.488   6.506
 6191SOL    HW119472   3.615   3.539   6.541
 6191SOL    HW219473   3.775   3.546   6.511
 6192SOL     OW19474   2.930   1.549   0.007
 6192SOL    HW119475   2.919   1.538   0.105
 6192SOL    HW219476   2.926   1.460   6.982
 6193SOL     OW19477   4.581   5.552   6.719
 6193SOL    HW119478   4.636   5.615   6.774
 6193SOL    HW219479   4.623   5.461   6.721
 6194SOL     OW19480   6.539   0.210   6.058
 6194SOL    HW119481   6.631   0.200   6.019
 6194SOL    HW219482   6.481   0.258   5.992
 6195SOL     OW19483   6.635   6.615   5.644
 6195SOL    HW119484   6.726   6.599   5.683
 6195SOL    HW219485   6.643   6.679   5.567
 6196SOL     OW19486   5.943   3.702   3.348
 6196SOL    HW119487   6.007   3.656   3.287
 6196SOL    HW219488   5.853   3.704   3.306
 6197SOL     OW19489   3.100   5.746   1.899
 6197SOL    HW119490   3.158   5.821   1.868
 6197SOL    HW219491   3.157   5.671   1.933
 6198SOL     OW19492   6.368   6.588   6.095
 6198SOL    HW119493   6.435   6.627   6.032
 6198SOL    HW219494   6.357   6.648   6.174
 6199SOL     OW19495   1.302   0.321   0.929
 6199SOL    HW119496   1.262   0.235   0.898
 6199SOL    HW219497   1.355   0.306   1.012
 6200SOL     OW19498   1.669   2.308   3.112
 6200SOL    HW119499   1.765   2.291   3.089
 6200SOL    HW219500   1.617   2.223   3.101
 6201SOL     OW19501   6.966   3.425   4.022
 6201SOL    HW119502   0.043   3.448   4.026
 6201SOL    HW219503   6.946   3.353   4.089
 6202SOL     OW19504   5.876   1.716   2.485
 6202SOL    HW119505   5.961   1.769   2.479
 6202SOL    HW219506   5.895   1.627   2.527
 6203SOL     OW19507   6.838   6.015   2.318
 6203SOL    HW119508   6.848   5.968   2.231
 6203SOL    HW219509   6.881   6.106   2.313
 6204SOL     OW19510   2.171   6.912   5.268
 6204SOL    HW119511   2.199   6.910   5.364
 6204SOL    HW219512   2.094   6.851   5.254
 6205SOL     OW19513   5.250   3.916   3.183
 6205SOL    HW119514   5.319   3.974   3.140
 6205SOL    HW219515   5.218   3.848   3.118
 6206SOL     OW19516   5.241   2.221   3.604
 6206SOL    HW119517   5.196   2.277   3.673
 6206SOL    HW219518   5.282   2.280   3.535
 6207SOL     OW19519   2.185   5.515   4.173
 6207SOL    HW119520   2.206   5.477   4.084
 6207SOL    HW219521   2.108   5.466   4.213
 6208SOL     OW19522   3.690   3.209   5.834
 6208SOL    HW119523   3.669   3.290   5.889
 6208SOL    HW219524   3.652   3.128   5.879
 6209SOL     OW19525   3.453   2.961   1.067
 6209SOL    HW119526   3.499   3.019   1.134
 6209SOL    HW219527   3.423   2.876   1.111
 6210SOL     OW19528   4.711   1.835   3.869
 6210SOL    HW119529   4.782   1.898   3.901
 6210SOL    HW219530   4.652   1.883   3.804
 6211SOL     OW19531   5.863   5.061   4.839
 6211SOL    HW119532   5.876   4.975   4.887
 6211SOL    HW219533   5.944   5.119   4.854
 6212SOL     OW19534   4.319   4.725   5.569
 6212SOL    HW119535   4.396   4.766   5.519
 6212SOL    HW219536   4.237   4.728   5.513
 6213SOL     OW19537   4.446   5.960   0.121
 6213SOL    HW119538   4.506   6.040   0.112
 6213SOL    HW219539   4.465   5.914   0.208
 6214SOL     OW19540   5.787   5.695   6.577
 6214SOL    HW119541   5.830   5.779   6.609
 6214SOL    HW219542   5.751   5.644   6.655
 6215SOL     OW19543   5.981   2.698   5.833
 6215SOL    HW119544   5.953   2.615   5.785
 6215SOL    HW219545   6.020   2.763   5.768
 6216SOL     OW19546   4.555   2.119   2.995
 6216SOL    HW119547   4.596   2.137   2.905
 6216SOL    HW219548   4.514   2.204   3.030
 6217SOL     OW19549   0.526   4.782   2.290
 6217SOL    HW119550   0.465   4.733   2.352
 6217SOL    HW219551   0.597   4.720   2.257
 6218SOL     OW19552   4.811   6.779   6.707
 6218SOL    HW119553   4.844   6.685   6.700
 6218SOL    HW219554   4.888   6.842   6.717
 6219SOL     OW19555   0.873   0.757   6.094
 6219SOL    HW119556   0.868   0.790   6.189
 6219SOL    HW219557   0.804   0.805   6.039
 6220SOL     OW19558   4.261   0.882   1.045
 6220SOL    HW119559   4.357   0.895   1.019
 6220SOL    HW219560   4.229   0.964   1.093
 6221SOL     OW19561   6.189   5.595   6.570
 6221SOL    HW119562   6.200   5.515   6.630
 6221SOL    HW219563   6.106   5.585   6.516
 6222SOL     OW19564   6.278   1.593   2.593
 6222SOL    HW119565   6.365   1.631   2.562
 6222SOL    HW219566   6.284   1.493   2.594
 6223SOL     OW19567   0.277   4.785   3.490
 6223SOL    HW119568   0.219   4.864   3.472
 6223SOL    HW219569   0.341   4.806   3.564
 6224SOL     OW19570   4.015   1.539   6.374
 6224SOL    HW119571   4.027   1.627   6.328
 6224SOL    HW219572   4.025   1.551   6.473
 6225SOL     OW19573   4.493   6.760   6.497
 6225SOL    HW119574   4.525   6.843   6.544
 6225SOL    HW219575   4.561   6.688   6.507
 6226SOL     OW19576   1.288   1.033   4.741
 6226SOL    HW119577   1.374   1.064   4.782
 6226SOL    HW219578   1.230   0.994   4.813
 6227SOL     OW19579   2.773   3.944   5.369
 6227SOL    HW119580   2.798   4.032   5.330
 6227SOL    HW219581   2.854   3.899   5.405
 6228SOL     OW19582   1.831   3.019   4.024
 6228SOL    HW119583   1.826   3.115   4.052
 6228SOL    HW219584   1.767   3.002   3.950
 6229SOL     OW19585   0.299   3.814   4.036
 6229SOL    HW119586   0.216   3.798   4.089
 6229SOL    HW219587   0.380   3.796   4.092
 6230SOL     OW19588   0.195   0.930   2.218
 6230SOL    HW119589   0.151   0.938   2.307
 6230SOL    HW219590   0.198   0.833   2.191
 6231SOL     OW19591   1.222   5.379   0.173
 6231SOL    HW119592   1.199   5.282   0.175
 6231SOL    HW219593   1.159   5.430   0.232
 6232SOL     OW19594   4.264   1.392   6.310
 6232SOL    HW119595   4.269   1.392   6.210
 6232SOL    HW219596   4.171   1.411   6.338
 6233SOL     OW19597   6.992   3.629   1.880
 6233SOL    HW119598   0.025   3.612   1.798
 6233SOL    HW219599   6.963   3.725   1.882
 6234SOL     OW19600   5.006   6.427   4.998
 6234SOL    HW119601   4.995   6.523   5.024
 6234SOL    HW219602   4.996   6.369   5.079
 6235SOL     OW19603   6.375   0.725   3.156
 6235SOL    HW119604   6.433   0.806   3.158
 6235SOL    HW219605   6.303   0.733   3.224
 6236SOL     OW19606   0.967   4.944   0.896
 6236SOL    HW119607   0.931   4.858   0.861
 6236SOL    HW219608   0.907   4.978   0.968
 6237SOL     OW19609   3.735   1.290   0.990
 6237SOL    HW119610   3.668   1.264   0.922
 6237SOL    HW219611   3.822   1.312   0.946
 6238SOL     OW19612   2.180   6.833   4.465
 6238SOL    HW119613   2.173   6.784   4.552
 6238SOL    HW219614   2.276   6.857   4.448
 6239SOL     OW19615   4.766   1.499   3.502
 6239SOL    HW119616   4.849   1.532   3.548
 6239SOL    HW219617   4.791   1.457   3.415
 6240SOL     OW19618   4.142   3.617   4.112
 6240SOL    HW119619   4.129   3.689   4.181
 6240SOL    HW219620   4.223   3.563   4.135
 6241SOL     OW19621   3.491   0.040   2.805
 6241SOL    HW119622   3.436   0.093   2.870
 6241SOL    HW219623   3.588   0.054   2.824
 6242SOL     OW19624   2.656   2.142   3.834
 6242SOL    HW119625   2.743   2.190   3.840
 6242SOL    HW219626   2.592   2.181   3.900
 6243SOL     OW19627   5.023   0.864   5.851
 6243SOL    HW119628   5.068   0.946   5.887
 6243SOL    HW219629   4.978   0.815   5.926
 6244SOL     OW19630   4.471   4.631   3.010
 6244SOL    HW119631   4.421   4.632   2.923
 6244SOL    HW219632   4.442   4.708   3.067
 6245SOL     OW19633   0.824   4.485   2.548
 6245SOL    HW119634   0.806   4.545   2.626
 6245SOL    HW219635   0.740   4.435   2.525
 6246SOL     OW19636   6.627   6.148   4.333
 6246SOL    HW119637   6.597   6.243   4.346
 6246SOL    HW219638   6.629   6.127   4.235
 6247SOL     OW19639   6.648   6.762   2.425
 6247SOL    HW119640   6.710   6.781   2.501
 6247SOL    HW219641   6.607   6.672   2.437
 6248SOL     OW19642   3.178   3.357   6.176
 6248SOL    HW119643   3.228   3.305   6.246
 6248SOL    HW219644   3.149   3.444   6.215
 6249SOL     OW19645   6.132   3.359   1.675
 6249SOL    HW119646   6.150   3.402   1.587
 6249SOL    HW219647   6.040   3.320   1.675
 6250SOL     OW19648   6.721   7.005   0.506
 6250SOL    HW119649   6.737   6.945   0.427
 6250SOL    HW219650   6.624   7.008   0.526
 6251SOL     OW19651   2.713   6.641   4.021
 6251SOL    HW119652   2.683   6.557   3.977
 6251SOL    HW219653   2.718   6.715   3.954
 6252SOL     OW19654   2.528   5.179   6.876
 6252SOL    HW119655   2.523   5.187   6.777
 6252SOL    HW219656   2.507   5.085   6.903
 6253SOL     OW19657   3.782   4.945   5.302
 6253SOL    HW119658   3.808   4.865   5.356
 6253SOL    HW219659   3.800   4.928   5.205
 6254SOL     OW19660   0.439   6.723   1.306
 6254SOL    HW119661   0.391   6.782   1.241
 6254SOL    HW219662   0.528   6.762   1.327
 6255SOL     OW19663   0.325   1.152   2.203
 6255SOL    HW119664   0.292   1.219   2.137
 6255SOL    HW219665   0.267   1.070   2.201
 6256SOL     OW19666   4.777   5.866   2.361
 6256SOL    HW119667   4.805   5.818   2.444
 6256SOL    HW219668   4.693   5.917   2.379
 6257SOL     OW19669   3.793   4.197   1.536
 6257SOL    HW119670   3.721   4.139   1.573
 6257SOL    HW219671   3.757   4.250   1.458
 6258SOL     OW19672   4.099   6.082   5.476
 6258SOL    HW119673   4.068   6.170   5.510
 6258SOL    HW219674   4.103   6.016   5.551
 6259SOL     OW19675   2.710   0.527   4.568
 6259SOL    HW119676   2.627   0.562   4.525
 6259SOL    HW219677   2.784   0.594   4.557
 6260SOL     OW19678   1.813   1.688   0.475
 6260SOL    HW119679   1.880   1.734   0.534
 6260SOL    HW219680   1.860   1.619   0.420
 6261SOL     OW19681   3.654   6.922   1.077
 6261SOL    HW119682   3.753   6.914   1.093
 6261SOL    HW219683   3.618   6.999   1.130
 6262SOL     OW19684   6.568   0.256   2.450
 6262SOL    HW119685   6.629   0.195   2.400
 6262SOL    HW219686   6.515   0.203   2.516
 6263SOL     OW19687   6.185   6.032   6.322
 6263SOL    HW119688   6.276   6.037   6.282
 6263SOL    HW219689   6.148   5.940   6.311
 6264SOL     OW19690   1.839   7.013   0.612
 6264SOL    HW119691   1.776   6.980   0.542
 6264SOL    HW219692   1.822   6.964   0.698
 6265SOL     OW19693   4.841   1.087   0.130
 6265SOL    HW119694   4.895   1.149   0.187
 6265SOL    HW219695   4.860   0.993   0.155
 6266SOL     OW19696   2.632   5.173   2.754
 6266SOL    HW119697   2.726   5.206   2.757
 6266SOL    HW219698   2.585   5.211   2.674
 6267SOL     OW19699   1.582   6.317   4.876
 6267SOL    HW119700   1.678   6.300   4.856
 6267SOL    HW219701   1.564   6.415   4.879
 6268SOL     OW19702   3.490   1.291   1.431
 6268SOL    HW119703   3.522   1.259   1.520
 6268SOL    HW219704   3.470   1.389   1.435
 6269SOL     OW19705   6.155   5.288   0.310
 6269SOL    HW119706   6.185   5.367   0.362
 6269SOL    HW219707   6.217   5.211   0.327
 6270SOL     OW19708   2.005   6.465   6.984
 6270SOL    HW119709   1.951   6.451   6.901
 6270SOL    HW219710   2.060   6.383   7.002
 6271SOL     OW19711   5.699   3.186   6.347
 6271SOL    HW119712   5.685   3.283   6.367
 6271SOL    HW219713   5.724   3.176   6.251
 6272SOL     OW19714   0.646   0.066   0.580
 6272SOL    HW119715   0.608   0.069   0.488
 6272SOL    HW219716   0.721   7.019   0.582
 6273SOL     OW19717   0.053   6.448   1.414
 6273SOL    HW119718   0.051   6.546   1.391
 6273SOL    HW219719   0.139   6.408   1.380
 6274SOL     OW19720   3.302   5.909   4.116
 6274SOL    HW119721   3.212   5.897   4.158
 6274SOL    HW219722   3.328   5.825   4.069
 6275SOL     OW19723   1.979   5.359   6.871
 6275SOL    HW119724   1.968   5.427   6.799
 6275SOL    HW219725   2.074   5.329   6.874
 6276SOL     OW19726   1.356   5.635   2.918
 6276SOL    HW119727   1.344   5.676   3.009
 6276SOL    HW219728   1.417   5.692   2.863
 6277SOL     OW19729   5.155   3.708   1.216
 6277SOL    HW119730   5.058   3.686   1.210
 6277SOL    HW219731   5.200   3.646   1.280
 6278SOL     OW19732   2.533   1.014   6.102
 6278SOL    HW119733   2.443   1.050   6.080
 6278SOL    HW219734   2.531   0.972   6.193
 6279SOL     OW19735   2.825   0.033   1.510
 6279SOL    HW119736   2.726   0.025   1.500
 6279SOL    HW219737   2.847   0.115   1.561
 6280SOL     OW19738   6.401   2.097   0.111
 6280SOL    HW119739   6.393   2.196   0.094
 6280SOL    HW219740   6.359   2.075   0.199
 6281SOL     OW19741   5.994   3.906   5.727
 6281SOL    HW119742   6.058   3.940   5.797
 6281SOL    HW219743   6.000   3.806   5.723
 6282SOL     OW19744   0.120   3.128   5.881
 6282SOL    HW119745   0.165   3.189   5.816
 6282SOL    HW219746   0.155   3.036   5.872
 6283SOL     OW19747   1.196   5.870   4.508
 6283SOL    HW119748   1.114   5.894   4.559
 6283SOL    HW219749   1.277   5.904   4.556
 6284SOL     OW19750   1.986   4.118   6.545
 6284SOL    HW119751   1.957   4.115   6.449
 6284SOL    HW219752   2.085   4.107   6.551
 6285SOL     OW19753   0.885   3.953   3.383
 6285SOL    HW119754   0.918   4.034   3.334
 6285SOL    HW219755   0.786   3.957   3.392
 6286SOL     OW19756   1.036   2.713   6.567
 6286SOL    HW119757   1.021   2.810   6.550
 6286SOL    HW219758   0.964   2.678   6.627
 6287SOL     OW19759   4.695   4.778   4.834
 6287SOL    HW119760   4.732   4.869   4.854
 6287SOL    HW219761   4.762   4.708   4.859
 6288SOL     OW19762   3.555   3.036   6.577
 6288SOL    HW119763   3.524   2.947   6.543
 6288SOL    HW219764   3.511   3.056   6.665
 6289SOL     OW19765   2.927   4.032   5.673
 6289SOL    HW119766   2.883   4.119   5.696
 6289SOL    HW219767   2.992   4.046   5.598
 6290SOL     OW19768   5.142   5.797   4.104
 6290SOL    HW119769   5.121   5.876   4.047
 6290SOL    HW219770   5.229   5.811   4.150
 6291SOL     OW19771   3.808   3.785   3.326
 6291SOL    HW119772   3.714   3.777   3.359
 6291SOL    HW219773   3.852   3.863   3.371
 6292SOL     OW19774   1.577   3.220   4.121
 6292SOL    HW119775   1.643   3.262   4.182
 6292SOL    HW219776   1.546   3.133   4.161
 6293SOL     OW19777   3.897   1.124   6.540
 6293SOL    HW119778   3.953   1.099   6.618
 6293SOL    HW219779   3.936   1.086   6.456
 6294SOL     OW19780   1.633   1.235   3.380
 6294SOL    HW119781   1.654   1.205   3.287
 6294SOL    HW219782   1.670   1.328   3.393
 6295SOL     OW19783   5.270   3.948   5.820
 6295SOL    HW119784   5.308   3.990   5.738
 6295SOL    HW219785   5.332   3.963   5.897
 6296SOL     OW19786   0.648   2.677   6.924
 6296SOL    HW119787   0.703   2.637   6.997
 6296SOL    HW219788   0.706   2.733   6.865
 6297SOL     OW19789   5.858   1.022   4.003
 6297SOL    HW119790   5.951   1.033   4.037
 6297SOL    HW219791   5.860   1.006   3.904
 6298SOL     OW19792   6.350   5.630   0.734
 6298SOL    HW119793   6.270   5.664   0.784
 6298SOL    HW219794   6.399   5.707   0.693
 6299SOL     OW19795   4.294   1.502   2.565
 6299SOL    HW119796   4.346   1.562   2.626
 6299SOL    HW219797   4.241   1.557   2.501
 6300SOL     OW19798   2.897   1.076   6.376
 6300SOL    HW119799   2.904   0.986   6.332
 6300SOL    HW219800   2.916   1.147   6.308
 6301SOL     OW19801   3.714   6.210   6.904
 6301SOL    HW119802   3.807   6.174   6.911
 6301SOL    HW219803   3.648   6.140   6.932
 6302SOL     OW19804   3.034   1.800   6.418
 6302SOL    HW119805   2.985   1.887   6.409
 6302SOL    HW219806   3.096   1.805   6.496
 6303SOL     OW19807   0.898   5.927   4.974
 6303SOL    HW119808   0.882   5.865   4.898
 6303SOL    HW219809   0.819   5.925   5.036
 6304SOL     OW19810   4.373   0.687   3.110
 6304SOL    HW119811   4.324   0.721   3.191
 6304SOL    HW219812   4.422   0.763   3.067
 6305SOL     OW19813   1.074   6.194   6.046
 6305SOL    HW119814   1.087   6.207   6.144
 6305SOL    HW219815   1.114   6.107   6.018
 6306SOL     OW19816   0.465   4.294   4.508
 6306SOL    HW119817   0.552   4.342   4.507
 6306SOL    HW219818   0.406   4.329   4.435
 6307SOL     OW19819   3.941   3.735   3.089
 6307SOL    HW119820   3.914   3.763   3.182
 6307SOL    HW219821   3.926   3.637   3.078
 6308SOL     OW19822   0.003   2.322   0.540
 6308SOL    HW119823   6.960   2.318   0.617
 6308SOL    HW219824   0.095   2.301   0.571
 6309SOL     OW19825   2.159   6.087   4.573
 6309SOL    HW119826   2.064   6.093   4.605
 6309SOL    HW219827   2.191   6.178   4.548
 6310SOL     OW19828   1.346   6.652   3.136
 6310SOL    HW119829   1.272   6.590   3.158
 6310SOL    HW219830   1.434   6.609   3.155
 6311SOL     OW19831   5.101   0.668   5.409
 6311SOL    HW119832   5.134   0.590   5.357
 6311SOL    HW219833   5.162   0.746   5.395
 6312SOL     OW19834   3.423   6.032   6.456
 6312SOL    HW119835   3.496   5.965   6.467
 6312SOL    HW219836   3.463   6.122   6.440
 6313SOL     OW19837   5.713   5.606   4.441
 6313SOL    HW119838   5.627   5.648   4.413
 6313SOL    HW219839   5.717   5.513   4.406
 6314SOL     OW19840   1.751   6.946   2.550
 6314SOL    HW119841   1.840   6.945   2.505
 6314SOL    HW219842   1.763   6.932   2.648
 6315SOL     OW19843   1.989   2.339   4.681
 6315SOL    HW119844   1.897   2.363   4.649
 6315SOL    HW219845   2.044   2.422   4.690
 6316SOL     OW19846   4.954   0.978   4.503
 6316SOL    HW119847   4.970   1.047   4.574
 6316SOL    HW219848   4.884   0.914   4.536
 6317SOL     OW19849   5.156   5.064   1.686
 6317SOL    HW119850   5.095   5.142   1.694
 6317SOL    HW219851   5.125   4.990   1.746
 6318SOL     OW19852   6.575   6.865   6.209
 6318SOL    HW119853   6.625   6.886   6.125
 6318SOL    HW219854   6.502   6.932   6.222
 6319SOL     OW19855   5.223   1.072   4.430
 6319SOL    HW119856   5.194   1.164   4.403
 6319SOL    HW219857   5.143   1.011   4.432
 6320SOL     OW19858   6.385   0.305   5.848
 6320SOL    HW119859   6.392   0.321   5.750
 6320SOL    HW219860   6.288   0.303   5.875
 6321SOL     OW19861   5.918   2.011   6.748
 6321SOL    HW119862   5.981   2.070   6.697
 6321SOL    HW219863   5.825   2.046   6.738
 6322SOL     OW19864   1.170   1.267   1.989
 6322SOL    HW119865   1.260   1.306   2.008
 6322SOL    HW219866   1.141   1.296   1.897
 6323SOL     OW19867   2.623   4.130   1.292
 6323SOL    HW119868   2.678   4.082   1.223
 6323SOL    HW219869   2.527   4.128   1.265
 6324SOL     OW19870   5.095   1.494   1.041
 6324SOL    HW119871   5.076   1.585   1.006
 6324SOL    HW219872   5.164   1.500   1.114
 6325SOL     OW19873   1.940   2.786   3.844
 6325SOL    HW119874   2.028   2.741   3.823
 6325SOL    HW219875   1.907   2.834   3.762
 6326SOL     OW19876   5.374   4.897   5.893
 6326SOL    HW119877   5.416   4.840   5.823
 6326SOL    HW219878   5.426   4.981   5.903
 6327SOL     OW19879   0.201   0.819   3.878
 6327SOL    HW119880   0.206   0.917   3.898
 6327SOL    HW219881   0.167   0.770   3.958
 6328SOL     OW19882   4.468   3.514   5.321
 6328SOL    HW119883   4.549   3.506   5.263
 6328SOL    HW219884   4.421   3.600   5.302
 6329SOL     OW19885   1.257   2.246   5.774
 6329SOL    HW119886   1.267   2.153   5.739
 6329SOL    HW219887   1.177   2.289   5.733
 6330SOL     OW19888   5.135   1.503   3.490
 6330SOL    HW119889   5.091   1.591   3.508
 6330SOL    HW219890   5.227   1.519   3.453
 6331SOL     OW19891   0.808   3.333   3.538
 6331SOL    HW119892   0.745   3.409   3.525
 6331SOL    HW219893   0.836   3.328   3.634
 6332SOL     OW19894   3.052   1.764   0.162
 6332SOL    HW119895   3.103   1.756   0.077
 6332SOL    HW219896   3.100   1.717   0.236
 6333SOL     OW19897   5.373   1.937   0.558
 6333SOL    HW119898   5.283   1.969   0.586
 6333SOL    HW219899   5.420   2.010   0.507
 6334SOL     OW19900   1.464   1.574   2.366
 6334SOL    HW119901   1.545   1.628   2.390
 6334SOL    HW219902   1.444   1.586   2.269
 6335SOL     OW19903   6.505   1.349   0.274
 6335SOL    HW119904   6.444   1.270   0.282
 6335SOL    HW219905   6.454   1.427   0.240
 6336SOL     OW19906   0.593   2.857   5.678
 6336SOL    HW119907   0.663   2.865   5.607
 6336SOL    HW219908   0.612   2.777   5.734
 6337SOL     OW19909   4.726   5.138   5.227
 6337SOL    HW119910   4.789   5.196   5.175
 6337SOL    HW219911   4.656   5.195   5.270
 6338SOL     OW19912   2.615   1.533   3.232
 6338SOL    HW119913   2.568   1.620   3.215
 6338SOL    HW219914   2.705   1.535   3.189
 6339SOL     OW19915   0.721   4.636   3.140
 6339SOL    HW119916   0.666   4.710   3.100
 6339SOL    HW219917   0.706   4.634   3.239
 6340SOL     OW19918   2.167   4.204   1.182
 6340SOL    HW119919   2.106   4.279   1.209
 6340SOL    HW219920   2.210   4.227   1.095
 6341SOL     OW19921   0.319   5.297   3.685
 6341SOL    HW119922   0.386   5.324   3.754
 6341SOL    HW219923   0.362   5.235   3.619
 6342SOL     OW19924   1.922   1.647   1.469
 6342SOL    HW119925   1.962   1.556   1.466
 6342SOL    HW219926   1.985   1.709   1.516
 6343SOL     OW19927   1.277   5.899   1.214
 6343SOL    HW119928   1.321   5.952   1.285
 6343SOL    HW219929   1.322   5.916   1.126
 6344SOL     OW19930   6.672   1.321   3.964
 6344SOL    HW119931   6.723   1.235   3.973
 6344SOL    HW219932   6.696   1.363   3.876
 6345SOL     OW19933   5.648   3.705   2.085
 6345SOL    HW119934   5.605   3.795   2.093
 6345SOL    HW219935   5.748   3.714   2.091
 6346SOL     OW19936   6.600   4.189   5.388
 6346SOL    HW119937   6.608   4.250   5.467
 6346SOL    HW219938   6.592   4.244   5.305
 6347SOL     OW19939   1.854   1.875   3.106
 6347SOL    HW119940   1.867   1.788   3.058
 6347SOL    HW219941   1.940   1.926   3.107
 6348SOL     OW19942   0.075   2.121   5.867
 6348SOL    HW119943   0.170   2.110   5.896
 6348SOL    HW219944   0.032   2.193   5.921
 6349SOL     OW19945   6.957   1.362   6.973
 6349SOL    HW119946   6.998   1.387   0.041
 6349SOL    HW219947   0.006   1.319   6.915
 6350SOL     OW19948   1.192   5.053   1.757
 6350SOL    HW119949   1.291   5.070   1.759
 6350SOL    HW219950   1.173   4.976   1.696
 6351SOL     OW19951   5.733   2.944   1.963
 6351SOL    HW119952   5.726   2.847   1.940
 6351SOL    HW219953   5.668   2.966   2.036
 6352SOL     OW19954   2.804   0.280   4.455
 6352SOL    HW119955   2.824   0.221   4.532
 6352SOL    HW219956   2.763   0.365   4.488
 6353SOL     OW19957   3.682   5.957   5.778
 6353SOL    HW119958   3.599   5.944   5.832
 6353SOL    HW219959   3.745   5.881   5.796
 6354SOL     OW19960   4.604   5.509   1.835
 6354SOL    HW119961   4.546   5.471   1.907
 6354SOL    HW219962   4.700   5.504   1.863
 6355SOL     OW19963   2.491   4.694   1.000
 6355SOL    HW119964   2.585   4.729   1.002
 6355SOL    HW219965   2.429   4.763   1.038
 6356SOL     OW19966   6.176   4.632   6.263
 6356SOL    HW119967   6.150   4.729   6.268
 6356SOL    HW219968   6.220   4.605   6.349
 6357SOL     OW19969   5.902   1.206   1.410
 6357SOL    HW119970   5.997   1.219   1.440
 6357SOL    HW219971   5.899   1.199   1.310
 6358SOL     OW19972   1.225   2.035   6.619
 6358SOL    HW119973   1.149   2.069   6.675
 6358SOL    HW219974   1.242   2.100   6.545
 6359SOL     OW19975   5.538   6.427   0.494
 6359SOL    HW119976   5.440   6.416   0.506
 6359SOL    HW219977   5.572   6.500   0.553
 6360SOL     OW19978   1.060   2.644   2.128
 6360SOL    HW119979   1.079   2.567   2.067
 6360SOL    HW219980   1.004   2.612   2.205
 6361SOL     OW19981   0.282   0.482   6.829
 6361SOL    HW119982   0.379   0.471   6.808
 6361SOL    HW219983   0.273   0.519   6.922
 6362SOL     OW19984   1.250   5.930   0.608
 6362SOL    HW119985   1.335   5.892   0.573
 6362SOL    HW219986   1.217   5.875   0.685
 6363SOL     OW19987   2.357   4.302   3.269
 6363SOL    HW119988   2.302   4.221   3.291
 6363SOL    HW219989   2.309   4.384   3.302
 6364SOL     OW19990   2.278   2.555   4.317
 6364SOL    HW119991   2.266   2.517   4.409
 6364SOL    HW219992   2.283   2.655   4.323
 6365SOL     OW19993   5.863   5.492   3.242
 6365SOL    HW119994   5.912   5.497   3.329
 6365SOL    HW219995   5.832   5.584   3.216
 6366SOL     OW19996   5.973   0.152   4.948
 6366SOL    HW119997   6.000   0.155   5.044
 6366SOL    HW219998   5.940   0.242   4.919
 6367SOL     OW19999   2.276   2.136   2.071
 6367SOL    HW120000   2.315   2.167   2.159
 6367SOL    HW220001   2.183   2.104   2.086
 6368SOL     OW20002   4.810   3.032   4.472
 6368SOL    HW120003   4.777   2.963   4.408
 6368SOL    HW220004   4.865   2.988   4.543
 6369SOL     OW20005   3.993   5.420   6.710
 6369SOL    HW120006   3.928   5.364   6.660
 6369SOL    HW220007   3.947   5.463   6.788
 6370SOL     OW20008   5.159   3.550   4.304
 6370SOL    HW120009   5.189   3.545   4.209
 6370SOL    HW220010   5.231   3.592   4.359
 6371SOL     OW20011   4.821   4.113   1.446
 6371SOL    HW120012   4.891   4.041   1.453
 6371SOL    HW220013   4.787   4.137   1.537
 6372SOL     OW20014   6.521   1.686   2.515
 6372SOL    HW120015   6.521   1.785   2.531
 6372SOL    HW220016   6.582   1.665   2.439
 6373SOL     OW20017   4.567   4.387   1.232
 6373SOL    HW120018   4.493   4.341   1.183
 6373SOL    HW220019   4.564   4.485   1.213
 6374SOL     OW20020   4.674   3.707   6.923
 6374SOL    HW120021   4.720   3.628   6.964
 6374SOL    HW220022   4.740   3.782   6.912
 6375SOL     OW20023   5.584   2.203   1.928
 6375SOL    HW120024   5.513   2.136   1.946
 6375SOL    HW220025   5.565   2.287   1.979
 6376SOL     OW20026   3.805   1.365   6.410
 6376SOL    HW120027   3.826   1.300   6.483
 6376SOL    HW220028   3.878   1.432   6.403
 6377SOL     OW20029   6.474   0.309   0.577
 6377SOL    HW120030   6.468   0.402   0.542
 6377SOL    HW220031   6.550   0.261   0.533
 6378SOL     OW20032   5.526   5.510   1.852
 6378SOL    HW120033   5.501   5.489   1.757
 6378SOL    HW220034   5.475   5.590   1.884
 6379SOL     OW20035   2.169   5.943   6.525
 6379SOL    HW120036   2.136   6.011   6.591
 6379SOL    HW220037   2.260   5.971   6.492
 6380SOL     OW20038   1.281   3.443   5.330
 6380SOL    HW120039   1.192   3.431   5.374
 6380SOL    HW220040   1.319   3.532   5.356
 6381SOL     OW20041   4.351   2.489   0.097
 6381SOL    HW120042   4.439   2.444   0.084
 6381SOL    HW220043   4.314   2.518   0.009
 6382SOL     OW20044   1.610   1.708   1.063
 6382SOL    HW120045   1.624   1.722   1.161
 6382SOL    HW220046   1.666   1.771   1.011
 6383SOL     OW20047   2.246   2.720   2.385
 6383SOL    HW120048   2.164   2.662   2.386
 6383SOL    HW220049   2.222   2.811   2.419
 6384SOL     OW20050   6.265   2.654   2.692
 6384SOL    HW120051   6.175   2.695   2.677
 6384SOL    HW220052   6.265   2.604   2.779
 6385SOL     OW20053   6.920   3.031   1.453
 6385SOL    HW120054   6.874   3.045   1.541
 6385SOL    HW220055   6.853   3.015   1.382
 6386SOL     OW20056   2.444   3.825   0.535
 6386SOL    HW120057   2.443   3.924   0.551
 6386SOL    HW220058   2.479   3.806   0.443
 6387SOL     OW20059   0.028   0.387   6.547
 6387SOL    HW120060   0.044   0.342   6.634
 6387SOL    HW220061   6.982   0.461   6.559
 6388SOL     OW20062   6.932   5.405   2.106
 6388SOL    HW120063   6.877   5.328   2.073
 6388SOL    HW220064   6.882   5.490   2.092
 6389SOL     OW20065   0.767   0.537   6.878
 6389SOL    HW120066   0.730   0.597   6.807
 6389SOL    HW220067   0.761   0.583   6.967
 6390SOL     OW20068   5.901   0.899   6.648
 6390SOL    HW120069   5.906   0.855   6.738
 6390SOL    HW220070   5.900   0.998   6.660
 6391SOL     OW20071   0.644   1.521   4.968
 6391SOL    HW120072   0.658   1.569   5.054
 6391SOL    HW220073   0.630   1.587   4.894
 6392SOL     OW20074   3.673   6.729   3.499
 6392SOL    HW120075   3.728   6.650   3.527
 6392SOL    HW220076   3.666   6.730   3.399
 6393SOL     OW20077   0.174   5.529   6.789
 6393SOL    HW120078   0.110   5.606   6.784
 6393SOL    HW220079   0.210   5.522   6.882
 6394SOL     OW20080   1.373   5.628   1.515
 6394SOL    HW120081   1.441   5.661   1.450
 6394SOL    HW220082   1.407   5.640   1.608
 6395SOL     OW20083   2.103   3.832   3.402
 6395SOL    HW120084   2.122   3.736   3.380
 6395SOL    HW220085   2.004   3.846   3.407
 6396SOL     OW20086   1.083   3.502   6.489
 6396SOL    HW120087   1.052   3.463   6.576
 6396SOL    HW220088   1.056   3.598   6.484
 6397SOL     OW20089   5.214   3.461   3.946
 6397SOL    HW120090   5.308   3.446   3.977
 6397SOL    HW220091   5.162   3.376   3.951
 6398SOL     OW20092   1.990   0.334   0.858
 6398SOL    HW120093   1.905   0.358   0.811
 6398SOL    HW220094   2.001   0.390   0.939
 6399SOL     OW20095   3.399   0.925   5.928
 6399SOL    HW120096   3.302   0.941   5.912
 6399SOL    HW220097   3.421   0.829   5.910
 6400SOL     OW20098   1.567   6.552   3.248
 6400SOL    HW120099   1.647   6.491   3.252
 6400SOL    HW220100   1.583   6.633   3.304
 6401SOL     OW20101   3.565   5.888   3.519
 6401SOL    HW120102   3.549   5.818   3.450
 6401SOL    HW220103   3.663   5.897   3.535
 6402SOL     OW20104   1.874   4.435   4.911
 6402SOL    HW120105   1.865   4.349   4.861
 6402SOL    HW220106   1.794   4.449   4.970
 6403SOL     OW20107   4.945   5.524   5.045
 6403SOL    HW120108   5.021   5.513   4.980
 6403SOL    HW220109   4.904   5.614   5.033
 6404SOL     OW20110   4.596   6.779   2.195
 6404SOL    HW120111   4.577   6.703   2.133
 6404SOL    HW220112   4.554   6.759   2.284
 6405SOL     OW20113   5.188   1.856   2.220
 6405SOL    HW120114   5.188   1.947   2.261
 6405SOL    HW220115   5.281   1.819   2.219
 6406SOL     OW20116   0.588   2.991   3.473
 6406SOL    HW120117   0.656   3.056   3.505
 6406SOL    HW220118   0.498   3.034   3.472
 6407SOL     OW20119   1.654   6.222   2.496
 6407SOL    HW120120   1.640   6.255   2.403
 6407SOL    HW220121   1.570   6.234   2.549
 6408SOL     OW20122   6.616   0.357   1.501
 6408SOL    HW120123   6.576   0.392   1.585
 6408SOL    HW220124   6.556   0.378   1.424
 6409SOL     OW20125   5.625   5.020   3.362
 6409SOL    HW120126   5.693   5.064   3.303
 6409SOL    HW220127   5.534   5.032   3.322
 6410SOL     OW20128   2.177   1.389   6.119
 6410SOL    HW120129   2.216   1.478   6.094
 6410SOL    HW220130   2.124   1.353   6.043
 6411SOL     OW20131   0.490   2.714   1.994
 6411SOL    HW120132   0.490   2.650   1.917
 6411SOL    HW220133   0.433   2.677   2.068
 6412SOL     OW20134   3.465   0.835   0.286
 6412SOL    HW120135   3.513   0.898   0.346
 6412SOL    HW220136   3.516   0.823   0.201
 6413SOL     OW20137   5.138   6.422   3.359
 6413SOL    HW120138   5.185   6.480   3.426
 6413SOL    HW220139   5.071   6.477   3.309
 6414SOL     OW20140   1.569   0.244   0.142
 6414SOL    HW120141   1.516   0.252   0.226
 6414SOL    HW220142   1.591   0.148   0.125
 6415SOL     OW20143   0.485   2.694   3.536
 6415SOL    HW120144   0.444   2.697   3.627
 6415SOL    HW220145   0.415   2.712   3.467
 6416SOL     OW20146   2.770   6.828   0.373
 6416SOL    HW120147   2.756   6.920   0.336
 6416SOL    HW220148   2.744   6.760   0.305
 6417SOL     OW20149   3.653   1.989   0.546
 6417SOL    HW120150   3.562   1.948   0.547
 6417SOL    HW220151   3.711   1.944   0.614
 6418SOL     OW20152   4.121   5.057   0.605
 6418SOL    HW120153   4.185   5.066   0.528
 6418SOL    HW220154   4.109   4.960   0.627
 6419SOL     OW20155   1.532   6.554   6.418
 6419SOL    HW120156   1.490   6.611   6.489
 6419SOL    HW220157   1.469   6.544   6.342
 6420SOL     OW20158   2.234   4.140   4.475
 6420SOL    HW120159   2.278   4.149   4.564
 6420SOL    HW220160   2.305   4.137   4.404
 6421SOL     OW20161   4.255   6.985   2.247
 6421SOL    HW120162   4.216   7.011   2.336
 6421SOL    HW220163   4.284   6.889   2.250
 6422SOL     OW20164   5.914   1.785   4.573
 6422SOL    HW120165   5.816   1.800   4.562
 6422SOL    HW220166   5.962   1.819   4.492
 6423SOL     OW20167   2.369   4.468   4.198
 6423SOL    HW120168   2.389   4.370   4.206
 6423SOL    HW220169   2.428   4.519   4.261
 6424SOL     OW20170   6.321   4.547   5.127
 6424SOL    HW120171   6.314   4.645   5.105
 6424SOL    HW220172   6.307   4.493   5.044
 6425SOL     OW20173   6.732   5.638   3.810
 6425SOL    HW120174   6.740   5.719   3.753
 6425SOL    HW220175   6.642   5.597   3.798
 6426SOL     OW20176   4.573   4.223   5.226
 6426SOL    HW120177   4.509   4.179   5.289
 6426SOL    HW220178   4.643   4.156   5.198
 6427SOL     OW20179   3.927   3.182   3.126
 6427SOL    HW120180   3.923   3.083   3.111
 6427SOL    HW220181   3.850   3.226   3.080
 6428SOL     OW20182   5.223   3.372   0.718
 6428SOL    HW120183   5.192   3.356   0.625
 6428SOL    HW220184   5.318   3.342   0.727
 6429SOL     OW20185   2.194   1.177   5.641
 6429SOL    HW120186   2.288   1.208   5.627
 6429SOL    HW220187   2.139   1.200   5.560
 6430SOL     OW20188   6.808   6.994   5.394
 6430SOL    HW120189   6.709   7.009   5.395
 6430SOL    HW220190   6.852   0.050   5.348
 6431SOL     OW20191   3.856   4.854   1.788
 6431SOL    HW120192   3.864   4.877   1.691
 6431SOL    HW220193   3.767   4.812   1.805
 6432SOL     OW20194   4.743   4.658   5.679
 6432SOL    HW120195   4.784   4.636   5.768
 6432SOL    HW220196   4.721   4.573   5.631
 6433SOL     OW20197   2.903   5.228   6.752
 6433SOL    HW120198   2.995   5.193   6.768
 6433SOL    HW220199   2.904   5.328   6.753
 6434SOL     OW20200   4.180   5.254   6.001
 6434SOL    HW120201   4.222   5.205   5.925
 6434SOL    HW220202   4.242   5.256   6.079
 6435SOL     OW20203   4.886   1.867   1.122
 6435SOL    HW120204   4.945   1.795   1.086
 6435SOL    HW220205   4.940   1.931   1.177
 6436SOL     OW20206   6.787   3.635   4.108
 6436SOL    HW120207   6.845   3.553   4.099
 6436SOL    HW220208   6.845   3.716   4.113
 6437SOL     OW20209   0.683   1.990   5.374
 6437SOL    HW120210   0.603   1.933   5.353
 6437SOL    HW220211   0.661   2.086   5.356
 6438SOL     OW20212   0.803   5.189   0.382
 6438SOL    HW120213   0.727   5.255   0.379
 6438SOL    HW220214   0.841   5.178   0.291
 6439SOL     OW20215   5.707   0.012   3.052
 6439SOL    HW120216   5.757   0.097   3.069
 6439SOL    HW220217   5.707   6.976   3.134
 6440SOL     OW20218   2.753   2.240   6.995
 6440SOL    HW120219   2.783   2.191   6.913
 6440SOL    HW220220   2.708   2.176   0.037
 6441SOL     OW20221   0.603   1.884   2.839
 6441SOL    HW120222   0.645   1.945   2.772
 6441SOL    HW220223   0.505   1.903   2.845
 6442SOL     OW20224   2.874   2.589   5.307
 6442SOL    HW120225   2.890   2.490   5.299
 6442SOL    HW220226   2.779   2.609   5.286
 6443SOL     OW20227   5.056   2.681   0.264
 6443SOL    HW120228   4.979   2.736   0.233
 6443SOL    HW220229   5.070   2.604   0.203
 6444SOL     OW20230   6.260   3.106   5.007
 6444SOL    HW120231   6.271   3.070   5.100
 6444SOL    HW220232   6.283   3.203   5.006
 6445SOL     OW20233   3.521   2.877   2.985
 6445SOL    HW120234   3.477   2.788   2.981
 6445SOL    HW220235   3.458   2.944   3.025
 6446SOL     OW20236   2.496   0.846   6.334
 6446SOL    HW120237   2.523   0.782   6.263
 6446SOL    HW220238   2.550   0.831   6.417
 6447SOL     OW20239   6.364   3.382   1.800
 6447SOL    HW120240   6.283   3.389   1.742
 6447SOL    HW220241   6.362   3.296   1.851
 6448SOL     OW20242   3.245   5.339   1.368
 6448SOL    HW120243   3.146   5.341   1.380
 6448SOL    HW220244   3.290   5.350   1.456
 6449SOL     OW20245   2.282   5.471   1.280
 6449SOL    HW120246   2.306   5.386   1.328
 6449SOL    HW220247   2.313   5.465   1.185
 6450SOL     OW20248   0.653   3.891   1.047
 6450SOL    HW120249   0.737   3.854   1.086
 6450SOL    HW220250   0.676   3.961   0.979
 6451SOL     OW20251   4.065   2.264   1.247
 6451SOL    HW120252   4.027   2.213   1.170
 6451SOL    HW220253   4.163   2.247   1.252
 6452SOL     OW20254   4.768   2.244   3.410
 6452SOL    HW120255   4.829   2.323   3.401
 6452SOL    HW220256   4.770   2.211   3.504
 6453SOL     OW20257   2.897   1.238   1.136
 6453SOL    HW120258   2.922   1.245   1.233
 6453SOL    HW220259   2.808   1.195   1.127
 6454SOL     OW20260   5.393   2.542   3.543
 6454SOL    HW120261   5.465   2.578   3.484
 6454SOL    HW220262   5.376   2.606   3.618
 6455SOL     OW20263   6.639   3.867   3.529
 6455SOL    HW120264   6.714   3.841   3.470
 6455SOL    HW220265   6.675   3.900   3.617
 6456SOL     OW20266   5.861   1.485   2.649
 6456SOL    HW120267   5.783   1.500   2.710
 6456SOL    HW220268   5.944   1.477   2.703
 6457SOL     OW20269   3.743   6.963   2.313
 6457SOL    HW120270   3.686   6.886   2.341
 6457SOL    HW220271   3.732   6.978   2.214
 6458SOL     OW20272   0.078   4.998   3.476
 6458SOL    HW120273   0.132   5.049   3.410
 6458SOL    HW220274   7.017   5.050   3.502
 6459SOL     OW20275   6.362   3.789   2.461
 6459SOL    HW120276   6.332   3.803   2.367
 6459SOL    HW220277   6.324   3.703   2.495
 6460SOL     OW20278   0.639   5.780   5.723
 6460SOL    HW120279   0.738   5.789   5.715
 6460SOL    HW220280   0.599   5.769   5.632
 6461SOL     OW20281   1.807   5.729   1.195
 6461SOL    HW120282   1.862   5.651   1.225
 6461SOL    HW220283   1.854   5.814   1.218
 6462SOL     OW20284   1.750   3.833   5.398
 6462SOL    HW120285   1.652   3.845   5.380
 6462SOL    HW220286   1.785   3.761   5.339
 6463SOL     OW20287   4.839   2.013   1.732
 6463SOL    HW120288   4.888   1.968   1.807
 6463SOL    HW220289   4.749   2.042   1.764
 6464SOL     OW20290   0.958   4.508   4.233
 6464SOL    HW120291   1.004   4.500   4.145
 6464SOL    HW220292   0.891   4.435   4.244
 6465SOL     OW20293   4.046   0.957   3.313
 6465SOL    HW120294   4.004   0.956   3.222
 6465SOL    HW220295   3.974   0.950   3.382
 6466SOL     OW20296   0.417   3.224   0.393
 6466SOL    HW120297   0.472   3.308   0.394
 6466SOL    HW220298   0.470   3.149   0.433
 6467SOL     OW20299   2.748   2.692   0.892
 6467SOL    HW120300   2.753   2.730   0.800
 6467SOL    HW220301   2.841   2.678   0.927
 6468SOL     OW20302   2.464   1.361   0.736
 6468SOL    HW120303   2.366   1.357   0.758
 6468SOL    HW220304   2.488   1.453   0.707
 6469SOL     OW20305   3.479   1.241   2.894
 6469SOL    HW120306   3.424   1.234   2.977
 6469SOL    HW220307   3.436   1.187   2.821
 6470SOL     OW20308   6.612   1.970   6.968
 6470SOL    HW120309   6.685   2.029   6.935
 6470SOL    HW220310   6.545   2.025   7.017
 6471SOL     OW20311   0.842   6.325   5.982
 6471SOL    HW120312   0.922   6.269   6.002
 6471SOL    HW220313   0.771   6.307   6.049
 6472SOL     OW20314   6.710   6.294   2.906
 6472SOL    HW120315   6.654   6.369   2.942
 6472SOL    HW220316   6.697   6.213   2.963
 6473SOL     OW20317   2.647   1.484   4.010
 6473SOL    HW120318   2.564   1.431   4.029
 6473SOL    HW220319   2.679   1.464   3.917
 6474SOL     OW20320   3.470   5.418   4.888
 6474SOL    HW120321   3.453   5.509   4.924
 6474SOL    HW220322   3.563   5.389   4.910
 6475SOL     OW20323   6.210   5.240   2.780
 6475SOL    HW120324   6.146   5.165   2.796
 6475SOL    HW220325   6.240   5.277   2.868
 6476SOL     OW20326   3.774   1.860   6.352
 6476SOL    HW120327   3.769   1.949   6.397
 6476SOL    HW220328   3.752   1.788   6.418
 6477SOL     OW20329   6.582   5.952   1.705
 6477SOL    HW120330   6.526   5.908   1.776
 6477SOL    HW220331   6.576   6.051   1.715
 6478SOL     OW20332   3.404   5.588   1.687
 6478SOL    HW120333   3.417   5.499   1.643
 6478SOL    HW220334   3.358   5.576   1.775
 6479SOL     OW20335   3.162   5.995   3.815
 6479SOL    HW120336   3.260   6.013   3.809
 6479SOL    HW220337   3.125   6.041   3.896
 6480SOL     OW20338   3.768   1.965   6.773
 6480SOL    HW120339   3.752   2.038   6.840
 6480SOL    HW220340   3.752   2.000   6.681
 6481SOL     OW20341   3.426   2.672   1.825
 6481SOL    HW120342   3.340   2.639   1.786
 6481SOL    HW220343   3.503   2.628   1.780
 6482SOL     OW20344   5.610   4.136   5.641
 6482SOL    HW120345   5.513   4.115   5.643
 6482SOL    HW220346   5.623   4.236   5.639
 6483SOL     OW20347   0.895   6.160   5.114
 6483SOL    HW120348   0.916   6.077   5.062
 6483SOL    HW220349   0.825   6.213   5.066
 6484SOL     OW20350   2.540   0.920   3.942
 6484SOL    HW120351   2.510   0.838   3.992
 6484SOL    HW220352   2.603   0.973   4.000
 6485SOL     OW20353   2.235   6.330   4.473
 6485SOL    HW120354   2.305   6.399   4.492
 6485SOL    HW220355   2.206   6.337   4.378
 6486SOL     OW20356   1.583   4.842   3.547
 6486SOL    HW120357   1.672   4.856   3.504
 6486SOL    HW220358   1.556   4.746   3.538
 6487SOL     OW20359   6.075   4.529   3.458
 6487SOL    HW120360   6.164   4.487   3.478
 6487SOL    HW220361   6.074   4.622   3.494
 6488SOL     OW20362   4.837   5.619   4.722
 6488SOL    HW120363   4.919   5.561   4.722
 6488SOL    HW220364   4.761   5.570   4.765
 6489SOL     OW20365   4.413   3.111   5.677
 6489SOL    HW120366   4.472   3.040   5.639
 6489SOL    HW220367   4.451   3.143   5.764
 6490SOL     OW20368   1.458   2.409   0.319
 6490SOL    HW120369   1.450   2.381   0.223
 6490SOL    HW220370   1.371   2.450   0.348
 6491SOL     OW20371   2.997   0.260   1.319
 6491SOL    HW120372   2.926   0.319   1.358
 6491SOL    HW220373   2.958   0.173   1.292
 6492SOL     OW20374   3.556   3.559   4.732
 6492SOL    HW120375   3.622   3.532   4.661
 6492SOL    HW220376   3.598   3.627   4.792
 6493SOL     OW20377   0.671   4.015   5.643
 6493SOL    HW120378   0.644   3.996   5.737
 6493SOL    HW220379   0.670   4.114   5.627
 6494SOL     OW20380   6.075   0.752   1.447
 6494SOL    HW120381   5.980   0.759   1.475
 6494SOL    HW220382   6.090   0.667   1.397
 6495SOL     OW20383   6.052   0.210   3.752
 6495SOL    HW120384   6.082   0.204   3.848
 6495SOL    HW220385   5.969   0.264   3.747
 6496SOL     OW20386   3.688   1.631   1.414
 6496SOL    HW120387   3.605   1.584   1.443
 6496SOL    HW220388   3.667   1.692   1.337
 6497SOL     OW20389   0.381   1.445   0.760
 6497SOL    HW120390   0.456   1.453   0.693
 6497SOL    HW220391   0.362   1.348   0.777
 6498SOL     OW20392   0.776   4.325   4.325
 6498SOL    HW120393   0.776   4.366   4.417
 6498SOL    HW220394   0.731   4.236   4.328
 6499SOL     OW20395   5.119   3.748   3.020
 6499SOL    HW120396   5.030   3.743   3.066
 6499SOL    HW220397   5.105   3.772   2.924
 6500SOL     OW20398   1.368   4.318   3.002
 6500SOL    HW120399   1.293   4.257   2.974
 6500SOL    HW220400   1.402   4.290   3.092
 6501SOL     OW20401   6.162   2.089   1.086
 6501SOL    HW120402   6.178   2.087   0.988
 6501SOL    HW220403   6.147   2.184   1.115
 6502SOL     OW20404   6.598   3.709   2.065
 6502SOL    HW120405   6.653   3.793   2.068
 6502SOL    HW220406   6.567   3.693   1.971
 6503SOL     OW20407   6.249   3.199   5.562
 6503SOL    HW120408   6.232   3.163   5.470
 6503SOL    HW220409   6.330   3.156   5.601
 6504SOL     OW20410   4.470   6.085   6.691
 6504SOL    HW120411   4.441   6.174   6.655
 6504SOL    HW220412   4.419   6.065   6.774
 6505SOL     OW20413   0.155   5.870   0.793
 6505SOL    HW120414   0.174   5.962   0.758
 6505SOL    HW220415   0.094   5.877   0.872
 6506SOL     OW20416   6.956   4.202   2.416
 6506SOL    HW120417   7.006   4.181   2.332
 6506SOL    HW220418   6.930   4.117   2.462
 6507SOL     OW20419   3.438   4.422   6.769
 6507SOL    HW120420   3.494   4.419   6.686
 6507SOL    HW220421   3.487   4.376   6.843
 6508SOL     OW20422   0.827   0.100   2.684
 6508SOL    HW120423   0.924   0.104   2.660
 6508SOL    HW220424   0.816   0.110   2.783
 6509SOL     OW20425   3.150   1.948   6.177
 6509SOL    HW120426   3.109   1.878   6.235
 6509SOL    HW220427   3.128   1.929   6.081
 6510SOL     OW20428   3.795   5.682   5.838
 6510SOL    HW120429   3.887   5.676   5.876
 6510SOL    HW220430   3.729   5.648   5.905
 6511SOL     OW20431   3.266   1.067   0.263
 6511SOL    HW120432   3.300   0.973   0.270
 6511SOL    HW220433   3.168   1.065   0.245
 6512SOL     OW20434   3.819   1.709   0.464
 6512SOL    HW120435   3.772   1.685   0.379
 6512SOL    HW220436   3.893   1.772   0.443
 6513SOL     OW20437   1.993   5.006   3.321
 6513SOL    HW120438   1.944   4.923   3.347
 6513SOL    HW220439   2.038   5.046   3.401
 6514SOL     OW20440   5.359   0.074   5.616
 6514SOL    HW120441   5.321   0.163   5.639
 6514SOL    HW220442   5.441   0.058   5.672
 6515SOL     OW20443   2.123   5.402   2.199
 6515SOL    HW120444   2.121   5.302   2.204
 6515SOL    HW220445   2.216   5.434   2.218
 6516SOL     OW20446   6.684   4.101   1.289
 6516SOL    HW120447   6.634   4.171   1.238
 6516SOL    HW220448   6.705   4.135   1.380
 6517SOL     OW20449   6.728   3.070   0.826
 6517SOL    HW120450   6.811   3.016   0.810
 6517SOL    HW220451   6.724   3.094   0.923
 6518SOL     OW20452   1.089   1.863   2.947
 6518SOL    HW120453   1.092   1.796   3.020
 6518SOL    HW220454   1.012   1.925   2.962
 6519SOL     OW20455   1.513   1.061   3.045
 6519SOL    HW120456   1.526   1.096   2.952
 6519SOL    HW220457   1.447   0.987   3.044
 6520SOL     OW20458   0.540   5.339   6.870
 6520SOL    HW120459   0.635   5.308   6.865
 6520SOL    HW220460   0.520   5.372   6.962
 6521SOL     OW20461   0.715   3.971   3.945
 6521SOL    HW120462   0.749   3.927   3.861
 6521SOL    HW220463   0.786   4.032   3.981
 6522SOL     OW20464   2.938   3.239   5.075
 6522SOL    HW120465   2.866   3.231   5.143
 6522SOL    HW220466   3.019   3.188   5.105
 6523SOL     OW20467   5.339   6.772   0.453
 6523SOL    HW120468   5.413   6.821   0.408
 6523SOL    HW220469   5.283   6.726   0.384
 6524SOL     OW20470   2.570   2.790   1.256
 6524SOL    HW120471   2.509   2.795   1.178
 6524SOL    HW220472   2.547   2.861   1.322
 6525SOL     OW20473   0.973   4.642   3.445
 6525SOL    HW120474   1.009   4.612   3.357
 6525SOL    HW220475   0.974   4.566   3.510
 6526SOL     OW20476   0.811   6.430   6.937
 6526SOL    HW120477   0.868   6.454   6.858
 6526SOL    HW220478   0.723   6.478   6.930
 6527SOL     OW20479   0.354   2.183   0.446
 6527SOL    HW120480   0.274   2.168   0.388
 6527SOL    HW220481   0.325   2.194   0.541
 6528SOL     OW20482   4.940   0.455   6.659
 6528SOL    HW120483   4.891   0.388   6.604
 6528SOL    HW220484   5.029   0.475   6.618
 6529SOL     OW20485   6.547   1.169   2.399
 6529SOL    HW120486   6.500   1.081   2.404
 6529SOL    HW220487   6.646   1.154   2.393
 6530SOL     OW20488   1.175   3.151   2.627
 6530SOL    HW120489   1.269   3.178   2.604
 6530SOL    HW220490   1.114   3.176   2.552
 6531SOL     OW20491   3.606   4.121   4.978
 6531SOL    HW120492   3.674   4.049   4.965
 6531SOL    HW220493   3.573   4.153   4.889
 6532SOL     OW20494   1.162   0.741   0.615
 6532SOL    HW120495   1.261   0.746   0.612
 6532SOL    HW220496   1.123   0.819   0.565
 6533SOL     OW20497   4.773   3.600   0.702
 6533SOL    HW120498   4.811   3.509   0.713
 6533SOL    HW220499   4.686   3.606   0.751
 6534SOL     OW20500   6.564   4.273   2.999
 6534SOL    HW120501   6.499   4.272   3.075
 6534SOL    HW220502   6.570   4.366   2.961
 6535SOL     OW20503   6.071   2.919   5.263
 6535SOL    HW120504   6.011   2.999   5.265
 6535SOL    HW220505   6.030   2.845   5.315
 6536SOL     OW20506   0.501   3.794   5.576
 6536SOL    HW120507   0.525   3.885   5.542
 6536SOL    HW220508   0.500   3.796   5.676
 6537SOL     OW20509   6.009   5.360   4.148
 6537SOL    HW120510   5.987   5.457   4.163
 6537SOL    HW220511   6.010   5.312   4.235
 6538SOL     OW20512   2.384   3.081   5.688
 6538SOL    HW120513   2.326   3.022   5.744
 6538SOL    HW220514   2.354   3.076   5.593
 6539SOL     OW20515   5.714   0.922   5.602
 6539SOL    HW120516   5.736   0.842   5.546
 6539SOL    HW220517   5.679   0.995   5.544
 6540SOL     OW20518   6.265   2.807   5.705
 6540SOL    HW120519   6.285   2.710   5.718
 6540SOL    HW220520   6.268   2.853   5.794
 6541SOL     OW20521   6.056   0.666   4.655
 6541SOL    HW120522   6.101   0.665   4.566
 6541SOL    HW220523   6.125   0.677   4.727
 6542SOL     OW20524   1.294   4.235   3.541
 6542SOL    HW120525   1.303   4.185   3.626
 6542SOL    HW220526   1.363   4.204   3.476
 6543SOL     OW20527   4.012   1.776   4.926
 6543SOL    HW120528   3.969   1.866   4.917
 6543SOL    HW220529   4.013   1.730   4.837
 6544SOL     OW20530   1.331   6.542   1.239
 6544SOL    HW120531   1.249   6.525   1.295
 6544SOL    HW220532   1.375   6.626   1.271
 6545SOL     OW20533   4.392   6.901   0.164
 6545SOL    HW120534   4.371   6.839   0.239
 6545SOL    HW220535   4.422   6.849   0.084
 6546SOL     OW20536   4.854   3.272   6.512
 6546SOL    HW120537   4.809   3.361   6.525
 6546SOL    HW220538   4.791   3.199   6.541
 6547SOL     OW20539   6.572   5.440   6.705
 6547SOL    HW120540   6.633   5.391   6.643
 6547SOL    HW220541   6.626   5.489   6.773
 6548SOL     OW20542   0.306   1.693   5.447
 6548SOL    HW120543   0.217   1.646   5.444
 6548SOL    HW220544   0.309   1.753   5.527
 6549SOL     OW20545   5.079   0.479   1.855
 6549SOL    HW120546   5.156   0.505   1.797
 6549SOL    HW220547   5.111   0.419   1.928
 6550SOL     OW20548   6.245   0.112   3.285
 6550SOL    HW120549   6.257   0.013   3.283
 6550SOL    HW220550   6.222   0.145   3.194
 6551SOL     OW20551   3.025   4.082   0.529
 6551SOL    HW120552   3.116   4.039   0.527
 6551SOL    HW220553   2.984   4.067   0.619
 6552SOL     OW20554   2.225   6.291   0.242
 6552SOL    HW120555   2.252   6.231   0.317
 6552SOL    HW220556   2.206   6.383   0.277
 6553SOL     OW20557   0.483   1.566   4.265
 6553SOL    HW120558   0.401   1.561   4.322
 6553SOL    HW220559   0.529   1.653   4.280
 6554SOL     OW20560   2.506   1.008   4.383
 6554SOL    HW120561   2.551   0.922   4.411
 6554SOL    HW220562   2.571   1.066   4.335
 6555SOL     OW20563   6.809   3.653   3.729
 6555SOL    HW120564   6.871   3.602   3.670
 6555SOL    HW220565   6.785   3.596   3.808
 6556SOL     OW20566   4.831   3.020   2.937
 6556SOL    HW120567   4.874   3.015   2.846
 6556SOL    HW220568   4.825   2.928   2.976
 6557SOL     OW20569   2.452   0.392   1.854
 6557SOL    HW120570   2.519   0.323   1.883
 6557SOL    HW220571   2.386   0.408   1.927
 6558SOL     OW20572   5.136   5.237   0.339
 6558SOL    HW120573   5.186   5.319   0.312
 6558SOL    HW220574   5.123   5.238   0.438
 6559SOL     OW20575   0.175   2.396   6.296
 6559SOL    HW120576   0.165   2.470   6.363
 6559SOL    HW220577   0.085   2.367   6.265
 6560SOL     OW20578   5.697   5.216   0.579
 6560SOL    HW120579   5.754   5.293   0.551
 6560SOL    HW220580   5.683   5.156   0.500
 6561SOL     OW20581   3.803   3.936   0.285
 6561SOL    HW120582   3.773   3.972   0.374
 6561SOL    HW220583   3.902   3.920   0.288
 6562SOL     OW20584   5.713   3.252   1.284
 6562SOL    HW120585   5.699   3.295   1.195
 6562SOL    HW220586   5.780   3.178   1.274
 6563SOL     OW20587   5.002   5.886   5.346
 6563SOL    HW120588   5.047   5.928   5.424
 6563SOL    HW220589   4.991   5.788   5.362
 6564SOL     OW20590   6.574   3.764   3.152
 6564SOL    HW120591   6.603   3.851   3.112
 6564SOL    HW220592   6.475   3.765   3.165
 6565SOL     OW20593   5.546   0.669   3.027
 6565SOL    HW120594   5.601   0.752   3.041
 6565SOL    HW220595   5.569   0.601   3.096
 6566SOL     OW20596   4.823   5.982   2.799
 6566SOL    HW120597   4.781   5.893   2.818
 6566SOL    HW220598   4.922   5.976   2.816
 6567SOL     OW20599   4.360   0.729   1.265
 6567SOL    HW120600   4.430   0.786   1.309
 6567SOL    HW220601   4.329   0.774   1.181
 6568SOL     OW20602   4.435   1.213   1.071
 6568SOL    HW120603   4.363   1.220   1.002
 6568SOL    HW220604   4.395   1.203   1.161
 6569SOL     OW20605   6.698   4.354   5.655
 6569SOL    HW120606   6.652   4.290   5.717
 6569SOL    HW220607   6.736   4.429   5.708
 6570SOL     OW20608   4.102   6.493   2.010
 6570SOL    HW120609   4.005   6.516   2.009
 6570SOL    HW220610   4.149   6.541   1.936
 6571SOL     OW20611   3.177   6.028   2.403
 6571SOL    HW120612   3.216   6.084   2.476
 6571SOL    HW220613   3.228   5.942   2.396
 6572SOL     OW20614   1.072   5.456   3.943
 6572SOL    HW120615   1.140   5.495   3.881
 6572SOL    HW220616   1.011   5.529   3.976
 6573SOL     OW20617   1.408   1.403   3.931
 6573SOL    HW120618   1.443   1.319   3.972
 6573SOL    HW220619   1.452   1.418   3.842
 6574SOL     OW20620   1.428   6.207   2.116
 6574SOL    HW120621   1.329   6.208   2.129
 6574SOL    HW220622   1.449   6.169   2.026
 6575SOL     OW20623   6.741   1.128   2.899
 6575SOL    HW120624   6.743   1.158   2.995
 6575SOL    HW220625   6.682   1.048   2.890
 6576SOL     OW20626   4.526   6.092   1.179
 6576SOL    HW120627   4.574   6.081   1.266
 6576SOL    HW220628   4.448   6.153   1.191
 6577SOL     OW20629   2.589   0.850   3.677
 6577SOL    HW120630   2.505   0.838   3.624
 6577SOL    HW220631   2.565   0.872   3.772
 6578SOL     OW20632   1.513   4.990   1.971
 6578SOL    HW120633   1.512   4.894   1.941
 6578SOL    HW220634   1.507   5.049   1.891
 6579SOL     OW20635   6.577   0.843   4.072
 6579SOL    HW120636   6.489   0.864   4.113
 6579SOL    HW220637   6.605   0.919   4.012
 6580SOL     OW20638   1.734   1.298   6.984
 6580SOL    HW120639   1.782   1.382   6.959
 6580SOL    HW220640   1.668   1.274   6.913
 6581SOL     OW20641   0.994   2.339   0.122
 6581SOL    HW120642   1.070   2.400   0.146
 6581SOL    HW220643   0.935   2.327   0.202
 6582SOL     OW20644   6.811   1.574   3.436
 6582SOL    HW120645   6.769   1.603   3.522
 6582SOL    HW220646   6.747   1.592   3.360
 6583SOL     OW20647   4.028   5.984   6.421
 6583SOL    HW120648   3.944   6.035   6.405
 6583SOL    HW220649   4.014   5.888   6.400
 6584SOL     OW20650   3.771   2.872   0.575
 6584SOL    HW120651   3.816   2.793   0.617
 6584SOL    HW220652   3.683   2.843   0.537
 6585SOL     OW20653   6.284   6.631   0.738
 6585SOL    HW120654   6.318   6.625   0.644
 6585SOL    HW220655   6.184   6.626   0.738
 6586SOL     OW20656   6.086   2.223   6.641
 6586SOL    HW120657   6.136   2.142   6.611
 6586SOL    HW220658   6.108   2.242   6.737
 6587SOL     OW20659   1.299   4.967   5.567
 6587SOL    HW120660   1.327   5.012   5.482
 6587SOL    HW220661   1.318   4.869   5.560
 6588SOL     OW20662   6.459   3.634   0.539
 6588SOL    HW120663   6.385   3.697   0.514
 6588SOL    HW220664   6.527   3.682   0.594
 6589SOL     OW20665   0.476   0.618   1.948
 6589SOL    HW120666   0.377   0.631   1.939
 6589SOL    HW220667   0.508   0.557   1.876
 6590SOL     OW20668   1.480   0.129   3.811
 6590SOL    HW120669   1.422   0.089   3.740
 6590SOL    HW220670   1.527   0.056   3.861
 6591SOL     OW20671   5.697   4.238   4.386
 6591SOL    HW120672   5.612   4.215   4.433
 6591SOL    HW220673   5.720   4.333   4.403
 6592SOL     OW20674   6.066   6.977   2.400
 6592SOL    HW120675   6.141   6.924   2.439
 6592SOL    HW220676   6.025   6.925   2.325
 6593SOL     OW20677   2.787   2.034   1.904
 6593SOL    HW120678   2.860   2.094   1.936
 6593SOL    HW220679   2.764   1.967   1.975
 6594SOL     OW20680   4.831   1.267   6.442
 6594SOL    HW120681   4.733   1.245   6.443
 6594SOL    HW220682   4.847   1.344   6.381
 6595SOL     OW20683   1.433   2.651   5.686
 6595SOL    HW120684   1.462   2.709   5.762
 6595SOL    HW220685   1.476   2.682   5.601
 6596SOL     OW20686   6.015   6.315   2.663
 6596SOL    HW120687   5.981   6.330   2.570
 6596SOL    HW220688   6.067   6.395   2.693
 6597SOL     OW20689   1.658   4.751   2.205
 6597SOL    HW120690   1.757   4.751   2.217
 6597SOL    HW220691   1.624   4.845   2.210
 6598SOL     OW20692   2.214   4.840   4.408
 6598SOL    HW120693   2.273   4.873   4.334
 6598SOL    HW220694   2.124   4.819   4.371
 6599SOL     OW20695   5.974   5.331   6.633
 6599SOL    HW120696   5.948   5.240   6.601
 6599SOL    HW220697   5.985   5.392   6.554
 6600SOL     OW20698   4.616   0.115   5.102
 6600SOL    HW120699   4.553   0.060   5.156
 6600SOL    HW220700   4.643   0.063   5.021
 6601SOL     OW20701   1.526   1.838   1.632
 6601SOL    HW120702   1.452   1.880   1.579
 6601SOL    HW220703   1.506   1.741   1.646
 6602SOL     OW20704   1.919   6.461   1.656
 6602SOL    HW120705   2.012   6.445   1.688
 6602SOL    HW220706   1.921   6.526   1.579
 6603SOL     OW20707   0.183   3.854   2.760
 6603SOL    HW120708   0.107   3.864   2.696
 6603SOL    HW220709   0.199   3.757   2.778
 6604SOL     OW20710   2.258   6.062   2.226
 6604SOL    HW120711   2.279   5.969   2.197
 6604SOL    HW220712   2.196   6.105   2.160
 6605SOL     OW20713   0.227   5.715   1.062
 6605SOL    HW120714   0.189   5.627   1.035
 6605SOL    HW220715   0.285   5.751   0.988
 6606SOL     OW20716   1.838   3.831   3.394
 6606SOL    HW120717   1.775   3.786   3.458
 6606SOL    HW220718   1.857   3.769   3.318
 6607SOL     OW20719   6.023   4.194   3.368
 6607SOL    HW120720   5.938   4.218   3.415
 6607SOL    HW220721   6.099   4.198   3.432
 6608SOL     OW20722   1.192   5.977   5.911
 6608SOL    HW120723   1.261   5.993   5.841
 6608SOL    HW220724   1.161   5.882   5.906
 6609SOL     OW20725   4.731   2.008   6.055
 6609SOL    HW120726   4.728   1.966   6.146
 6609SOL    HW220727   4.749   1.938   5.986
 6610SOL     OW20728   3.001   5.048   1.190
 6610SOL    HW120729   2.944   5.047   1.272
 6610SOL    HW220730   3.097   5.039   1.215
 6611SOL     OW20731   4.412   1.639   4.052
 6611SOL    HW120732   4.370   1.632   4.142
 6611SOL    HW220733   4.343   1.626   3.981
 6612SOL     OW20734   0.005   1.489   5.951
 6612SOL    HW120735   0.013   1.493   5.851
 6612SOL    HW220736   0.060   1.415   5.987
 6613SOL     OW20737   4.727   6.679   6.980
 6613SOL    HW120738   4.743   6.641   6.889
 6613SOL    HW220739   4.640   6.728   6.982
 6614SOL     OW20740   4.182   5.279   1.099
 6614SOL    HW120741   4.266   5.317   1.137
 6614SOL    HW220742   4.181   5.293   1.000
 6615SOL     OW20743   3.162   4.349   6.817
 6615SOL    HW120744   3.140   4.364   6.913
 6615SOL    HW220745   3.242   4.404   6.792
 6616SOL     OW20746   4.359   1.065   5.740
 6616SOL    HW120747   4.375   1.008   5.659
 6616SOL    HW220748   4.283   1.127   5.722
 6617SOL     OW20749   3.713   0.093   3.989
 6617SOL    HW120750   3.813   0.094   3.993
 6617SOL    HW220751   3.679   0.002   4.011
 6618SOL     OW20752   6.543   2.200   2.705
 6618SOL    HW120753   6.487   2.245   2.635
 6618SOL    HW220754   6.483   2.163   2.776
 6619SOL     OW20755   4.791   6.322   3.915
 6619SOL    HW120756   4.769   6.419   3.922
 6619SOL    HW220757   4.863   6.308   3.847
 6620SOL     OW20758   0.640   3.404   3.066
 6620SOL    HW120759   0.680   3.329   3.118
 6620SOL    HW220760   0.629   3.377   2.971
 6621SOL     OW20761   3.867   3.447   4.743
 6621SOL    HW120762   3.797   3.428   4.811
 6621SOL    HW220763   3.899   3.541   4.754
 6622SOL     OW20764   0.651   5.404   0.696
 6622SOL    HW120765   0.616   5.443   0.611
 6622SOL    HW220766   0.733   5.454   0.724
 6623SOL     OW20767   3.710   3.872   5.912
 6623SOL    HW120768   3.654   3.793   5.888
 6623SOL    HW220769   3.707   3.939   5.838
 6624SOL     OW20770   1.762   2.102   3.958
 6624SOL    HW120771   1.671   2.059   3.957
 6624SOL    HW220772   1.799   2.100   4.050
 6625SOL     OW20773   6.011   3.391   6.095
 6625SOL    HW120774   5.918   3.354   6.092
 6625SOL    HW220775   6.027   3.446   6.013
 6626SOL     OW20776   2.283   6.359   4.843
 6626SOL    HW120777   2.313   6.333   4.751
 6626SOL    HW220778   2.337   6.309   4.910
 6627SOL     OW20779   1.799   5.920   4.297
 6627SOL    HW120780   1.874   5.985   4.304
 6627SOL    HW220781   1.824   5.834   4.342
 6628SOL     OW20782   4.485   5.968   4.555
 6628SOL    HW120783   4.574   5.974   4.599
 6628SOL    HW220784   4.416   6.013   4.612
 6629SOL     OW20785   5.321   5.573   6.558
 6629SOL    HW120786   5.363   5.600   6.472
 6629SOL    HW220787   5.233   5.620   6.568
 6630SOL     OW20788   2.216   1.626   1.838
 6630SOL    HW120789   2.310   1.599   1.818
 6630SOL    HW220790   2.159   1.544   1.847
 6631SOL     OW20791   2.216   4.484   6.405
 6631SOL    HW120792   2.260   4.395   6.389
 6631SOL    HW220793   2.119   4.477   6.380
 6632SOL     OW20794   1.346   1.173   1.135
 6632SOL    HW120795   1.363   1.103   1.064
 6632SOL    HW220796   1.267   1.146   1.190
 6633SOL     OW20797   3.605   5.592   6.022
 6633SOL    HW120798   3.534   5.625   6.083
 6633SOL    HW220799   3.629   5.498   6.046
 6634SOL     OW20800   4.540   2.005   4.391
 6634SOL    HW120801   4.520   2.103   4.396
 6634SOL    HW220802   4.625   1.991   4.340
 6635SOL     OW20803   5.113   4.898   3.349
 6635SOL    HW120804   5.143   4.804   3.333
 6635SOL    HW220805   5.168   4.961   3.295
 6636SOL     OW20806   3.973   0.322   0.514
 6636SOL    HW120807   4.011   0.245   0.566
 6636SOL    HW220808   3.874   0.319   0.518
 6637SOL     OW20809   1.584   1.044   1.192
 6637SOL    HW120810   1.579   1.021   1.289
 6637SOL    HW220811   1.502   1.094   1.166
 6638SOL     OW20812   3.025   3.202   3.701
 6638SOL    HW120813   3.041   3.159   3.613
 6638SOL    HW220814   2.985   3.293   3.687
 6639SOL     OW20815   5.081   3.122   1.374
 6639SOL    HW120816   5.045   3.085   1.289
 6639SOL    HW220817   5.015   3.186   1.413
 6640SOL     OW20818   0.801   2.509   4.819
 6640SOL    HW120819   0.864   2.526   4.895
 6640SOL    HW220820   0.722   2.569   4.828
 6641SOL     OW20821   4.652   2.234   0.853
 6641SOL    HW120822   4.687   2.317   0.895
 6641SOL    HW220823   4.554   2.243   0.835
 6642SOL     OW20824   1.176   5.750   0.791
 6642SOL    HW120825   1.226   5.663   0.790
 6642SOL    HW220826   1.095   5.741   0.849
 6643SOL     OW20827   4.326   6.322   6.747
 6643SOL    HW120828   4.282   6.320   6.657
 6643SOL    HW220829   4.317   6.414   6.786
 6644SOL     OW20830   2.052   6.643   3.383
 6644SOL    HW120831   2.004   6.710   3.439
 6644SOL    HW220832   2.094   6.689   3.305
 6645SOL     OW20833   5.797   2.790   0.585
 6645SOL    HW120834   5.823   2.711   0.529
 6645SOL    HW220835   5.712   2.769   0.633
 6646SOL     OW20836   4.687   6.965   6.187
 6646SOL    HW120837   4.675   0.020   6.122
 6646SOL    HW220838   4.776   6.922   6.171
 6647SOL     OW20839   4.407   4.856   1.213
 6647SOL    HW120840   4.388   4.944   1.169
 6647SOL    HW220841   4.342   4.788   1.179
 6648SOL     OW20842   2.698   6.000   5.496
 6648SOL    HW120843   2.622   5.945   5.462
 6648SOL    HW220844   2.740   5.956   5.575
 6649SOL     OW20845   5.545   2.792   6.709
 6649SOL    HW120846   5.533   2.766   6.613
 6649SOL    HW220847   5.569   2.889   6.715
 6650SOL     OW20848   2.523   1.590   5.225
 6650SOL    HW120849   2.431   1.585   5.263
 6650SOL    HW220850   2.588   1.552   5.292
 6651SOL     OW20851   6.493   2.059   6.438
 6651SOL    HW120852   6.574   2.008   6.411
 6651SOL    HW220853   6.438   2.081   6.357
 6652SOL     OW20854   0.216   4.478   0.527
 6652SOL    HW120855   0.215   4.537   0.608
 6652SOL    HW220856   0.144   4.409   0.536
 6653SOL     OW20857   5.348   4.262   0.403
 6653SOL    HW120858   5.263   4.270   0.351
 6653SOL    HW220859   5.386   4.170   0.389
 6654SOL     OW20860   0.359   4.532   3.016
 6654SOL    HW120861   0.283   4.471   3.034
 6654SOL    HW220862   0.359   4.606   3.083
 6655SOL     OW20863   6.706   5.240   2.109
 6655SOL    HW120864   6.631   5.278   2.163
 6655SOL    HW220865   6.671   5.170   2.047
 6656SOL     OW20866   4.014   1.713   2.755
 6656SOL    HW120867   3.980   1.711   2.661
 6656SOL    HW220868   4.073   1.793   2.767
 6657SOL     OW20869   5.671   1.952   3.665
 6657SOL    HW120870   5.591   1.894   3.649
 6657SOL    HW220871   5.659   2.002   3.751
 6658SOL     OW20872   6.089   5.848   5.144
 6658SOL    HW120873   6.061   5.862   5.049
 6658SOL    HW220874   6.087   5.751   5.165
 6659SOL     OW20875   1.083   5.112   2.201
 6659SOL    HW120876   1.164   5.155   2.161
 6659SOL    HW220877   1.010   5.106   2.132
 6660SOL     OW20878   6.583   6.166   3.416
 6660SOL    HW120879   6.524   6.211   3.350
 6660SOL    HW220880   6.653   6.112   3.369
 6661SOL     OW20881   4.035   6.445   4.311
 6661SOL    HW120882   4.011   6.481   4.402
 6661SOL    HW220883   4.016   6.347   4.308
 6662SOL     OW20884   3.187   0.014   3.001
 6662SOL    HW120885   3.188   0.095   3.061
 6662SOL    HW220886   3.203   0.042   2.907
 6663SOL     OW20887   0.845   4.319   5.991
 6663SOL    HW120888   0.762   4.268   6.012
 6663SOL    HW220889   0.916   4.256   5.960
 6664SOL     OW20890   2.920   0.591   1.302
 6664SOL    HW120891   2.925   0.680   1.256
 6664SOL    HW220892   2.884   0.523   1.239
 6665SOL     OW20893   1.983   0.727   5.712
 6665SOL    HW120894   2.051   0.665   5.672
 6665SOL    HW220895   1.901   0.676   5.736
 6666SOL     OW20896   4.339   6.744   5.432
 6666SOL    HW120897   4.390   6.784   5.508
 6666SOL    HW220898   4.321   6.648   5.450
 6667SOL     OW20899   0.369   6.050   6.281
 6667SOL    HW120900   0.456   6.066   6.328
 6667SOL    HW220901   0.356   5.952   6.269
 6668SOL     OW20902   0.074   5.889   0.514
 6668SOL    HW120903   0.109   5.822   0.449
 6668SOL    HW220904   0.059   5.845   0.603
 6669SOL     OW20905   1.812   0.854   2.927
 6669SOL    HW120906   1.738   0.804   2.972
 6669SOL    HW220907   1.890   0.793   2.912
 6670SOL     OW20908   4.040   2.723   1.003
 6670SOL    HW120909   3.993   2.675   1.078
 6670SOL    HW220910   4.122   2.673   0.977
 6671SOL     OW20911   4.298   5.967   0.430
 6671SOL    HW120912   4.244   5.895   0.388
 6671SOL    HW220913   4.238   6.041   0.460
 6672SOL     OW20914   1.385   2.672   1.217
 6672SOL    HW120915   1.482   2.674   1.242
 6672SOL    HW220916   1.357   2.579   1.196
 6673SOL     OW20917   5.521   3.800   4.009
 6673SOL    HW120918   5.457   3.856   4.061
 6673SOL    HW220919   5.565   3.856   3.938
 6674SOL     OW20920   7.001   2.732   0.127
 6674SOL    HW120921   6.978   2.695   0.217
 6674SOL    HW220922   0.070   2.777   0.132
 6675SOL     OW20923   5.278   1.999   6.989
 6675SOL    HW120924   5.271   2.016   6.890
 6675SOL    HW220925   5.361   2.042   0.003
 6676SOL     OW20926   1.460   3.587   3.475
 6676SOL    HW120927   1.464   3.661   3.407
 6676SOL    HW220928   1.444   3.500   3.427
 6677SOL     OW20929   0.583   1.950   0.726
 6677SOL    HW120930   0.540   1.877   0.780
 6677SOL    HW220931   0.584   1.924   0.629
 6678SOL     OW20932   1.750   4.513   0.156
 6678SOL    HW120933   1.842   4.511   0.115
 6678SOL    HW220934   1.729   4.606   0.186
 6679SOL     OW20935   1.869   1.403   3.867
 6679SOL    HW120936   1.912   1.320   3.902
 6679SOL    HW220937   1.833   1.457   3.943
 6680SOL     OW20938   6.000   6.844   1.211
 6680SOL    HW120939   6.035   6.851   1.118
 6680SOL    HW220940   6.053   6.774   1.261
 6681SOL     OW20941   3.404   6.112   1.328
 6681SOL    HW120942   3.487   6.058   1.316
 6681SOL    HW220943   3.341   6.064   1.388
 6682SOL     OW20944   2.967   5.316   6.238
 6682SOL    HW120945   2.946   5.350   6.147
 6682SOL    HW220946   3.042   5.250   6.233
 6683SOL     OW20947   6.448   3.723   6.424
 6683SOL    HW120948   6.439   3.743   6.521
 6683SOL    HW220949   6.357   3.709   6.384
 6684SOL     OW20950   2.772   6.528   1.108
 6684SOL    HW120951   2.758   6.487   1.198
 6684SOL    HW220952   2.863   6.571   1.105
 6685SOL     OW20953   4.714   3.113   6.712
 6685SOL    HW120954   4.632   3.093   6.765
 6685SOL    HW220955   4.773   3.032   6.710
 6686SOL     OW20956   5.483   5.267   3.889
 6686SOL    HW120957   5.571   5.311   3.907
 6686SOL    HW220958   5.446   5.230   3.974
 6687SOL     OW20959   6.684   2.244   1.513
 6687SOL    HW120960   6.760   2.180   1.516
 6687SOL    HW220961   6.635   2.243   1.600
 6688SOL     OW20962   3.791   5.649   0.276
 6688SOL    HW120963   3.835   5.624   0.189
 6688SOL    HW220964   3.779   5.748   0.280
 6689SOL     OW20965   2.022   4.524   6.073
 6689SOL    HW120966   2.041   4.613   6.032
 6689SOL    HW220967   2.033   4.453   6.004
 6690SOL     OW20968   1.306   0.017   6.264
 6690SOL    HW120969   1.250   6.965   6.304
 6690SOL    HW220970   1.345   7.005   6.178
 6691SOL     OW20971   2.597   2.467   2.631
 6691SOL    HW120972   2.566   2.561   2.615
 6691SOL    HW220973   2.636   2.429   2.547
 6692SOL     OW20974   4.757   5.390   1.318
 6692SOL    HW120975   4.785   5.333   1.395
 6692SOL    HW220976   4.780   5.343   1.232
 6693SOL     OW20977   4.301   1.789   4.687
 6693SOL    HW120978   4.266   1.856   4.622
 6693SOL    HW220979   4.239   1.710   4.690
 6694SOL     OW20980   3.360   5.001   0.844
 6694SOL    HW120981   3.315   4.939   0.780
 6694SOL    HW220982   3.442   4.957   0.880
 6695SOL     OW20983   2.658   2.103   6.531
 6695SOL    HW120984   2.650   2.060   6.441
 6695SOL    HW220985   2.592   2.178   6.537
 6696SOL     OW20986   3.888   3.815   4.072
 6696SOL    HW120987   3.867   3.735   4.016
 6696SOL    HW220988   3.958   3.791   4.139
 6697SOL     OW20989   4.626   2.587   2.251
 6697SOL    HW120990   4.663   2.648   2.181
 6697SOL    HW220991   4.573   2.514   2.208
 6698SOL     OW20992   3.539   4.053   1.605
 6698SOL    HW120993   3.573   4.084   1.693
 6698SOL    HW220994   3.440   4.044   1.608
 6699SOL     OW20995   1.538   4.607   5.442
 6699SOL    HW120996   1.537   4.674   5.368
 6699SOL    HW220997   1.459   4.621   5.502
 6700SOL     OW20998   5.697   6.885   0.050
 6700SOL    HW120999   5.755   6.964   0.066
 6700SOL    HW221000   5.651   6.894   6.981
 6701SOL     OW21001   6.039   0.494   1.265
 6701SOL    HW121002   6.027   0.395   1.260
 6701SOL    HW221003   5.973   0.538   1.204
 6702SOL     OW21004   2.983   2.584   0.971
 6702SOL    HW121005   3.021   2.673   0.997
 6702SOL    HW221006   2.961   2.532   1.053
 6703SOL     OW21007   0.456   1.516   0.014
 6703SOL    HW121008   0.478   1.420   0.030
 6703SOL    HW221009   0.423   1.557   0.100
 6704SOL     OW21010   3.336   0.931   4.986
 6704SOL    HW121011   3.272   0.948   5.061
 6704SOL    HW221012   3.410   0.872   5.017
 6705SOL     OW21013   6.324   3.832   2.181
 6705SOL    HW121014   6.423   3.839   2.176
 6705SOL    HW221015   6.294   3.754   2.125
 6706SOL     OW21016   0.269   6.807   2.053
 6706SOL    HW121017   0.195   6.742   2.033
 6706SOL    HW221018   0.256   6.844   2.145
 6707SOL     OW21019   5.930   0.557   2.168
 6707SOL    HW121020   5.875   0.473   2.170
 6707SOL    HW221021   5.893   0.623   2.234
 6708SOL     OW21022   0.032   3.907   1.834
 6708SOL    HW121023   0.076   3.895   1.744
 6708SOL    HW221024   6.985   3.980   1.829
 6709SOL     OW21025   1.704   5.191   2.564
 6709SOL    HW121026   1.714   5.265   2.631
 6709SOL    HW221027   1.744   5.107   2.601
 6710SOL     OW21028   4.770   1.272   1.559
 6710SOL    HW121029   4.767   1.372   1.564
 6710SOL    HW221030   4.794   1.235   1.649
 6711SOL     OW21031   3.925   5.976   6.066
 6711SOL    HW121032   3.886   5.912   6.000
 6711SOL    HW221033   4.014   5.942   6.096
 6712SOL     OW21034   6.225   3.486   1.449
 6712SOL    HW121035   6.302   3.434   1.412
 6712SOL    HW221036   6.157   3.500   1.377
 6713SOL     OW21037   1.364   6.308   4.327
 6713SOL    HW121038   1.457   6.331   4.299
 6713SOL    HW221039   1.333   6.227   4.276
 6714SOL     OW21040   5.513   0.974   0.550
 6714SOL    HW121041   5.509   1.073   0.545
 6714SOL    HW221042   5.421   0.936   0.536
 6715SOL     OW21043   1.003   1.058   0.206
 6715SOL    HW121044   0.942   1.126   0.166
 6715SOL    HW221045   1.010   0.979   0.145
 6716SOL     OW21046   7.004   5.472   2.878
 6716SOL    HW121047   6.992   5.397   2.943
 6716SOL    HW221048   7.003   5.435   2.785
 6717SOL     OW21049   4.055   2.577   6.233
 6717SOL    HW121050   4.106   2.638   6.171
 6717SOL    HW221051   3.962   2.612   6.244
 6718SOL     OW21052   3.626   7.015   1.744
 6718SOL    HW121053   3.661   0.087   1.762
 6718SOL    HW221054   3.574   7.016   1.659
 6719SOL     OW21055   1.837   0.895   6.973
 6719SOL    HW121056   1.760   0.933   6.922
 6719SOL    HW221057   1.811   0.879   0.047
 6720SOL     OW21058   1.915   0.542   6.076
 6720SOL    HW121059   1.959   0.509   6.160
 6720SOL    HW221060   1.969   0.618   6.039
 6721SOL     OW21061   0.740   1.692   0.870
 6721SOL    HW121062   0.688   1.737   0.943
 6721SOL    HW221063   0.786   1.762   0.815
 6722SOL     OW21064   6.496   3.325   0.788
 6722SOL    HW121065   6.479   3.344   0.691
 6722SOL    HW221066   6.579   3.270   0.796
 6723SOL     OW21067   1.791   2.241   0.035
 6723SOL    HW121068   1.717   2.202   0.091
 6723SOL    HW221069   1.847   2.301   0.092
 6724SOL     OW21070   2.089   3.461   5.751
 6724SOL    HW121071   2.108   3.529   5.680
 6724SOL    HW221072   2.022   3.498   5.815
 6725SOL     OW21073   5.588   2.620   3.379
 6725SOL    HW121074   5.561   2.668   3.296
 6725SOL    HW221075   5.650   2.678   3.432
 6726SOL     OW21076   6.967   0.999   5.322
 6726SOL    HW121077   6.931   1.059   5.393
 6726SOL    HW221078   6.896   0.985   5.252
 6727SOL     OW21079   1.043   4.860   5.621
 6727SOL    HW121080   1.133   4.901   5.615
 6727SOL    HW221081   0.978   4.914   5.567
 6728SOL     OW21082   3.926   1.752   3.759
 6728SOL    HW121083   3.990   1.801   3.699
 6728SOL    HW221084   3.833   1.782   3.739
 6729SOL     OW21085   5.244   1.467   1.260
 6729SOL    HW121086   5.224   1.499   1.352
 6729SOL    HW221087   5.328   1.412   1.260
 6730SOL     OW21088   0.970   1.244   1.498
 6730SOL    HW121089   1.008   1.336   1.499
 6730SOL    HW221090   0.964   1.209   1.592
 6731SOL     OW21091   3.429   6.462   6.766
 6731SOL    HW121092   3.353   6.518   6.799
 6731SOL    HW221093   3.400   6.367   6.758
 6732SOL     OW21094   6.021   5.254   4.414
 6732SOL    HW121095   6.028   5.155   4.415
 6732SOL    HW221096   6.033   5.290   4.507
 6733SOL     OW21097   4.369   5.039   6.525
 6733SOL    HW121098   4.379   5.122   6.471
 6733SOL    HW221099   4.400   5.056   6.618
 6734SOL     OW21100   5.574   1.249   4.814
 6734SOL    HW121101   5.610   1.338   4.842
 6734SOL    HW221102   5.650   1.190   4.787
 6735SOL     OW21103   5.832   3.027   3.525
 6735SOL    HW121104   5.790   3.079   3.451
 6735SOL    HW221105   5.819   3.076   3.612
 6736SOL     OW21106   3.262   3.923   0.527
 6736SOL    HW121107   3.217   3.848   0.574
 6736SOL    HW221108   3.339   3.956   0.582
 6737SOL     OW21109   0.735   3.390   1.320
 6737SOL    HW121110   0.669   3.460   1.348
 6737SOL    HW221111   0.817   3.433   1.283
 6738SOL     OW21112   2.133   5.803   2.950
 6738SOL    HW121113   2.212   5.863   2.963
 6738SOL    HW221114   2.058   5.855   2.908
 6739SOL     OW21115   6.881   6.622   4.698
 6739SOL    HW121116   6.918   6.715   4.705
 6739SOL    HW221117   6.952   6.561   4.663
 6740SOL     OW21118   0.127   6.806   4.180
 6740SOL    HW121119   0.178   6.888   4.151
 6740SOL    HW221120   0.036   6.808   4.141
 6741SOL     OW21121   4.933   2.097   5.776
 6741SOL    HW121122   4.979   2.029   5.833
 6741SOL    HW221123   5.000   2.137   5.713
 6742SOL     OW21124   5.627   4.437   3.640
 6742SOL    HW121125   5.529   4.433   3.659
 6742SOL    HW221126   5.659   4.531   3.651
 6743SOL     OW21127   4.036   4.067   1.204
 6743SOL    HW121128   4.113   4.065   1.267
 6743SOL    HW221129   4.012   3.974   1.177
 6744SOL     OW21130   0.166   5.506   5.801
 6744SOL    HW121131   0.076   5.469   5.776
 6744SOL    HW221132   0.220   5.524   5.719
 6745SOL     OW21133   6.900   6.625   4.190
 6745SOL    HW121134   6.976   6.606   4.253
 6745SOL    HW221135   6.916   6.577   4.104
 6746SOL     OW21136   1.697   1.274   2.684
 6746SOL    HW121137   1.749   1.334   2.744
 6746SOL    HW221138   1.760   1.224   2.624
 6747SOL     OW21139   1.384   6.450   6.723
 6747SOL    HW121140   1.388   6.545   6.753
 6747SOL    HW221141   1.326   6.398   6.785
 6748SOL     OW21142   2.541   1.709   4.401
 6748SOL    HW121143   2.580   1.711   4.309
 6748SOL    HW221144   2.593   1.769   4.461
 6749SOL     OW21145   3.723   4.712   1.187
 6749SOL    HW121146   3.778   4.657   1.124
 6749SOL    HW221147   3.644   4.660   1.216
 6750SOL     OW21148   3.280   1.874   4.515
 6750SOL    HW121149   3.290   1.798   4.579
 6750SOL    HW221150   3.327   1.955   4.551
 6751SOL     OW21151   4.126   6.542   3.797
 6751SOL    HW121152   4.169   6.461   3.758
 6751SOL    HW221153   4.128   6.535   3.897
 6752SOL     OW21154   1.870   6.291   2.602
 6752SOL    HW121155   1.904   6.354   2.532
 6752SOL    HW221156   1.785   6.248   2.571
 6753SOL     OW21157   3.799   3.004   5.467
 6753SOL    HW121158   3.887   3.024   5.422
 6753SOL    HW221159   3.741   3.085   5.463
 6754SOL     OW21160   6.153   1.246   1.532
 6754SOL    HW121161   6.214   1.299   1.472
 6754SOL    HW221162   6.195   1.157   1.552
 6755SOL     OW21163   2.400   5.238   6.218
 6755SOL    HW121164   2.320   5.226   6.160
 6755SOL    HW221165   2.484   5.225   6.164
 6756SOL     OW21166   2.434   2.243   5.808
 6756SOL    HW121167   2.452   2.164   5.867
 6756SOL    HW221168   2.342   2.276   5.824
 6757SOL     OW21169   3.615   0.999   0.429
 6757SOL    HW121170   3.581   0.971   0.519
 6757SOL    HW221171   3.713   0.980   0.423
 6758SOL     OW21172   6.073   2.681   1.737
 6758SOL    HW121173   6.131   2.719   1.664
 6758SOL    HW221174   6.061   2.750   1.808
 6759SOL     OW21175   0.801   3.264   3.253
 6759SOL    HW121176   0.866   3.191   3.232
 6759SOL    HW221177   0.813   3.292   3.349
 6760SOL     OW21178   5.349   3.069   2.759
 6760SOL    HW121179   5.428   3.118   2.723
 6760SOL    HW221180   5.269   3.129   2.758
 6761SOL     OW21181   5.013   2.023   4.568
 6761SOL    HW121182   5.087   1.968   4.607
 6761SOL    HW221183   4.932   2.018   4.626
 6762SOL     OW21184   6.476   5.517   3.780
 6762SOL    HW121185   6.424   5.493   3.698
 6762SOL    HW221186   6.469   5.443   3.847
 6763SOL     OW21187   4.852   5.007   4.927
 6763SOL    HW121188   4.898   4.956   4.999
 6763SOL    HW221189   4.917   5.065   4.880
 6764SOL     OW21190   1.479   5.646   1.794
 6764SOL    HW121191   1.443   5.585   1.864
 6764SOL    HW221192   1.578   5.655   1.805
 6765SOL     OW21193   6.574   4.566   2.922
 6765SOL    HW121194   6.477   4.580   2.901
 6765SOL    HW221195   6.629   4.583   2.840
 6766SOL     OW21196   4.833   6.834   0.622
 6766SOL    HW121197   4.788   6.818   0.534
 6766SOL    HW221198   4.889   6.754   0.646
 6767SOL     OW21199   3.083   1.300   0.375
 6767SOL    HW121200   3.122   1.391   0.390
 6767SOL    HW221201   3.133   1.233   0.429
 6768SOL     OW21202   2.045   0.732   1.234
 6768SOL    HW121203   1.948   0.714   1.246
 6768SOL    HW221204   2.065   0.746   1.137
 6769SOL     OW21205   3.953   2.540   1.197
 6769SOL    HW121206   3.853   2.540   1.203
 6769SOL    HW221207   3.989   2.454   1.234
 6770SOL     OW21208   0.039   0.414   1.918
 6770SOL    HW121209   0.015   0.360   1.837
 6770SOL    HW221210   6.975   0.448   1.961
 6771SOL     OW21211   4.068   2.205   2.663
 6771SOL    HW121212   4.123   2.223   2.582
 6771SOL    HW221213   3.990   2.147   2.639
 6772SOL     OW21214   3.193   1.627   2.405
 6772SOL    HW121215   3.207   1.725   2.390
 6772SOL    HW221216   3.261   1.593   2.470
 6773SOL     OW21217   6.555   3.968   1.824
 6773SOL    HW121218   6.627   3.929   1.882
 6773SOL    HW221219   6.558   4.068   1.832
 6774SOL     OW21220   0.720   2.665   6.451
 6774SOL    HW121221   0.745   2.761   6.438
 6774SOL    HW221222   0.765   2.629   6.532
 6775SOL     OW21223   2.662   4.325   1.070
 6775SOL    HW121224   2.667   4.401   1.135
 6775SOL    HW221225   2.706   4.244   1.110
 6776SOL     OW21226   5.702   4.904   0.090
 6776SOL    HW121227   5.672   4.833   0.153
 6776SOL    HW221228   5.802   4.907   0.088
 6777SOL     OW21229   4.368   5.065   5.771
 6777SOL    HW121230   4.345   5.015   5.855
 6777SOL    HW221231   4.428   5.009   5.714
 6778SOL     OW21232   0.624   4.267   2.532
 6778SOL    HW121233   0.657   4.178   2.501
 6778SOL    HW221234   0.576   4.256   2.618
 6779SOL     OW21235   6.972   4.422   0.303
 6779SOL    HW121236   7.000   4.395   0.395
 6779SOL    HW221237   7.010   4.512   0.282
 6780SOL     OW21238   0.143   2.376   3.128
 6780SOL    HW121239   0.152   2.436   3.208
 6780SOL    HW221240   0.233   2.361   3.088
 6781SOL     OW21241   5.079   6.633   5.845
 6781SOL    HW121242   5.002   6.688   5.813
 6781SOL    HW221243   5.068   6.539   5.813
 6782SOL     OW21244   0.139   1.216   2.552
 6782SOL    HW121245   0.103   1.267   2.630
 6782SOL    HW221246   0.216   1.265   2.513
 6783SOL     OW21247   0.059   6.406   6.415
 6783SOL    HW121248   0.039   6.331   6.352
 6783SOL    HW221249   0.135   6.381   6.474
 6784SOL     OW21250   3.865   4.278   0.044
 6784SOL    HW121251   3.859   4.318   0.135
 6784SOL    HW221252   3.884   4.180   0.051
 6785SOL     OW21253   6.379   5.632   1.621
 6785SOL    HW121254   6.437   5.640   1.540
 6785SOL    HW221255   6.295   5.582   1.598
 6786SOL     OW21256   1.623   2.247   6.843
 6786SOL    HW121257   1.693   2.242   6.914
 6786SOL    HW221258   1.545   2.300   6.877
 6787SOL     OW21259   1.292   3.724   1.345
 6787SOL    HW121260   1.386   3.742   1.315
 6787SOL    HW221261   1.257   3.644   1.296
 6788SOL     OW21262   2.784   4.044   1.701
 6788SOL    HW121263   2.808   3.973   1.767
 6788SOL    HW221264   2.715   4.009   1.638
 6789SOL     OW21265   0.652   6.681   2.221
 6789SOL    HW121266   0.709   6.700   2.141
 6789SOL    HW221267   0.674   6.745   2.294
 6790SOL     OW21268   1.998   2.958   0.220
 6790SOL    HW121269   1.950   2.884   0.268
 6790SOL    HW221270   2.096   2.941   0.222
 6791SOL     OW21271   4.021   2.933   6.872
 6791SOL    HW121272   4.020   3.009   6.807
 6791SOL    HW221273   4.097   2.872   6.851
 6792SOL     OW21274   6.473   6.137   6.574
 6792SOL    HW121275   6.418   6.114   6.493
 6792SOL    HW221276   6.430   6.097   6.655
 6793SOL     OW21277   0.854   2.416   0.340
 6793SOL    HW121278   0.873   2.327   0.381
 6793SOL    HW221279   0.881   2.488   0.404
 6794SOL     OW21280   4.888   1.124   4.248
 6794SOL    HW121281   4.802   1.099   4.204
 6794SOL    HW221282   4.899   1.072   4.333
 6795SOL     OW21283   2.781   5.982   0.643
 6795SOL    HW121284   2.695   5.954   0.686
 6795SOL    HW221285   2.792   6.081   0.653
 6796SOL     OW21286   5.232   1.299   2.403
 6796SOL    HW121287   5.325   1.280   2.433
 6796SOL    HW221288   5.168   1.246   2.458
 6797SOL     OW21289   5.425   3.668   1.854
 6797SOL    HW121290   5.427   3.678   1.953
 6797SOL    HW221291   5.519   3.664   1.819
 6798SOL     OW21292   5.683   5.545   2.660
 6798SOL    HW121293   5.664   5.604   2.581
 6798SOL    HW221294   5.596   5.518   2.703
 6799SOL     OW21295   4.862   5.606   0.449
 6799SOL    HW121296   4.828   5.700   0.442
 6799SOL    HW221297   4.869   5.566   0.358
 6800SOL     OW21298   1.685   4.218   0.531
 6800SOL    HW121299   1.707   4.155   0.605
 6800SOL    HW221300   1.668   4.310   0.568
 6801SOL     OW21301   1.566   2.281   2.082
 6801SOL    HW121302   1.500   2.356   2.076
 6801SOL    HW221303   1.623   2.279   2.000
 6802SOL     OW21304   2.191   5.734   0.660
 6802SOL    HW121305   2.179   5.830   0.687
 6802SOL    HW221306   2.234   5.730   0.570
 6803SOL     OW21307   5.322   2.185   6.193
 6803SOL    HW121308   5.396   2.240   6.154
 6803SOL    HW221309   5.240   2.242   6.204
 6804SOL     OW21310   1.458   5.591   3.338
 6804SOL    HW121311   1.424   5.506   3.377
 6804SOL    HW221312   1.536   5.572   3.279
 6805SOL     OW21313   5.941   6.914   4.583
 6805SOL    HW121314   5.998   6.865   4.517
 6805SOL    HW221315   5.998   6.964   4.647
 6806SOL     OW21316   4.739   1.359   4.464
 6806SOL    HW121317   4.731   1.295   4.540
 6806SOL    HW221318   4.769   1.448   4.498
 6807SOL     OW21319   2.693   3.093   0.107
 6807SOL    HW121320   2.721   3.002   0.078
 6807SOL    HW221321   2.613   3.122   0.055
 6808SOL     OW21322   0.442   2.559   4.993
 6808SOL    HW121323   0.530   2.606   4.987
 6808SOL    HW221324   0.420   2.518   4.905
 6809SOL     OW21325   1.479   4.670   6.964
 6809SOL    HW121326   1.449   4.734   6.894
 6809SOL    HW221327   1.445   4.578   6.942
 6810SOL     OW21328   0.592   1.172   2.659
 6810SOL    HW121329   0.681   1.127   2.660
 6810SOL    HW221330   0.604   1.269   2.635
 6811SOL     OW21331   6.484   4.506   0.620
 6811SOL    HW121332   6.401   4.477   0.574
 6811SOL    HW221333   6.461   4.543   0.710
 6812SOL     OW21334   3.706   4.021   3.166
 6812SOL    HW121335   3.738   3.937   3.211
 6812SOL    HW221336   3.652   4.075   3.231
 6813SOL     OW21337   4.821   1.918   1.476
 6813SOL    HW121338   4.750   1.848   1.473
 6813SOL    HW221339   4.831   1.951   1.570
 6814SOL     OW21340   2.666   3.344   1.004
 6814SOL    HW121341   2.589   3.281   0.992
 6814SOL    HW221342   2.729   3.334   0.927
 6815SOL     OW21343   3.061   7.009   1.746
 6815SOL    HW121344   2.984   0.051   1.757
 6815SOL    HW221345   3.146   0.041   1.740
 6816SOL     OW21346   6.398   5.124   0.104
 6816SOL    HW121347   6.414   5.160   0.196
 6816SOL    HW221348   6.316   5.067   0.104
 6817SOL     OW21349   6.656   1.590   5.314
 6817SOL    HW121350   6.605   1.613   5.397
 6817SOL    HW221351   6.682   1.674   5.267
 6818SOL     OW21352   3.428   6.476   2.138
 6818SOL    HW121353   3.339   6.470   2.093
 6818SOL    HW221354   3.423   6.431   2.227
 6819SOL     OW21355   3.141   0.641   3.689
 6819SOL    HW121356   3.237   0.616   3.705
 6819SOL    HW221357   3.131   0.740   3.690
 6820SOL     OW21358   0.505   4.544   3.628
 6820SOL    HW121359   0.446   4.473   3.666
 6820SOL    HW221360   0.513   4.618   3.694
 6821SOL     OW21361   2.652   2.371   5.176
 6821SOL    HW121362   2.589   2.418   5.238
 6821SOL    HW221363   2.635   2.401   5.082
 6822SOL     OW21364   5.690   1.436   5.812
 6822SOL    HW121365   5.646   1.521   5.841
 6822SOL    HW221366   5.638   1.395   5.738
 6823SOL     OW21367   3.331   3.205   3.767
 6823SOL    HW121368   3.268   3.281   3.751
 6823SOL    HW221369   3.421   3.229   3.731
 6824SOL     OW21370   0.209   3.760   6.085
 6824SOL    HW121371   0.250   3.709   6.161
 6824SOL    HW221372   0.113   3.734   6.076
 6825SOL     OW21373   5.481   6.919   2.294
 6825SOL    HW121374   5.552   6.851   2.314
 6825SOL    HW221375   5.401   6.903   2.352
 6826SOL     OW21376   2.132   3.437   2.757
 6826SOL    HW121377   2.139   3.523   2.705
 6826SOL    HW221378   2.134   3.360   2.694
 6827SOL     OW21379   5.042   6.084   6.716
 6827SOL    HW121380   4.953   6.092   6.672
 6827SOL    HW221381   5.107   6.147   6.672
 6828SOL     OW21382   1.636   2.181   1.272
 6828SOL    HW121383   1.573   2.210   1.199
 6828SOL    HW221384   1.619   2.235   1.354
 6829SOL     OW21385   5.157   6.600   3.591
 6829SOL    HW121386   5.227   6.612   3.660
 6829SOL    HW221387   5.116   6.688   3.567
 6830SOL     OW21388   5.326   1.593   3.250
 6830SOL    HW121389   5.376   1.511   3.277
 6830SOL    HW221390   5.388   1.672   3.250
 6831SOL     OW21391   0.684   0.944   6.022
 6831SOL    HW121392   0.591   0.914   6.041
 6831SOL    HW221393   0.683   1.013   5.949
 6832SOL     OW21394   2.975   4.788   1.827
 6832SOL    HW121395   2.935   4.736   1.902
 6832SOL    HW221396   2.928   4.765   1.741
 6833SOL     OW21397   3.749   4.938   6.457
 6833SOL    HW121398   3.789   4.937   6.549
 6833SOL    HW221399   3.823   4.939   6.389
 6834SOL     OW21400   4.547   0.032   2.097
 6834SOL    HW121401   4.558   6.961   2.134
 6834SOL    HW221402   4.495   0.088   2.162
 6835SOL     OW21403   4.202   0.250   4.524
 6835SOL    HW121404   4.109   0.222   4.546
 6835SOL    HW221405   4.237   0.309   4.596
 6836SOL     OW21406   3.033   6.544   0.639
 6836SOL    HW121407   3.012   6.635   0.675
 6836SOL    HW221408   3.041   6.549   0.539
 6837SOL     OW21409   1.785   3.493   1.858
 6837SOL    HW121410   1.731   3.556   1.803
 6837SOL    HW221411   1.882   3.514   1.846
 6838SOL     OW21412   2.693   1.066   0.483
 6838SOL    HW121413   2.609   1.046   0.533
 6838SOL    HW221414   2.670   1.107   0.395
 6839SOL     OW21415   4.513   0.912   0.979
 6839SOL    HW121416   4.587   0.980   0.978
 6839SOL    HW221417   4.547   0.826   0.940
 6840SOL     OW21418   2.955   1.348   6.256
 6840SOL    HW121419   2.875   1.365   6.199
 6840SOL    HW221420   2.959   1.416   6.329
 6841SOL     OW21421   6.268   3.081   6.388
 6841SOL    HW121422   6.257   3.000   6.331
 6841SOL    HW221423   6.348   3.070   6.447
 6842SOL     OW21424   2.030   5.584   1.260
 6842SOL    HW121425   2.011   5.627   1.348
 6842SOL    HW221426   2.110   5.525   1.267
 6843SOL     OW21427   5.256   6.827   6.571
 6843SOL    HW121428   5.292   6.908   6.525
 6843SOL    HW221429   5.317   6.802   6.647
 6844SOL     OW21430   4.889   0.693   3.815
 6844SOL    HW121431   4.833   0.747   3.753
 6844SOL    HW221432   4.831   0.634   3.871
 6845SOL     OW21433   5.094   2.729   2.891
 6845SOL    HW121434   5.034   2.795   2.845
 6845SOL    HW221435   5.101   2.646   2.836
 6846SOL     OW21436   3.027   4.054   0.253
 6846SOL    HW121437   2.997   3.960   0.240
 6846SOL    HW221438   3.020   4.079   0.349
 6847SOL     OW21439   5.977   3.784   4.389
 6847SOL    HW121440   6.024   3.696   4.379
 6847SOL    HW221441   5.901   3.790   4.325
 6848SOL     OW21442   4.905   4.361   3.792
 6848SOL    HW121443   4.931   4.457   3.797
 6848SOL    HW221444   4.921   4.326   3.699
 6849SOL     OW21445   4.168   3.715   6.072
 6849SOL    HW121446   4.174   3.633   6.015
 6849SOL    HW221447   4.077   3.755   6.064
 6850SOL     OW21448   4.416   2.310   3.464
 6850SOL    HW121449   4.320   2.328   3.444
 6850SOL    HW221450   4.429   2.213   3.482
 6851SOL     OW21451   1.664   2.987   2.847
 6851SOL    HW121452   1.700   3.070   2.891
 6851SOL    HW221453   1.588   2.951   2.902
 6852SOL     OW21454   2.500   5.558   0.549
 6852SOL    HW121455   2.503   5.479   0.609
 6852SOL    HW221456   2.504   5.528   0.453
 6853SOL     OW21457   5.218   3.245   6.585
 6853SOL    HW121458   5.127   3.249   6.543
 6853SOL    HW221459   5.252   3.151   6.582
 6854SOL     OW21460   5.147   6.638   6.117
 6854SOL    HW121461   5.243   6.614   6.131
 6854SOL    HW221462   5.123   6.628   6.021
 6855SOL     OW21463   3.807   5.170   3.415
 6855SOL    HW121464   3.847   5.124   3.494
 6855SOL    HW221465   3.711   5.191   3.433
 6856SOL     OW21466   0.913   2.326   6.317
 6856SOL    HW121467   0.894   2.278   6.402
 6856SOL    HW221468   0.827   2.342   6.268
 6857SOL     OW21469   0.907   3.439   6.307
 6857SOL    HW121470   0.957   3.462   6.391
 6857SOL    HW221471   0.966   3.387   6.246
 6858SOL     OW21472   3.238   4.274   1.697
 6858SOL    HW121473   3.139   4.284   1.708
 6858SOL    HW221474   3.278   4.363   1.673
 6859SOL     OW21475   1.096   1.317   2.522
 6859SOL    HW121476   1.022   1.342   2.460
 6859SOL    HW221477   1.136   1.399   2.562
 6860SOL     OW21478   0.002   5.940   1.761
 6860SOL    HW121479   6.959   5.977   1.693
 6860SOL    HW221480   0.096   5.951   1.730
 6861SOL     OW21481   5.142   2.962   5.208
 6861SOL    HW121482   5.077   3.016   5.155
 6861SOL    HW221483   5.092   2.907   5.275
 6862SOL     OW21484   0.245   4.715   6.062
 6862SOL    HW121485   0.311   4.683   5.994
 6862SOL    HW221486   0.247   4.654   6.141
 6863SOL     OW21487   0.124   6.515   5.119
 6863SOL    HW121488   0.152   6.494   5.025
 6863SOL    HW221489   0.190   6.476   5.183
 6864SOL     OW21490   1.913   3.740   5.731
 6864SOL    HW121491   1.966   3.787   5.661
 6864SOL    HW221492   1.973   3.711   5.805
 6865SOL     OW21493   1.572   0.139   4.518
 6865SOL    HW121494   1.488   0.162   4.569
 6865SOL    HW221495   1.554   0.146   4.420
 6866SOL     OW21496   6.988   4.524   1.693
 6866SOL    HW121497   6.925   4.472   1.636
 6866SOL    HW221498   6.943   4.548   1.779
 6867SOL     OW21499   2.106   3.213   0.671
 6867SOL    HW121500   2.199   3.194   0.641
 6867SOL    HW221501   2.043   3.150   0.625
 6868SOL     OW21502   1.911   5.134   4.845
 6868SOL    HW121503   1.954   5.221   4.868
 6868SOL    HW221504   1.980   5.071   4.809
 6869SOL     OW21505   3.447   0.196   5.535
 6869SOL    HW121506   3.435   0.243   5.447
 6869SOL    HW221507   3.359   0.189   5.582
 6870SOL     OW21508   0.213   2.875   0.141
 6870SOL    HW121509   0.217   2.919   0.231
 6870SOL    HW221510   0.306   2.852   0.112
 6871SOL     OW21511   6.777   3.743   2.465
 6871SOL    HW121512   6.695   3.711   2.512
 6871SOL    HW221513   6.848   3.673   2.469
 6872SOL     OW21514   1.423   2.816   1.786
 6872SOL    HW121515   1.363   2.880   1.739
 6872SOL    HW221516   1.396   2.722   1.763
 6873SOL     OW21517   1.075   3.940   4.598
 6873SOL    HW121518   1.147   3.965   4.534
 6873SOL    HW221519   1.008   4.015   4.603
 6874SOL     OW21520   5.789   5.887   2.680
 6874SOL    HW121521   5.727   5.832   2.624
 6874SOL    HW221522   5.799   5.978   2.640
 6875SOL     OW21523   1.132   3.020   1.242
 6875SOL    HW121524   1.195   3.085   1.200
 6875SOL    HW221525   1.085   2.968   1.171
 6876SOL     OW21526   4.362   5.765   3.530
 6876SOL    HW121527   4.383   5.807   3.619
 6876SOL    HW221528   4.270   5.726   3.533
 6877SOL     OW21529   2.274   4.108   2.185
 6877SOL    HW121530   2.360   4.079   2.227
 6877SOL    HW221531   2.270   4.208   2.184
 6878SOL     OW21532   2.248   1.180   4.070
 6878SOL    HW121533   2.236   1.093   4.120
 6878SOL    HW221534   2.280   1.161   3.978
 6879SOL     OW21535   2.150   2.399   0.799
 6879SOL    HW121536   2.125   2.361   0.888
 6879SOL    HW221537   2.067   2.426   0.750
 6880SOL     OW21538   1.789   5.692   6.519
 6880SOL    HW121539   1.825   5.781   6.490
 6880SOL    HW221540   1.689   5.695   6.522
 6881SOL     OW21541   1.499   3.435   0.101
 6881SOL    HW121542   1.561   3.513   0.107
 6881SOL    HW221543   1.448   3.426   0.187
 6882SOL     OW21544   3.060   6.724   0.433
 6882SOL    HW121545   2.974   6.768   0.408
 6882SOL    HW221546   3.128   6.741   0.361
 6883SOL     OW21547   4.813   0.297   6.459
 6883SOL    HW121548   4.716   0.293   6.433
 6883SOL    HW221549   4.867   0.329   6.381
 6884SOL     OW21550   2.158   3.558   2.997
 6884SOL    HW121551   2.097   3.612   2.941
 6884SOL    HW221552   2.199   3.485   2.941
 6885SOL     OW21553   5.281   5.508   3.521
 6885SOL    HW121554   5.185   5.495   3.545
 6885SOL    HW221555   5.304   5.605   3.526
 6886SOL     OW21556   5.052   1.181   5.935
 6886SOL    HW121557   4.995   1.262   5.924
 6886SOL    HW221558   5.142   1.197   5.894
 6887SOL     OW21559   5.315   6.301   6.593
 6887SOL    HW121560   5.304   6.398   6.574
 6887SOL    HW221561   5.306   6.249   6.508
 6888SOL     OW21562   5.429   4.822   6.632
 6888SOL    HW121563   5.391   4.903   6.587
 6888SOL    HW221564   5.374   4.801   6.713
 6889SOL     OW21565   1.138   2.720   6.152
 6889SOL    HW121566   1.122   2.806   6.200
 6889SOL    HW221567   1.129   2.644   6.216
 6890SOL     OW21568   3.575   5.059   2.625
 6890SOL    HW121569   3.512   5.108   2.686
 6890SOL    HW221570   3.622   5.124   2.566
 6891SOL     OW21571   2.001   2.599   1.141
 6891SOL    HW121572   1.984   2.589   1.239
 6891SOL    HW221573   2.097   2.622   1.127
 6892SOL     OW21574   3.742   1.220   3.918
 6892SOL    HW121575   3.681   1.256   3.848
 6892SOL    HW221576   3.690   1.200   4.001
 6893SOL     OW21577   6.269   2.620   6.990
 6893SOL    HW121578   6.352   2.665   6.957
 6893SOL    HW221579   6.201   2.617   6.917
 6894SOL     OW21580   5.584   4.977   1.232
 6894SOL    HW121581   5.600   4.926   1.316
 6894SOL    HW221582   5.565   4.913   1.157
 6895SOL     OW21583   1.448   6.276   1.656
 6895SOL    HW121584   1.535   6.317   1.684
 6895SOL    HW221585   1.373   6.338   1.678
 6896SOL     OW21586   4.025   2.152   4.679
 6896SOL    HW121587   4.045   2.181   4.773
 6896SOL    HW221588   4.107   2.161   4.624
 6897SOL     OW21589   5.096   3.983   5.427
 6897SOL    HW121590   5.109   3.902   5.371
 6897SOL    HW221591   5.065   3.957   5.519
 6898SOL     OW21592   2.671   1.591   1.713
 6898SOL    HW121593   2.590   1.649   1.710
 6898SOL    HW221594   2.724   1.612   1.795
 6899SOL     OW21595   6.309   5.752   2.706
 6899SOL    HW121596   6.294   5.717   2.799
 6899SOL    HW221597   6.372   5.691   2.658
 6900SOL     OW21598   6.377   4.560   6.080
 6900SOL    HW121599   6.327   4.492   6.025
 6900SOL    HW221600   6.313   4.613   6.134
 6901SOL     OW21601   4.671   5.277   6.661
 6901SOL    HW121602   4.635   5.198   6.711
 6901SOL    HW221603   4.602   5.309   6.596
 6902SOL     OW21604   0.311   5.764   5.881
 6902SOL    HW121605   0.275   5.717   5.961
 6902SOL    HW221606   0.312   5.702   5.803
 6903SOL     OW21607   2.770   4.976   4.792
 6903SOL    HW121608   2.809   4.960   4.883
 6903SOL    HW221609   2.774   4.891   4.739
 6904SOL     OW21610   0.105   6.080   4.195
 6904SOL    HW121611   0.044   6.130   4.257
 6904SOL    HW221612   0.080   5.983   4.195
 6905SOL     OW21613   5.506   5.525   6.098
 6905SOL    HW121614   5.472   5.525   6.004
 6905SOL    HW221615   5.572   5.599   6.109
 6906SOL     OW21616   3.888   1.014   3.526
 6906SOL    HW121617   3.836   1.091   3.563
 6906SOL    HW221618   3.969   0.998   3.583
 6907SOL     OW21619   6.316   1.664   1.234
 6907SOL    HW121620   6.254   1.660   1.155
 6907SOL    HW221621   6.313   1.577   1.283
 6908SOL     OW21622   2.575   4.329   6.729
 6908SOL    HW121623   2.476   4.346   6.724
 6908SOL    HW221624   2.594   4.237   6.695
 6909SOL     OW21625   5.848   5.071   1.477
 6909SOL    HW121626   5.757   5.113   1.482
 6909SOL    HW221627   5.852   4.993   1.538
 6910SOL     OW21628   1.460   2.611   3.441
 6910SOL    HW121629   1.483   2.520   3.407
 6910SOL    HW221630   1.497   2.680   3.378
 6911SOL     OW21631   3.215   0.151   5.647
 6911SOL    HW121632   3.271   0.200   5.715
 6911SOL    HW221633   3.241   0.055   5.645
 6912SOL     OW21634   2.260   3.646   6.452
 6912SOL    HW121635   2.254   3.666   6.550
 6912SOL    HW221636   2.355   3.655   6.422
 6913SOL     OW21637   4.411   6.114   5.725
 6913SOL    HW121638   4.316   6.135   5.750
 6913SOL    HW221639   4.417   6.022   5.689
 6914SOL     OW21640   6.321   3.421   2.233
 6914SOL    HW121641   6.289   3.492   2.171
 6914SOL    HW221642   6.400   3.374   2.192
 6915SOL     OW21643   1.407   3.395   2.156
 6915SOL    HW121644   1.320   3.436   2.185
 6915SOL    HW221645   1.427   3.315   2.213
 6916SOL     OW21646   4.754   6.422   6.212
 6916SOL    HW121647   4.824   6.486   6.182
 6916SOL    HW221648   4.712   6.378   6.133
 6917SOL     OW21649   5.554   5.723   1.324
 6917SOL    HW121650   5.584   5.765   1.238
 6917SOL    HW221651   5.510   5.793   1.381
 6918SOL     OW21652   1.082   3.223   1.939
 6918SOL    HW121653   1.051   3.143   1.889
 6918SOL    HW221654   1.170   3.254   1.902
 6919SOL     OW21655   6.584   6.514   2.997
 6919SOL    HW121656   6.574   6.583   2.925
 6919SOL    HW221657   6.507   6.520   3.060
 6920SOL     OW21658   4.567   0.635   5.212
 6920SOL    HW121659   4.596   0.665   5.303
 6920SOL    HW221660   4.522   0.546   5.219
 6921SOL     OW21661   3.050   0.396   4.628
 6921SOL    HW121662   3.126   0.335   4.653
 6921SOL    HW221663   3.023   0.378   4.533
 6922SOL     OW21664   1.356   6.072   5.464
 6922SOL    HW121665   1.397   6.032   5.382
 6922SOL    HW221666   1.280   6.132   5.438
 6923SOL     OW21667   6.430   0.017   2.088
 6923SOL    HW121668   6.367   7.010   2.015
 6923SOL    HW221669   6.388   0.089   2.143
 6924SOL     OW21670   3.647   6.901   0.433
 6924SOL    HW121671   3.727   6.952   0.462
 6924SOL    HW221672   3.665   6.856   0.345
 6925SOL     OW21673   5.893   6.348   6.751
 6925SOL    HW121674   5.948   6.370   6.671
 6925SOL    HW221675   5.894   6.249   6.767
 6926SOL     OW21676   3.043   1.922   0.717
 6926SOL    HW121677   3.041   2.011   0.762
 6926SOL    HW221678   3.091   1.856   0.775
 6927SOL     OW21679   4.237   1.031   0.366
 6927SOL    HW121680   4.320   1.077   0.398
 6927SOL    HW221681   4.177   1.097   0.322
 6928SOL     OW21682   4.598   5.057   0.796
 6928SOL    HW121683   4.555   5.115   0.727
 6928SOL    HW221684   4.616   5.111   0.879
 6929SOL     OW21685   5.352   5.513   1.210
 6929SOL    HW121686   5.437   5.556   1.239
 6929SOL    HW221687   5.276   5.577   1.221
 6930SOL     OW21688   0.438   1.100   0.492
 6930SOL    HW121689   0.526   1.084   0.446
 6930SOL    HW221690   0.412   1.017   0.542
 6931SOL     OW21691   2.640   2.535   1.241
 6931SOL    HW121692   2.604   2.535   1.147
 6931SOL    HW221693   2.647   2.629   1.273
 6932SOL     OW21694   4.586   5.782   0.300
 6932SOL    HW121695   4.544   5.692   0.286
 6932SOL    HW221696   4.676   5.771   0.342
 6933SOL     OW21697   3.058   5.728   6.463
 6933SOL    HW121698   3.096   5.778   6.385
 6933SOL    HW221699   3.132   5.690   6.517
 6934SOL     OW21700   4.703   4.329   6.409
 6934SOL    HW121701   4.700   4.337   6.309
 6934SOL    HW221702   4.664   4.242   6.437
 6935SOL     OW21703   5.534   5.391   1.571
 6935SOL    HW121704   5.603   5.450   1.528
 6935SOL    HW221705   5.577   5.304   1.596
 6936SOL     OW21706   0.960   1.682   4.689
 6936SOL    HW121707   0.902   1.624   4.632
 6936SOL    HW221708   1.052   1.684   4.651
 6937SOL     OW21709   5.240   5.736   0.499
 6937SOL    HW121710   5.206   5.692   0.415
 6937SOL    HW221711   5.189   5.701   0.577
 6938SOL     OW21712   0.473   0.514   4.950
 6938SOL    HW121713   0.564   0.476   4.933
 6938SOL    HW221714   0.417   0.501   4.868
 6939SOL     OW21715   6.450   4.632   3.165
 6939SOL    HW121716   6.509   4.586   3.098
 6939SOL    HW221717   6.493   4.717   3.195
 6940SOL     OW21718   4.342   6.835   0.567
 6940SOL    HW121719   4.316   6.831   0.664
 6940SOL    HW221720   4.364   6.930   0.542
 6941SOL     OW21721   3.144   3.556   2.974
 6941SOL    HW121722   3.228   3.580   2.925
 6941SOL    HW221723   3.123   3.459   2.960
 6942SOL     OW21724   6.641   6.371   1.940
 6942SOL    HW121725   6.601   6.462   1.940
 6942SOL    HW221726   6.686   6.353   2.027
 6943SOL     OW21727   4.028   4.808   6.656
 6943SOL    HW121728   4.042   4.822   6.558
 6943SOL    HW221729   3.967   4.880   6.691
 6944SOL     OW21730   1.004   3.936   5.636
 6944SOL    HW121731   0.950   3.861   5.675
 6944SOL    HW221732   0.954   4.022   5.645
 6945SOL     OW21733   5.469   2.916   0.644
 6945SOL    HW121734   5.383   2.954   0.611
 6945SOL    HW221735   5.491   2.956   0.734
 6946SOL     OW21736   4.223   5.921   2.429
 6946SOL    HW121737   4.286   5.877   2.366
 6946SOL    HW221738   4.154   5.855   2.460
 6947SOL     OW21739   5.299   5.340   5.556
 6947SOL    HW121740   5.317   5.278   5.633
 6947SOL    HW221741   5.241   5.415   5.587
 6948SOL     OW21742   0.729   6.054   0.284
 6948SOL    HW121743   0.722   6.057   0.184
 6948SOL    HW221744   0.736   6.147   0.319
 6949SOL     OW21745   2.725   2.386   3.442
 6949SOL    HW121746   2.627   2.397   3.423
 6949SOL    HW221747   2.742   2.403   3.539
 6950SOL     OW21748   0.948   6.744   5.147
 6950SOL    HW121749   1.035   6.767   5.190
 6950SOL    HW221750   0.873   6.780   5.202
 6951SOL     OW21751   6.823   5.135   6.616
 6951SOL    HW121752   6.770   5.058   6.653
 6951SOL    HW221753   6.776   5.172   6.535
 6952SOL     OW21754   3.356   4.918   2.905
 6952SOL    HW121755   3.325   5.011   2.921
 6952SOL    HW221756   3.304   4.878   2.829
 6953SOL     OW21757   5.489   0.641   1.126
 6953SOL    HW121758   5.473   0.543   1.137
 6953SOL    HW221759   5.435   0.675   1.049
 6954SOL     OW21760   6.852   3.820   0.550
 6954SOL    HW121761   6.833   3.867   0.464
 6954SOL    HW221762   6.951   3.814   0.564
 6955SOL     OW21763   5.218   6.409   2.462
 6955SOL    HW121764   5.125   6.373   2.460
 6955SOL    HW221765   5.217   6.504   2.492
 6956SOL     OW21766   5.378   5.635   2.235
 6956SOL    HW121767   5.308   5.690   2.282
 6956SOL    HW221768   5.371   5.540   2.264
 6957SOL     OW21769   5.456   5.326   6.496
 6957SOL    HW121770   5.413   5.239   6.519
 6957SOL    HW221771   5.388   5.399   6.500
 6958SOL     OW21772   3.697   3.123   3.517
 6958SOL    HW121773   3.687   3.215   3.554
 6958SOL    HW221774   3.702   3.128   3.417
 6959SOL     OW21775   1.097   4.516   3.198
 6959SOL    HW121776   1.029   4.455   3.237
 6959SOL    HW221777   1.074   4.535   3.102
 6960SOL     OW21778   2.541   4.416   0.475
 6960SOL    HW121779   2.599   4.370   0.542
 6960SOL    HW221780   2.593   4.490   0.431
 6961SOL     OW21781   4.360   1.982   5.358
 6961SOL    HW121782   4.276   1.964   5.409
 6961SOL    HW221783   4.351   1.947   5.265
 6962SOL     OW21784   3.189   6.890   6.109
 6962SOL    HW121785   3.160   6.964   6.170
 6962SOL    HW221786   3.235   6.819   6.163
 6963SOL     OW21787   5.287   6.962   1.138
 6963SOL    HW121788   5.201   6.990   1.095
 6963SOL    HW221789   5.360   6.962   1.069
 6964SOL     OW21790   2.135   0.342   6.210
 6964SOL    HW121791   2.113   0.296   6.124
 6964SOL    HW221792   2.228   0.380   6.204
 6965SOL     OW21793   0.690   1.826   0.164
 6965SOL    HW121794   0.652   1.793   0.078
 6965SOL    HW221795   0.616   1.862   0.221
 6966SOL     OW21796   0.888   1.225   1.785
 6966SOL    HW121797   0.812   1.173   1.823
 6966SOL    HW221798   0.896   1.313   1.832
 6967SOL     OW21799   4.321   1.909   5.935
 6967SOL    HW121800   4.405   1.962   5.921
 6967SOL    HW221801   4.317   1.833   5.870
 6968SOL     OW21802   3.668   6.735   2.613
 6968SOL    HW121803   3.733   6.809   2.630
 6968SOL    HW221804   3.584   6.752   2.664
 6969SOL     OW21805   2.315   1.883   1.949
 6969SOL    HW121806   2.240   1.820   1.931
 6969SOL    HW221807   2.280   1.966   1.993
 6970SOL     OW21808   3.932   4.302   5.865
 6970SOL    HW121809   3.943   4.302   5.766
 6970SOL    HW221810   3.951   4.211   5.901
 6971SOL     OW21811   6.690   4.541   0.269
 6971SOL    HW121812   6.699   4.607   0.343
 6971SOL    HW221813   6.772   4.484   0.264
 6972SOL     OW21814   5.233   3.831   2.379
 6972SOL    HW121815   5.261   3.891   2.455
 6972SOL    HW221816   5.224   3.737   2.413
 6973SOL     OW21817   1.111   2.539   3.037
 6973SOL    HW121818   1.192   2.588   3.004
 6973SOL    HW221819   1.051   2.603   3.085
 6974SOL     OW21820   3.560   3.788   2.605
 6974SOL    HW121821   3.605   3.873   2.632
 6974SOL    HW221822   3.461   3.798   2.616
 6975SOL     OW21823   3.264   5.840   4.933
 6975SOL    HW121824   3.262   5.918   4.996
 6975SOL    HW221825   3.197   5.854   4.860
 6976SOL     OW21826   4.907   4.490   5.832
 6976SOL    HW121827   4.884   4.393   5.823
 6976SOL    HW221828   5.006   4.500   5.835
 6977SOL     OW21829   4.340   4.665   1.673
 6977SOL    HW121830   4.416   4.602   1.688
 6977SOL    HW221831   4.264   4.640   1.733
 6978SOL     OW21832   5.370   3.424   1.692
 6978SOL    HW121833   5.422   3.402   1.610
 6978SOL    HW221834   5.400   3.513   1.728
 6979SOL     OW21835   0.870   3.787   1.147
 6979SOL    HW121836   0.929   3.807   1.069
 6979SOL    HW221837   0.920   3.802   1.232
 6980SOL     OW21838   1.113   6.776   3.310
 6980SOL    HW121839   1.061   6.861   3.319
 6980SOL    HW221840   1.204   6.796   3.274
 6981SOL     OW21841   3.421   3.316   6.661
 6981SOL    HW121842   3.372   3.294   6.745
 6981SOL    HW221843   3.358   3.314   6.584
 6982SOL     OW21844   0.854   1.146   4.004
 6982SOL    HW121845   0.839   1.171   4.100
 6982SOL    HW221846   0.858   1.046   3.996
 6983SOL     OW21847   4.996   0.762   4.058
 6983SOL    HW121848   5.037   0.672   4.045
 6983SOL    HW221849   4.923   0.775   3.991
 6984SOL     OW21850   0.931   2.712   3.201
 6984SOL    HW121851   1.011   2.716   3.261
 6984SOL    HW221852   0.848   2.724   3.255
 6985SOL     OW21853   6.257   3.336   7.001
 6985SOL    HW121854   6.356   3.348   6.989
 6985SOL    HW221855   6.225   3.393   0.056
 6986SOL     OW21856   3.891   5.188   5.388
 6986SOL    HW121857   3.864   5.102   5.344
 6986SOL    HW221858   3.964   5.231   5.336
 6987SOL     OW21859   0.454   1.745   6.729
 6987SOL    HW121860   0.464   1.695   6.642
 6987SOL    HW221861   0.358   1.768   6.742
 6988SOL     OW21862   2.954   1.623   6.061
 6988SOL    HW121863   3.031   1.591   6.117
 6988SOL    HW221864   2.874   1.636   6.119
 6989SOL     OW21865   0.036   4.887   2.502
 6989SOL    HW121866   0.014   4.919   2.594
 6989SOL    HW221867   0.066   4.792   2.505
 6990SOL     OW21868   3.423   2.946   1.740
 6990SOL    HW121869   3.345   2.896   1.777
 6990SOL    HW221870   3.506   2.921   1.790
 6991SOL     OW21871   5.539   3.828   2.605
 6991SOL    HW121872   5.532   3.923   2.572
 6991SOL    HW221873   5.461   3.808   2.664
 6992SOL     OW21874   0.993   0.440   6.711
 6992SOL    HW121875   0.948   0.410   6.626
 6992SOL    HW221876   0.928   0.492   6.766
 6993SOL     OW21877   5.303   1.175   1.321
 6993SOL    HW121878   5.213   1.217   1.323
 6993SOL    HW221879   5.363   1.227   1.259
 6994SOL     OW21880   1.907   6.803   4.116
 6994SOL    HW121881   1.896   6.855   4.031
 6994SOL    HW221882   1.854   6.846   4.189
 6995SOL     OW21883   0.568   3.465   0.671
 6995SOL    HW121884   0.599   3.508   0.755
 6995SOL    HW221885   0.498   3.397   0.692
 6996SOL     OW21886   1.443   1.458   0.003
 6996SOL    HW121887   1.484   1.524   6.961
 6996SOL    HW221888   1.466   1.482   0.098
 6997SOL     OW21889   6.610   5.083   4.928
 6997SOL    HW121890   6.672   5.020   4.975
 6997SOL    HW221891   6.664   5.147   4.872
 6998SOL     OW21892   0.386   1.224   1.138
 6998SOL    HW121893   0.401   1.128   1.113
 6998SOL    HW221894   0.320   1.264   1.075
 6999SOL     OW21895   1.095   2.897   0.028
 6999SOL    HW121896   1.127   2.988   0.000
 6999SOL    HW221897   1.172   2.842   0.059
 7000SOL     OW21898   6.742   0.379   2.798
 7000SOL    HW121899   6.660   0.425   2.765
 7000SOL    HW221900   6.822   0.433   2.774
 7001SOL     OW21901   1.224   1.691   4.637
 7001SOL    HW121902   1.225   1.743   4.552
 7001SOL    HW221903   1.255   1.750   4.712
 7002SOL     OW21904   0.506   5.805   3.351
 7002SOL    HW121905   0.459   5.819   3.438
 7002SOL    HW221906   0.496   5.887   3.294
 7003SOL     OW21907   6.023   3.960   1.402
 7003SOL    HW121908   5.982   3.946   1.492
 7003SOL    HW221909   5.965   3.916   1.333
 7004SOL     OW21910   1.904   5.622   0.445
 7004SOL    HW121911   1.994   5.584   0.465
 7004SOL    HW221912   1.847   5.551   0.403
 7005SOL     OW21913   1.582   0.056   6.852
 7005SOL    HW121914   1.567   0.109   6.769
 7005SOL    HW221915   1.500   0.059   6.909
 7006SOL     OW21916   0.220   0.091   3.960
 7006SOL    HW121917   0.178   0.049   3.880
 7006SOL    HW221918   0.319   0.075   3.959
 7007SOL     OW21919   3.979   0.590   5.786
 7007SOL    HW121920   3.906   0.552   5.730
 7007SOL    HW221921   4.018   0.670   5.739
 7008SOL     OW21922   6.449   4.174   3.570
 7008SOL    HW121923   6.456   4.081   3.535
 7008SOL    HW221924   6.507   4.234   3.515
 7009SOL     OW21925   4.417   5.921   1.836
 7009SOL    HW121926   4.415   5.988   1.763
 7009SOL    HW221927   4.414   5.968   1.925
 7010SOL     OW21928   5.063   3.894   2.047
 7010SOL    HW121929   5.140   3.842   2.011
 7010SOL    HW221930   5.096   3.983   2.078
 7011SOL     OW21931   3.810   6.510   0.224
 7011SOL    HW121932   3.855   6.592   0.258
 7011SOL    HW221933   3.874   6.459   0.166
 7012SOL     OW21934   0.539   2.240   0.774
 7012SOL    HW121935   0.567   2.149   0.805
 7012SOL    HW221936   0.567   2.252   0.678
 7013SOL     OW21937   2.814   1.703   6.804
 7013SOL    HW121938   2.716   1.696   6.791
 7013SOL    HW221939   2.855   1.611   6.804
 7014SOL     OW21940   6.508   3.620   1.809
 7014SOL    HW121941   6.571   3.621   1.731
 7014SOL    HW221942   6.459   3.533   1.810
 7015SOL     OW21943   4.956   5.216   1.202
 7015SOL    HW121944   4.953   5.290   1.135
 7015SOL    HW221945   5.035   5.228   1.262
 7016SOL     OW21946   3.257   4.854   0.661
 7016SOL    HW121947   3.227   4.884   0.570
 7016SOL    HW221948   3.190   4.791   0.700
 7017SOL     OW21949   4.510   5.427   4.136
 7017SOL    HW121950   4.467   5.517   4.132
 7017SOL    HW221951   4.453   5.365   4.191
 7018SOL     OW21952   4.888   3.006   4.123
 7018SOL    HW121953   4.883   3.096   4.166
 7018SOL    HW221954   4.842   2.939   4.181
 7019SOL     OW21955   5.078   4.849   1.847
 7019SOL    HW121956   5.073   4.761   1.895
 7019SOL    HW221957   5.001   4.856   1.784
 7020SOL     OW21958   0.705   3.523   6.940
 7020SOL    HW121959   0.709   3.548   0.016
 7020SOL    HW221960   0.769   3.448   6.923
 7021SOL     OW21961   1.351   2.348   4.825
 7021SOL    HW121962   1.341   2.443   4.855
 7021SOL    HW221963   1.266   2.319   4.780
 7022SOL     OW21964   4.068   1.075   1.173
 7022SOL    HW121965   4.087   1.151   1.236
 7022SOL    HW221966   4.003   1.012   1.215
 7023SOL     OW21967   0.670   1.929   1.810
 7023SOL    HW121968   0.642   1.880   1.893
 7023SOL    HW221969   0.739   1.875   1.762
 7024SOL     OW21970   3.636   3.784   3.763
 7024SOL    HW121971   3.734   3.765   3.774
 7024SOL    HW221972   3.585   3.697   3.763
 7025SOL     OW21973   3.177   0.065   0.334
 7025SOL    HW121974   3.230   0.144   0.301
 7025SOL    HW221975   3.232   0.013   0.399
 7026SOL     OW21976   3.343   2.085   1.359
 7026SOL    HW121977   3.316   1.989   1.364
 7026SOL    HW221978   3.326   2.120   1.267
 7027SOL     OW21979   2.205   5.637   1.505
 7027SOL    HW121980   2.241   5.570   1.440
 7027SOL    HW221981   2.239   5.728   1.482
 7028SOL     OW21982   3.261   0.272   3.759
 7028SOL    HW121983   3.175   0.317   3.734
 7028SOL    HW221984   3.332   0.341   3.773
 7029SOL     OW21985   3.240   3.211   5.120
 7029SOL    HW121986   3.295   3.236   5.199
 7029SOL    HW221987   3.232   3.111   5.116
 7030SOL     OW21988   6.760   1.635   4.565
 7030SOL    HW121989   6.811   1.670   4.487
 7030SOL    HW221990   6.714   1.550   4.540
 7031SOL     OW21991   4.523   6.625   0.680
 7031SOL    HW121992   4.571   6.691   0.738
 7031SOL    HW221993   4.486   6.672   0.600
 7032SOL     OW21994   3.942   7.017   4.621
 7032SOL    HW121995   3.973   0.010   4.715
 7032SOL    HW221996   3.865   0.057   4.603
 7033SOL     OW21997   1.338   2.442   5.540
 7033SOL    HW121998   1.397   2.362   5.533
 7033SOL    HW221999   1.385   2.514   5.591
 7034SOL     OW22000   6.306   1.628   2.988
 7034SOL    HW122001   6.339   1.534   2.985
 7034SOL    HW222002   6.358   1.684   2.925
 7035SOL     OW22003   2.013   0.489   1.064
 7035SOL    HW122004   2.091   0.552   1.057
 7035SOL    HW222005   1.990   0.476   1.160
 7036SOL     OW22006   0.029   1.353   2.114
 7036SOL    HW122007   0.042   1.392   2.206
 7036SOL    HW222008   0.118   1.344   2.069
 7037SOL     OW22009   0.563   0.485   6.052
 7037SOL    HW122010   0.496   0.534   5.996
 7037SOL    HW222011   0.655   0.501   6.015
 7038SOL     OW22012   1.749   3.196   6.377
 7038SOL    HW122013   1.826   3.143   6.343
 7038SOL    HW222014   1.702   3.240   6.300
 7039SOL     OW22015   0.226   5.964   3.061
 7039SOL    HW122016   0.197   6.058   3.040
 7039SOL    HW222017   0.272   5.926   2.981
 7040SOL     OW22018   4.511   1.906   5.569
 7040SOL    HW122019   4.466   1.928   5.482
 7040SOL    HW222020   4.453   1.845   5.622
 7041SOL     OW22021   1.368   0.599   4.181
 7041SOL    HW122022   1.362   0.536   4.259
 7041SOL    HW222023   1.456   0.646   4.183
 7042SOL     OW22024   4.460   6.473   5.217
 7042SOL    HW122025   4.529   6.539   5.247
 7042SOL    HW222026   4.506   6.388   5.190
 7043SOL     OW22027   2.340   4.683   2.991
 7043SOL    HW122028   2.247   4.692   2.955
 7043SOL    HW222029   2.373   4.773   3.019
 7044SOL     OW22030   5.463   6.116   4.069
 7044SOL    HW122031   5.490   6.173   4.147
 7044SOL    HW222032   5.364   6.110   4.066
 7045SOL     OW22033   6.384   5.363   2.592
 7045SOL    HW122034   6.473   5.365   2.637
 7045SOL    HW222035   6.320   5.308   2.646
 7046SOL     OW22036   3.044   2.030   4.187
 7046SOL    HW122037   2.978   2.105   4.180
 7046SOL    HW222038   2.995   1.945   4.204
 7047SOL     OW22039   0.392   6.894   0.235
 7047SOL    HW122040   0.431   6.983   0.254
 7047SOL    HW222041   0.312   6.904   0.176
 7048SOL     OW22042   7.001   5.495   4.840
 7048SOL    HW122043   6.915   5.537   4.811
 7048SOL    HW222044   6.985   5.442   4.923
 7049SOL     OW22045   3.939   1.261   2.355
 7049SOL    HW122046   3.852   1.234   2.313
 7049SOL    HW222047   4.013   1.251   2.288
 7050SOL     OW22048   3.943   4.156   0.821
 7050SOL    HW122049   3.979   4.207   0.744
 7050SOL    HW222050   3.994   4.070   0.832
 7051SOL     OW22051   0.252   6.857   1.103
 7051SOL    HW122052   0.291   6.938   1.061
 7051SOL    HW222053   0.268   6.777   1.045
 7052SOL     OW22054   5.832   0.128   2.651
 7052SOL    HW122055   5.789   0.142   2.561
 7052SOL    HW222056   5.919   0.178   2.653
 7053SOL     OW22057   1.516   2.756   3.674
 7053SOL    HW122058   1.604   2.724   3.710
 7053SOL    HW222059   1.480   2.688   3.609
 7054SOL     OW22060   6.450   0.037   0.580
 7054SOL    HW122061   6.438   7.014   0.670
 7054SOL    HW222062   6.385   0.111   0.570
 7055SOL     OW22063   2.330   0.876   6.649
 7055SOL    HW122064   2.307   0.890   6.745
 7055SOL    HW222065   2.248   0.891   6.593
 7056SOL     OW22066   0.255   5.456   1.323
 7056SOL    HW122067   0.216   5.364   1.332
 7056SOL    HW222068   0.290   5.468   1.231
 7057SOL     OW22069   3.328   4.900   5.083
 7057SOL    HW122070   3.426   4.916   5.093
 7057SOL    HW222071   3.285   4.982   5.045
 7058SOL     OW22072   5.130   2.705   5.993
 7058SOL    HW122073   5.109   2.614   5.958
 7058SOL    HW222074   5.160   2.764   5.918
 7059SOL     OW22075   1.883   0.810   4.571
 7059SOL    HW122076   1.977   0.821   4.602
 7059SOL    HW222077   1.829   0.890   4.598
 7060SOL     OW22078   3.313   0.417   2.002
 7060SOL    HW122079   3.358   0.441   2.088
 7060SOL    HW222080   3.312   0.497   1.942
 7061SOL     OW22081   0.619   2.398   3.101
 7061SOL    HW122082   0.717   2.406   3.081
 7061SOL    HW222083   0.603   2.319   3.160
 7062SOL     OW22084   4.264   1.930   3.326
 7062SOL    HW122085   4.338   1.879   3.281
 7062SOL    HW222086   4.192   1.950   3.260
 7063SOL     OW22087   0.639   1.095   1.897
 7063SOL    HW122088   0.628   1.135   1.988
 7063SOL    HW222089   0.644   0.996   1.904
 7064SOL     OW22090   4.967   1.927   5.324
 7064SOL    HW122091   4.896   1.949   5.257
 7064SOL    HW222092   5.047   1.891   5.276
 7065SOL     OW22093   3.711   4.288   5.599
 7065SOL    HW122094   3.726   4.367   5.659
 7065SOL    HW222095   3.620   4.292   5.560
 7066SOL     OW22096   4.125   0.570   0.045
 7066SOL    HW122097   4.197   0.633   0.018
 7066SOL    HW222098   4.071   0.611   0.119
 7067SOL     OW22099   2.202   3.236   6.958
 7067SOL    HW122100   2.183   3.164   6.891
 7067SOL    HW222101   2.120   3.251   7.014
 7068SOL     OW22102   4.937   4.368   4.434
 7068SOL    HW122103   4.849   4.363   4.385
 7068SOL    HW222104   5.000   4.427   4.383
 7069SOL     OW22105   5.904   0.271   6.523
 7069SOL    HW122106   5.884   0.266   6.425
 7069SOL    HW222107   5.861   0.352   6.562
 7070SOL     OW22108   0.348   6.411   5.279
 7070SOL    HW122109   0.410   6.483   5.311
 7070SOL    HW222110   0.402   6.333   5.247
 7071SOL     OW22111   5.355   6.061   6.761
 7071SOL    HW122112   5.440   6.011   6.744
 7071SOL    HW222113   5.348   6.137   6.696
 7072SOL     OW22114   0.371   3.993   6.705
 7072SOL    HW122115   0.289   4.011   6.651
 7072SOL    HW222116   0.397   4.076   6.754
 7073SOL     OW22117   5.470   1.249   3.235
 7073SOL    HW122118   5.437   1.193   3.310
 7073SOL    HW222119   5.422   1.225   3.151
 7074SOL     OW22120   5.904   4.107   2.894
 7074SOL    HW122121   5.836   4.060   2.838
 7074SOL    HW222122   5.949   4.177   2.839
 7075SOL     OW22123   3.140   5.305   4.069
 7075SOL    HW122124   3.042   5.301   4.049
 7075SOL    HW222125   3.192   5.294   3.984
 7076SOL     OW22126   5.688   3.326   2.877
 7076SOL    HW122127   5.734   3.403   2.921
 7076SOL    HW222128   5.610   3.359   2.825
 7077SOL     OW22129   2.888   5.027   1.437
 7077SOL    HW122130   2.937   5.024   1.524
 7077SOL    HW222131   2.790   5.035   1.455
 7078SOL     OW22132   5.106   0.204   0.483
 7078SOL    HW122133   5.063   0.279   0.431
 7078SOL    HW222134   5.103   0.120   0.429
 7079SOL     OW22135   1.155   6.879   4.344
 7079SOL    HW122136   1.250   6.892   4.374
 7079SOL    HW222137   1.154   6.855   4.247
 7080SOL     OW22138   3.808   1.791   5.279
 7080SOL    HW122139   3.906   1.773   5.271
 7080SOL    HW222140   3.772   1.817   5.189
 7081SOL     OW22141   1.943   1.149   6.766
 7081SOL    HW122142   1.935   1.077   6.835
 7081SOL    HW222143   1.950   1.238   6.812
 7082SOL     OW22144   6.739   4.293   2.679
 7082SOL    HW122145   6.739   4.290   2.579
 7082SOL    HW222146   6.668   4.232   2.715
 7083SOL     OW22147   7.020   3.633   2.543
 7083SOL    HW122148   6.984   3.580   2.620
 7083SOL    HW222149   0.093   3.602   2.523
 7084SOL     OW22150   0.971   5.840   0.099
 7084SOL    HW122151   0.873   5.822   0.103
 7084SOL    HW222152   0.992   5.922   0.153
 7085SOL     OW22153   0.680   3.100   2.460
 7085SOL    HW122154   0.600   3.121   2.516
 7085SOL    HW222155   0.737   3.032   2.507
 7086SOL     OW22156   5.764   1.060   4.735
 7086SOL    HW122157   5.823   0.990   4.776
 7086SOL    HW222158   5.746   1.038   4.640
 7087SOL     OW22159   5.534   3.450   3.385
 7087SOL    HW122160   5.519   3.446   3.484
 7087SOL    HW222161   5.447   3.464   3.338
 7088SOL     OW22162   5.777   1.731   4.945
 7088SOL    HW122163   5.856   1.756   5.001
 7088SOL    HW222164   5.784   1.777   4.856
 7089SOL     OW22165   3.301   5.496   1.909
 7089SOL    HW122166   3.290   5.399   1.888
 7089SOL    HW222167   3.307   5.509   2.008
 7090SOL     OW22168   3.954   2.066   1.076
 7090SOL    HW122169   3.916   2.026   1.159
 7090SOL    HW222170   4.034   2.013   1.047
 7091SOL     OW22171   0.210   6.788   6.372
 7091SOL    HW122172   0.248   6.709   6.418
 7091SOL    HW222173   0.206   6.865   6.435
 7092SOL     OW22174   4.506   2.354   6.699
 7092SOL    HW122175   4.522   2.273   6.755
 7092SOL    HW222176   4.508   2.328   6.602
 7093SOL     OW22177   3.228   4.185   0.861
 7093SOL    HW122178   3.179   4.263   0.823
 7093SOL    HW222179   3.164   4.111   0.880
 7094SOL     OW22180   2.514   6.781   5.577
 7094SOL    HW122181   2.509   6.720   5.498
 7094SOL    HW222182   2.602   6.828   5.577
 7095SOL     OW22183   2.716   4.337   5.349
 7095SOL    HW122184   2.707   4.433   5.324
 7095SOL    HW222185   2.660   4.319   5.431
 7096SOL     OW22186   0.110   0.878   1.105
 7096SOL    HW122187   0.165   0.950   1.063
 7096SOL    HW222188   0.169   0.821   1.162
 7097SOL     OW22189   4.781   0.796   1.553
 7097SOL    HW122190   4.694   0.846   1.546
 7097SOL    HW222191   4.856   0.855   1.524
 7098SOL     OW22192   0.819   6.997   4.519
 7098SOL    HW122193   0.727   0.013   4.509
 7098SOL    HW222194   0.815   6.905   4.558
 7099SOL     OW22195   2.856   2.336   3.838
 7099SOL    HW122196   2.786   2.386   3.787
 7099SOL    HW222197   2.888   2.392   3.914
 7100SOL     OW22198   6.461   3.871   0.922
 7100SOL    HW122199   6.376   3.825   0.897
 7100SOL    HW222200   6.441   3.965   0.951
 7101SOL     OW22201   2.101   6.230   5.278
 7101SOL    HW122202   2.134   6.202   5.188
 7101SOL    HW222203   2.139   6.168   5.347
 7102SOL     OW22204   5.782   0.957   1.489
 7102SOL    HW122205   5.837   1.040   1.496
 7102SOL    HW222206   5.704   0.973   1.428
 7103SOL     OW22207   4.747   4.162   3.028
 7103SOL    HW122208   4.794   4.073   3.022
 7103SOL    HW222209   4.665   4.160   2.971
 7104SOL     OW22210   4.993   3.579   3.441
 7104SOL    HW122211   4.982   3.678   3.442
 7104SOL    HW222212   4.987   3.544   3.535
 7105SOL     OW22213   2.936   3.583   4.093
 7105SOL    HW122214   2.886   3.562   4.177
 7105SOL    HW222215   2.945   3.501   4.037
 7106SOL     OW22216   2.821   3.359   1.227
 7106SOL    HW122217   2.904   3.311   1.200
 7106SOL    HW222218   2.764   3.376   1.147
 7107SOL     OW22219   4.229   0.624   6.789
 7107SOL    HW122220   4.313   0.571   6.804
 7107SOL    HW222221   4.249   0.722   6.798
 7108SOL     OW22222   3.334   0.317   2.395
 7108SOL    HW122223   3.366   0.386   2.330
 7108SOL    HW222224   3.412   0.274   2.441
 7109SOL     OW22225   1.990   0.003   5.638
 7109SOL    HW122226   2.072   0.045   5.676
 7109SOL    HW222227   2.016   6.941   5.586
 7110SOL     OW22228   3.313   6.169   4.681
 7110SOL    HW122229   3.365   6.091   4.717
 7110SOL    HW222230   3.262   6.141   4.600
 7111SOL     OW22231   0.089   0.789   4.186
 7111SOL    HW122232   0.124   0.703   4.148
 7111SOL    HW222233   7.010   0.785   4.191
 7112SOL     OW22234   1.935   5.093   4.520
 7112SOL    HW122235   1.859   5.046   4.567
 7112SOL    HW222236   2.005   5.117   4.587
 7113SOL     OW22237   3.227   5.038   5.463
 7113SOL    HW122238   3.207   5.130   5.429
 7113SOL    HW222239   3.288   4.992   5.399
 7114SOL     OW22240   4.987   4.811   0.301
 7114SOL    HW122241   4.889   4.812   0.320
 7114SOL    HW222242   5.023   4.718   0.311
 7115SOL     OW22243   6.461   4.378   0.214
 7115SOL    HW122244   6.383   4.435   0.242
 7115SOL    HW222245   6.546   4.427   0.233
 7116SOL     OW22246   6.812   3.395   4.346
 7116SOL    HW122247   6.750   3.429   4.275
 7116SOL    HW222248   6.779   3.425   4.436
 7117SOL     OW22249   6.153   6.983   2.988
 7117SOL    HW122250   6.079   6.917   3.002
 7117SOL    HW222251   6.241   6.941   3.010
 7118SOL     OW22252   4.106   4.691   5.414
 7118SOL    HW122253   4.107   4.593   5.397
 7118SOL    HW222254   4.013   4.720   5.439
 7119SOL     OW22255   4.134   6.859   4.445
 7119SOL    HW122256   4.129   6.932   4.512
 7119SOL    HW222257   4.057   6.797   4.456
 7120SOL     OW22258   4.942   0.767   0.767
 7120SOL    HW122259   4.905   0.846   0.717
 7120SOL    HW222260   5.034   0.787   0.798
 7121SOL     OW22261   1.420   6.402   3.006
 7121SOL    HW122262   1.372   6.326   2.962
 7121SOL    HW222263   1.365   6.485   2.997
 7122SOL     OW22264   2.510   0.511   5.732
 7122SOL    HW122265   2.593   0.467   5.766
 7122SOL    HW222266   2.528   0.551   5.642
 7123SOL     OW22267   5.307   5.223   5.997
 7123SOL    HW122268   5.223   5.189   6.040
 7123SOL    HW222269   5.303   5.206   5.898
 7124SOL     OW22270   1.078   2.178   1.690
 7124SOL    HW122271   1.151   2.164   1.758
 7124SOL    HW222272   1.078   2.273   1.660
 7125SOL     OW22273   1.451   6.861   1.039
 7125SOL    HW122274   1.547   6.888   1.032
 7125SOL    HW222275   1.434   6.823   1.130
 7126SOL     OW22276   4.081   5.942   1.445
 7126SOL    HW122277   4.100   5.857   1.493
 7126SOL    HW222278   4.030   5.923   1.361
 7127SOL     OW22279   3.010   6.356   5.368
 7127SOL    HW122280   3.058   6.312   5.444
 7127SOL    HW222281   2.957   6.288   5.318
 7128SOL     OW22282   3.829   4.239   6.632
 7128SOL    HW122283   3.877   4.155   6.605
 7128SOL    HW222284   3.830   4.304   6.555
 7129SOL     OW22285   0.135   0.144   0.701
 7129SOL    HW122286   0.216   0.091   0.729
 7129SOL    HW222287   0.053   0.092   0.722
 7130SOL     OW22288   3.550   6.459   4.446
 7130SOL    HW122289   3.514   6.376   4.405
 7130SOL    HW222290   3.591   6.517   4.376
 7131SOL     OW22291   4.329   0.741   2.451
 7131SOL    HW122292   4.309   0.701   2.540
 7131SOL    HW222293   4.247   0.737   2.393
 7132SOL     OW22294   5.441   4.040   0.313
 7132SOL    HW122295   5.399   3.960   0.271
 7132SOL    HW222296   5.540   4.039   0.295
 7133SOL     OW22297   3.517   5.709   3.313
 7133SOL    HW122298   3.510   5.775   3.239
 7133SOL    HW222299   3.439   5.646   3.310
 7134SOL     OW22300   5.785   5.186   1.202
 7134SOL    HW122301   5.728   5.106   1.187
 7134SOL    HW222302   5.830   5.179   1.291
 7135SOL     OW22303   1.941   3.119   1.569
 7135SOL    HW122304   1.919   3.073   1.483
 7135SOL    HW222305   2.008   3.064   1.620
 7136SOL     OW22306   2.097   1.411   1.987
 7136SOL    HW122307   2.078   1.387   2.082
 7136SOL    HW222308   2.189   1.380   1.962
 7137SOL     OW22309   2.549   2.136   1.439
 7137SOL    HW122310   2.603   2.219   1.425
 7137SOL    HW222311   2.590   2.081   1.511
 7138SOL     OW22312   1.275   2.657   0.917
 7138SOL    HW122313   1.345   2.607   0.968
 7138SOL    HW222314   1.317   2.701   0.838
 7139SOL     OW22315   6.149   5.823   1.326
 7139SOL    HW122316   6.246   5.848   1.324
 7139SOL    HW222317   6.139   5.724   1.319
 7140SOL     OW22318   6.703   3.196   0.592
 7140SOL    HW122319   6.630   3.162   0.532
 7140SOL    HW222320   6.706   3.139   0.674
 7141SOL     OW22321   3.922   0.199   1.149
 7141SOL    HW122322   3.833   0.244   1.164
 7141SOL    HW222323   3.969   0.245   1.074
 7142SOL     OW22324   2.682   0.415   4.828
 7142SOL    HW122325   2.624   0.452   4.900
 7142SOL    HW222326   2.727   0.491   4.780
 7143SOL     OW22327   2.747   4.496   6.928
 7143SOL    HW122328   2.685   4.452   6.863
 7143SOL    HW222329   2.821   4.433   6.951
 7144SOL     OW22330   6.510   0.421   5.339
 7144SOL    HW122331   6.600   0.461   5.322
 7144SOL    HW222332   6.499   0.338   5.284
 7145SOL     OW22333   5.102   2.289   6.505
 7145SOL    HW122334   5.118   2.195   6.475
 7145SOL    HW222335   5.034   2.289   6.579
 7146SOL     OW22336   1.675   1.552   5.101
 7146SOL    HW122337   1.591   1.566   5.050
 7146SOL    HW222338   1.658   1.564   5.198
 7147SOL     OW22339   6.007   5.640   1.730
 7147SOL    HW122340   5.909   5.636   1.710
 7147SOL    HW222341   6.020   5.661   1.827
 7148SOL     OW22342   6.933   6.532   0.904
 7148SOL    HW122343   6.987   6.461   0.949
 7148SOL    HW222344   6.891   6.590   0.974
 7149SOL     OW22345   6.584   4.830   4.644
 7149SOL    HW122346   6.549   4.765   4.577
 7149SOL    HW222347   6.596   4.920   4.602
 7150SOL     OW22348   3.981   3.408   6.858
 7150SOL    HW122349   3.936   3.432   6.945
 7150SOL    HW222350   4.014   3.492   6.815
 7151SOL     OW22351   3.738   0.926   1.081
 7151SOL    HW122352   3.822   0.899   1.128
 7151SOL    HW222353   3.689   0.993   1.137
 7152SOL     OW22354   6.700   1.383   6.707
 7152SOL    HW122355   6.686   1.448   6.782
 7152SOL    HW222356   6.784   1.405   6.658
 7153SOL     OW22357   3.857   6.074   1.048
 7153SOL    HW122358   3.844   6.140   0.975
 7153SOL    HW222359   3.918   6.113   1.118
 7154SOL     OW22360   4.115   1.684   1.550
 7154SOL    HW122361   4.163   1.729   1.624
 7154SOL    HW222362   4.020   1.666   1.577
 7155SOL     OW22363   2.664   1.355   2.334
 7155SOL    HW122364   2.712   1.442   2.347
 7155SOL    HW222365   2.672   1.300   2.417
 7156SOL     OW22366   5.941   4.415   0.072
 7156SOL    HW122367   5.841   4.422   0.072
 7156SOL    HW222368   5.968   4.320   0.088
 7157SOL     OW22369   6.010   4.743   6.702
 7157SOL    HW122370   6.044   4.654   6.732
 7157SOL    HW222371   5.999   4.803   6.781
 7158SOL     OW22372   5.055   6.664   3.902
 7158SOL    HW122373   5.094   6.670   3.810
 7158SOL    HW222374   4.987   6.736   3.914
 7159SOL     OW22375   0.814   6.036   3.423
 7159SOL    HW122376   0.821   6.095   3.343
 7159SOL    HW222377   0.803   5.941   3.394
 7160SOL     OW22378   6.397   6.892   3.062
 7160SOL    HW122379   6.353   6.841   3.136
 7160SOL    HW222380   6.487   6.923   3.091
 7161SOL     OW22381   4.029   3.208   3.645
 7161SOL    HW122382   4.004   3.118   3.608
 7161SOL    HW222383   3.950   3.269   3.639
 7162SOL     OW22384   0.320   5.426   2.187
 7162SOL    HW122385   0.230   5.387   2.205
 7162SOL    HW222386   0.314   5.492   2.113
 7163SOL     OW22387   0.904   1.397   2.292
 7163SOL    HW122388   0.956   1.479   2.268
 7163SOL    HW222389   0.807   1.420   2.300
 7164SOL     OW22390   2.093   1.047   6.566
 7164SOL    HW122391   2.070   1.092   6.653
 7164SOL    HW222392   2.066   1.106   6.490
 7165SOL     OW22393   5.678   1.453   0.374
 7165SOL    HW122394   5.674   1.549   0.345
 7165SOL    HW222395   5.617   1.398   0.317
 7166SOL     OW22396   6.021   6.193   5.726
 7166SOL    HW122397   6.068   6.281   5.735
 7166SOL    HW222398   5.992   6.161   5.817
 7167SOL     OW22399   5.698   2.167   4.876
 7167SOL    HW122400   5.691   2.135   4.970
 7167SOL    HW222401   5.680   2.266   4.873
 7168SOL     OW22402   2.716   0.782   2.101
 7168SOL    HW122403   2.771   0.766   2.019
 7168SOL    HW222404   2.729   0.877   2.131
 7169SOL     OW22405   1.474   4.192   6.384
 7169SOL    HW122406   1.507   4.150   6.300
 7169SOL    HW222407   1.428   4.123   6.440
 7170SOL     OW22408   3.880   1.428   1.460
 7170SOL    HW122409   3.835   1.516   1.443
 7170SOL    HW222410   3.906   1.387   1.372
 7171SOL     OW22411   6.850   4.489   0.696
 7171SOL    HW122412   6.760   4.447   0.682
 7171SOL    HW222413   6.838   4.581   0.733
 7172SOL     OW22414   1.162   1.088   4.008
 7172SOL    HW122415   1.153   1.155   4.081
 7172SOL    HW222416   1.079   1.087   3.953
 7173SOL     OW22417   4.937   5.890   6.217
 7173SOL    HW122418   5.000   5.965   6.240
 7173SOL    HW222419   4.977   5.803   6.244
 7174SOL     OW22420   6.107   4.435   1.481
 7174SOL    HW122421   6.040   4.397   1.545
 7174SOL    HW222422   6.197   4.395   1.499
 7175SOL     OW22423   5.369   3.890   6.054
 7175SOL    HW122424   5.420   3.809   6.028
 7175SOL    HW222425   5.292   3.865   6.112
 7176SOL     OW22426   0.729   0.687   5.537
 7176SOL    HW122427   0.820   0.726   5.529
 7176SOL    HW222428   0.730   0.611   5.601
 7177SOL     OW22429   1.862   5.091   3.770
 7177SOL    HW122430   1.794   5.018   3.766
 7177SOL    HW222431   1.820   5.177   3.741
 7178SOL     OW22432   1.536   0.827   5.528
 7178SOL    HW122433   1.589   0.881   5.593
 7178SOL    HW222434   1.592   0.808   5.447
 7179SOL     OW22435   3.233   5.900   6.308
 7179SOL    HW122436   3.287   5.817   6.296
 7179SOL    HW222437   3.293   5.974   6.338
 7180SOL     OW22438   1.291   4.174   1.023
 7180SOL    HW122439   1.346   4.251   1.054
 7180SOL    HW222440   1.195   4.203   1.015
 7181SOL     OW22441   2.435   1.340   6.251
 7181SOL    HW122442   2.427   1.271   6.322
 7181SOL    HW222443   2.345   1.360   6.213
 7182SOL     OW22444   1.396   2.371   4.461
 7182SOL    HW122445   1.350   2.458   4.480
 7182SOL    HW222446   1.442   2.339   4.544
 7183SOL     OW22447   0.511   6.345   1.870
 7183SOL    HW122448   0.506   6.422   1.806
 7183SOL    HW222449   0.515   6.380   1.964
 7184SOL     OW22450   6.247   0.209   3.568
 7184SOL    HW122451   6.167   0.198   3.627
 7184SOL    HW222452   6.221   0.194   3.473
 7185SOL     OW22453   4.541   0.902   4.348
 7185SOL    HW122454   4.562   0.999   4.340
 7185SOL    HW222455   4.609   0.857   4.406
 7186SOL     OW22456   0.294   0.018   6.828
 7186SOL    HW122457   0.297   0.114   6.800
 7186SOL    HW222458   0.244   0.009   6.913
 7187SOL     OW22459   3.510   2.891   4.142
 7187SOL    HW122460   3.539   2.856   4.231
 7187SOL    HW222461   3.410   2.887   4.136
 7188SOL     OW22462   3.841   4.494   6.825
 7188SOL    HW122463   3.919   4.556   6.825
 7188SOL    HW222464   3.872   4.400   6.815
 7189SOL     OW22465   6.288   2.953   5.939
 7189SOL    HW122466   6.264   3.049   5.930
 7189SOL    HW222467   6.292   2.928   6.036
 7190SOL     OW22468   5.654   5.841   1.070
 7190SOL    HW122469   5.729   5.776   1.060
 7190SOL    HW222470   5.617   5.865   0.980
 7191SOL     OW22471   0.183   4.348   3.748
 7191SOL    HW122472   0.122   4.293   3.690
 7191SOL    HW222473   0.277   4.315   3.737
 7192SOL     OW22474   1.523   4.838   6.746
 7192SOL    HW122475   1.541   4.760   6.685
 7192SOL    HW222476   1.480   4.912   6.694
 7193SOL     OW22477   2.340   2.637   2.642
 7193SOL    HW122478   2.296   2.552   2.672
 7193SOL    HW222479   2.333   2.645   2.543
 7194SOL     OW22480   2.655   2.428   6.051
 7194SOL    HW122481   2.693   2.491   5.983
 7194SOL    HW222482   2.724   2.359   6.074
 7195SOL     OW22483   6.969   3.757   5.723
 7195SOL    HW122484   6.966   3.803   5.634
 7195SOL    HW222485   6.977   3.658   5.709
 7196SOL     OW22486   3.297   3.689   2.052
 7196SOL    HW122487   3.262   3.757   1.988
 7196SOL    HW222488   3.275   3.717   2.145
 7197SOL     OW22489   2.401   3.703   5.936
 7197SOL    HW122490   2.476   3.680   5.997
 7197SOL    HW222491   2.406   3.645   5.854
 7198SOL     OW22492   0.099   0.682   1.532
 7198SOL    HW122493   0.071   0.593   1.568
 7198SOL    HW222494   0.025   0.721   1.477
 7199SOL     OW22495   0.691   1.143   2.185
 7199SOL    HW122496   0.658   1.061   2.232
 7199SOL    HW222497   0.790   1.136   2.173
 7200SOL     OW22498   1.017   2.650   0.800
 7200SOL    HW122499   0.965   2.565   0.796
 7200SOL    HW222500   1.085   2.644   0.873
 7201SOL     OW22501   5.755   5.369   3.851
 7201SOL    HW122502   5.760   5.324   3.761
 7201SOL    HW222503   5.757   5.468   3.839
 7202SOL     OW22504   4.976   0.377   5.621
 7202SOL    HW122505   4.926   0.419   5.696
 7202SOL    HW222506   4.943   0.414   5.534
 7203SOL     OW22507   0.438   1.542   2.016
 7203SOL    HW122508   0.407   1.603   2.089
 7203SOL    HW222509   0.513   1.584   1.966
 7204SOL     OW22510   6.838   6.993   1.291
 7204SOL    HW122511   6.763   0.014   1.240
 7204SOL    HW222512   6.805   6.967   1.382
 7205SOL     OW22513   2.519   2.125   5.042
 7205SOL    HW122514   2.464   2.156   4.964
 7205SOL    HW222515   2.580   2.198   5.071
 7206SOL     OW22516   1.867   2.963   1.353
 7206SOL    HW122517   1.835   2.896   1.420
 7206SOL    HW222518   1.789   3.012   1.315
 7207SOL     OW22519   1.786   1.623   4.370
 7207SOL    HW122520   1.783   1.706   4.313
 7207SOL    HW222521   1.712   1.561   4.343
 7208SOL     OW22522   2.881   0.277   4.190
 7208SOL    HW122523   2.861   0.272   4.288
 7208SOL    HW222524   2.801   0.313   4.142
 7209SOL     OW22525   2.673   1.911   2.410
 7209SOL    HW122526   2.689   1.952   2.320
 7209SOL    HW222527   2.611   1.969   2.462
 7210SOL     OW22528   2.749   1.254   3.009
 7210SOL    HW122529   2.670   1.203   2.976
 7210SOL    HW222530   2.775   1.220   3.100
 7211SOL     OW22531   3.195   5.594   4.759
 7211SOL    HW122532   3.156   5.569   4.847
 7211SOL    HW222533   3.149   5.677   4.725
 7212SOL     OW22534   5.948   4.515   6.184
 7212SOL    HW122535   5.948   4.560   6.094
 7212SOL    HW222536   6.030   4.542   6.234
 7213SOL     OW22537   4.081   1.385   0.562
 7213SOL    HW122538   4.021   1.398   0.483
 7213SOL    HW222539   4.142   1.307   0.545
 7214SOL     OW22540   0.115   1.245   6.746
 7214SOL    HW122541   0.205   1.205   6.765
 7214SOL    HW222542   0.127   1.336   6.708
 7215SOL     OW22543   6.918   2.604   2.471
 7215SOL    HW122544   6.834   2.648   2.503
 7215SOL    HW222545   6.965   2.561   2.549
 7216SOL     OW22546   3.130   6.280   2.971
 7216SOL    HW122547   3.220   6.248   2.998
 7216SOL    HW222548   3.114   6.372   3.008
 7217SOL     OW22549   1.287   4.508   3.638
 7217SOL    HW122550   1.325   4.464   3.557
 7217SOL    HW222551   1.242   4.440   3.695
 7218SOL     OW22552   6.067   3.862   4.114
 7218SOL    HW122553   5.994   3.846   4.180
 7218SOL    HW222554   6.033   3.848   4.021
 7219SOL     OW22555   3.736   6.101   2.084
 7219SOL    HW122556   3.744   6.201   2.087
 7219SOL    HW222557   3.821   6.060   2.119
 7220SOL     OW22558   6.309   5.002   4.347
 7220SOL    HW122559   6.308   5.100   4.368
 7220SOL    HW222560   6.219   4.963   4.367
 7221SOL     OW22561   3.487   5.689   4.933
 7221SOL    HW122562   3.401   5.740   4.925
 7221SOL    HW222563   3.550   5.740   4.991
 7222SOL     OW22564   6.920   0.031   4.173
 7222SOL    HW122565   6.999   0.086   4.148
 7222SOL    HW222566   6.865   0.014   4.091
 7223SOL     OW22567   0.867   2.419   0.797
 7223SOL    HW122568   0.795   2.407   0.866
 7223SOL    HW222569   0.895   2.330   0.763
 7224SOL     OW22570   3.854   2.038   3.486
 7224SOL    HW122571   3.785   2.076   3.424
 7224SOL    HW222572   3.875   1.944   3.459
 7225SOL     OW22573   1.584   0.104   0.841
 7225SOL    HW122574   1.496   0.093   0.794
 7225SOL    HW222575   1.649   0.151   0.781
 7226SOL     OW22576   5.929   6.505   0.291
 7226SOL    HW122577   5.947   6.447   0.212
 7226SOL    HW222578   5.848   6.561   0.274
 7227SOL     OW22579   2.727   1.048   1.892
 7227SOL    HW122580   2.795   1.116   1.865
 7227SOL    HW222581   2.636   1.089   1.889
 7228SOL     OW22582   0.982   3.143   2.393
 7228SOL    HW122583   1.060   3.170   2.337
 7228SOL    HW222584   0.901   3.134   2.336
 7229SOL     OW22585   6.679   0.425   5.111
 7229SOL    HW122586   6.748   0.485   5.152
 7229SOL    HW222587   6.671   0.445   5.013
 7230SOL     OW22588   1.933   5.142   4.251
 7230SOL    HW122589   1.937   5.119   4.348
 7230SOL    HW222590   2.020   5.119   4.208
 7231SOL     OW22591   4.714   1.899   6.310
 7231SOL    HW122592   4.704   1.948   6.397
 7231SOL    HW222593   4.663   1.813   6.315
 7232SOL     OW22594   6.003   6.773   3.069
 7232SOL    HW122595   5.909   6.775   3.036
 7232SOL    HW222596   6.004   6.775   3.169
 7233SOL     OW22597   6.516   1.430   5.142
 7233SOL    HW122598   6.499   1.332   5.139
 7233SOL    HW222599   6.580   1.451   5.216
 7234SOL     OW22600   5.307   3.772   2.748
 7234SOL    HW122601   5.357   3.738   2.828
 7234SOL    HW222602   5.274   3.696   2.693
 7235SOL     OW22603   0.092   6.081   1.527
 7235SOL    HW122604   0.022   6.140   1.567
 7235SOL    HW222605   0.050   5.999   1.491
 7236SOL     OW22606   2.398   2.506   3.152
 7236SOL    HW122607   2.380   2.413   3.185
 7236SOL    HW222608   2.468   2.502   3.080
 7237SOL     OW22609   4.981   0.417   0.078
 7237SOL    HW122610   5.066   0.436   0.029
 7237SOL    HW222611   4.989   0.451   0.172
 7238SOL     OW22612   4.535   3.451   0.216
 7238SOL    HW122613   4.623   3.438   0.261
 7238SOL    HW222614   4.496   3.539   0.243
 7239SOL     OW22615   0.792   3.537   2.259
 7239SOL    HW122616   0.848   3.532   2.342
 7239SOL    HW222617   0.850   3.522   2.179
 7240SOL     OW22618   6.515   1.673   5.994
 7240SOL    HW122619   6.521   1.711   5.901
 7240SOL    HW222620   6.483   1.744   6.057
 7241SOL     OW22621   2.740   1.624   2.009
 7241SOL    HW122622   2.812   1.630   2.078
 7241SOL    HW222623   2.678   1.548   2.031
 7242SOL     OW22624   6.949   5.130   4.270
 7242SOL    HW122625   7.019   5.076   4.316
 7242SOL    HW222626   6.913   5.199   4.333
 7243SOL     OW22627   6.299   4.173   6.097
 7243SOL    HW122628   6.214   4.189   6.148
 7243SOL    HW222629   6.367   4.131   6.156
 7244SOL     OW22630   0.197   6.558   6.655
 7244SOL    HW122631   0.195   6.613   6.738
 7244SOL    HW222632   0.160   6.467   6.673
 7245SOL     OW22633   2.017   2.363   6.857
 7245SOL    HW122634   1.924   2.348   6.889
 7245SOL    HW222635   2.016   2.395   6.762
 7246SOL     OW22636   2.912   0.148   3.660
 7246SOL    HW122637   2.893   0.246   3.659
 7246SOL    HW222638   2.954   0.124   3.748
 7247SOL     OW22639   2.505   2.493   5.363
 7247SOL    HW122640   2.564   2.562   5.404
 7247SOL    HW222641   2.498   2.415   5.425
 7248SOL     OW22642   3.464   0.638   4.466
 7248SOL    HW122643   3.422   0.560   4.420
 7248SOL    HW222644   3.553   0.658   4.426
 7249SOL     OW22645   4.023   5.176   2.011
 7249SOL    HW122646   3.943   5.178   2.071
 7249SOL    HW222647   4.061   5.083   2.008
 7250SOL     OW22648   5.091   5.933   5.615
 7250SOL    HW122649   5.189   5.914   5.602
 7250SOL    HW222650   5.051   5.861   5.673
 7251SOL     OW22651   0.528   6.117   5.303
 7251SOL    HW122652   0.578   6.182   5.360
 7251SOL    HW222653   0.460   6.069   5.358
 7252SOL     OW22654   3.020   3.974   2.403
 7252SOL    HW122655   3.030   4.010   2.496
 7252SOL    HW222656   2.983   3.881   2.408
 7253SOL     OW22657   1.084   5.806   5.499
 7253SOL    HW122658   1.065   5.796   5.401
 7253SOL    HW222659   1.182   5.805   5.514
 7254SOL     OW22660   5.265   4.378   4.059
 7254SOL    HW122661   5.347   4.364   4.115
 7254SOL    HW222662   5.258   4.304   3.992
 7255SOL     OW22663   4.978   2.704   6.602
 7255SOL    HW122664   5.035   2.717   6.521
 7255SOL    HW222665   4.883   2.724   6.580
 7256SOL     OW22666   3.591   6.628   6.201
 7256SOL    HW122667   3.612   6.622   6.103
 7256SOL    HW222668   3.647   6.561   6.251
 7257SOL     OW22669   0.613   1.457   4.616
 7257SOL    HW122670   0.620   1.394   4.694
 7257SOL    HW222671   0.616   1.405   4.531
 7258SOL     OW22672   6.230   2.050   2.563
 7258SOL    HW122673   6.300   2.077   2.497
 7258SOL    HW222674   6.268   2.053   2.655
 7259SOL     OW22675   0.812   3.684   3.436
 7259SOL    HW122676   0.835   3.775   3.403
 7259SOL    HW222677   0.748   3.640   3.372
 7260SOL     OW22678   5.157   2.732   0.523
 7260SOL    HW122679   5.140   2.728   0.424
 7260SOL    HW222680   5.204   2.649   0.552
 7261SOL     OW22681   0.385   3.910   0.153
 7261SOL    HW122682   0.468   3.941   0.198
 7261SOL    HW222683   0.405   3.828   0.099
 7262SOL     OW22684   5.603   2.105   5.825
 7262SOL    HW122685   5.520   2.159   5.810
 7262SOL    HW222686   5.600   2.023   5.768
 7263SOL     OW22687   0.202   5.751   0.287
 7263SOL    HW122688   0.139   5.800   0.227
 7263SOL    HW222689   0.274   5.813   0.318
 7264SOL     OW22690   5.668   1.222   0.206
 7264SOL    HW122691   5.574   1.225   0.240
 7264SOL    HW222692   5.668   1.184   0.114
 7265SOL     OW22693   4.822   5.760   5.035
 7265SOL    HW122694   4.817   5.823   4.957
 7265SOL    HW222695   4.802   5.810   5.119
 7266SOL     OW22696   6.751   1.052   3.957
 7266SOL    HW122697   6.757   1.034   3.859
 7266SOL    HW222698   6.840   1.034   4.000
 7267SOL     OW22699   6.604   5.671   5.172
 7267SOL    HW122700   6.510   5.640   5.167
 7267SOL    HW222701   6.633   5.707   5.084
 7268SOL     OW22702   6.298   5.932   4.668
 7268SOL    HW122703   6.259   5.930   4.760
 7268SOL    HW222704   6.276   6.019   4.624
 7269SOL     OW22705   1.994   5.204   5.677
 7269SOL    HW122706   1.902   5.203   5.717
 7269SOL    HW222707   2.061   5.212   5.750
 7270SOL     OW22708   0.691   1.416   4.264
 7270SOL    HW122709   0.674   1.320   4.285
 7270SOL    HW222710   0.605   1.466   4.261
 7271SOL     OW22711   0.371   4.979   4.135
 7271SOL    HW122712   0.342   5.053   4.074
 7271SOL    HW222713   0.322   4.895   4.112
 7272SOL     OW22714   6.230   6.064   2.261
 7272SOL    HW122715   6.312   6.085   2.209
 7272SOL    HW222716   6.244   5.981   2.315
 7273SOL     OW22717   6.193   3.245   5.888
 7273SOL    HW122718   6.277   3.288   5.857
 7273SOL    HW222719   6.159   3.293   5.970
 7274SOL     OW22720   0.202   4.536   0.040
 7274SOL    HW122721   0.274   4.583   0.091
 7274SOL    HW222722   0.233   4.520   6.966
 7275SOL     OW22723   6.659   0.048   3.381
 7275SOL    HW122724   6.733   0.113   3.366
 7275SOL    HW222725   6.571   0.092   3.361
 7276SOL     OW22726   5.091   6.904   3.627
 7276SOL    HW122727   5.080   6.949   3.539
 7276SOL    HW222728   5.002   6.880   3.664
 7277SOL     OW22729   4.414   0.742   5.865
 7277SOL    HW122730   4.382   0.776   5.954
 7277SOL    HW222731   4.344   0.760   5.796
 7278SOL     OW22732   3.016   3.975   2.073
 7278SOL    HW122733   2.982   4.054   2.124
 7278SOL    HW222734   3.053   3.907   2.136
 7279SOL     OW22735   4.185   6.063   0.147
 7279SOL    HW122736   4.281   6.039   0.151
 7279SOL    HW222737   4.130   5.989   0.186
 7280SOL     OW22738   4.435   6.607   4.949
 7280SOL    HW122739   4.511   6.670   4.961
 7280SOL    HW222740   4.399   6.580   5.038
 7281SOL     OW22741   3.942   2.249   6.350
 7281SOL    HW122742   3.989   2.282   6.268
 7281SOL    HW222743   4.009   2.212   6.414
 7282SOL     OW22744   5.687   5.378   2.055
 7282SOL    HW122745   5.631   5.417   1.982
 7282SOL    HW222746   5.706   5.448   2.124
 7283SOL     OW22747   2.783   0.833   2.798
 7283SOL    HW122748   2.782   0.736   2.775
 7283SOL    HW222749   2.876   0.869   2.789
 7284SOL     OW22750   6.908   3.887   5.505
 7284SOL    HW122751   6.916   3.986   5.517
 7284SOL    HW222752   6.949   3.861   5.417
 7285SOL     OW22753   4.690   5.209   2.234
 7285SOL    HW122754   4.678   5.121   2.189
 7285SOL    HW222755   4.776   5.251   2.205
 7286SOL     OW22756   2.285   2.627   0.990
 7286SOL    HW122757   2.251   2.576   0.910
 7286SOL    HW222758   2.382   2.604   1.005
 7287SOL     OW22759   6.538   1.127   6.392
 7287SOL    HW122760   6.627   1.085   6.373
 7287SOL    HW222761   6.514   1.114   6.488
 7288SOL     OW22762   3.992   0.576   6.391
 7288SOL    HW122763   3.902   0.586   6.434
 7288SOL    HW222764   4.012   0.479   6.376
 7289SOL     OW22765   5.668   1.358   3.384
 7289SOL    HW122766   5.670   1.458   3.395
 7289SOL    HW222767   5.609   1.335   3.306
 7290SOL     OW22768   2.803   5.163   5.747
 7290SOL    HW122769   2.760   5.074   5.732
 7290SOL    HW222770   2.732   5.234   5.749
 7291SOL     OW22771   1.995   0.150   1.513
 7291SOL    HW122772   2.036   0.061   1.490
 7291SOL    HW222773   2.053   0.196   1.581
 7292SOL     OW22774   3.039   6.821   3.520
 7292SOL    HW122775   2.999   6.738   3.559
 7292SOL    HW222776   3.104   6.860   3.585
 7293SOL     OW22777   2.035   1.580   4.879
 7293SOL    HW122778   2.084   1.548   4.799
 7293SOL    HW222779   1.977   1.506   4.914
 7294SOL     OW22780   2.918   5.336   0.019
 7294SOL    HW122781   2.835   5.283   0.036
 7294SOL    HW222782   2.913   5.423   0.068
 7295SOL     OW22783   0.847   1.943   0.803
 7295SOL    HW122784   0.890   1.982   0.885
 7295SOL    HW222785   0.753   1.975   0.796
 7296SOL     OW22786   2.943   4.764   1.180
 7296SOL    HW122787   2.910   4.817   1.259
 7296SOL    HW222788   3.019   4.811   1.137
 7297SOL     OW22789   3.939   6.225   0.498
 7297SOL    HW122790   3.850   6.249   0.460
 7297SOL    HW222791   3.928   6.189   0.590
 7298SOL     OW22792   5.323   4.256   4.340
 7298SOL    HW122793   5.275   4.333   4.382
 7298SOL    HW222794   5.386   4.215   4.406
 7299SOL     OW22795   6.936   2.214   0.317
 7299SOL    HW122796   6.855   2.261   0.284
 7299SOL    HW222797   6.957   2.244   0.410
 7300SOL     OW22798   5.275   5.796   1.007
 7300SOL    HW122799   5.303   5.702   0.987
 7300SOL    HW222800   5.212   5.797   1.084
 7301SOL     OW22801   6.799   0.597   5.472
 7301SOL    HW122802   6.833   0.510   5.437
 7301SOL    HW222803   6.776   0.657   5.395
 7302SOL     OW22804   0.302   1.201   0.265
 7302SOL    HW122805   0.345   1.154   0.342
 7302SOL    HW222806   0.203   1.200   0.278
 7303SOL     OW22807   4.398   0.402   6.774
 7303SOL    HW122808   4.477   0.442   6.728
 7303SOL    HW222809   4.321   0.399   6.710
 7304SOL     OW22810   4.130   4.006   6.655
 7304SOL    HW122811   4.142   4.090   6.708
 7304SOL    HW222812   4.199   4.001   6.583
 7305SOL     OW22813   5.053   2.271   0.531
 7305SOL    HW122814   4.979   2.305   0.589
 7305SOL    HW222815   5.078   2.178   0.560
 7306SOL     OW22816   5.176   3.731   1.761
 7306SOL    HW122817   5.265   3.704   1.799
 7306SOL    HW222818   5.130   3.650   1.724
 7307SOL     OW22819   2.798   6.370   1.728
 7307SOL    HW122820   2.778   6.286   1.780
 7307SOL    HW222821   2.894   6.395   1.740
 7308SOL     OW22822   6.600   3.390   4.950
 7308SOL    HW122823   6.689   3.433   4.967
 7308SOL    HW222824   6.554   3.375   5.037
 7309SOL     OW22825   4.722   5.990   0.753
 7309SOL    HW122826   4.637   5.954   0.714
 7309SOL    HW222827   4.768   6.048   0.685
 7310SOL     OW22828   2.207   5.267   0.817
 7310SOL    HW122829   2.213   5.213   0.901
 7310SOL    HW222830   2.123   5.322   0.818
 7311SOL     OW22831   3.023   1.892   2.207
 7311SOL    HW122832   3.095   1.904   2.138
 7311SOL    HW222833   2.966   1.974   2.211
 7312SOL     OW22834   6.807   2.220   5.491
 7312SOL    HW122835   6.832   2.267   5.406
 7312SOL    HW222836   6.889   2.210   5.548
 7313SOL     OW22837   4.500   2.746   6.133
 7313SOL    HW122838   4.459   2.834   6.107
 7313SOL    HW222839   4.435   2.672   6.113
 7314SOL     OW22840   6.270   3.363   4.919
 7314SOL    HW122841   6.214   3.426   4.974
 7314SOL    HW222842   6.265   3.390   4.823
 7315SOL     OW22843   5.995   6.939   3.822
 7315SOL    HW122844   6.010   0.011   3.787
 7315SOL    HW222845   5.897   6.919   3.822
 7316SOL     OW22846   3.542   3.079   5.128
 7316SOL    HW122847   3.490   3.135   5.193
 7316SOL    HW222848   3.589   3.138   5.063
 7317SOL     OW22849   4.585   0.402   2.163
 7317SOL    HW122850   4.630   0.445   2.242
 7317SOL    HW222851   4.654   0.382   2.093
 7318SOL     OW22852   1.088   1.498   1.541
 7318SOL    HW122853   1.117   1.528   1.451
 7318SOL    HW222854   1.157   1.439   1.581
 7319SOL     OW22855   6.684   4.497   6.840
 7319SOL    HW122856   6.604   4.473   6.895
 7319SOL    HW222857   6.763   4.509   6.899
 7320SOL     OW22858   6.734   3.541   2.230
 7320SOL    HW122859   6.681   3.599   2.169
 7320SOL    HW222860   6.816   3.509   2.182
 7321SOL     OW22861   2.469   0.976   4.847
 7321SOL    HW122862   2.454   1.049   4.781
 7321SOL    HW222863   2.553   0.995   4.899
 7322SOL     OW22864   1.399   3.403   2.739
 7322SOL    HW122865   1.426   3.335   2.671
 7322SOL    HW222866   1.328   3.366   2.798
 7323SOL     OW22867   1.568   1.654   3.056
 7323SOL    HW122868   1.654   1.683   3.098
 7323SOL    HW222869   1.531   1.576   3.108
 7324SOL     OW22870   5.466   0.130   3.122
 7324SOL    HW122871   5.460   0.147   3.221
 7324SOL    HW222872   5.557   0.095   3.100
 7325SOL     OW22873   4.139   6.912   6.168
 7325SOL    HW122874   4.217   6.858   6.199
 7325SOL    HW222875   4.171   6.989   6.113
 7326SOL     OW22876   2.472   5.867   5.391
 7326SOL    HW122877   2.487   5.783   5.444
 7326SOL    HW222878   2.491   5.850   5.295
 7327SOL     OW22879   0.280   2.703   5.623
 7327SOL    HW122880   0.333   2.787   5.633
 7327SOL    HW222881   0.337   2.632   5.582
 7328SOL     OW22882   3.572   0.552   0.074
 7328SOL    HW122883   3.576   0.471   0.016
 7328SOL    HW222884   3.477   0.583   0.080
 7329SOL     OW22885   4.518   3.672   1.119
 7329SOL    HW122886   4.470   3.640   1.200
 7329SOL    HW222887   4.532   3.771   1.125
 7330SOL     OW22888   3.203   1.944   0.319
 7330SOL    HW122889   3.215   1.924   0.222
 7330SOL    HW222890   3.243   1.869   0.373
 7331SOL     OW22891   5.068   0.970   1.915
 7331SOL    HW122892   5.013   1.016   1.984
 7331SOL    HW222893   5.147   1.027   1.891
 7332SOL     OW22894   2.653   6.264   0.162
 7332SOL    HW122895   2.691   6.342   0.114
 7332SOL    HW222896   2.640   6.188   0.098
 7333SOL     OW22897   0.410   3.996   3.864
 7333SOL    HW122898   0.361   3.923   3.913
 7333SOL    HW222899   0.506   3.995   3.891
 7334SOL     OW22900   4.143   5.887   5.692
 7334SOL    HW122901   4.133   5.947   5.771
 7334SOL    HW222902   4.162   5.794   5.724
 7335SOL     OW22903   1.709   2.852   2.612
 7335SOL    HW122904   1.784   2.787   2.610
 7335SOL    HW222905   1.716   2.909   2.694
 7336SOL     OW22906   1.369   6.752   3.594
 7336SOL    HW122907   1.394   6.670   3.544
 7336SOL    HW222908   1.409   6.749   3.686
 7337SOL     OW22909   1.219   3.125   2.202
 7337SOL    HW122910   1.161   3.190   2.154
 7337SOL    HW222911   1.175   3.035   2.202
 7338SOL     OW22912   6.507   2.511   1.391
 7338SOL    HW122913   6.450   2.441   1.434
 7338SOL    HW222914   6.595   2.472   1.367
 7339SOL     OW22915   6.305   6.409   4.125
 7339SOL    HW122916   6.206   6.413   4.117
 7339SOL    HW222917   6.346   6.455   4.046
 7340SOL     OW22918   2.153   0.453   0.436
 7340SOL    HW122919   2.059   0.435   0.407
 7340SOL    HW222920   2.203   0.367   0.444
 7341SOL     OW22921   6.557   1.866   0.288
 7341SOL    HW122922   6.498   1.921   0.229
 7341SOL    HW222923   6.503   1.828   0.363
 7342SOL     OW22924   6.694   0.128   2.226
 7342SOL    HW122925   6.762   0.060   2.201
 7342SOL    HW222926   6.627   0.137   2.153
 7343SOL     OW22927   4.618   2.714   0.172
 7343SOL    HW122928   4.667   2.627   0.174
 7343SOL    HW222929   4.522   2.700   0.197
 7344SOL     OW22930   1.409   6.903   6.040
 7344SOL    HW122931   1.501   6.924   6.006
 7344SOL    HW222932   1.350   6.880   5.963
 7345SOL     OW22933   3.790   3.336   5.329
 7345SOL    HW122934   3.815   3.268   5.260
 7345SOL    HW222935   3.716   3.300   5.386
 7346SOL     OW22936   3.447   6.078   2.603
 7346SOL    HW122937   3.375   6.142   2.628
 7346SOL    HW222938   3.536   6.123   2.610
 7347SOL     OW22939   0.142   2.466   6.982
 7347SOL    HW122940   0.149   2.459   0.061
 7347SOL    HW222941   0.113   2.378   6.944
 7348SOL     OW22942   1.549   3.968   3.574
 7348SOL    HW122943   1.595   4.025   3.642
 7348SOL    HW222944   1.560   3.872   3.599
 7349SOL     OW22945   4.028   0.364   0.952
 7349SOL    HW122946   3.966   0.414   0.892
 7349SOL    HW222947   4.112   0.417   0.965
 7350SOL     OW22948   2.564   0.583   5.439
 7350SOL    HW122949   2.592   0.674   5.469
 7350SOL    HW222950   2.485   0.590   5.379
 7351SOL     OW22951   4.807   4.884   3.681
 7351SOL    HW122952   4.810   4.931   3.769
 7351SOL    HW222953   4.812   4.951   3.607
 7352SOL     OW22954   0.571   2.099   3.151
 7352SOL    HW122955   0.576   2.004   3.121
 7352SOL    HW222956   0.570   2.103   3.251
 7353SOL     OW22957   5.771   0.480   6.618
 7353SOL    HW122958   5.719   0.471   6.703
 7353SOL    HW222959   5.734   0.556   6.564
 7354SOL     OW22960   1.526   0.872   3.412
 7354SOL    HW122961   1.459   0.875   3.339
 7354SOL    HW222962   1.498   0.935   3.485
 7355SOL     OW22963   6.947   1.905   6.490
 7355SOL    HW122964   6.954   1.985   6.550
 7355SOL    HW222965   6.951   1.821   6.545
 7356SOL     OW22966   3.907   3.624   5.933
 7356SOL    HW122967   3.889   3.618   5.835
 7356SOL    HW222968   3.835   3.678   5.977
 7357SOL     OW22969   4.674   6.057   1.444
 7357SOL    HW122970   4.718   5.990   1.503
 7357SOL    HW222971   4.744   6.116   1.402
 7358SOL     OW22972   6.388   2.621   2.205
 7358SOL    HW122973   6.399   2.721   2.210
 7358SOL    HW222974   6.474   2.581   2.173
 7359SOL     OW22975   4.351   1.061   6.263
 7359SOL    HW122976   4.278   1.116   6.305
 7359SOL    HW222977   4.380   1.104   6.177
 7360SOL     OW22978   2.595   3.375   5.511
 7360SOL    HW122979   2.669   3.311   5.533
 7360SOL    HW222980   2.630   3.468   5.516
 7361SOL     OW22981   5.236   0.227   2.439
 7361SOL    HW122982   5.291   0.185   2.511
 7361SOL    HW222983   5.177   0.158   2.397
 7362SOL     OW22984   4.539   5.398   5.788
 7362SOL    HW122985   4.479   5.327   5.752
 7362SOL    HW222986   4.499   5.436   5.871
 7363SOL     OW22987   4.273   1.303   1.634
 7363SOL    HW122988   4.225   1.355   1.564
 7363SOL    HW222989   4.244   1.332   1.725
 7364SOL     OW22990   4.439   6.805   1.835
 7364SOL    HW122991   4.519   6.812   1.894
 7364SOL    HW222992   4.379   6.883   1.850
 7365SOL     OW22993   6.265   4.793   2.901
 7365SOL    HW122994   6.291   4.696   2.908
 7365SOL    HW222995   6.264   4.821   2.805
 7366SOL     OW22996   2.408   0.758   4.140
 7366SOL    HW122997   2.381   0.670   4.101
 7366SOL    HW222998   2.327   0.805   4.175
 7367SOL     OW22999   4.651   1.798   6.635
 7367SOL    HW123000   4.695   1.711   6.655
 7367SOL    HW223001   4.552   1.789   6.641
 7368SOL     OW23002   3.888   3.381   2.716
 7368SOL    HW123003   3.850   3.470   2.740
 7368SOL    HW223004   3.847   3.349   2.630
 7369SOL     OW23005   4.299   2.642   0.850
 7369SOL    HW123006   4.343   2.712   0.793
 7369SOL    HW223007   4.259   2.572   0.792
 7370SOL     OW23008   2.865   1.641   5.082
 7370SOL    HW123009   2.846   1.567   5.146
 7370SOL    HW223010   2.955   1.681   5.103
 7371SOL     OW23011   3.767   6.966   3.622
 7371SOL    HW123012   3.803   6.913   3.699
 7371SOL    HW223013   3.706   6.909   3.568
 7372SOL     OW23014   3.498   0.247   4.705
 7372SOL    HW123015   3.534   0.336   4.675
 7372SOL    HW223016   3.398   0.248   4.700
 7373SOL     OW23017   4.562   2.160   4.832
 7373SOL    HW123018   4.585   2.179   4.927
 7373SOL    HW223019   4.487   2.219   4.803
 7374SOL     OW23020   1.264   1.848   4.861
 7374SOL    HW123021   1.279   1.947   4.867
 7374SOL    HW223022   1.269   1.809   4.953
 7375SOL     OW23023   2.086   3.149   2.335
 7375SOL    HW123024   2.122   3.068   2.287
 7375SOL    HW223025   2.087   3.227   2.274
 7376SOL     OW23026   0.679   3.573   0.898
 7376SOL    HW123027   0.722   3.657   0.866
 7376SOL    HW223028   0.749   3.505   0.918
 7377SOL     OW23029   3.120   4.993   0.475
 7377SOL    HW123030   3.148   5.087   0.457
 7377SOL    HW223031   3.020   4.987   0.474
 7378SOL     OW23032   1.818   6.330   3.951
 7378SOL    HW123033   1.721   6.310   3.936
 7378SOL    HW223034   1.834   6.428   3.937
 7379SOL     OW23035   3.700   0.600   1.374
 7379SOL    HW123036   3.691   0.685   1.425
 7379SOL    HW223037   3.715   0.524   1.437
 7380SOL     OW23038   6.095   4.272   3.100
 7380SOL    HW123039   6.070   4.206   3.171
 7380SOL    HW223040   6.072   4.364   3.131
 7381SOL     OW23041   4.379   1.322   0.262
 7381SOL    HW123042   4.364   1.300   0.358
 7381SOL    HW223043   4.446   1.396   0.255
 7382SOL     OW23044   0.334   1.533   5.957
 7382SOL    HW123045   0.284   1.586   5.888
 7382SOL    HW223046   0.273   1.465   5.996
 7383SOL     OW23047   1.746   6.727   1.683
 7383SOL    HW123048   1.811   6.679   1.623
 7383SOL    HW223049   1.751   6.825   1.666
 7384SOL     OW23050   0.509   6.839   0.879
 7384SOL    HW123051   0.562   6.903   0.936
 7384SOL    HW223052   0.545   6.747   0.890
 7385SOL     OW23053   3.931   5.170   2.748
 7385SOL    HW123054   3.855   5.110   2.773
 7385SOL    HW223055   3.987   5.190   2.828
 7386SOL     OW23056   6.406   3.371   0.512
 7386SOL    HW123057   6.308   3.359   0.497
 7386SOL    HW223058   6.425   3.468   0.531
 7387SOL     OW23059   6.408   4.680   5.686
 7387SOL    HW123060   6.388   4.668   5.589
 7387SOL    HW223061   6.409   4.778   5.708
 7388SOL     OW23062   1.658   6.274   2.227
 7388SOL    HW123063   1.566   6.251   2.194
 7388SOL    HW223064   1.670   6.374   2.224
 7389SOL     OW23065   6.956   3.278   0.541
 7389SOL    HW123066   6.857   3.269   0.542
 7389SOL    HW223067   6.986   3.333   0.618
 7390SOL     OW23068   2.140   1.751   3.258
 7390SOL    HW123069   2.124   1.841   3.298
 7390SOL    HW223070   2.124   1.680   3.327
 7391SOL     OW23071   3.918   2.962   2.576
 7391SOL    HW123072   4.014   2.989   2.569
 7391SOL    HW223073   3.891   2.955   2.672
 7392SOL     OW23074   4.112   5.549   6.506
 7392SOL    HW123075   4.197   5.599   6.519
 7392SOL    HW223076   4.085   5.506   6.592
 7393SOL     OW23077   6.474   4.837   4.235
 7393SOL    HW123078   6.502   4.868   4.144
 7393SOL    HW223079   6.408   4.902   4.273
 7394SOL     OW23080   1.970   2.709   6.254
 7394SOL    HW123081   1.982   2.689   6.156
 7394SOL    HW223082   1.901   2.781   6.264
 7395SOL     OW23083   2.594   3.950   0.940
 7395SOL    HW123084   2.554   3.893   1.012
 7395SOL    HW223085   2.522   3.976   0.875
 7396SOL     OW23086   3.086   5.265   1.749
 7396SOL    HW123087   3.076   5.183   1.692
 7396SOL    HW223088   3.007   5.324   1.736
 7397SOL     OW23089   5.528   3.853   4.409
 7397SOL    HW123090   5.569   3.881   4.495
 7397SOL    HW223091   5.540   3.926   4.341
 7398SOL     OW23092   2.016   4.355   3.348
 7398SOL    HW123093   1.936   4.296   3.339
 7398SOL    HW223094   1.996   4.429   3.413
 7399SOL     OW23095   5.621   2.423   4.835
 7399SOL    HW123096   5.564   2.478   4.896
 7399SOL    HW223097   5.600   2.445   4.740
 7400SOL     OW23098   5.533   2.497   5.241
 7400SOL    HW123099   5.438   2.478   5.266
 7400SOL    HW223100   5.537   2.583   5.190
 7401SOL     OW23101   1.316   3.262   3.467
 7401SOL    HW123102   1.260   3.317   3.404
 7401SOL    HW223103   1.357   3.186   3.416
 7402SOL     OW23104   2.632   5.512   4.936
 7402SOL    HW123105   2.631   5.474   4.843
 7402SOL    HW223106   2.674   5.602   4.935
 7403SOL     OW23107   1.465   2.866   3.918
 7403SOL    HW123108   1.483   2.815   3.834
 7403SOL    HW223109   1.480   2.806   3.997
 7404SOL     OW23110   3.000   3.896   1.537
 7404SOL    HW123111   2.931   3.919   1.606
 7404SOL    HW223112   3.033   3.803   1.552
 7405SOL     OW23113   2.761   5.718   5.282
 7405SOL    HW123114   2.794   5.628   5.251
 7405SOL    HW223115   2.692   5.752   5.218
 7406SOL     OW23116   0.822   1.100   4.874
 7406SOL    HW123117   0.861   1.010   4.854
 7406SOL    HW223118   0.728   1.089   4.909
 7407SOL     OW23119   0.584   5.974   0.008
 7407SOL    HW123120   0.522   6.038   6.983
 7407SOL    HW223121   0.558   5.881   7.006
 7408SOL     OW23122   3.509   4.256   5.416
 7408SOL    HW123123   3.414   4.287   5.425
 7408SOL    HW223124   3.514   4.180   5.352
 7409SOL     OW23125   6.263   4.098   0.775
 7409SOL    HW123126   6.260   4.071   0.872
 7409SOL    HW223127   6.353   4.075   0.737
 7410SOL     OW23128   6.833   0.279   0.816
 7410SOL    HW123129   6.860   0.232   0.900
 7410SOL    HW223130   6.764   0.349   0.837
 7411SOL     OW23131   0.575   1.665   5.736
 7411SOL    HW123132   0.668   1.640   5.763
 7411SOL    HW223133   0.534   1.722   5.807
 7412SOL     OW23134   3.853   0.006   6.993
 7412SOL    HW123135   3.757   7.009   7.015
 7412SOL    HW223136   3.883   0.091   0.016
 7413SOL     OW23137   3.829   5.590   3.688
 7413SOL    HW123138   3.849   5.560   3.781
 7413SOL    HW223139   3.902   5.558   3.627
 7414SOL     OW23140   2.513   1.987   4.608
 7414SOL    HW123141   2.596   1.934   4.589
 7414SOL    HW223142   2.476   2.022   4.521
 7415SOL     OW23143   3.815   6.752   6.517
 7415SOL    HW123144   3.717   6.733   6.529
 7415SOL    HW223145   3.829   6.851   6.509
 7416SOL     OW23146   0.641   2.042   2.564
 7416SOL    HW123147   0.579   2.012   2.492
 7416SOL    HW223148   0.636   2.141   2.574
 7417SOL     OW23149   0.833   2.440   3.651
 7417SOL    HW123150   0.883   2.525   3.630
 7417SOL    HW223151   0.762   2.426   3.582
 7418SOL     OW23152   1.410   3.801   6.441
 7418SOL    HW123153   1.392   3.708   6.472
 7418SOL    HW223154   1.501   3.806   6.400
 7419SOL     OW23155   6.505   4.254   3.828
 7419SOL    HW123156   6.467   4.193   3.897
 7419SOL    HW223157   6.494   4.214   3.737
 7420SOL     OW23158   0.006   6.710   2.009
 7420SOL    HW123159   0.004   6.722   2.108
 7420SOL    HW223160   0.001   6.613   1.987
 7421SOL     OW23161   4.738   3.487   1.636
 7421SOL    HW123162   4.708   3.562   1.576
 7421SOL    HW223163   4.661   3.425   1.653
 7422SOL     OW23164   6.008   2.909   1.900
 7422SOL    HW123165   5.909   2.926   1.902
 7422SOL    HW223166   6.055   2.984   1.947
 7423SOL     OW23167   5.924   2.225   5.415
 7423SOL    HW123168   5.996   2.174   5.368
 7423SOL    HW223169   5.880   2.166   5.483
 7424SOL     OW23170   6.858   0.808   4.880
 7424SOL    HW123171   6.770   0.767   4.902
 7424SOL    HW223172   6.931   0.756   4.925
 7425SOL     OW23173   5.514   0.055   0.635
 7425SOL    HW123174   5.513   0.001   0.550
 7425SOL    HW223175   5.551   7.020   0.709
 7426SOL     OW23176   3.774   2.813   5.910
 7426SOL    HW123177   3.811   2.851   5.825
 7426SOL    HW223178   3.726   2.727   5.890
 7427SOL     OW23179   3.502   1.290   3.697
 7427SOL    HW123180   3.462   1.198   3.701
 7427SOL    HW223181   3.428   1.358   3.701
 7428SOL     OW23182   4.154   6.668   5.738
 7428SOL    HW123183   4.122   6.603   5.807
 7428SOL    HW223184   4.188   6.619   5.658
 7429SOL     OW23185   1.205   6.881   2.494
 7429SOL    HW123186   1.219   6.884   2.593
 7429SOL    HW223187   1.294   6.882   2.448
 7430SOL     OW23188   6.759   4.935   3.060
 7430SOL    HW123189   6.674   4.890   3.088
 7430SOL    HW223190   6.787   5.000   3.131
 7431SOL     OW23191   2.125   2.202   4.897
 7431SOL    HW123192   2.213   2.213   4.852
 7431SOL    HW223193   2.055   2.254   4.848
 7432SOL     OW23194   2.025   0.032   3.511
 7432SOL    HW123195   2.104   0.006   3.455
 7432SOL    HW223196   2.054   0.095   3.583
 7433SOL     OW23197   3.033   6.812   6.397
 7433SOL    HW123198   2.956   6.876   6.398
 7433SOL    HW223199   3.015   6.740   6.329
 7434SOL     OW23200   4.162   6.139   5.849
 7434SOL    HW123201   4.168   6.137   5.948
 7434SOL    HW223202   4.082   6.192   5.821
 7435SOL     OW23203   4.610   6.495   2.706
 7435SOL    HW123204   4.618   6.593   2.690
 7435SOL    HW223205   4.664   6.470   2.786
 7436SOL     OW23206   5.027   3.555   6.333
 7436SOL    HW123207   5.009   3.461   6.305
 7436SOL    HW223208   5.030   3.560   6.433
 7437SOL     OW23209   4.030   6.190   1.233
 7437SOL    HW123210   3.970   6.158   1.307
 7437SOL    HW223211   4.125   6.184   1.262
 7438SOL     OW23212   2.431   0.986   0.541
 7438SOL    HW123213   2.341   0.991   0.584
 7438SOL    HW223214   2.429   0.920   0.467
 7439SOL     OW23215   1.547   4.701   6.300
 7439SOL    HW123216   1.622   4.675   6.238
 7439SOL    HW223217   1.459   4.682   6.256
 7440SOL     OW23218   4.834   3.015   3.705
 7440SOL    HW123219   4.920   3.056   3.737
 7440SOL    HW223220   4.853   2.946   3.635
 7441SOL     OW23221   6.179   5.986   1.886
 7441SOL    HW123222   6.079   5.984   1.889
 7441SOL    HW223223   6.212   6.076   1.912
 7442SOL     OW23224   5.176   0.409   5.839
 7442SOL    HW123225   5.252   0.433   5.899
 7442SOL    HW223226   5.212   0.382   5.749
 7443SOL     OW23227   0.276   6.453   2.368
 7443SOL    HW123228   0.228   6.541   2.379
 7443SOL    HW223229   0.282   6.430   2.271
 7444SOL     OW23230   1.068   0.116   6.120
 7444SOL    HW123231   1.149   0.128   6.177
 7444SOL    HW223232   1.004   0.054   6.166
 7445SOL     OW23233   4.516   6.002   2.371
 7445SOL    HW123234   4.480   6.074   2.312
 7445SOL    HW223235   4.569   6.043   2.445
 7446SOL     OW23236   5.257   3.476   0.236
 7446SOL    HW123237   5.331   3.535   0.269
 7446SOL    HW223238   5.294   3.409   0.171
 7447SOL     OW23239   0.414   4.454   0.787
 7447SOL    HW123240   0.400   4.357   0.806
 7447SOL    HW223241   0.327   4.503   0.799
 7448SOL     OW23242   4.631   5.623   6.202
 7448SOL    HW123243   4.704   5.624   6.134
 7448SOL    HW223244   4.566   5.551   6.181
 7449SOL     OW23245   0.387   4.244   6.834
 7449SOL    HW123246   0.374   4.215   6.929
 7449SOL    HW223247   0.321   4.315   6.811
 7450SOL     OW23248   5.591   1.653   5.516
 7450SOL    HW123249   5.546   1.574   5.556
 7450SOL    HW223250   5.561   1.664   5.421
 7451SOL     OW23251   5.886   5.166   2.626
 7451SOL    HW123252   5.920   5.230   2.694
 7451SOL    HW223253   5.802   5.123   2.659
 7452SOL     OW23254   4.950   6.286   5.197
 7452SOL    HW123255   5.023   6.298   5.265
 7452SOL    HW223256   4.863   6.317   5.236
 7453SOL     OW23257   4.178   5.511   6.255
 7453SOL    HW123258   4.138   5.510   6.346
 7453SOL    HW223259   4.264   5.562   6.257
 7454SOL     OW23260   3.573   2.341   0.441
 7454SOL    HW123261   3.523   2.293   0.369
 7454SOL    HW223262   3.576   2.284   0.523
 7455SOL     OW23263   6.026   2.777   2.703
 7455SOL    HW123264   6.029   2.866   2.748
 7455SOL    HW223265   5.977   2.712   2.761
 7456SOL     OW23266   2.890   1.975   5.487
 7456SOL    HW123267   2.850   2.052   5.538
 7456SOL    HW223268   2.891   1.997   5.390
 7457SOL     OW23269   2.807   0.057   3.201
 7457SOL    HW123270   2.863   6.996   3.186
 7457SOL    HW223271   2.773   0.090   3.113
 7458SOL     OW23272   0.857   6.497   5.402
 7458SOL    HW123273   0.855   6.397   5.406
 7458SOL    HW223274   0.932   6.530   5.460
 7459SOL     OW23275   6.006   1.289   2.935
 7459SOL    HW123276   6.025   1.234   3.016
 7459SOL    HW223277   5.909   1.282   2.912
 7460SOL     OW23278   0.866   6.953   0.863
 7460SOL    HW123279   0.897   6.911   0.948
 7460SOL    HW223280   0.780   7.002   0.879
 7461SOL     OW23281   0.897   5.903   5.986
 7461SOL    HW123282   0.980   5.958   5.980
 7461SOL    HW223283   0.856   5.894   5.895
 7462SOL     OW23284   1.126   5.511   1.489
 7462SOL    HW123285   1.217   5.551   1.499
 7462SOL    HW223286   1.087   5.493   1.579
 7463SOL     OW23287   4.360   4.550   0.013
 7463SOL    HW123288   4.283   4.610   7.010
 7463SOL    HW223289   4.423   4.545   6.956
 7464SOL     OW23290   6.546   5.319   5.117
 7464SOL    HW123291   6.549   5.219   5.104
 7464SOL    HW223292   6.559   5.341   5.213
 7465SOL     OW23293   2.212   5.116   0.239
 7465SOL    HW123294   2.140   5.100   0.172
 7465SOL    HW223295   2.284   5.173   0.199
 7466SOL     OW23296   0.767   6.494   4.562
 7466SOL    HW123297   0.804   6.587   4.568
 7466SOL    HW223298   0.668   6.497   4.576
 7467SOL     OW23299   0.224   3.182   6.143
 7467SOL    HW123300   0.244   3.104   6.202
 7467SOL    HW223301   0.179   3.149   6.059
 7468SOL     OW23302   5.614   3.116   5.548
 7468SOL    HW123303   5.675   3.187   5.581
 7468SOL    HW223304   5.644   3.027   5.582
 7469SOL     OW23305   6.668   2.384   0.560
 7469SOL    HW123306   6.706   2.476   0.573
 7469SOL    HW223307   6.639   2.373   0.465
 7470SOL     OW23308   5.648   3.564   4.087
 7470SOL    HW123309   5.593   3.643   4.059
 7470SOL    HW223310   5.736   3.566   4.040
 7471SOL     OW23311   5.769   5.487   6.789
 7471SOL    HW123312   5.770   5.435   6.875
 7471SOL    HW223313   5.798   5.427   6.714
 7472SOL     OW23314   6.458   6.297   5.157
 7472SOL    HW123315   6.393   6.365   5.123
 7472SOL    HW223316   6.522   6.340   5.220
 7473SOL     OW23317   4.299   6.903   3.867
 7473SOL    HW123318   4.253   6.849   3.796
 7473SOL    HW223319   4.247   6.986   3.884
 7474SOL     OW23320   6.081   1.930   5.713
 7474SOL    HW123321   6.142   1.981   5.652
 7474SOL    HW223322   6.110   1.944   5.808
 7475SOL     OW23323   4.656   2.178   1.415
 7475SOL    HW123324   4.598   2.153   1.338
 7475SOL    HW223325   4.711   2.100   1.443
 7476SOL     OW23326   2.417   1.376   3.022
 7476SOL    HW123327   2.471   1.341   2.947
 7476SOL    HW223328   2.444   1.471   3.043
 7477SOL     OW23329   0.916   4.200   5.583
 7477SOL    HW123330   0.872   4.289   5.594
 7477SOL    HW223331   1.014   4.208   5.602
 7478SOL     OW23332   6.828   1.949   5.008
 7478SOL    HW123333   6.907   1.995   4.968
 7478SOL    HW223334   6.793   1.881   4.944
 7479SOL     OW23335   6.081   3.257   6.732
 7479SOL    HW123336   6.069   3.356   6.742
 7479SOL    HW223337   6.134   3.222   6.810
 7480SOL     OW23338   3.651   4.886   2.292
 7480SOL    HW123339   3.649   4.837   2.205
 7480SOL    HW223340   3.572   4.859   2.348
 7481SOL     OW23341   6.611   4.097   6.771
 7481SOL    HW123342   6.649   4.063   6.857
 7481SOL    HW223343   6.686   4.114   6.707
 7482SOL     OW23344   3.937   2.171   2.264
 7482SOL    HW123345   3.929   2.251   2.205
 7482SOL    HW223346   3.944   2.089   2.208
 7483SOL     OW23347   4.377   2.697   5.361
 7483SOL    HW123348   4.412   2.753   5.286
 7483SOL    HW223349   4.304   2.637   5.327
 7484SOL     OW23350   2.710   6.480   4.396
 7484SOL    HW123351   2.715   6.415   4.473
 7484SOL    HW223352   2.772   6.450   4.324
 7485SOL     OW23353   2.746   0.175   3.915
 7485SOL    HW123354   2.839   0.162   3.949
 7485SOL    HW223355   2.703   0.253   3.961
 7486SOL     OW23356   1.405   6.488   0.183
 7486SOL    HW123357   1.467   6.556   0.143
 7486SOL    HW223358   1.311   6.510   0.156
 7487SOL     OW23359   4.398   6.668   3.570
 7487SOL    HW123360   4.310   6.689   3.613
 7487SOL    HW223361   4.383   6.639   3.476
 7488SOL     OW23362   0.916   5.703   3.997
 7488SOL    HW123363   0.854   5.688   4.074
 7488SOL    HW223364   0.868   5.753   3.925
 7489SOL     OW23365   6.083   3.919   6.716
 7489SOL    HW123366   6.167   3.973   6.729
 7489SOL    HW223367   6.074   3.893   6.620
 7490SOL     OW23368   0.954   2.195   2.830
 7490SOL    HW123369   1.039   2.149   2.805
 7490SOL    HW223370   0.885   2.126   2.854
 7491SOL     OW23371   4.386   2.987   0.288
 7491SOL    HW123372   4.424   3.002   0.379
 7491SOL    HW223373   4.367   3.075   0.244
 7492SOL     OW23374   1.534   0.467   4.568
 7492SOL    HW123375   1.589   0.550   4.563
 7492SOL    HW223376   1.529   0.436   4.663
 7493SOL     OW23377   5.920   3.745   5.102
 7493SOL    HW123378   5.945   3.707   5.013
 7493SOL    HW223379   5.860   3.681   5.150
 7494SOL     OW23380   5.607   1.494   2.813
 7494SOL    HW123381   5.510   1.469   2.806
 7494SOL    HW223382   5.656   1.424   2.864
 7495SOL     OW23383   2.044   3.484   4.742
 7495SOL    HW123384   2.022   3.571   4.785
 7495SOL    HW223385   2.078   3.421   4.812
 7496SOL     OW23386   5.736   3.890   2.793
 7496SOL    HW123387   5.664   3.853   2.736
 7496SOL    HW223388   5.816   3.830   2.790
 7497SOL     OW23389   0.673   6.530   0.374
 7497SOL    HW123390   0.663   6.588   0.455
 7497SOL    HW223391   0.649   6.582   0.293
 7498SOL     OW23392   3.217   0.239   3.173
 7498SOL    HW123393   3.180   0.228   3.266
 7498SOL    HW223394   3.291   0.306   3.175
 7499SOL     OW23395   3.520   2.113   3.770
 7499SOL    HW123396   3.539   2.160   3.855
 7499SOL    HW223397   3.432   2.065   3.776
 7500SOL     OW23398   4.332   0.001   3.554
 7500SOL    HW123399   4.314   0.011   3.652
 7500SOL    HW223400   4.253   0.032   3.502
 7501SOL     OW23401   5.938   2.466   4.524
 7501SOL    HW123402   5.927   2.398   4.452
 7501SOL    HW223403   5.865   2.535   4.517
 7502SOL     OW23404   3.644   0.176   4.352
 7502SOL    HW123405   3.617   0.080   4.358
 7502SOL    HW223406   3.584   0.223   4.287
 7503SOL     OW23407   2.090   6.260   1.355
 7503SOL    HW123408   2.144   6.254   1.271
 7503SOL    HW223409   2.067   6.356   1.373
 7504SOL     OW23410   6.851   6.928   3.551
 7504SOL    HW123411   6.838   6.994   3.625
 7504SOL    HW223412   6.888   6.976   3.471
 7505SOL     OW23413   0.285   0.505   4.757
 7505SOL    HW123414   0.229   0.449   4.818
 7505SOL    HW223415   0.244   0.595   4.747
 7506SOL     OW23416   3.045   1.614   3.239
 7506SOL    HW123417   2.984   1.657   3.305
 7506SOL    HW223418   3.108   1.552   3.286
 7507SOL     OW23419   6.384   3.717   4.490
 7507SOL    HW123420   6.336   3.744   4.406
 7507SOL    HW223421   6.443   3.639   4.471
 7508SOL     OW23422   1.974   5.873   6.965
 7508SOL    HW123423   1.965   5.901   0.040
 7508SOL    HW223424   1.937   5.781   6.953
 7509SOL     OW23425   4.927   3.603   0.375
 7509SOL    HW123426   4.998   3.646   0.432
 7509SOL    HW223427   4.837   3.625   0.412
 7510SOL     OW23428   3.490   4.140   3.768
 7510SOL    HW123429   3.514   4.211   3.835
 7510SOL    HW223430   3.439   4.067   3.814
 7511SOL     OW23431   3.276   5.681   2.949
 7511SOL    HW123432   3.259   5.753   2.882
 7511SOL    HW223433   3.236   5.706   3.037
 7512SOL     OW23434   3.160   6.524   6.068
 7512SOL    HW123435   3.236   6.536   6.132
 7512SOL    HW223436   3.188   6.551   5.976
 7513SOL     OW23437   1.657   1.876   3.483
 7513SOL    HW123438   1.737   1.890   3.541
 7513SOL    HW223439   1.610   1.963   3.470
 7514SOL     OW23440   2.186   4.086   2.618
 7514SOL    HW123441   2.145   4.044   2.537
 7514SOL    HW223442   2.113   4.118   2.679
 7515SOL     OW23443   6.711   3.731   4.790
 7515SOL    HW123444   6.708   3.780   4.877
 7515SOL    HW223445   6.806   3.719   4.761
 7516SOL     OW23446   1.149   5.311   5.417
 7516SOL    HW123447   1.057   5.294   5.452
 7516SOL    HW223448   1.199   5.369   5.481
 7517SOL     OW23449   0.611   2.031   6.671
 7517SOL    HW123450   0.680   2.055   6.603
 7517SOL    HW223451   0.617   1.933   6.691
 7518SOL     OW23452   4.735   2.823   3.897
 7518SOL    HW123453   4.747   2.866   3.986
 7518SOL    HW223454   4.752   2.890   3.825
 7519SOL     OW23455   3.772   6.924   5.148
 7519SOL    HW123456   3.864   6.948   5.177
 7519SOL    HW223457   3.757   6.953   5.053
 7520SOL     OW23458   2.040   1.983   2.064
 7520SOL    HW123459   1.983   1.963   1.984
 7520SOL    HW223460   2.070   1.897   2.105
 7521SOL     OW23461   4.470   1.243   4.622
 7521SOL    HW123462   4.554   1.219   4.671
 7521SOL    HW223463   4.490   1.252   4.524
 7522SOL     OW23464   1.682   6.467   2.964
 7522SOL    HW123465   1.723   6.541   3.017
 7522SOL    HW223466   1.584   6.462   2.983
 7523SOL     OW23467   5.617   1.575   6.136
 7523SOL    HW123468   5.564   1.620   6.065
 7523SOL    HW223469   5.706   1.619   6.146
 7524SOL     OW23470   0.255   2.449   4.775
 7524SOL    HW123471   0.174   2.407   4.817
 7524SOL    HW223472   0.314   2.377   4.738
 7525SOL     OW23473   4.509   6.103   6.221
 7525SOL    HW123474   4.541   6.018   6.262
 7525SOL    HW223475   4.525   6.100   6.122
 7526SOL     OW23476   2.042   3.531   1.767
 7526SOL    HW123477   2.084   3.503   1.681
 7526SOL    HW223478   2.113   3.556   1.833
 7527SOL     OW23479   4.138   5.619   3.582
 7527SOL    HW123480   4.217   5.578   3.627
 7527SOL    HW223481   4.096   5.552   3.520
 7528SOL     OW23482   6.272   2.827   6.229
 7528SOL    HW123483   6.188   2.807   6.179
 7528SOL    HW223484   6.272   2.776   6.315
 7529SOL     OW23485   6.119   2.420   3.854
 7529SOL    HW123486   6.043   2.391   3.910
 7529SOL    HW223487   6.085   2.457   3.767
 7530SOL     OW23488   0.036   1.746   2.092
 7530SOL    HW123489   6.983   1.721   2.030
 7530SOL    HW223490   0.002   1.745   2.186
 7531SOL     OW23491   4.550   1.989   3.706
 7531SOL    HW123492   4.529   2.067   3.765
 7531SOL    HW223493   4.514   2.005   3.615
 7532SOL     OW23494   4.312   5.575   6.825
 7532SOL    HW123495   4.402   5.579   6.781
 7532SOL    HW223496   4.283   5.480   6.834
 7533SOL     OW23497   4.557   3.281   1.668
 7533SOL    HW123498   4.556   3.190   1.709
 7533SOL    HW223499   4.473   3.330   1.693
 7534SOL     OW23500   4.858   0.159   4.028
 7534SOL    HW123501   4.914   0.153   3.945
 7534SOL    HW223502   4.762   0.142   4.005
 7535SOL     OW23503   0.914   5.552   4.396
 7535SOL    HW123504   0.828   5.580   4.351
 7535SOL    HW223505   0.893   5.499   4.478
 7536SOL     OW23506   5.013   5.720   3.757
 7536SOL    HW123507   5.050   5.783   3.826
 7536SOL    HW223508   5.074   5.641   3.747
 7537SOL     OW23509   2.919   6.025   2.522
 7537SOL    HW123510   2.926   6.056   2.616
 7537SOL    HW223511   3.010   6.019   2.481
 7538SOL     OW23512   0.579   3.700   1.380
 7538SOL    HW123513   0.518   3.775   1.405
 7538SOL    HW223514   0.582   3.691   1.281
 7539SOL     OW23515   0.142   5.592   3.733
 7539SOL    HW123516   0.148   5.604   3.634
 7539SOL    HW223517   0.143   5.494   3.755
 7540SOL     OW23518   5.695   5.365   4.129
 7540SOL    HW123519   5.767   5.362   4.060
 7540SOL    HW223520   5.643   5.449   4.119
 7541SOL     OW23521   0.727   3.884   6.571
 7541SOL    HW123522   0.667   3.878   6.491
 7541SOL    HW223523   0.703   3.812   6.636
 7542SOL     OW23524   5.952   5.521   6.422
 7542SOL    HW123525   5.954   5.511   6.323
 7542SOL    HW223526   5.861   5.553   6.450
 7543SOL     OW23527   2.579   0.856   5.246
 7543SOL    HW123528   2.486   0.892   5.242
 7543SOL    HW223529   2.611   0.859   5.341
 7544SOL     OW23530   7.013   2.892   3.689
 7544SOL    HW123531   6.945   2.955   3.727
 7544SOL    HW223532   0.013   2.918   3.595
 7545SOL     OW23533   0.833   5.410   0.019
 7545SOL    HW123534   0.833   5.332   0.083
 7545SOL    HW223535   0.837   5.376   6.946
 7546SOL     OW23536   3.053   3.039   1.628
 7546SOL    HW123537   3.118   3.109   1.599
 7546SOL    HW223538   3.093   2.986   1.703
 7547SOL     OW23539   4.468   0.197   1.867
 7547SOL    HW123540   4.558   0.185   1.909
 7547SOL    HW223541   4.410   0.118   1.888
 7548SOL     OW23542   4.779   2.438   6.125
 7548SOL    HW123543   4.836   2.516   6.097
 7548SOL    HW223544   4.837   2.357   6.137
 7549SOL     OW23545   4.432   2.458   5.163
 7549SOL    HW123546   4.338   2.490   5.160
 7549SOL    HW223547   4.435   2.363   5.131
 7550SOL     OW23548   1.684   3.862   4.155
 7550SOL    HW123549   1.697   3.958   4.128
 7550SOL    HW223550   1.751   3.837   4.224
 7551SOL     OW23551   5.876   1.825   5.263
 7551SOL    HW123552   5.845   1.768   5.339
 7551SOL    HW223553   5.923   1.768   5.196
 7552SOL     OW23554   2.456   5.772   5.057
 7552SOL    HW123555   2.464   5.675   5.079
 7552SOL    HW223556   2.461   5.785   4.958
 7553SOL     OW23557   5.570   6.506   6.437
 7553SOL    HW123558   5.478   6.531   6.468
 7553SOL    HW223559   5.625   6.478   6.516
 7554SOL     OW23560   4.974   1.148   0.641
 7554SOL    HW123561   5.051   1.116   0.587
 7554SOL    HW223562   4.906   1.075   0.649
 7555SOL     OW23563   3.633   5.322   6.105
 7555SOL    HW123564   3.691   5.241   6.112
 7555SOL    HW223565   3.539   5.294   6.083
 7556SOL     OW23566   0.388   0.420   0.607
 7556SOL    HW123567   0.311   0.405   0.668
 7556SOL    HW223568   0.473   0.421   0.659
 7557SOL     OW23569   4.635   0.194   0.465
 7557SOL    HW123570   4.685   0.270   0.425
 7557SOL    HW223571   4.673   0.173   0.556
 7558SOL     OW23572   1.721   2.275   4.352
 7558SOL    HW123573   1.642   2.331   4.373
 7558SOL    HW223574   1.801   2.333   4.339
 7559SOL     OW23575   4.056   2.191   4.966
 7559SOL    HW123576   4.057   2.128   5.043
 7559SOL    HW223577   4.086   2.282   4.996
 7560SOL     OW23578   6.792   0.679   6.195
 7560SOL    HW123579   6.731   0.756   6.216
 7560SOL    HW223580   6.757   0.597   6.239
 7561SOL     OW23581   5.671   2.256   5.312
 7561SOL    HW123582   5.769   2.270   5.327
 7561SOL    HW223583   5.630   2.340   5.276
 7562SOL     OW23584   1.411   4.904   4.233
 7562SOL    HW123585   1.390   4.808   4.213
 7562SOL    HW223586   1.445   4.949   4.150
 7563SOL     OW23587   3.538   6.140   2.289
 7563SOL    HW123588   3.596   6.171   2.214
 7563SOL    HW223589   3.471   6.211   2.311
 7564SOL     OW23590   4.583   1.309   3.945
 7564SOL    HW123591   4.660   1.246   3.956
 7564SOL    HW223592   4.599   1.391   4.000
 7565SOL     OW23593   5.600   3.467   6.466
 7565SOL    HW123594   5.687   3.435   6.503
 7565SOL    HW223595   5.610   3.560   6.432
 7566SOL     OW23596   4.487   4.270   1.461
 7566SOL    HW123597   4.428   4.195   1.434
 7566SOL    HW223598   4.508   4.327   1.381
 7567SOL     OW23599   0.770   0.728   4.940
 7567SOL    HW123600   0.775   0.633   4.969
 7567SOL    HW223601   0.703   0.738   4.867
 7568SOL     OW23602   5.865   5.665   1.054
 7568SOL    HW123603   5.963   5.644   1.047
 7568SOL    HW223604   5.821   5.599   1.114
 7569SOL     OW23605   4.159   3.822   0.138
 7569SOL    HW123606   4.258   3.836   0.131
 7569SOL    HW223607   4.119   3.821   0.047
 7570SOL     OW23608   6.457   2.763   3.089
 7570SOL    HW123609   6.428   2.669   3.074
 7570SOL    HW223610   6.389   2.812   3.143
 7571SOL     OW23611   5.120   3.245   2.558
 7571SOL    HW123612   5.125   3.147   2.537
 7571SOL    HW223613   5.082   3.294   2.479
 7572SOL     OW23614   5.127   6.084   2.408
 7572SOL    HW123615   5.072   6.027   2.347
 7572SOL    HW223616   5.067   6.147   2.458
 7573SOL     OW23617   5.478   6.738   5.911
 7573SOL    HW123618   5.449   6.728   5.816
 7573SOL    HW223619   5.549   6.671   5.931
 7574SOL     OW23620   6.729   1.544   4.117
 7574SOL    HW123621   6.812   1.525   4.170
 7574SOL    HW223622   6.696   1.459   4.075
 7575SOL     OW23623   6.829   5.967   1.305
 7575SOL    HW123624   6.897   6.019   1.253
 7575SOL    HW223625   6.738   6.001   1.285
 7576SOL     OW23626   5.217   3.012   0.548
 7576SOL    HW123627   5.242   3.036   0.455
 7576SOL    HW223628   5.189   2.916   0.553
 7577SOL     OW23629   0.611   0.158   0.061
 7577SOL    HW123630   0.599   0.211   6.997
 7577SOL    HW223631   0.531   0.169   0.119
 7578SOL     OW23632   6.679   5.526   3.454
 7578SOL    HW123633   6.757   5.467   3.437
 7578SOL    HW223634   6.690   5.612   3.404
 7579SOL     OW23635   6.717   1.112   0.592
 7579SOL    HW123636   6.624   1.088   0.621
 7579SOL    HW223637   6.781   1.042   0.622
 7580SOL     OW23638   2.175   4.927   3.737
 7580SOL    HW123639   2.262   4.954   3.696
 7580SOL    HW223640   2.190   4.848   3.797
 7581SOL     OW23641   0.147   0.922   1.911
 7581SOL    HW123642   0.192   0.933   2.000
 7581SOL    HW223643   0.217   0.916   1.840
 7582SOL     OW23644   3.454   2.133   4.332
 7582SOL    HW123645   3.473   2.230   4.317
 7582SOL    HW223646   3.450   2.114   4.430
 7583SOL     OW23647   4.946   3.484   3.774
 7583SOL    HW123648   4.946   3.584   3.784
 7583SOL    HW223649   4.954   3.441   3.864
 7584SOL     OW23650   0.691   1.074   3.276
 7584SOL    HW123651   0.789   1.089   3.281
 7584SOL    HW223652   0.671   1.009   3.202
 7585SOL     OW23653   0.871   2.124   7.004
 7585SOL    HW123654   0.926   2.196   0.026
 7585SOL    HW223655   0.786   2.164   6.969
 7586SOL     OW23656   1.231   1.205   2.754
 7586SOL    HW123657   1.324   1.168   2.754
 7586SOL    HW223658   1.202   1.223   2.660
 7587SOL     OW23659   3.192   1.163   0.593
 7587SOL    HW123660   3.272   1.129   0.543
 7587SOL    HW223661   3.169   1.101   0.667
 7588SOL     OW23662   1.589   2.730   4.619
 7588SOL    HW123663   1.493   2.754   4.606
 7588SOL    HW223664   1.637   2.803   4.668
 7589SOL     OW23665   7.002   1.050   3.014
 7589SOL    HW123666   6.980   1.114   3.088
 7589SOL    HW223667   0.055   1.089   2.958
 7590SOL     OW23668   7.006   1.556   0.156
 7590SOL    HW123669   6.910   1.534   0.170
 7590SOL    HW223670   0.031   1.567   0.244
 7591SOL     OW23671   4.032   2.961   6.172
 7591SOL    HW123672   3.991   3.049   6.147
 7591SOL    HW223673   4.005   2.892   6.105
 7592SOL     OW23674   6.983   6.241   4.899
 7592SOL    HW123675   6.897   6.246   4.848
 7592SOL    HW223676   6.994   6.148   4.935
 7593SOL     OW23677   0.110   1.512   5.703
 7593SOL    HW123678   0.129   1.415   5.691
 7593SOL    HW223679   0.097   1.555   5.614
 7594SOL     OW23680   0.435   4.013   1.122
 7594SOL    HW123681   0.361   3.992   1.059
 7594SOL    HW223682   0.516   3.961   1.097
 7595SOL     OW23683   6.261   2.372   6.161
 7595SOL    HW123684   6.198   2.434   6.208
 7595SOL    HW223685   6.334   2.424   6.118
 7596SOL     OW23686   2.702   0.984   5.033
 7596SOL    HW123687   2.652   0.933   5.104
 7596SOL    HW223688   2.746   0.919   4.972
 7597SOL     OW23689   1.971   4.888   2.262
 7597SOL    HW123690   2.018   4.830   2.196
 7597SOL    HW223691   2.010   4.873   2.353
 7598SOL     OW23692   5.726   0.892   3.395
 7598SOL    HW123693   5.631   0.885   3.425
 7598SOL    HW223694   5.757   0.987   3.405
 7599SOL     OW23695   3.776   2.864   0.977
 7599SOL    HW123696   3.733   2.852   1.067
 7599SOL    HW223697   3.860   2.918   0.988
 7600SOL     OW23698   1.108   1.262   4.213
 7600SOL    HW123699   1.197   1.249   4.256
 7600SOL    HW223700   1.117   1.324   4.135
 7601SOL     OW23701   3.989   5.903   1.805
 7601SOL    HW123702   3.946   5.830   1.857
 7601SOL    HW223703   3.919   5.956   1.758
 7602SOL     OW23704   0.353   1.695   0.881
 7602SOL    HW123705   0.397   1.711   0.969
 7602SOL    HW223706   0.355   1.598   0.860
 7603SOL     OW23707   2.202   0.434   5.856
 7603SOL    HW123708   2.187   0.512   5.795
 7603SOL    HW223709   2.242   0.358   5.804
 7604SOL     OW23710   1.017   2.276   4.996
 7604SOL    HW123711   1.035   2.180   4.974
 7604SOL    HW223712   0.937   2.282   5.057
 7605SOL     OW23713   2.843   0.050   6.889
 7605SOL    HW123714   2.913   0.089   6.828
 7605SOL    HW223715   2.874   0.056   6.983
 7606SOL     OW23716   6.340   1.608   3.671
 7606SOL    HW123717   6.367   1.704   3.671
 7606SOL    HW223718   6.246   1.600   3.637
 7607SOL     OW23719   3.000   5.891   5.919
 7607SOL    HW123720   2.958   5.979   5.944
 7607SOL    HW223721   3.074   5.870   5.983
 7608SOL     OW23722   5.909   3.033   6.025
 7608SOL    HW123723   5.936   3.054   5.931
 7608SOL    HW223724   5.826   3.082   6.048
 7609SOL     OW23725   0.389   2.225   4.657
 7609SOL    HW123726   0.345   2.161   4.593
 7609SOL    HW223727   0.471   2.263   4.614
 7610SOL     OW23728   3.465   4.450   5.694
 7610SOL    HW123729   3.385   4.508   5.706
 7610SOL    HW223730   3.546   4.507   5.681
 7611SOL     OW23731   4.601   3.206   1.386
 7611SOL    HW123732   4.611   3.229   1.483
 7611SOL    HW223733   4.635   3.114   1.370
 7612SOL     OW23734   2.919   1.629   2.997
 7612SOL    HW123735   2.928   1.606   3.094
 7612SOL    HW223736   2.852   1.568   2.954
 7613SOL     OW23737   1.060   1.646   2.342
 7613SOL    HW123738   1.134   1.650   2.409
 7613SOL    HW223739   1.078   1.712   2.269
 7614SOL     OW23740   5.105   3.366   0.459
 7614SOL    HW123741   5.170   3.380   0.384
 7614SOL    HW223742   5.081   3.454   0.499
 7615SOL     OW23743   5.252   3.128   4.544
 7615SOL    HW123744   5.246   3.063   4.468
 7615SOL    HW223745   5.348   3.148   4.562
 7616SOL     OW23746   6.549   6.845   3.530
 7616SOL    HW123747   6.469   6.889   3.570
 7616SOL    HW223748   6.605   6.913   3.484
 7617SOL     OW23749   5.091   5.352   3.286
 7617SOL    HW123750   5.088   5.398   3.197
 7617SOL    HW223751   5.108   5.420   3.358
 7618SOL     OW23752   2.806   2.760   0.624
 7618SOL    HW123753   2.790   2.689   0.556
 7618SOL    HW223754   2.902   2.788   0.622
 7619SOL     OW23755   0.567   2.112   4.257
 7619SOL    HW123756   0.628   2.163   4.318
 7619SOL    HW223757   0.472   2.126   4.286
 7620SOL     OW23758   4.085   4.052   1.550
 7620SOL    HW123759   3.987   4.066   1.562
 7620SOL    HW223760   4.134   4.133   1.582
 7621SOL     OW23761   0.558   5.691   0.777
 7621SOL    HW123762   0.502   5.648   0.707
 7621SOL    HW223763   0.650   5.651   0.775
 7622SOL     OW23764   3.729   4.548   0.658
 7622SOL    HW123765   3.779   4.603   0.725
 7622SOL    HW223766   3.641   4.591   0.638
 7623SOL     OW23767   4.856   4.977   1.236
 7623SOL    HW123768   4.901   5.065   1.220
 7623SOL    HW223769   4.842   4.964   1.334
 7624SOL     OW23770   0.505   2.651   2.278
 7624SOL    HW123771   0.528   2.557   2.253
 7624SOL    HW223772   0.576   2.713   2.245
 7625SOL     OW23773   5.212   1.948   0.304
 7625SOL    HW123774   5.265   2.008   0.244
 7625SOL    HW223775   5.268   1.921   0.383
 7626SOL     OW23776   5.417   0.327   5.102
 7626SOL    HW123777   5.387   0.281   5.019
 7626SOL    HW223778   5.473   0.406   5.079
 7627SOL     OW23779   3.311   1.981   0.025
 7627SOL    HW123780   3.216   1.995   7.017
 7627SOL    HW223781   3.371   2.000   6.968
 7628SOL     OW23782   3.473   3.107   0.782
 7628SOL    HW123783   3.428   3.024   0.750
 7628SOL    HW223784   3.471   3.110   0.882
 7629SOL     OW23785   5.956   3.300   4.408
 7629SOL    HW123786   6.035   3.353   4.378
 7629SOL    HW223787   5.873   3.341   4.370
 7630SOL     OW23788   1.645   0.142   5.200
 7630SOL    HW123789   1.618   0.075   5.270
 7630SOL    HW223790   1.646   0.098   5.110
 7631SOL     OW23791   2.102   0.038   5.032
 7631SOL    HW123792   2.120   0.004   5.124
 7631SOL    HW223793   2.074   0.134   5.037
 7632SOL     OW23794   4.783   5.614   1.029
 7632SOL    HW123795   4.846   5.537   1.040
 7632SOL    HW223796   4.826   5.684   0.973
 7633SOL     OW23797   6.117   1.365   1.002
 7633SOL    HW123798   6.025   1.372   1.038
 7633SOL    HW223799   6.130   1.276   0.958
 7634SOL     OW23800   0.995   1.912   0.504
 7634SOL    HW123801   0.978   1.915   0.603
 7634SOL    HW223802   1.023   1.820   0.478
 7635SOL     OW23803   2.678   5.277   6.060
 7635SOL    HW123804   2.709   5.182   6.055
 7635SOL    HW223805   2.736   5.335   6.003
 7636SOL     OW23806   0.718   3.516   4.956
 7636SOL    HW123807   0.795   3.549   4.901
 7636SOL    HW223808   0.728   3.418   4.973
 7637SOL     OW23809   0.466   6.321   4.228
 7637SOL    HW123810   0.534   6.254   4.199
 7637SOL    HW223811   0.504   6.377   4.302
 7638SOL     OW23812   1.017   5.271   1.888
 7638SOL    HW123813   0.930   5.234   1.921
 7638SOL    HW223814   1.080   5.196   1.868
 7639SOL     OW23815   1.258   1.185   0.164
 7639SOL    HW123816   1.188   1.119   0.136
 7639SOL    HW223817   1.329   1.137   0.216
 7640SOL     OW23818   3.332   1.264   6.311
 7640SOL    HW123819   3.273   1.270   6.230
 7640SOL    HW223820   3.276   1.262   6.393
 7641SOL     OW23821   0.099   4.071   2.971
 7641SOL    HW123822   0.124   4.003   2.903
 7641SOL    HW223823   0.007   4.106   2.952
 7642SOL     OW23824   6.206   1.080   3.738
 7642SOL    HW123825   6.144   1.144   3.693
 7642SOL    HW223826   6.206   0.993   3.687
 7643SOL     OW23827   5.259   2.632   3.065
 7643SOL    HW123828   5.185   2.671   3.011
 7643SOL    HW223829   5.230   2.624   3.161
 7644SOL     OW23830   4.901   3.613   1.390
 7644SOL    HW123831   4.818   3.665   1.414
 7644SOL    HW223832   4.967   3.620   1.465
 7645SOL     OW23833   2.889   3.578   6.134
 7645SOL    HW123834   2.884   3.560   6.036
 7645SOL    HW223835   2.925   3.670   6.149
 7646SOL     OW23836   0.647   2.418   3.465
 7646SOL    HW123837   0.704   2.389   3.389
 7646SOL    HW223838   0.557   2.447   3.430
 7647SOL     OW23839   6.839   3.032   5.128
 7647SOL    HW123840   6.751   3.075   5.150
 7647SOL    HW223841   6.911   3.072   5.184
 7648SOL     OW23842   2.218   2.019   2.606
 7648SOL    HW123843   2.252   2.035   2.699
 7648SOL    HW223844   2.143   1.954   2.610
 7649SOL     OW23845   6.062   0.749   5.427
 7649SOL    HW123846   5.971   0.769   5.391
 7649SOL    HW223847   6.059   0.749   5.527
 7650SOL     OW23848   4.013   1.557   1.063
 7650SOL    HW123849   4.106   1.545   1.029
 7650SOL    HW223850   4.014   1.611   1.147
 7651SOL     OW23851   2.429   4.844   5.076
 7651SOL    HW123852   2.383   4.770   5.125
 7651SOL    HW223853   2.368   4.923   5.070
 7652SOL     OW23854   5.749   1.702   4.277
 7652SOL    HW123855   5.773   1.624   4.220
 7652SOL    HW223856   5.711   1.775   4.220
 7653SOL     OW23857   0.445   2.015   6.871
 7653SOL    HW123858   0.516   2.029   6.802
 7653SOL    HW223859   0.405   2.102   6.897
 7654SOL     OW23860   5.773   2.885   5.669
 7654SOL    HW123861   5.867   2.914   5.650
 7654SOL    HW223862   5.750   2.909   5.764
 7655SOL     OW23863   3.219   0.704   3.329
 7655SOL    HW123864   3.250   0.748   3.245
 7655SOL    HW223865   3.295   0.700   3.394
 7656SOL     OW23866   6.493   3.169   6.996
 7656SOL    HW123867   6.511   3.193   0.071
 7656SOL    HW223868   6.413   3.108   6.992
 7657SOL     OW23869   1.552   3.832   4.616
 7657SOL    HW123870   1.512   3.880   4.694
 7657SOL    HW223871   1.538   3.884   4.532
 7658SOL     OW23872   2.786   0.847   0.779
 7658SOL    HW123873   2.749   0.917   0.841
 7658SOL    HW223874   2.715   0.780   0.759
 7659SOL     OW23875   4.355   3.783   5.329
 7659SOL    HW123876   4.431   3.807   5.269
 7659SOL    HW223877   4.387   3.779   5.424
 7660SOL     OW23878   0.062   4.612   4.594
 7660SOL    HW123879   0.041   4.537   4.657
 7660SOL    HW223880   0.161   4.619   4.584
 7661SOL     OW23881   4.702   2.829   5.520
 7661SOL    HW123882   4.701   2.745   5.465
 7661SOL    HW223883   4.633   2.823   5.591
 7662SOL     OW23884   1.007   2.148   2.384
 7662SOL    HW123885   0.977   2.086   2.456
 7662SOL    HW223886   1.014   2.241   2.421
 7663SOL     OW23887   6.333   5.147   5.484
 7663SOL    HW123888   6.236   5.158   5.504
 7663SOL    HW223889   6.385   5.221   5.527
 7664SOL     OW23890   3.496   1.881   2.882
 7664SOL    HW123891   3.441   1.951   2.927
 7664SOL    HW223892   3.485   1.794   2.930
 7665SOL     OW23893   3.983   1.695   4.627
 7665SOL    HW123894   3.922   1.762   4.584
 7665SOL    HW223895   4.003   1.622   4.561
 7666SOL     OW23896   5.877   5.651   3.783
 7666SOL    HW123897   5.793   5.705   3.786
 7666SOL    HW223898   5.955   5.710   3.802
 7667SOL     OW23899   5.404   6.298   2.007
 7667SOL    HW123900   5.341   6.343   2.071
 7667SOL    HW223901   5.496   6.295   2.046
 7668SOL     OW23902   2.049   5.225   1.555
 7668SOL    HW123903   1.959   5.233   1.598
 7668SOL    HW223904   2.097   5.312   1.563
 7669SOL     OW23905   2.717   6.471   5.835
 7669SOL    HW123906   2.672   6.391   5.796
 7669SOL    HW223907   2.648   6.540   5.857
 7670SOL     OW23908   0.346   6.549   0.075
 7670SOL    HW123909   0.417   6.617   0.090
 7670SOL    HW223910   0.339   6.491   0.157
 7671SOL     OW23911   4.743   0.695   1.291
 7671SOL    HW123912   4.677   0.757   1.248
 7671SOL    HW223913   4.763   0.727   1.384
 7672SOL     OW23914   5.437   4.800   2.826
 7672SOL    HW123915   5.476   4.806   2.918
 7672SOL    HW223916   5.337   4.798   2.832
 7673SOL     OW23917   0.737   5.384   4.074
 7673SOL    HW123918   0.676   5.462   4.067
 7673SOL    HW223919   0.758   5.348   3.983
 7674SOL     OW23920   4.345   6.716   4.330
 7674SOL    HW123921   4.263   6.756   4.370
 7674SOL    HW223922   4.372   6.634   4.382
 7675SOL     OW23923   3.425   0.026   2.536
 7675SOL    HW123924   3.505   0.081   2.510
 7675SOL    HW223925   3.420   0.019   2.635
 7676SOL     OW23926   2.973   2.694   5.532
 7676SOL    HW123927   2.940   2.664   5.443
 7676SOL    HW223928   2.898   2.739   5.582
 7677SOL     OW23929   5.824   4.644   1.766
 7677SOL    HW123930   5.805   4.546   1.761
 7677SOL    HW223931   5.749   4.689   1.814
 7678SOL     OW23932   1.292   1.301   5.587
 7678SOL    HW123933   1.322   1.345   5.502
 7678SOL    HW223934   1.301   1.202   5.578
 7679SOL     OW23935   1.533   5.331   5.388
 7679SOL    HW123936   1.519   5.378   5.301
 7679SOL    HW223937   1.609   5.373   5.437
 7680SOL     OW23938   1.693   0.743   5.320
 7680SOL    HW123939   1.777   0.693   5.301
 7680SOL    HW223940   1.625   0.721   5.250
 7681SOL     OW23941   2.739   3.191   6.166
 7681SOL    HW123942   2.784   3.154   6.084
 7681SOL    HW223943   2.747   3.291   6.166
 7682SOL     OW23944   3.286   1.608   2.695
 7682SOL    HW123945   3.219   1.681   2.710
 7682SOL    HW223946   3.238   1.521   2.684
 7683SOL     OW23947   0.793   1.207   4.610
 7683SOL    HW123948   0.872   1.178   4.556
 7683SOL    HW223949   0.809   1.186   4.707
 7684SOL     OW23950   3.839   1.964   1.366
 7684SOL    HW123951   3.762   2.011   1.410
 7684SOL    HW223952   3.919   1.967   1.426
 7685SOL     OW23953   2.999   0.988   0.217
 7685SOL    HW123954   2.912   1.021   0.180
 7685SOL    HW223955   2.985   0.955   0.311
 7686SOL     OW23956   5.583   0.718   4.234
 7686SOL    HW123957   5.562   0.745   4.329
 7686SOL    HW223958   5.682   0.716   4.221
 7687SOL     OW23959   5.527   5.239   4.867
 7687SOL    HW123960   5.557   5.264   4.959
 7687SOL    HW223961   5.594   5.177   4.826
 7688SOL     OW23962   0.966   4.964   6.682
 7688SOL    HW123963   0.961   5.038   6.614
 7688SOL    HW223964   0.944   4.877   6.639
 7689SOL     OW23965   4.908   0.184   1.668
 7689SOL    HW123966   4.907   0.181   1.768
 7689SOL    HW223967   4.825   0.142   1.633
 7690SOL     OW23968   6.540   5.411   0.855
 7690SOL    HW123969   6.521   5.509   0.846
 7690SOL    HW223970   6.495   5.375   0.936
 7691SOL     OW23971   4.391   4.833   3.183
 7691SOL    HW123972   4.326   4.790   3.245
 7691SOL    HW223973   4.342   4.891   3.118
 7692SOL     OW23974   1.694   6.565   2.236
 7692SOL    HW123975   1.727   6.564   2.142
 7692SOL    HW223976   1.622   6.634   2.246
 7693SOL     OW23977   2.727   1.730   1.328
 7693SOL    HW123978   2.772   1.644   1.354
 7693SOL    HW223979   2.629   1.712   1.314
 7694SOL     OW23980   6.006   2.194   4.637
 7694SOL    HW123981   6.003   2.127   4.711
 7694SOL    HW223982   5.988   2.286   4.673
 7695SOL     OW23983   6.079   0.674   2.504
 7695SOL    HW123984   6.002   0.715   2.456
 7695SOL    HW223985   6.079   0.704   2.599
 7696SOL     OW23986   0.250   2.894   6.578
 7696SOL    HW123987   0.172   2.933   6.626
 7696SOL    HW223988   0.330   2.892   6.640
 7697SOL     OW23989   4.090   0.203   2.784
 7697SOL    HW123990   4.182   0.201   2.824
 7697SOL    HW223991   4.059   0.110   2.768
 7698SOL     OW23992   6.275   1.780   6.757
 7698SOL    HW123993   6.321   1.697   6.723
 7698SOL    HW223994   6.191   1.753   6.806
 7699SOL     OW23995   3.447   5.219   5.556
 7699SOL    HW123996   3.479   5.170   5.636
 7699SOL    HW223997   3.371   5.279   5.582
 7700SOL     OW23998   5.101   5.073   2.433
 7700SOL    HW123999   5.156   4.991   2.418
 7700SOL    HW224000   5.050   5.063   2.518
 7701SOL     OW24001   0.133   2.516   6.038
 7701SOL    HW124002   0.157   2.487   6.131
 7701SOL    HW224003   0.097   2.609   6.041
 7702SOL     OW24004   4.859   7.015   4.742
 7702SOL    HW124005   4.900   6.925   4.755
 7702SOL    HW224006   4.903   0.040   4.664
 7703SOL     OW24007   6.587   6.407   4.582
 7703SOL    HW124008   6.564   6.492   4.629
 7703SOL    HW224009   6.535   6.402   4.496
 7704SOL     OW24010   6.500   1.309   4.350
 7704SOL    HW124011   6.473   1.301   4.254
 7704SOL    HW224012   6.418   1.313   4.407
 7705SOL     OW24013   2.223   5.384   0.408
 7705SOL    HW124014   2.182   5.406   0.496
 7705SOL    HW224015   2.210   5.287   0.389
 7706SOL     OW24016   3.514   3.252   2.352
 7706SOL    HW124017   3.498   3.341   2.308
 7706SOL    HW224018   3.503   3.179   2.285
 7707SOL     OW24019   6.627   5.758   6.873
 7707SOL    HW124020   6.717   5.716   6.860
 7707SOL    HW224021   6.586   5.722   6.956
 7708SOL     OW24022   2.200   6.683   4.706
 7708SOL    HW124023   2.143   6.627   4.766
 7708SOL    HW224024   2.216   6.772   4.748
 7709SOL     OW24025   0.416   4.777   1.401
 7709SOL    HW124026   0.504   4.814   1.431
 7709SOL    HW224027   0.408   4.681   1.431
 7710SOL     OW24028   1.292   3.818   0.893
 7710SOL    HW124029   1.338   3.747   0.946
 7710SOL    HW224030   1.355   3.853   0.824
 7711SOL     OW24031   6.961   5.108   5.268
 7711SOL    HW124032   6.970   5.011   5.245
 7711SOL    HW224033   6.924   5.117   5.361
 7712SOL     OW24034   6.553   4.637   5.907
 7712SOL    HW124035   6.505   4.644   5.820
 7712SOL    HW224036   6.487   4.650   5.982
 7713SOL     OW24037   2.009   4.913   0.393
 7713SOL    HW124038   2.006   4.863   0.306
 7713SOL    HW224039   1.931   4.975   0.398
 7714SOL     OW24040   6.679   0.528   4.542
 7714SOL    HW124041   6.735   0.606   4.513
 7714SOL    HW224042   6.736   0.446   4.542
 7715SOL     OW24043   2.431   2.693   5.867
 7715SOL    HW124044   2.383   2.635   5.933
 7715SOL    HW224045   2.427   2.788   5.897
 7716SOL     OW24046   1.071   5.526   5.596
 7716SOL    HW124047   1.075   5.619   5.559
 7716SOL    HW224048   1.162   5.485   5.592
 7717SOL     OW24049   1.724   1.747   0.096
 7717SOL    HW124050   1.689   1.787   0.181
 7717SOL    HW224051   1.657   1.761   0.023
 7718SOL     OW24052   1.273   4.330   2.564
 7718SOL    HW124053   1.193   4.365   2.612
 7718SOL    HW224054   1.339   4.403   2.550
 7719SOL     OW24055   1.470   3.862   5.080
 7719SOL    HW124056   1.398   3.931   5.085
 7719SOL    HW224057   1.457   3.807   4.997
 7720SOL     OW24058   5.882   1.604   6.809
 7720SOL    HW124059   5.914   1.576   6.718
 7720SOL    HW224060   5.930   1.688   6.836
 7721SOL     OW24061   0.538   0.835   2.564
 7721SOL    HW124062   0.503   0.870   2.477
 7721SOL    HW224063   0.498   0.888   2.640
 7722SOL     OW24064   2.193   5.879   3.650
 7722SOL    HW124065   2.171   5.874   3.552
 7722SOL    HW224066   2.144   5.806   3.698
 7723SOL     OW24067   4.950   4.151   0.529
 7723SOL    HW124068   4.897   4.179   0.608
 7723SOL    HW224069   5.028   4.096   0.558
 7724SOL     OW24070   2.192   4.161   1.910
 7724SOL    HW124071   2.230   4.151   2.002
 7724SOL    HW224072   2.249   4.225   1.857
 7725SOL     OW24073   5.411   3.150   3.542
 7725SOL    HW124074   5.320   3.162   3.502
 7725SOL    HW224075   5.444   3.238   3.577
 7726SOL     OW24076   7.012   2.909   6.298
 7726SOL    HW124077   0.079   2.883   6.257
 7726SOL    HW224078   7.016   2.894   6.397
 7727SOL     OW24079   5.374   2.472   2.599
 7727SOL    HW124080   5.415   2.385   2.627
 7727SOL    HW224081   5.403   2.494   2.506
 7728SOL     OW24082   2.132   3.308   4.932
 7728SOL    HW124083   2.139   3.230   4.994
 7728SOL    HW224084   2.143   3.393   4.984
 7729SOL     OW24085   6.165   2.026   3.748
 7729SOL    HW124086   6.153   1.961   3.823
 7729SOL    HW224087   6.105   2.104   3.761
 7730SOL     OW24088   6.351   3.869   5.155
 7730SOL    HW124089   6.269   3.812   5.146
 7730SOL    HW224090   6.335   3.939   5.225
 7731SOL     OW24091   5.997   6.937   0.222
 7731SOL    HW124092   5.986   6.975   0.129
 7731SOL    HW224093   6.052   6.854   0.218
 7732SOL     OW24094   4.511   0.306   6.404
 7732SOL    HW124095   4.492   0.345   6.313
 7732SOL    HW224096   4.493   0.208   6.402
 7733SOL     OW24097   6.531   6.109   2.415
 7733SOL    HW124098   6.582   6.024   2.433
 7733SOL    HW224099   6.550   6.175   2.487
 7734SOL     OW24100   3.136   3.874   5.252
 7734SOL    HW124101   3.189   3.850   5.333
 7734SOL    HW224102   3.116   3.972   5.253
 7735SOL     OW24103   6.876   6.135   0.755
 7735SOL    HW124104   6.965   6.136   0.801
 7735SOL    HW224105   6.876   6.202   0.681
 7736SOL     OW24106   3.151   3.225   0.557
 7736SOL    HW124107   3.076   3.277   0.597
 7736SOL    HW224108   3.121   3.180   0.473
 7737SOL     OW24109   4.083   4.627   1.745
 7737SOL    HW124110   4.002   4.681   1.767
 7737SOL    HW224111   4.061   4.560   1.674
 7738SOL     OW24112   2.674   6.735   6.872
 7738SOL    HW124113   2.724   6.779   6.797
 7738SOL    HW224114   2.683   6.636   6.864
 7739SOL     OW24115   1.296   2.204   0.848
 7739SOL    HW124116   1.221   2.248   0.798
 7739SOL    HW224117   1.277   2.106   0.857
 7740SOL     OW24118   1.566   0.930   4.338
 7740SOL    HW124119   1.575   0.864   4.264
 7740SOL    HW224120   1.488   0.906   4.396
 7741SOL     OW24121   1.650   4.024   6.210
 7741SOL    HW124122   1.561   4.045   6.172
 7741SOL    HW224123   1.703   3.970   6.144
 7742SOL     OW24124   3.943   1.593   4.179
 7742SOL    HW124125   3.861   1.554   4.138
 7742SOL    HW224126   3.931   1.691   4.192
 7743SOL     OW24127   4.917   1.415   5.914
 7743SOL    HW124128   4.982   1.471   5.863
 7743SOL    HW224129   4.828   1.417   5.868
 7744SOL     OW24130   0.219   6.454   4.158
 7744SOL    HW124131   0.200   6.518   4.083
 7744SOL    HW224132   0.306   6.409   4.141
 7745SOL     OW24133   1.740   6.658   0.375
 7745SOL    HW124134   1.678   6.733   0.399
 7745SOL    HW224135   1.788   6.680   0.290
 7746SOL     OW24136   1.252   6.215   0.974
 7746SOL    HW124137   1.211   6.253   0.891
 7746SOL    HW224138   1.330   6.271   1.002
 7747SOL     OW24139   1.055   6.355   0.749
 7747SOL    HW124140   0.989   6.286   0.719
 7747SOL    HW224141   1.148   6.321   0.735
 7748SOL     OW24142   4.169   2.977   5.493
 7748SOL    HW124143   4.144   3.073   5.501
 7748SOL    HW224144   4.121   2.936   5.415
 7749SOL     OW24145   3.533   3.512   4.095
 7749SOL    HW124146   3.598   3.584   4.119
 7749SOL    HW224147   3.575   3.423   4.110
 7750SOL     OW24148   5.621   4.843   5.418
 7750SOL    HW124149   5.619   4.743   5.420
 7750SOL    HW224150   5.538   4.879   5.460
 7751SOL     OW24151   6.791   0.987   5.103
 7751SOL    HW124152   6.713   1.046   5.084
 7751SOL    HW224153   6.846   0.978   5.020
 7752SOL     OW24154   5.933   5.576   5.419
 7752SOL    HW124155   5.900   5.586   5.326
 7752SOL    HW224156   5.985   5.658   5.445
 7753SOL     OW24157   1.845   0.543   4.443
 7753SOL    HW124158   1.866   0.632   4.481
 7753SOL    HW224159   1.841   0.549   4.343
 7754SOL     OW24160   5.928   0.403   0.732
 7754SOL    HW124161   5.894   0.325   0.784
 7754SOL    HW224162   5.992   0.372   0.662
 7755SOL     OW24163   0.330   5.980   5.422
 7755SOL    HW124164   0.289   5.921   5.352
 7755SOL    HW224165   0.259   6.036   5.464
 7756SOL     OW24166   3.261   4.990   2.258
 7756SOL    HW124167   3.332   5.052   2.224
 7756SOL    HW224168   3.218   4.942   2.181
 7757SOL     OW24169   4.300   6.510   5.570
 7757SOL    HW124170   4.391   6.487   5.606
 7757SOL    HW224171   4.247   6.427   5.558
 7758SOL     OW24172   2.332   2.145   6.164
 7758SOL    HW124173   2.348   2.088   6.083
 7758SOL    HW224174   2.235   2.144   6.187
 7759SOL     OW24175   2.081   0.575   4.157
 7759SOL    HW124176   1.984   0.558   4.136
 7759SOL    HW224177   2.103   0.535   4.246
 7760SOL     OW24178   5.198   2.933   2.218
 7760SOL    HW124179   5.164   2.927   2.124
 7760SOL    HW224180   5.223   3.027   2.239
 7761SOL     OW24181   3.120   0.071   6.743
 7761SOL    HW124182   3.105   0.170   6.736
 7761SOL    HW224183   3.147   0.035   6.654
 7762SOL     OW24184   4.055   1.866   0.397
 7762SOL    HW124185   4.115   1.810   0.454
 7762SOL    HW224186   4.081   1.962   0.405
 7763SOL     OW24187   1.972   2.109   0.721
 7763SOL    HW124188   1.940   2.171   0.792
 7763SOL    HW224189   1.951   2.147   0.631
 7764SOL     OW24190   3.718   2.967   2.153
 7764SOL    HW124191   3.778   3.046   2.139
 7764SOL    HW224192   3.697   2.959   2.250
 7765SOL     OW24193   6.610   2.770   2.892
 7765SOL    HW124194   6.705   2.755   2.919
 7765SOL    HW224195   6.552   2.774   2.973
 7766SOL     OW24196   6.042   1.816   6.888
 7766SOL    HW124197   6.089   1.849   6.969
 7766SOL    HW224198   5.989   1.890   6.847
 7767SOL     OW24199   4.317   6.020   4.068
 7767SOL    HW124200   4.407   6.040   4.107
 7767SOL    HW224201   4.273   6.105   4.038
 7768SOL     OW24202   3.921   4.961   2.336
 7768SOL    HW124203   3.825   4.940   2.316
 7768SOL    HW224204   3.925   5.035   2.404
 7769SOL     OW24205   5.399   2.476   0.750
 7769SOL    HW124206   5.302   2.491   0.764
 7769SOL    HW224207   5.431   2.405   0.813
 7770SOL     OW24208   3.068   5.000   1.656
 7770SOL    HW124209   3.055   4.914   1.707
 7770SOL    HW224210   3.137   4.987   1.586
 7771SOL     OW24211   2.827   2.227   5.834
 7771SOL    HW124212   2.818   2.325   5.856
 7771SOL    HW224213   2.895   2.216   5.762
 7772SOL     OW24214   4.685   0.536   3.931
 7772SOL    HW124215   4.657   0.577   4.018
 7772SOL    HW224216   4.659   0.439   3.929
 7773SOL     OW24217   4.467   3.697   5.582
 7773SOL    HW124218   4.531   3.730   5.651
 7773SOL    HW224219   4.376   3.687   5.622
 7774SOL     OW24220   5.223   1.799   5.878
 7774SOL    HW124221   5.269   1.812   5.790
 7774SOL    HW224222   5.274   1.847   5.950
 7775SOL     OW24223   3.300   6.893   2.044
 7775SOL    HW124224   3.378   6.852   1.998
 7775SOL    HW224225   3.314   6.889   2.143
 7776SOL     OW24226   3.542   3.517   6.204
 7776SOL    HW124227   3.509   3.452   6.273
 7776SOL    HW224228   3.468   3.537   6.139
 7777SOL     OW24229   2.618   0.968   6.990
 7777SOL    HW124230   2.629   0.972   6.891
 7777SOL    HW224231   2.683   0.903   0.008
 7778SOL     OW24232   5.631   0.243   6.769
 7778SOL    HW124233   5.615   0.335   6.805
 7778SOL    HW224234   5.721   0.211   6.800
 7779SOL     OW24235   3.668   2.588   0.427
 7779SOL    HW124236   3.604   2.664   0.416
 7779SOL    HW224237   3.618   2.502   0.432
 7780SOL     OW24238   1.623   6.129   4.542
 7780SOL    HW124239   1.536   6.136   4.590
 7780SOL    HW224240   1.633   6.207   4.479
 7781SOL     OW24241   1.457   3.702   5.306
 7781SOL    HW124242   1.431   3.778   5.365
 7781SOL    HW224243   1.468   3.736   5.212
 7782SOL     OW24244   2.520   4.267   6.393
 7782SOL    HW124245   2.570   4.345   6.354
 7782SOL    HW224246   2.583   4.211   6.447
 7783SOL     OW24247   2.421   6.181   6.918
 7783SOL    HW124248   2.500   6.132   6.955
 7783SOL    HW224249   2.433   6.193   6.819
 7784SOL     OW24250   0.831   2.996   6.809
 7784SOL    HW124251   0.731   2.994   6.799
 7784SOL    HW224252   0.858   2.927   6.876
 7785SOL     OW24253   2.435   6.487   4.274
 7785SOL    HW124254   2.504   6.498   4.345
 7785SOL    HW224255   2.353   6.540   4.298
 7786SOL     OW24256   3.158   4.737   5.234
 7786SOL    HW124257   3.213   4.787   5.167
 7786SOL    HW224258   3.141   4.645   5.200
 7787SOL     OW24259   2.219   2.895   4.879
 7787SOL    HW124260   2.261   2.805   4.880
 7787SOL    HW224261   2.275   2.959   4.932
 7788SOL     OW24262   0.884   1.552   1.715
 7788SOL    HW124263   0.926   1.533   1.804
 7788SOL    HW224264   0.952   1.544   1.643
 7789SOL     OW24265   2.984   0.741   1.043
 7789SOL    HW124266   3.005   0.839   1.038
 7789SOL    HW224267   2.889   0.729   1.071
 7790SOL     OW24268   5.953   3.332   3.014
 7790SOL    HW124269   6.053   3.338   3.002
 7790SOL    HW224270   5.911   3.309   2.926
 7791SOL     OW24271   2.545   4.852   4.413
 7791SOL    HW124272   2.619   4.788   4.394
 7791SOL    HW224273   2.481   4.810   4.479
 7792SOL     OW24274   2.656   5.924   6.241
 7792SOL    HW124275   2.568   5.903   6.283
 7792SOL    HW224276   2.725   5.858   6.273
 7793SOL     OW24277   1.021   1.064   5.918
 7793SOL    HW124278   1.076   1.062   6.002
 7793SOL    HW224279   1.006   1.159   5.891
 7794SOL     OW24280   5.437   5.478   4.425
 7794SOL    HW124281   5.369   5.501   4.356
 7794SOL    HW224282   5.400   5.408   4.486
 7795SOL     OW24283   2.243   3.906   5.975
 7795SOL    HW124284   2.237   3.980   5.908
 7795SOL    HW224285   2.316   3.843   5.948
 7796SOL     OW24286   3.620   4.175   3.396
 7796SOL    HW124287   3.521   4.185   3.401
 7796SOL    HW224288   3.662   4.218   3.476
 7797SOL     OW24289   0.128   6.447   3.077
 7797SOL    HW124290   0.173   6.526   3.118
 7797SOL    HW224291   0.037   6.436   3.117
 7798SOL     OW24292   3.294   5.589   0.530
 7798SOL    HW124293   3.273   5.615   0.624
 7798SOL    HW224294   3.392   5.600   0.514
 7799SOL     OW24295   0.141   5.470   0.955
 7799SOL    HW124296   0.042   5.463   0.973
 7799SOL    HW224297   0.178   5.379   0.936
 7800SOL     OW24298   0.282   4.964   1.629
 7800SOL    HW124299   0.323   4.888   1.578
 7800SOL    HW224300   0.347   4.998   1.697
 7801SOL     OW24301   2.239   1.624   0.087
 7801SOL    HW124302   2.160   1.641   0.145
 7801SOL    HW224303   2.279   1.711   0.059
 7802SOL     OW24304   5.347   2.352   1.724
 7802SOL    HW124305   5.249   2.370   1.719
 7802SOL    HW224306   5.395   2.434   1.756
 7803SOL     OW24307   3.984   3.921   6.136
 7803SOL    HW124308   3.896   3.963   6.156
 7803SOL    HW224309   4.026   3.967   6.057
 7804SOL     OW24310   5.162   1.843   5.164
 7804SOL    HW124311   5.254   1.839   5.126
 7804SOL    HW224312   5.111   1.762   5.136
 7805SOL     OW24313   5.481   2.535   1.857
 7805SOL    HW124314   5.534   2.490   1.929
 7805SOL    HW224315   5.449   2.624   1.890
 7806SOL     OW24316   5.492   2.858   6.132
 7806SOL    HW124317   5.582   2.837   6.170
 7806SOL    HW224318   5.428   2.785   6.158
 7807SOL     OW24319   6.788   3.890   6.378
 7807SOL    HW124320   6.785   3.790   6.371
 7807SOL    HW224321   6.786   3.930   6.286
 7808SOL     OW24322   0.561   1.034   4.554
 7808SOL    HW124323   0.628   1.100   4.588
 7808SOL    HW224324   0.595   0.991   4.470
 7809SOL     OW24325   2.248   5.423   4.798
 7809SOL    HW124326   2.160   5.413   4.751
 7809SOL    HW224327   2.307   5.346   4.773
 7810SOL     OW24328   2.855   0.688   5.247
 7810SOL    HW124329   2.895   0.779   5.244
 7810SOL    HW224330   2.757   0.693   5.227
 7811SOL     OW24331   5.342   4.465   3.134
 7811SOL    HW124332   5.243   4.451   3.124
 7811SOL    HW224333   5.361   4.517   3.217
 7812SOL     OW24334   2.300   1.521   4.329
 7812SOL    HW124335   2.294   1.594   4.397
 7812SOL    HW224336   2.211   1.508   4.286
 7813SOL     OW24337   6.034   2.612   6.821
 7813SOL    HW124338   6.043   2.572   6.730
 7813SOL    HW224339   5.939   2.608   6.850
 7814SOL     OW24340   6.734   2.968   3.558
 7814SOL    HW124341   6.760   2.973   3.655
 7814SOL    HW224342   6.755   2.878   3.522
 7815SOL     OW24343   6.531   1.440   6.129
 7815SOL    HW124344   6.475   1.438   6.212
 7815SOL    HW224345   6.546   1.535   6.101
 7816SOL     OW24346   0.242   3.370   5.765
 7816SOL    HW124347   0.298   3.417   5.697
 7816SOL    HW224348   0.263   3.404   5.856
 7817SOL     OW24349   5.498   4.177   4.562
 7817SOL    HW124350   5.495   4.091   4.611
 7817SOL    HW224351   5.505   4.253   4.627
 7818SOL     OW24352   6.211   6.608   1.855
 7818SOL    HW124353   6.237   6.512   1.843
 7818SOL    HW224354   6.238   6.639   1.946
 7819SOL     OW24355   6.574   2.456   1.073
 7819SOL    HW124356   6.481   2.484   1.047
 7819SOL    HW224357   6.570   2.402   1.157
 7820SOL     OW24358   1.542   1.939   6.561
 7820SOL    HW124359   1.474   1.917   6.491
 7820SOL    HW224360   1.496   1.948   6.650
 7821SOL     OW24361   3.548   5.461   1.302
 7821SOL    HW124362   3.467   5.424   1.346
 7821SOL    HW224363   3.528   5.485   1.207
 7822SOL     OW24364   1.032   5.766   5.232
 7822SOL    HW124365   0.985   5.825   5.167
 7822SOL    HW224366   1.013   5.670   5.211
 7823SOL     OW24367   2.094   4.080   5.179
 7823SOL    HW124368   2.113   4.114   5.086
 7823SOL    HW224369   2.180   4.069   5.228
 7824SOL     OW24370   0.502   2.496   5.633
 7824SOL    HW124371   0.537   2.421   5.689
 7824SOL    HW224372   0.576   2.557   5.607
 7825SOL     OW24373   2.563   1.671   6.725
 7825SOL    HW124374   2.542   1.767   6.740
 7825SOL    HW224375   2.497   1.614   6.775
 7826SOL     OW24376   6.648   2.564   6.780
 7826SOL    HW124377   6.729   2.576   6.837
 7826SOL    HW224378   6.609   2.473   6.795
 7827SOL     OW24379   0.024   6.118   3.221
 7827SOL    HW124380   0.019   6.152   3.128
 7827SOL    HW224381   0.071   6.030   3.223
 7828SOL     OW24382   0.012   3.829   6.489
 7828SOL    HW124383   0.032   3.733   6.471
 7828SOL    HW224384   6.940   3.850   6.456
 7829SOL     OW24385   3.262   2.781   1.512
 7829SOL    HW124386   3.320   2.833   1.574
 7829SOL    HW224387   3.294   2.686   1.508
 7830SOL     OW24388   2.812   4.789   4.108
 7830SOL    HW124389   2.888   4.782   4.173
 7830SOL    HW224390   2.849   4.797   4.015
 7831SOL     OW24391   2.068   2.258   1.018
 7831SOL    HW124392   1.989   2.318   1.036
 7831SOL    HW224393   2.037   2.163   1.012
 7832SOL     OW24394   5.492   0.628   4.964
 7832SOL    HW124395   5.394   0.638   4.947
 7832SOL    HW224396   5.530   0.560   4.902
 7833SOL     OW24397   2.149   0.723   3.950
 7833SOL    HW124398   2.165   0.646   3.889
 7833SOL    HW224399   2.119   0.688   4.040
 7834SOL     OW24400   6.359   2.855   4.648
 7834SOL    HW124401   6.354   2.943   4.601
 7834SOL    HW224402   6.377   2.870   4.745
 7835SOL     OW24403   4.401   1.865   5.111
 7835SOL    HW124404   4.363   1.931   5.046
 7835SOL    HW224405   4.359   1.776   5.097
 7836SOL     OW24406   3.849   4.360   5.260
 7836SOL    HW124407   3.844   4.325   5.166
 7836SOL    HW224408   3.771   4.421   5.276
 7837SOL     OW24409   6.075   6.428   6.557
 7837SOL    HW124410   6.061   6.522   6.529
 7837SOL    HW224411   6.158   6.421   6.613
 7838SOL     OW24412   5.230   5.413   0.950
 7838SOL    HW124413   5.270   5.407   1.042
 7838SOL    HW224414   5.278   5.482   0.897
 7839SOL     OW24415   6.021   4.218   4.666
 7839SOL    HW124416   5.984   4.307   4.693
 7839SOL    HW224417   5.948   4.149   4.671
 7840SOL     OW24418   2.088   3.581   3.294
 7840SOL    HW124419   2.131   3.503   3.337
 7840SOL    HW224420   2.077   3.563   3.196
 7841SOL     OW24421   5.423   2.453   5.564
 7841SOL    HW124422   5.506   2.499   5.534
 7841SOL    HW224423   5.374   2.417   5.485
 7842SOL     OW24424   1.886   1.469   2.388
 7842SOL    HW124425   1.828   1.395   2.355
 7842SOL    HW224426   1.830   1.537   2.435
 7843SOL     OW24427   0.392   6.763   3.183
 7843SOL    HW124428   0.484   6.802   3.188
 7843SOL    HW224429   0.392   6.671   3.220
 7844SOL     OW24430   3.755   0.916   2.447
 7844SOL    HW124431   3.718   0.866   2.526
 7844SOL    HW224432   3.803   0.997   2.479
 7845SOL     OW24433   6.021   1.791   1.496
 7845SOL    HW124434   6.000   1.843   1.579
 7845SOL    HW224435   6.080   1.847   1.436
 7846SOL     OW24436   0.712   2.524   0.139
 7846SOL    HW124437   0.646   2.587   0.182
 7846SOL    HW224438   0.785   2.503   0.204
 7847SOL     OW24439   5.522   2.541   4.249
 7847SOL    HW124440   5.556   2.499   4.165
 7847SOL    HW224441   5.426   2.515   4.262
 7848SOL     OW24442   2.681   4.936   0.802
 7848SOL    HW124443   2.705   4.953   0.897
 7848SOL    HW224444   2.583   4.947   0.789
 7849SOL     OW24445   4.732   3.973   6.093
 7849SOL    HW124446   4.729   4.073   6.096
 7849SOL    HW224447   4.720   3.936   6.185
 7850SOL     OW24448   6.589   1.549   3.262
 7850SOL    HW124449   6.577   1.525   3.166
 7850SOL    HW224450   6.527   1.494   3.318
 7851SOL     OW24451   1.023   4.425   1.941
 7851SOL    HW124452   1.101   4.432   2.002
 7851SOL    HW224453   1.043   4.470   1.855
 7852SOL     OW24454   1.898   2.198   0.468
 7852SOL    HW124455   1.805   2.203   0.432
 7852SOL    HW224456   1.945   2.119   0.427
 7853SOL     OW24457   4.104   2.854   1.532
 7853SOL    HW124458   4.023   2.831   1.586
 7853SOL    HW224459   4.186   2.826   1.581
 7854SOL     OW24460   4.962   1.830   5.575
 7854SOL    HW124461   4.965   1.862   5.480
 7854SOL    HW224462   4.870   1.797   5.596
 7855SOL     OW24463   5.315   0.018   4.477
 7855SOL    HW124464   5.330   6.948   4.437
 7855SOL    HW224465   5.380   0.083   4.437
 7856SOL     OW24466   1.960   5.400   4.922
 7856SOL    HW124467   2.014   5.484   4.921
 7856SOL    HW224468   1.864   5.423   4.905
 7857SOL     OW24469   5.193   3.912   0.114
 7857SOL    HW124470   5.186   4.011   0.102
 7857SOL    HW224471   5.103   3.874   0.136
 7858SOL     OW24472   0.650   5.221   5.935
 7858SOL    HW124473   0.553   5.219   5.910
 7858SOL    HW224474   0.705   5.186   5.859
 7859SOL     OW24475   4.981   2.500   6.784
 7859SOL    HW124476   4.938   2.416   6.752
 7859SOL    HW224477   4.969   2.572   6.716
 7860SOL     OW24478   2.781   0.824   4.392
 7860SOL    HW124479   2.829   0.756   4.448
 7860SOL    HW224480   2.846   0.888   4.353
 7861SOL     OW24481   2.539   6.519   0.880
 7861SOL    HW124482   2.556   6.612   0.847
 7861SOL    HW224483   2.626   6.476   0.904
 7862SOL     OW24484   2.710   6.742   0.783
 7862SOL    HW124485   2.810   6.733   0.785
 7862SOL    HW224486   2.684   6.830   0.822
 7863SOL     OW24487   6.822   3.949   3.774
 7863SOL    HW124488   6.852   3.854   3.785
 7863SOL    HW224489   6.903   4.009   3.772
 7864SOL     OW24490   2.488   6.420   5.396
 7864SOL    HW124491   2.569   6.474   5.420
 7864SOL    HW224492   2.517   6.336   5.350
 7865SOL     OW24493   6.333   6.131   4.068
 7865SOL    HW124494   6.392   6.096   3.995
 7865SOL    HW224495   6.349   6.229   4.079
 7866SOL     OW24496   1.170   0.479   6.207
 7866SOL    HW124497   1.246   0.515   6.152
 7866SOL    HW224498   1.101   0.442   6.146
 7867SOL     OW24499   5.575   0.085   3.718
 7867SOL    HW124500   5.593   0.150   3.793
 7867SOL    HW224501   5.492   0.034   3.738
 7868SOL     OW24502   3.588   6.443   1.023
 7868SOL    HW124503   3.514   6.381   1.050
 7868SOL    HW224504   3.589   6.522   1.083
 7869SOL     OW24505   5.048   3.983   5.989
 7869SOL    HW124506   5.010   3.894   5.962
 7869SOL    HW224507   5.117   4.011   5.923
 7870SOL     OW24508   4.775   5.960   5.216
 7870SOL    HW124509   4.871   5.937   5.227
 7870SOL    HW224510   4.741   6.004   5.299
 7871SOL     OW24511   5.293   1.598   1.885
 7871SOL    HW124512   5.248   1.509   1.877
 7871SOL    HW224513   5.226   1.668   1.909
 7872SOL     OW24514   1.984   6.008   2.840
 7872SOL    HW124515   1.958   5.945   2.767
 7872SOL    HW224516   1.917   6.082   2.846
 7873SOL     OW24517   6.759   1.268   0.357
 7873SOL    HW124518   6.670   1.285   0.315
 7873SOL    HW224519   6.751   1.275   0.456
 7874SOL     OW24520   5.790   2.502   1.146
 7874SOL    HW124521   5.706   2.452   1.123
 7874SOL    HW224522   5.858   2.439   1.181
 7875SOL     OW24523   4.385   4.240   6.500
 7875SOL    HW124524   4.447   4.171   6.536
 7875SOL    HW224525   4.299   4.197   6.473
 7876SOL     OW24526   0.343   0.392   2.599
 7876SOL    HW124527   0.442   0.400   2.608
 7876SOL    HW224528   0.312   0.306   2.639
 7877SOL     OW24529   6.531   1.390   3.027
 7877SOL    HW124530   6.580   1.303   3.036
 7877SOL    HW224531   6.453   1.378   2.966
 7878SOL     OW24532   4.690   4.724   3.485
 7878SOL    HW124533   4.725   4.777   3.562
 7878SOL    HW224534   4.660   4.787   3.413
 7879SOL     OW24535   2.550   4.501   3.346
 7879SOL    HW124536   2.469   4.529   3.398
 7879SOL    HW224537   2.534   4.411   3.307
 7880SOL     OW24538   1.482   4.039   1.716
 7880SOL    HW124539   1.443   4.112   1.659
 7880SOL    HW224540   1.482   3.953   1.664
 7881SOL     OW24541   5.006   4.061   3.925
 7881SOL    HW124542   5.000   4.153   3.964
 7881SOL    HW224543   5.001   3.993   3.999
 7882SOL     OW24544   2.148   3.289   1.618
 7882SOL    HW124545   2.058   3.249   1.598
 7882SOL    HW224546   2.154   3.380   1.577
 7883SOL     OW24547   0.994   1.255   5.052
 7883SOL    HW124548   0.937   1.186   5.009
 7883SOL    HW224549   1.018   1.325   4.984
 7884SOL     OW24550   0.295   3.130   4.806
 7884SOL    HW124551   0.244   3.191   4.866
 7884SOL    HW224552   0.233   3.060   4.769
 7885SOL     OW24553   5.965   5.849   0.105
 7885SOL    HW124554   5.877   5.809   0.081
 7885SOL    HW224555   6.028   5.776   0.132
 7886SOL     OW24556   4.636   5.500   0.164
 7886SOL    HW124557   4.568   5.549   0.110
 7886SOL    HW224558   4.702   5.458   0.102
 7887SOL     OW24559   4.483   1.970   0.441
 7887SOL    HW124560   4.384   1.988   0.447
 7887SOL    HW224561   4.533   2.053   0.466
 7888SOL     OW24562   4.559   0.788   4.054
 7888SOL    HW124563   4.469   0.830   4.039
 7888SOL    HW224564   4.582   0.791   4.151
 7889SOL     OW24565   0.129   6.184   2.396
 7889SOL    HW124566   0.174   6.260   2.350
 7889SOL    HW224567   0.127   6.105   2.335
 7890SOL     OW24568   1.668   3.789   2.661
 7890SOL    HW124569   1.719   3.705   2.640
 7890SOL    HW224570   1.730   3.860   2.693
 7891SOL     OW24571   2.483   4.581   2.236
 7891SOL    HW124572   2.550   4.581   2.311
 7891SOL    HW224573   2.527   4.609   2.151
 7892SOL     OW24574   2.160   2.360   6.008
 7892SOL    HW124575   2.106   2.314   6.078
 7892SOL    HW224576   2.157   2.307   5.923
 7893SOL     OW24577   6.000   6.631   0.851
 7893SOL    HW124578   6.086   6.619   0.901
 7893SOL    HW224579   5.958   6.718   0.878
 7894SOL     OW24580   2.703   6.607   1.877
 7894SOL    HW124581   2.789   6.657   1.887
 7894SOL    HW224582   2.720   6.517   1.837
 7895SOL     OW24583   6.588   1.124   4.813
 7895SOL    HW124584   6.686   1.121   4.794
 7895SOL    HW224585   6.537   1.101   4.731
 7896SOL     OW24586   4.803   4.253   5.844
 7896SOL    HW124587   4.859   4.181   5.885
 7896SOL    HW224588   4.739   4.212   5.779
 7897SOL     OW24589   2.435   2.942   6.545
 7897SOL    HW124590   2.370   2.983   6.482
 7897SOL    HW224591   2.483   2.867   6.499
 7898SOL     OW24592   3.960   2.112   3.751
 7898SOL    HW124593   3.955   2.207   3.720
 7898SOL    HW224594   3.940   2.051   3.675
 7899SOL     OW24595   5.676   2.136   2.621
 7899SOL    HW124596   5.606   2.178   2.678
 7899SOL    HW224597   5.692   2.194   2.541
 7900SOL     OW24598   2.010   5.901   1.354
 7900SOL    HW124599   2.096   5.915   1.401
 7900SOL    HW224600   1.950   5.979   1.370
 7901SOL     OW24601   6.705   6.573   6.424
 7901SOL    HW124602   6.769   6.647   6.402
 7901SOL    HW224603   6.708   6.504   6.352
 7902SOL     OW24604   4.518   4.152   0.334
 7902SOL    HW124605   4.616   4.134   0.323
 7902SOL    HW224606   4.504   4.247   0.361
 7903SOL     OW24607   6.416   1.803   0.025
 7903SOL    HW124608   6.332   1.813   6.992
 7903SOL    HW224609   6.487   1.863   7.009
 7904SOL     OW24610   6.808   1.292   2.297
 7904SOL    HW124611   6.788   1.360   2.367
 7904SOL    HW224612   6.869   1.332   2.228
 7905SOL     OW24613   4.000   0.793   1.192
 7905SOL    HW124614   4.085   0.793   1.138
 7905SOL    HW224615   3.995   0.710   1.247
 7906SOL     OW24616   5.279   6.191   6.997
 7906SOL    HW124617   5.183   6.190   0.004
 7906SOL    HW224618   5.299   6.107   6.946
 7907SOL     OW24619   6.983   3.109   3.186
 7907SOL    HW124620   0.026   3.079   3.114
 7907SOL    HW224621   6.890   3.080   3.162
 7908SOL     OW24622   6.506   2.048   3.806
 7908SOL    HW124623   6.466   2.135   3.776
 7908SOL    HW224624   6.481   1.976   3.741
 7909SOL     OW24625   4.647   4.439   4.697
 7909SOL    HW124626   4.658   4.352   4.746
 7909SOL    HW224627   4.569   4.488   4.735
 7910SOL     OW24628   4.834   3.283   5.856
 7910SOL    HW124629   4.842   3.188   5.827
 7910SOL    HW224630   4.743   3.318   5.835
 7911SOL     OW24631   6.443   4.414   6.975
 7911SOL    HW124632   6.453   4.382   0.049
 7911SOL    HW224633   6.376   4.358   6.927
 7912SOL     OW24634   5.631   4.691   6.432
 7912SOL    HW124635   5.719   4.643   6.436
 7912SOL    HW224636   5.629   4.761   6.504
 7913SOL     OW24637   6.809   5.422   6.553
 7913SOL    HW124638   6.807   5.364   6.472
 7913SOL    HW224639   6.904   5.438   6.580
 7914SOL     OW24640   5.989   3.586   1.250
 7914SOL    HW124641   6.007   3.573   1.152
 7914SOL    HW224642   5.927   3.664   1.262
 7915SOL     OW24643   3.908   1.794   3.383
 7915SOL    HW124644   3.862   1.716   3.424
 7915SOL    HW224645   3.889   1.797   3.285
 7916SOL     OW24646   5.505   3.788   5.646
 7916SOL    HW124647   5.584   3.822   5.695
 7916SOL    HW224648   5.527   3.778   5.549
 7917SOL     OW24649   3.468   3.799   4.545
 7917SOL    HW124650   3.403   3.725   4.530
 7917SOL    HW224651   3.442   3.878   4.489
 7918SOL     OW24652   5.651   1.776   2.740
 7918SOL    HW124653   5.652   1.678   2.761
 7918SOL    HW224654   5.557   1.811   2.749
 7919SOL     OW24655   5.359   5.124   1.873
 7919SOL    HW124656   5.298   5.130   1.794
 7919SOL    HW224657   5.454   5.122   1.841
 7920SOL     OW24658   0.708   4.982   1.338
 7920SOL    HW124659   0.720   5.079   1.360
 7920SOL    HW224660   0.675   4.934   1.419
 7921SOL     OW24661   2.327   6.956   1.329
 7921SOL    HW124662   2.353   6.877   1.273
 7921SOL    HW224663   2.235   6.942   1.365
 7922SOL     OW24664   1.109   5.748   6.440
 7922SOL    HW124665   1.187   5.688   6.458
 7922SOL    HW224666   1.042   5.739   6.514
 7923SOL     OW24667   1.167   1.224   3.568
 7923SOL    HW124668   1.142   1.303   3.624
 7923SOL    HW224669   1.117   1.143   3.599
 7924SOL     OW24670   2.876   6.885   3.896
 7924SOL    HW124671   2.930   6.934   3.963
 7924SOL    HW224672   2.935   6.826   3.842
 7925SOL     OW24673   6.215   1.646   5.971
 7925SOL    HW124674   6.231   1.575   5.903
 7925SOL    HW224675   6.299   1.697   5.987
 7926SOL     OW24676   4.258   0.415   2.138
 7926SOL    HW124677   4.353   0.440   2.118
 7926SOL    HW224678   4.247   0.316   2.130
 7927SOL     OW24679   4.397   5.020   4.710
 7927SOL    HW124680   4.428   4.959   4.637
 7927SOL    HW224681   4.472   5.036   4.774
 7928SOL     OW24682   1.753   5.389   1.911
 7928SOL    HW124683   1.831   5.327   1.903
 7928SOL    HW224684   1.688   5.353   1.977
 7929SOL     OW24685   3.924   3.492   4.203
 7929SOL    HW124686   3.939   3.564   4.271
 7929SOL    HW224687   3.990   3.500   4.129
 7930SOL     OW24688   5.000   5.492   3.581
 7930SOL    HW124689   5.005   5.442   3.668
 7930SOL    HW224690   4.930   5.563   3.589
 7931SOL     OW24691   2.677   1.832   0.474
 7931SOL    HW124692   2.724   1.821   0.562
 7931SOL    HW224693   2.665   1.930   0.455
 7932SOL     OW24694   2.301   0.203   0.484
 7932SOL    HW124695   2.266   0.179   0.574
 7932SOL    HW224696   2.262   0.142   0.415
 7933SOL     OW24697   1.201   0.607   6.713
 7933SOL    HW124698   1.150   0.521   6.718
 7933SOL    HW224699   1.265   0.604   6.637
 7934SOL     OW24700   2.576   3.658   6.428
 7934SOL    HW124701   2.580   3.561   6.452
 7934SOL    HW224702   2.660   3.703   6.456
 7935SOL     OW24703   4.483   6.498   2.001
 7935SOL    HW124704   4.419   6.476   2.075
 7935SOL    HW224705   4.465   6.438   1.923
 7936SOL     OW24706   4.212   5.701   3.142
 7936SOL    HW124707   4.149   5.660   3.077
 7936SOL    HW224708   4.215   5.644   3.225
 7937SOL     OW24709   6.464   6.384   5.685
 7937SOL    HW124710   6.535   6.341   5.740
 7937SOL    HW224711   6.502   6.465   5.639
 7938SOL     OW24712   4.632   5.424   4.814
 7938SOL    HW124713   4.553   5.428   4.753
 7938SOL    HW224714   4.642   5.331   4.848
 7939SOL     OW24715   1.309   0.772   5.904
 7939SOL    HW124716   1.329   0.688   5.955
 7939SOL    HW224717   1.356   0.848   5.948
 7940SOL     OW24718   2.126   5.698   0.987
 7940SOL    HW124719   2.163   5.614   0.948
 7940SOL    HW224720   2.101   5.682   1.083
 7941SOL     OW24721   0.188   0.743   0.842
 7941SOL    HW124722   0.163   0.839   0.852
 7941SOL    HW224723   0.108   0.690   0.814
 7942SOL     OW24724   0.313   0.209   1.433
 7942SOL    HW124725   0.326   0.124   1.483
 7942SOL    HW224726   0.400   0.259   1.430
 7943SOL     OW24727   5.261   1.928   1.106
 7943SOL    HW124728   5.227   2.014   1.145
 7943SOL    HW224729   5.259   1.857   1.177
 7944SOL     OW24730   0.677   4.414   1.083
 7944SOL    HW124731   0.725   4.366   1.157
 7944SOL    HW224732   0.580   4.393   1.087
 7945SOL     OW24733   5.905   6.590   2.759
 7945SOL    HW124734   5.922   6.609   2.662
 7945SOL    HW224735   5.886   6.676   2.807
 7946SOL     OW24736   1.803   2.201   5.983
 7946SOL    HW124737   1.804   2.279   5.921
 7946SOL    HW224738   1.714   2.194   6.028
 7947SOL     OW24739   4.207   3.310   6.558
 7947SOL    HW124740   4.275   3.238   6.569
 7947SOL    HW224741   4.199   3.334   6.461
 7948SOL     OW24742   0.047   6.546   0.647
 7948SOL    HW124743   0.002   6.534   0.736
 7948SOL    HW224744   0.144   6.522   0.656
 7949SOL     OW24745   5.208   4.738   3.645
 7949SOL    HW124746   5.124   4.700   3.606
 7949SOL    HW224747   5.200   4.837   3.652
 7950SOL     OW24748   3.792   5.186   4.151
 7950SOL    HW124749   3.708   5.219   4.108
 7950SOL    HW224750   3.856   5.154   4.081
 7951SOL     OW24751   3.457   3.600   1.104
 7951SOL    HW124752   3.516   3.584   1.025
 7951SOL    HW224753   3.377   3.540   1.099
 7952SOL     OW24754   6.013   3.182   0.716
 7952SOL    HW124755   5.944   3.149   0.781
 7952SOL    HW224756   6.001   3.135   0.628
 7953SOL     OW24757   2.134   2.567   3.140
 7953SOL    HW124758   2.095   2.576   3.048
 7953SOL    HW224759   2.230   2.539   3.133
 7954SOL     OW24760   4.096   5.250   4.873
 7954SOL    HW124761   4.145   5.226   4.789
 7954SOL    HW224762   4.156   5.237   4.952
 7955SOL     OW24763   0.816   6.339   6.450
 7955SOL    HW124764   0.777   6.330   6.358
 7955SOL    HW224765   0.868   6.424   6.457
 7956SOL     OW24766   6.150   6.104   4.383
 7956SOL    HW124767   6.211   6.026   4.371
 7956SOL    HW224768   6.152   6.161   4.301
 7957SOL     OW24769   1.174   1.658   1.309
 7957SOL    HW124770   1.111   1.709   1.251
 7957SOL    HW224771   1.265   1.657   1.267
 7958SOL     OW24772   2.738   4.802   2.946
 7958SOL    HW124773   2.681   4.731   2.904
 7958SOL    HW224774   2.830   4.799   2.907
 7959SOL     OW24775   6.267   4.770   0.676
 7959SOL    HW124776   6.193   4.831   0.706
 7959SOL    HW224777   6.231   4.678   0.662
 7960SOL     OW24778   2.536   1.570   1.476
 7960SOL    HW124779   2.598   1.578   1.554
 7960SOL    HW224780   2.544   1.477   1.438
 7961SOL     OW24781   1.552   5.728   6.254
 7961SOL    HW124782   1.511   5.818   6.267
 7961SOL    HW224783   1.647   5.729   6.287
 7962SOL     OW24784   1.591   0.989   1.978
 7962SOL    HW124785   1.538   0.928   2.037
 7962SOL    HW224786   1.547   1.078   1.974
 7963SOL     OW24787   0.811   1.000   5.610
 7963SOL    HW124788   0.887   1.051   5.570
 7963SOL    HW224789   0.815   0.904   5.581
 7964SOL     OW24790   5.871   5.533   3.540
 7964SOL    HW124791   5.897   5.564   3.632
 7964SOL    HW224792   5.856   5.434   3.541
 7965SOL     OW24793   5.059   2.435   0.149
 7965SOL    HW124794   5.147   2.388   0.159
 7965SOL    HW224795   4.988   2.369   0.125
 7966SOL     OW24796   6.745   4.920   4.231
 7966SOL    HW124797   6.770   4.831   4.269
 7966SOL    HW224798   6.823   4.982   4.239
 7967SOL     OW24799   2.914   6.774   2.424
 7967SOL    HW124800   2.914   6.742   2.329
 7967SOL    HW224801   2.865   6.708   2.481
 7968SOL     OW24802   1.933   2.273   3.059
 7968SOL    HW124803   2.024   2.303   3.088
 7968SOL    HW224804   1.932   2.262   2.959
 7969SOL     OW24805   3.284   1.539   3.403
 7969SOL    HW124806   3.237   1.627   3.401
 7969SOL    HW224807   3.369   1.546   3.350
 7970SOL     OW24808   0.542   4.326   2.982
 7970SOL    HW124809   0.523   4.302   2.887
 7970SOL    HW224810   0.475   4.394   3.013
 7971SOL     OW24811   3.386   0.395   1.088
 7971SOL    HW124812   3.317   0.463   1.064
 7971SOL    HW224813   3.470   0.442   1.117
 7972SOL     OW24814   0.194   4.576   1.546
 7972SOL    HW124815   0.286   4.574   1.585
 7972SOL    HW224816   0.127   4.552   1.616
 7973SOL     OW24817   5.052   3.195   3.711
 7973SOL    HW124818   5.005   3.284   3.709
 7973SOL    HW224819   5.098   3.181   3.623
 7974SOL     OW24820   5.242   0.485   4.240
 7974SOL    HW124821   5.185   0.498   4.159
 7974SOL    HW224822   5.338   0.474   4.212
 7975SOL     OW24823   3.314   1.487   4.121
 7975SOL    HW124824   3.378   1.522   4.053
 7975SOL    HW224825   3.334   1.528   4.210
 7976SOL     OW24826   0.832   5.966   5.505
 7976SOL    HW124827   0.913   5.909   5.491
 7976SOL    HW224828   0.815   5.977   5.603
 7977SOL     OW24829   5.602   6.295   1.538
 7977SOL    HW124830   5.688   6.296   1.487
 7977SOL    HW224831   5.525   6.282   1.475
 7978SOL     OW24832   4.722   3.671   6.004
 7978SOL    HW124833   4.818   3.681   5.976
 7978SOL    HW224834   4.707   3.719   6.090
 7979SOL     OW24835   3.000   0.023   4.117
 7979SOL    HW124836   2.947   0.096   4.161
 7979SOL    HW224837   3.084   0.008   4.169
 7980SOL     OW24838   3.320   6.205   0.350
 7980SOL    HW124839   3.353   6.215   0.256
 7980SOL    HW224840   3.283   6.113   0.363
 7981SOL     OW24841   0.962   5.192   2.465
 7981SOL    HW124842   0.933   5.101   2.495
 7981SOL    HW224843   1.016   5.184   2.381
 7982SOL     OW24844   6.535   2.152   0.618
 7982SOL    HW124845   6.555   2.247   0.641
 7982SOL    HW224846   6.614   2.112   0.572
 7983SOL     OW24847   5.427   2.061   2.431
 7983SOL    HW124848   5.476   2.141   2.396
 7983SOL    HW224849   5.491   1.986   2.443
 7984SOL     OW24850   0.483   2.098   2.270
 7984SOL    HW124851   0.432   2.096   2.183
 7984SOL    HW224852   0.580   2.111   2.251
 7985SOL     OW24853   0.836   1.445   2.580
 7985SOL    HW124854   0.901   1.414   2.648
 7985SOL    HW224855   0.847   1.543   2.565
 7986SOL     OW24856   4.194   0.975   6.538
 7986SOL    HW124857   4.107   0.971   6.489
 7986SOL    HW224858   4.233   0.883   6.545
 7987SOL     OW24859   0.682   2.721   5.295
 7987SOL    HW124860   0.692   2.816   5.266
 7987SOL    HW224861   0.755   2.698   5.360
 7988SOL     OW24862   2.732   1.860   4.549
 7988SOL    HW124863   2.794   1.782   4.558
 7988SOL    HW224864   2.777   1.943   4.581
 7989SOL     OW24865   3.135   2.408   5.775
 7989SOL    HW124866   3.168   2.500   5.757
 7989SOL    HW224867   3.137   2.355   5.690
 7990SOL     OW24868   1.408   2.622   4.899
 7990SOL    HW124869   1.308   2.615   4.902
 7990SOL    HW224870   1.434   2.690   4.830
 7991SOL     OW24871   0.469   2.703   6.265
 7991SOL    HW124872   0.432   2.614   6.238
 7991SOL    HW224873   0.549   2.689   6.324
 7992SOL     OW24874   2.074   0.141   0.668
 7992SOL    HW124875   2.000   0.077   0.646
 7992SOL    HW224876   2.037   0.220   0.717
 7993SOL     OW24877   1.896   6.117   6.847
 7993SOL    HW124878   1.933   6.028   6.875
 7993SOL    HW224879   1.800   6.123   6.871
 7994SOL     OW24880   4.861   1.409   3.782
 7994SOL    HW124881   4.774   1.459   3.781
 7994SOL    HW224882   4.925   1.455   3.843
 7995SOL     OW24883   2.724   5.174   3.789
 7995SOL    HW124884   2.737   5.212   3.880
 7995SOL    HW224885   2.675   5.087   3.795
 7996SOL     OW24886   3.681   0.056   4.823
 7996SOL    HW124887   3.702   0.114   4.901
 7996SOL    HW224888   3.640   0.110   4.750
 7997SOL     OW24889   5.838   2.653   0.878
 7997SOL    HW124890   5.752   2.680   0.836
 7997SOL    HW224891   5.827   2.650   0.978
 7998SOL     OW24892   5.684   4.718   0.319
 7998SOL    HW124893   5.634   4.632   0.315
 7998SOL    HW224894   5.781   4.700   0.339
 7999SOL     OW24895   1.591   6.905   5.322
 7999SOL    HW124896   1.637   6.842   5.385
 7999SOL    HW224897   1.507   6.939   5.364
 8000SOL     OW24898   6.184   6.822   5.756
 8000SOL    HW124899   6.121   6.878   5.811
 8000SOL    HW224900   6.154   6.823   5.660
 8001SOL     OW24901   2.090   6.930   1.485
 8001SOL    HW124902   2.015   6.864   1.476
 8001SOL    HW224903   2.140   6.912   1.570
 8002SOL     OW24904   5.938   2.814   4.988
 8002SOL    HW124905   6.013   2.870   5.023
 8002SOL    HW224906   5.976   2.735   4.939
 8003SOL     OW24907   3.305   5.057   3.184
 8003SOL    HW124908   3.367   5.016   3.251
 8003SOL    HW224909   3.252   4.984   3.139
 8004SOL     OW24910   2.150   3.861   3.115
 8004SOL    HW124911   2.171   3.831   3.208
 8004SOL    HW224912   2.188   3.797   3.049
 8005SOL     OW24913   3.146   1.036   1.425
 8005SOL    HW124914   3.221   1.036   1.491
 8005SOL    HW224915   3.093   0.951   1.435
 8006SOL     OW24916   2.854   5.960   0.373
 8006SOL    HW124917   2.860   6.054   0.340
 8006SOL    HW224918   2.815   5.960   0.465
 8007SOL     OW24919   0.327   0.330   4.307
 8007SOL    HW124920   0.253   0.392   4.281
 8007SOL    HW224921   0.333   0.327   4.407
 8008SOL     OW24922   6.136   6.693   0.251
 8008SOL    HW124923   6.185   6.681   0.165
 8008SOL    HW224924   6.083   6.611   0.271
 8009SOL     OW24925   6.801   6.949   3.927
 8009SOL    HW124926   6.854   6.870   3.896
 8009SOL    HW224927   6.827   0.009   3.873
 8010SOL     OW24928   1.914   2.410   0.640
 8010SOL    HW124929   1.830   2.464   0.649
 8010SOL    HW224930   1.900   2.339   0.571
 8011SOL     OW24931   3.281   2.400   1.243
 8011SOL    HW124932   3.191   2.444   1.249
 8011SOL    HW224933   3.298   2.346   1.325
 8012SOL     OW24934   2.403   6.578   1.486
 8012SOL    HW124935   2.480   6.515   1.490
 8012SOL    HW224936   2.431   6.662   1.440
 8013SOL     OW24937   5.619   4.817   4.440
 8013SOL    HW124938   5.564   4.899   4.458
 8013SOL    HW224939   5.684   4.836   4.366
 8014SOL     OW24940   2.144   6.734   6.910
 8014SOL    HW124941   2.121   6.675   6.988
 8014SOL    HW224942   2.234   6.775   6.925
 8015SOL     OW24943   2.399   2.707   0.380
 8015SOL    HW124944   2.448   2.693   0.294
 8015SOL    HW224945   2.452   2.767   0.440
 8016SOL     OW24946   4.263   6.566   6.874
 8016SOL    HW124947   4.267   6.578   6.973
 8016SOL    HW224948   4.293   6.650   6.828
 8017SOL     OW24949   6.239   4.122   4.781
 8017SOL    HW124950   6.300   4.099   4.705
 8017SOL    HW224951   6.150   4.149   4.744
 8018SOL     OW24952   4.686   1.705   5.362
 8018SOL    HW124953   4.763   1.646   5.338
 8018SOL    HW224954   4.699   1.795   5.322
 8019SOL     OW24955   1.776   5.737   0.659
 8019SOL    HW124956   1.748   5.833   0.649
 8019SOL    HW224957   1.842   5.714   0.587
 8020SOL     OW24958   4.927   5.158   6.908
 8020SOL    HW124959   4.990   5.183   6.982
 8020SOL    HW224960   4.942   5.062   6.884
 8021SOL     OW24961   0.605   0.685   0.701
 8021SOL    HW124962   0.638   0.667   0.608
 8021SOL    HW224963   0.611   0.602   0.756
 8022SOL     OW24964   4.425   6.538   3.316
 8022SOL    HW124965   4.332   6.522   3.285
 8022SOL    HW224966   4.473   6.451   3.324
 8023SOL     OW24967   6.133   5.490   2.589
 8023SOL    HW124968   6.212   5.451   2.542
 8023SOL    HW224969   6.164   5.556   2.657
 8024SOL     OW24970   4.892   5.294   5.515
 8024SOL    HW124971   4.842   5.368   5.471
 8024SOL    HW224972   4.963   5.260   5.453
 8025SOL     OW24973   3.854   5.647   6.469
 8025SOL    HW124974   3.943   5.626   6.508
 8025SOL    HW224975   3.826   5.573   6.407
 8026SOL     OW24976   1.541   3.226   6.946
 8026SOL    HW124977   1.640   3.229   6.928
 8026SOL    HW224978   1.516   3.300   7.009
 8027SOL     OW24979   4.700   1.927   5.183
 8027SOL    HW124980   4.755   1.876   5.117
 8027SOL    HW224981   4.604   1.902   5.172
 8028SOL     OW24982   4.862   4.795   6.598
 8028SOL    HW124983   4.792   4.807   6.528
 8028SOL    HW224984   4.904   4.705   6.588
 8029SOL     OW24985   3.797   4.306   0.550
 8029SOL    HW124986   3.764   4.389   0.596
 8029SOL    HW224987   3.751   4.226   0.588
 8030SOL     OW24988   5.776   4.274   6.093
 8030SOL    HW124989   5.754   4.358   6.142
 8030SOL    HW224990   5.694   4.218   6.082
 8031SOL     OW24991   3.889   5.315   1.719
 8031SOL    HW124992   3.902   5.244   1.649
 8031SOL    HW224993   3.801   5.300   1.765
 8032SOL     OW24994   5.357   4.088   5.592
 8032SOL    HW124995   5.324   4.176   5.557
 8032SOL    HW224996   5.384   4.030   5.516
 8033SOL     OW24997   6.004   2.244   0.301
 8033SOL    HW124998   6.058   2.325   0.325
 8033SOL    HW224999   5.967   2.255   0.208
 8034SOL     OW25000   5.403   6.892   4.712
 8034SOL    HW125001   5.499   6.875   4.689
 8034SOL    HW225002   5.365   6.958   4.648
 8035SOL     OW25003   5.416   6.773   6.799
 8035SOL    HW125004   5.426   6.856   6.854
 8035SOL    HW225005   5.426   6.693   6.858
 8036SOL     OW25006   1.940   4.105   1.878
 8036SOL    HW125007   2.032   4.142   1.892
 8036SOL    HW225008   1.883   4.129   1.957
 8037SOL     OW25009   1.459   2.932   1.140
 8037SOL    HW125010   1.422   2.844   1.171
 8037SOL    HW225011   1.383   2.993   1.116
 8038SOL     OW25012   0.447   2.184   3.738
 8038SOL    HW125013   0.515   2.242   3.783
 8038SOL    HW225014   0.355   2.218   3.758
 8039SOL     OW25015   2.247   6.972   3.382
 8039SOL    HW125016   2.251   6.897   3.315
 8039SOL    HW225017   2.281   0.036   3.339
 8040SOL     OW25018   0.526   5.672   1.061
 8040SOL    HW125019   0.533   5.678   0.962
 8040SOL    HW225020   0.615   5.692   1.102
 8041SOL     OW25021   4.348   1.249   0.520
 8041SOL    HW125022   4.310   1.194   0.594
 8041SOL    HW225023   4.447   1.235   0.516
 8042SOL     OW25024   3.145   3.023   2.361
 8042SOL    HW125025   3.079   2.962   2.317
 8042SOL    HW225026   3.201   3.067   2.291
 8043SOL     OW25027   2.764   0.344   1.474
 8043SOL    HW125028   2.682   0.381   1.430
 8043SOL    HW225029   2.776   0.386   1.564
 8044SOL     OW25030   2.878   3.737   1.268
 8044SOL    HW125031   2.923   3.758   1.355
 8044SOL    HW225032   2.947   3.718   1.198
 8045SOL     OW25033   5.503   2.775   3.176
 8045SOL    HW125034   5.435   2.754   3.105
 8045SOL    HW225035   5.546   2.863   3.156
 8046SOL     OW25036   6.111   4.727   5.639
 8046SOL    HW125037   6.048   4.800   5.613
 8046SOL    HW225038   6.170   4.758   5.713
 8047SOL     OW25039   3.781   5.943   4.525
 8047SOL    HW125040   3.748   5.849   4.524
 8047SOL    HW225041   3.840   5.959   4.446
 8048SOL     OW25042   6.513   7.001   5.489
 8048SOL    HW125043   6.427   0.015   5.529
 8048SOL    HW225044   6.581   6.992   5.561
 8049SOL     OW25045   1.284   6.659   0.969
 8049SOL    HW125046   1.316   6.570   1.003
 8049SOL    HW225047   1.357   6.726   0.978
 8050SOL     OW25048   1.738   3.222   0.970
 8050SOL    HW125049   1.677   3.178   1.035
 8050SOL    HW225050   1.833   3.201   0.993
 8051SOL     OW25051   4.683   1.042   3.318
 8051SOL    HW125052   4.719   1.089   3.237
 8051SOL    HW225053   4.757   0.996   3.366
 8052SOL     OW25054   3.044   1.716   2.754
 8052SOL    HW125055   3.011   1.684   2.842
 8052SOL    HW225056   2.970   1.711   2.687
 8053SOL     OW25057   3.800   3.928   2.946
 8053SOL    HW125058   3.873   3.867   2.977
 8053SOL    HW225059   3.773   3.989   3.020
 8054SOL     OW25060   4.707   6.713   4.331
 8054SOL    HW125061   4.764   6.685   4.409
 8054SOL    HW225062   4.703   6.813   4.327
 8055SOL     OW25063   1.664   6.910   5.933
 8055SOL    HW125064   1.696   7.005   5.927
 8055SOL    HW225065   1.726   6.851   5.882
 8056SOL     OW25066   4.208   1.749   3.026
 8056SOL    HW125067   4.180   1.828   3.080
 8056SOL    HW225068   4.134   1.683   3.021
 8057SOL     OW25069   3.200   6.780   3.291
 8057SOL    HW125070   3.135   6.779   3.367
 8057SOL    HW225071   3.281   6.832   3.316
 8058SOL     OW25072   3.058   0.829   2.100
 8058SOL    HW125073   3.009   0.805   2.016
 8058SOL    HW225074   2.997   0.881   2.160
 8059SOL     OW25075   3.118   2.139   4.517
 8059SOL    HW125076   3.137   2.042   4.503
 8059SOL    HW225077   3.118   2.159   4.615
 8060SOL     OW25078   6.584   0.745   4.903
 8060SOL    HW125079   6.553   0.784   4.817
 8060SOL    HW225080   6.523   0.772   4.977
 8061SOL     OW25081   6.720   5.523   3.169
 8061SOL    HW125082   6.809   5.530   3.214
 8061SOL    HW225083   6.682   5.614   3.155
 8062SOL     OW25084   1.243   4.324   3.834
 8062SOL    HW125085   1.310   4.379   3.883
 8062SOL    HW225086   1.274   4.230   3.829
 8063SOL     OW25087   2.963   3.028   6.647
 8063SOL    HW125088   3.061   3.006   6.651
 8063SOL    HW225089   2.910   2.944   6.655
 8064SOL     OW25090   0.027   3.429   0.322
 8064SOL    HW125091   0.023   3.391   0.414
 8064SOL    HW225092   0.097   3.500   0.318
 8065SOL     OW25093   5.023   0.088   4.505
 8065SOL    HW125094   5.092   0.022   4.478
 8065SOL    HW225095   4.998   0.144   4.426
 8066SOL     OW25096   1.610   0.990   1.460
 8066SOL    HW125097   1.706   1.018   1.467
 8066SOL    HW225098   1.578   0.960   1.550
 8067SOL     OW25099   4.953   2.505   1.600
 8067SOL    HW125100   4.957   2.405   1.598
 8067SOL    HW225101   4.864   2.535   1.634
 8068SOL     OW25102   0.962   4.125   4.928
 8068SOL    HW125103   1.005   4.202   4.976
 8068SOL    HW225104   1.005   4.039   4.957
 8069SOL     OW25105   1.224   6.423   1.682
 8069SOL    HW125106   1.209   6.504   1.739
 8069SOL    HW225107   1.183   6.437   1.592
 8070SOL     OW25108   3.954   6.536   1.501
 8070SOL    HW125109   4.046   6.518   1.534
 8070SOL    HW225110   3.889   6.475   1.546
 8071SOL     OW25111   3.568   0.198   6.080
 8071SOL    HW125112   3.661   0.174   6.108
 8071SOL    HW225113   3.539   0.137   6.006
 8072SOL     OW25114   5.168   1.498   0.618
 8072SOL    HW125115   5.255   1.546   0.624
 8072SOL    HW225116   5.169   1.418   0.679
 8073SOL     OW25117   4.035   6.543   5.957
 8073SOL    HW125118   4.127   6.537   5.995
 8073SOL    HW225119   3.968   6.518   6.027
 8074SOL     OW25120   3.434   3.475   0.167
 8074SOL    HW125121   3.431   3.522   0.079
 8074SOL    HW225122   3.503   3.519   0.225
 8075SOL     OW25123   6.898   1.346   2.857
 8075SOL    HW125124   6.858   1.255   2.843
 8075SOL    HW225125   6.996   1.337   2.869
 8076SOL     OW25126   5.712   2.638   5.501
 8076SOL    HW125127   5.701   2.726   5.548
 8076SOL    HW225128   5.720   2.653   5.403
 8077SOL     OW25129   1.107   0.105   0.865
 8077SOL    HW125130   1.036   0.129   0.930
 8077SOL    HW225131   1.114   0.005   0.858
 8078SOL     OW25132   6.193   2.370   1.198
 8078SOL    HW125133   6.263   2.393   1.130
 8078SOL    HW225134   6.193   2.438   1.271
 8079SOL     OW25135   6.888   1.995   2.228
 8079SOL    HW125136   6.946   2.060   2.277
 8079SOL    HW225137   6.875   1.913   2.284
 8080SOL     OW25138   3.165   4.484   0.314
 8080SOL    HW125139   3.135   4.417   0.246
 8080SOL    HW225140   3.202   4.436   0.393
 8081SOL     OW25141   5.929   0.667   5.021
 8081SOL    HW125142   5.879   0.613   5.088
 8081SOL    HW225143   6.008   0.710   5.064
 8082SOL     OW25144   6.952   2.615   3.658
 8082SOL    HW125145   6.913   2.629   3.567
 8082SOL    HW225146   6.958   2.704   3.705
 8083SOL     OW25147   4.538   2.508   3.278
 8083SOL    HW125148   4.564   2.586   3.335
 8083SOL    HW225149   4.501   2.435   3.337
 8084SOL     OW25150   6.754   6.590   1.691
 8084SOL    HW125151   6.819   6.663   1.712
 8084SOL    HW225152   6.661   6.627   1.694
 8085SOL     OW25153   5.903   0.577   1.052
 8085SOL    HW125154   5.828   0.642   1.053
 8085SOL    HW225155   5.986   0.622   1.019
 8086SOL     OW25156   3.863   0.945   4.975
 8086SOL    HW125157   3.837   0.913   4.884
 8086SOL    HW225158   3.803   1.019   5.003
 8087SOL     OW25159   2.706   2.333   1.428
 8087SOL    HW125160   2.680   2.395   1.354
 8087SOL    HW225161   2.675   2.371   1.515
 8088SOL     OW25162   4.620   1.074   2.533
 8088SOL    HW125163   4.574   1.160   2.555
 8088SOL    HW225164   4.587   1.042   2.444
 8089SOL     OW25165   5.653   2.985   0.252
 8089SOL    HW125166   5.646   3.033   0.165
 8089SOL    HW225167   5.739   3.010   0.297
 8090SOL     OW25168   5.033   1.574   5.494
 8090SOL    HW125169   4.997   1.655   5.539
 8090SOL    HW225170   5.115   1.542   5.541
 8091SOL     OW25171   2.598   4.732   5.874
 8091SOL    HW125172   2.595   4.753   5.971
 8091SOL    HW225173   2.646   4.645   5.860
 8092SOL     OW25174   1.525   1.792   4.748
 8092SOL    HW125175   1.508   1.865   4.682
 8092SOL    HW225176   1.448   1.786   4.813
 8093SOL     OW25177   5.393   5.601   0.829
 8093SOL    HW125178   5.481   5.571   0.794
 8093SOL    HW225179   5.359   5.677   0.774
 8094SOL     OW25180   1.050   4.139   5.866
 8094SOL    HW125181   1.106   4.221   5.855
 8094SOL    HW225182   1.080   4.069   5.802
 8095SOL     OW25183   5.463   3.357   4.480
 8095SOL    HW125184   5.504   3.448   4.471
 8095SOL    HW225185   5.438   3.322   4.390
 8096SOL     OW25186   3.628   6.388   1.833
 8096SOL    HW125187   3.567   6.368   1.909
 8096SOL    HW225188   3.576   6.389   1.747
 8097SOL     OW25189   4.937   1.179   3.664
 8097SOL    HW125190   4.891   1.262   3.696
 8097SOL    HW225191   4.962   1.123   3.743
 8098SOL     OW25192   3.089   6.599   3.939
 8098SOL    HW125193   3.183   6.611   3.909
 8098SOL    HW225194   3.077   6.643   4.028
 8099SOL     OW25195   4.444   6.940   5.258
 8099SOL    HW125196   4.437   7.019   5.319
 8099SOL    HW225197   4.409   6.859   5.304
 8100SOL     OW25198   0.317   6.501   0.688
 8100SOL    HW125199   0.350   6.575   0.629
 8100SOL    HW225200   0.378   6.422   0.678
 8101SOL     OW25201   1.497   6.449   3.587
 8101SOL    HW125202   1.456   6.358   3.577
 8101SOL    HW225203   1.594   6.445   3.563
 8102SOL     OW25204   6.430   5.790   6.005
 8102SOL    HW125205   6.391   5.775   6.096
 8102SOL    HW225206   6.361   5.830   5.945
 8103SOL     OW25207   3.366   1.258   2.461
 8103SOL    HW125208   3.298   1.301   2.521
 8103SOL    HW225209   3.420   1.328   2.415
 8104SOL     OW25210   2.836   0.008   6.415
 8104SOL    HW125211   2.786   0.054   6.341
 8104SOL    HW225212   2.820   0.055   6.501
 8105SOL     OW25213   2.340   2.032   3.516
 8105SOL    HW125214   2.413   1.964   3.513
 8105SOL    HW225215   2.373   2.114   3.563
 8106SOL     OW25216   0.999   4.177   4.045
 8106SOL    HW125217   1.041   4.139   4.127
 8106SOL    HW225218   1.069   4.221   3.989
 8107SOL     OW25219   2.131   6.408   5.915
 8107SOL    HW125220   2.087   6.392   5.827
 8107SOL    HW225221   2.231   6.408   5.903
 8108SOL     OW25222   1.074   3.027   4.232
 8108SOL    HW125223   1.126   3.112   4.234
 8108SOL    HW225224   1.036   3.008   4.322
 8109SOL     OW25225   1.553   4.721   4.771
 8109SOL    HW125226   1.495   4.770   4.837
 8109SOL    HW225227   1.513   4.632   4.752
 8110SOL     OW25228   2.475   5.902   0.390
 8110SOL    HW125229   2.398   5.839   0.390
 8110SOL    HW225230   2.540   5.876   0.462
 8111SOL     OW25231   2.840   5.049   4.506
 8111SOL    HW125232   2.902   5.072   4.581
 8111SOL    HW225233   2.761   4.999   4.543
 8112SOL     OW25234   2.245   0.834   4.881
 8112SOL    HW125235   2.178   0.902   4.909
 8112SOL    HW225236   2.337   0.875   4.883
 8113SOL     OW25237   3.799   2.680   6.187
 8113SOL    HW125238   3.753   2.734   6.257
 8113SOL    HW225239   3.784   2.722   6.097
 8114SOL     OW25240   2.142   2.898   2.193
 8114SOL    HW125241   2.189   2.828   2.246
 8114SOL    HW225242   2.173   2.894   2.098
 8115SOL     OW25243   3.260   1.681   1.170
 8115SOL    HW125244   3.292   1.589   1.148
 8115SOL    HW225245   3.233   1.685   1.266
 8116SOL     OW25246   5.799   0.471   5.174
 8116SOL    HW125247   5.779   0.457   5.271
 8116SOL    HW225248   5.845   0.390   5.138
 8117SOL     OW25249   1.384   1.863   5.394
 8117SOL    HW125250   1.432   1.926   5.455
 8117SOL    HW225251   1.399   1.890   5.299
 8118SOL     OW25252   0.690   3.391   5.376
 8118SOL    HW125253   0.762   3.335   5.336
 8118SOL    HW225254   0.610   3.391   5.316
 8119SOL     OW25255   0.733   6.330   2.947
 8119SOL    HW125256   0.703   6.235   2.941
 8119SOL    HW225257   0.669   6.381   3.004
 8120SOL     OW25258   4.299   4.086   1.397
 8120SOL    HW125259   4.307   4.001   1.346
 8120SOL    HW225260   4.282   4.065   1.494
 8121SOL     OW25261   6.380   0.752   2.718
 8121SOL    HW125262   6.423   0.801   2.794
 8121SOL    HW225263   6.369   0.813   2.640
 8122SOL     OW25264   6.575   6.478   2.388
 8122SOL    HW125265   6.491   6.423   2.386
 8122SOL    HW225266   6.636   6.443   2.459
 8123SOL     OW25267   1.710   6.292   6.978
 8123SOL    HW125268   1.757   6.309   0.044
 8123SOL    HW225269   1.776   6.297   6.903
 8124SOL     OW25270   1.101   6.161   1.748
 8124SOL    HW125271   1.150   6.247   1.734
 8124SOL    HW225272   1.015   6.179   1.795
 8125SOL     OW25273   5.817   5.062   2.958
 8125SOL    HW125274   5.781   5.104   3.041
 8125SOL    HW225275   5.914   5.087   2.947
 8126SOL     OW25276   5.714   4.496   2.845
 8126SOL    HW125277   5.752   4.586   2.869
 8126SOL    HW225278   5.731   4.478   2.748
 8127SOL     OW25279   2.065   4.938   6.837
 8127SOL    HW125280   2.164   4.953   6.844
 8127SOL    HW225281   2.047   4.839   6.840
 8128SOL     OW25282   3.674   2.601   5.350
 8128SOL    HW125283   3.703   2.664   5.278
 8128SOL    HW225284   3.675   2.647   5.438
 8129SOL     OW25285   5.256   0.545   6.309
 8129SOL    HW125286   5.282   0.572   6.216
 8129SOL    HW225287   5.275   0.620   6.372
 8130SOL     OW25288   1.681   5.983   6.987
 8130SOL    HW125289   1.716   5.927   0.042
 8130SOL    HW225290   1.605   6.040   7.020
 8131SOL     OW25291   2.922   0.895   0.467
 8131SOL    HW125292   2.830   0.935   0.464
 8131SOL    HW225293   2.956   0.896   0.562
 8132SOL     OW25294   6.293   5.311   3.886
 8132SOL    HW125295   6.221   5.380   3.897
 8132SOL    HW225296   6.346   5.305   3.971
 8133SOL     OW25297   2.171   5.496   2.489
 8133SOL    HW125298   2.081   5.494   2.445
 8133SOL    HW225299   2.170   5.563   2.563
 8134SOL     OW25300   2.376   2.699   3.723
 8134SOL    HW125301   2.463   2.651   3.715
 8134SOL    HW225302   2.322   2.659   3.797
 8135SOL     OW25303   4.098   5.506   1.964
 8135SOL    HW125304   4.158   5.580   1.935
 8135SOL    HW225305   4.127   5.472   2.054
 8136SOL     OW25306   4.191   5.629   2.371
 8136SOL    HW125307   4.245   5.629   2.454
 8136SOL    HW225308   4.196   5.539   2.327
 8137SOL     OW25309   2.308   4.220   4.729
 8137SOL    HW125310   2.273   4.310   4.755
 8137SOL    HW225311   2.355   4.179   4.807
 8138SOL     OW25312   4.758   0.892   2.687
 8138SOL    HW125313   4.703   0.964   2.644
 8138SOL    HW225314   4.855   0.911   2.671
 8139SOL     OW25315   1.374   1.783   3.451
 8139SOL    HW125316   1.471   1.804   3.467
 8139SOL    HW225317   1.341   1.837   3.374
 8140SOL     OW25318   4.758   0.992   0.701
 8140SOL    HW125319   4.722   1.064   0.760
 8140SOL    HW225320   4.701   0.910   0.711
 8141SOL     OW25321   5.010   1.207   5.333
 8141SOL    HW125322   5.009   1.139   5.406
 8141SOL    HW225323   4.917   1.242   5.320
 8142SOL     OW25324   2.076   5.444   0.621
 8142SOL    HW125325   2.036   5.357   0.592
 8142SOL    HW225326   2.025   5.479   0.700
 8143SOL     OW25327   5.593   4.494   0.729
 8143SOL    HW125328   5.524   4.552   0.773
 8143SOL    HW225329   5.572   4.484   0.632
 8144SOL     OW25330   6.915   4.805   6.147
 8144SOL    HW125331   7.012   4.825   6.155
 8144SOL    HW225332   6.886   4.749   6.225
 8145SOL     OW25333   4.860   5.665   6.885
 8145SOL    HW125334   4.859   5.765   6.880
 8145SOL    HW225335   4.861   5.627   6.793
 8146SOL     OW25336   6.002   0.297   4.534
 8146SOL    HW125337   6.038   0.370   4.475
 8146SOL    HW225338   5.977   0.337   4.623
 8147SOL     OW25339   1.687   0.847   5.996
 8147SOL    HW125340   1.593   0.877   6.012
 8147SOL    HW225341   1.748   0.891   6.063
 8148SOL     OW25342   3.670   4.998   0.308
 8148SOL    HW125343   3.711   5.039   0.226
 8148SOL    HW225344   3.643   4.904   0.287
 8149SOL     OW25345   0.963   5.926   4.643
 8149SOL    HW125346   0.870   5.958   4.624
 8149SOL    HW225347   0.962   5.826   4.652
 8150SOL     OW25348   0.958   2.971   0.531
 8150SOL    HW125349   0.955   2.970   0.431
 8150SOL    HW225350   0.866   2.955   0.567
 8151SOL     OW25351   6.467   4.786   3.534
 8151SOL    HW125352   6.459   4.687   3.535
 8151SOL    HW225353   6.389   4.827   3.581
 8152SOL     OW25354   4.501   1.790   3.214
 8152SOL    HW125355   4.548   1.763   3.130
 8152SOL    HW225356   4.568   1.807   3.286
 8153SOL     OW25357   0.141   2.228   3.744
 8153SOL    HW125358   0.131   2.311   3.799
 8153SOL    HW225359   0.114   2.149   3.799
 8154SOL     OW25360   1.950   1.447   3.622
 8154SOL    HW125361   1.905   1.448   3.712
 8154SOL    HW225362   2.011   1.368   3.617
 8155SOL     OW25363   1.501   5.250   2.401
 8155SOL    HW125364   1.578   5.208   2.448
 8155SOL    HW225365   1.416   5.204   2.427
 8156SOL     OW25366   6.344   5.332   1.323
 8156SOL    HW125367   6.302   5.277   1.395
 8156SOL    HW225368   6.430   5.372   1.357
 8157SOL     OW25369   6.732   2.638   5.902
 8157SOL    HW125370   6.740   2.631   6.001
 8157SOL    HW225371   6.724   2.734   5.875
 8158SOL     OW25372   5.404   4.876   6.339
 8158SOL    HW125373   5.488   4.822   6.333
 8158SOL    HW225374   5.417   4.952   6.403
 8159SOL     OW25375   3.046   5.895   5.170
 8159SOL    HW125376   3.036   5.923   5.266
 8159SOL    HW225377   3.111   5.818   5.165
 8160SOL     OW25378   5.056   1.260   3.436
 8160SOL    HW125379   5.096   1.349   3.458
 8160SOL    HW225380   4.998   1.230   3.512
 8161SOL     OW25381   5.814   3.048   0.906
 8161SOL    HW125382   5.882   3.055   0.979
 8161SOL    HW225383   5.738   2.990   0.936
 8162SOL     OW25384   0.079   4.802   6.432
 8162SOL    HW125385   0.047   4.788   6.526
 8162SOL    HW225386   0.079   4.714   6.384
 8163SOL     OW25387   4.635   4.623   5.099
 8163SOL    HW125388   4.711   4.630   5.164
 8163SOL    HW225389   4.627   4.708   5.048
 8164SOL     OW25390   5.447   0.995   0.150
 8164SOL    HW125391   5.544   0.974   0.162
 8164SOL    HW225392   5.403   0.920   0.100
 8165SOL     OW25393   6.873   1.693   6.679
 8165SOL    HW125394   6.816   1.677   6.759
 8165SOL    HW225395   6.874   1.611   6.621
 8166SOL     OW25396   1.669   2.052   4.816
 8166SOL    HW125397   1.663   1.973   4.877
 8166SOL    HW225398   1.679   2.136   4.870
 8167SOL     OW25399   0.211   2.585   4.374
 8167SOL    HW125400   0.141   2.648   4.342
 8167SOL    HW225401   0.295   2.597   4.321
 8168SOL     OW25402   2.549   0.771   1.829
 8168SOL    HW125403   2.645   0.798   1.842
 8168SOL    HW225404   2.515   0.810   1.743
 8169SOL     OW25405   5.462   2.950   1.178
 8169SOL    HW125406   5.535   2.946   1.247
 8169SOL    HW225407   5.408   3.033   1.192
 8170SOL     OW25408   6.444   4.993   2.449
 8170SOL    HW125409   6.528   5.021   2.495
 8170SOL    HW225410   6.464   4.971   2.353
 8171SOL     OW25411   1.786   0.992   0.595
 8171SOL    HW125412   1.691   1.004   0.622
 8171SOL    HW225413   1.821   1.078   0.557
 8172SOL     OW25414   0.759   3.028   1.833
 8172SOL    HW125415   0.846   2.982   1.853
 8172SOL    HW225416   0.700   3.024   1.914
 8173SOL     OW25417   5.363   1.164   1.587
 8173SOL    HW125418   5.399   1.257   1.592
 8173SOL    HW225419   5.330   1.145   1.494
 8174SOL     OW25420   2.811   5.210   2.425
 8174SOL    HW125421   2.728   5.232   2.374
 8174SOL    HW225422   2.791   5.138   2.491
 8175SOL     OW25423   0.557   1.675   4.758
 8175SOL    HW125424   0.573   1.596   4.699
 8175SOL    HW225425   0.533   1.754   4.701
 8176SOL     OW25426   2.020   4.424   0.928
 8176SOL    HW125427   1.938   4.389   0.882
 8176SOL    HW225428   2.100   4.374   0.895
 8177SOL     OW25429   3.799   1.209   2.890
 8177SOL    HW125430   3.779   1.239   2.797
 8177SOL    HW225431   3.898   1.212   2.906
 8178SOL     OW25432   2.027   6.463   0.870
 8178SOL    HW125433   2.125   6.441   0.874
 8178SOL    HW225434   2.015   6.552   0.826
 8179SOL     OW25435   5.357   1.094   3.428
 8179SOL    HW125436   5.334   1.149   3.508
 8179SOL    HW225437   5.380   1.001   3.456
 8180SOL     OW25438   4.781   6.465   0.170
 8180SOL    HW125439   4.773   6.503   0.078
 8180SOL    HW225440   4.877   6.446   0.190
 8181SOL     OW25441   0.548   0.746   0.942
 8181SOL    HW125442   0.576   0.743   0.846
 8181SOL    HW225443   0.629   0.742   1.000
 8182SOL     OW25444   2.868   3.532   4.642
 8182SOL    HW125445   2.827   3.576   4.722
 8182SOL    HW225446   2.940   3.590   4.605
 8183SOL     OW25447   6.804   0.197   5.190
 8183SOL    HW125448   6.738   0.264   5.157
 8183SOL    HW225449   6.774   0.105   5.165
 8184SOL     OW25450   0.860   6.134   6.647
 8184SOL    HW125451   0.830   6.159   6.739
 8184SOL    HW225452   0.838   6.208   6.583
 8185SOL     OW25453   0.724   6.932   0.020
 8185SOL    HW125454   0.695   0.001   0.051
 8185SOL    HW225455   0.788   6.942   6.964
 8186SOL     OW25456   1.385   5.303   6.908
 8186SOL    HW125457   1.428   5.263   6.828
 8186SOL    HW225458   1.418   5.255   6.990
 8187SOL     OW25459   1.128   0.782   6.212
 8187SOL    HW125460   1.126   0.687   6.240
 8187SOL    HW225461   1.076   0.793   6.127
 8188SOL     OW25462   2.589   1.922   3.651
 8188SOL    HW125463   2.639   1.875   3.579
 8188SOL    HW225464   2.646   1.995   3.689
 8189SOL     OW25465   4.987   4.645   3.876
 8189SOL    HW125466   4.975   4.681   3.783
 8189SOL    HW225467   5.080   4.662   3.907
 8190SOL     OW25468   6.335   3.714   3.288
 8190SOL    HW125469   6.262   3.654   3.255
 8190SOL    HW225470   6.402   3.660   3.339
 8191SOL     OW25471   4.142   5.083   1.690
 8191SOL    HW125472   4.218   5.095   1.627
 8191SOL    HW225473   4.057   5.074   1.638
 8192SOL     OW25474   1.237   5.098   3.883
 8192SOL    HW125475   1.275   5.007   3.895
 8192SOL    HW225476   1.311   5.166   3.885
 8193SOL     OW25477   0.675   3.830   5.075
 8193SOL    HW125478   0.674   3.734   5.049
 8193SOL    HW225479   0.669   3.838   5.174
 8194SOL     OW25480   4.727   6.544   1.899
 8194SOL    HW125481   4.714   6.501   1.809
 8194SOL    HW225482   4.649   6.524   1.957
 8195SOL     OW25483   5.490   6.507   3.317
 8195SOL    HW125484   5.464   6.573   3.387
 8195SOL    HW225485   5.589   6.495   3.319
 8196SOL     OW25486   4.493   6.851   6.920
 8196SOL    HW125487   4.477   6.942   6.958
 8196SOL    HW225488   4.430   6.834   6.844
 8197SOL     OW25489   4.974   1.923   1.957
 8197SOL    HW125490   5.011   1.840   1.999
 8197SOL    HW225491   4.942   1.984   2.029
 8198SOL     OW25492   1.998   0.352   2.460
 8198SOL    HW125493   1.951   0.353   2.548
 8198SOL    HW225494   1.966   0.273   2.407
 8199SOL     OW25495   5.223   2.780   5.741
 8199SOL    HW125496   5.312   2.735   5.752
 8199SOL    HW225497   5.235   2.865   5.689
 8200SOL     OW25498   4.276   3.124   1.363
 8200SOL    HW125499   4.203   3.144   1.428
 8200SOL    HW225500   4.364   3.142   1.406
 8201SOL     OW25501   0.134   6.991   5.541
 8201SOL    HW125502   0.229   6.968   5.563
 8201SOL    HW225503   0.133   0.047   5.475
 8202SOL     OW25504   0.575   6.098   2.231
 8202SOL    HW125505   0.527   6.166   2.287
 8202SOL    HW225506   0.569   6.008   2.275
 8203SOL     OW25507   1.332   3.181   0.838
 8203SOL    HW125508   1.265   3.113   0.866
 8203SOL    HW225509   1.424   3.143   0.846
 8204SOL     OW25510   4.068   3.166   1.543
 8204SOL    HW125511   4.103   3.101   1.610
 8204SOL    HW225512   4.049   3.253   1.588
 8205SOL     OW25513   1.083   3.422   0.800
 8205SOL    HW125514   1.093   3.365   0.718
 8205SOL    HW225515   1.162   3.409   0.860
 8206SOL     OW25516   4.057   1.196   6.756
 8206SOL    HW125517   4.146   1.172   6.795
 8206SOL    HW225518   4.042   1.295   6.764
 8207SOL     OW25519   3.811   3.202   4.602
 8207SOL    HW125520   3.803   3.281   4.664
 8207SOL    HW225521   3.893   3.213   4.546
 8208SOL     OW25522   1.672   1.188   0.213
 8208SOL    HW125523   1.700   1.241   0.134
 8208SOL    HW225524   1.748   1.184   0.279
 8209SOL     OW25525   6.509   0.649   5.546
 8209SOL    HW125526   6.431   0.592   5.572
 8209SOL    HW225527   6.591   0.593   5.544
 8210SOL     OW25528   1.975   3.015   0.543
 8210SOL    HW125529   1.967   2.932   0.599
 8210SOL    HW225530   1.980   2.990   0.447
 8211SOL     OW25531   2.914   4.321   0.928
 8211SOL    HW125532   2.958   4.270   1.003
 8211SOL    HW225533   2.817   4.330   0.947
 8212SOL     OW25534   1.743   2.382   3.488
 8212SOL    HW125535   1.796   2.310   3.444
 8212SOL    HW225536   1.659   2.399   3.435
 8213SOL     OW25537   0.451   4.572   1.624
 8213SOL    HW125538   0.449   4.613   1.715
 8213SOL    HW225539   0.543   4.535   1.606
 8214SOL     OW25540   5.821   4.314   3.061
 8214SOL    HW125541   5.872   4.235   3.027
 8214SOL    HW225542   5.773   4.358   2.985
 8215SOL     OW25543   3.603   4.960   5.066
 8215SOL    HW125544   3.599   4.952   4.966
 8215SOL    HW225545   3.629   5.053   5.091
 8216SOL     OW25546   4.870   4.638   4.145
 8216SOL    HW125547   4.907   4.648   4.052
 8216SOL    HW225548   4.817   4.554   4.150
 8217SOL     OW25549   2.199   6.011   0.608
 8217SOL    HW125550   2.122   5.996   0.546
 8217SOL    HW225551   2.282   6.024   0.555
 8218SOL     OW25552   0.386   1.481   0.287
 8218SOL    HW125553   0.360   1.384   0.287
 8218SOL    HW225554   0.309   1.537   0.317
 8219SOL     OW25555   5.643   2.027   6.101
 8219SOL    HW125556   5.667   2.051   6.007
 8219SOL    HW225557   5.549   1.993   6.104
 8220SOL     OW25558   3.654   3.649   2.365
 8220SOL    HW125559   3.603   3.667   2.449
 8220SOL    HW225560   3.749   3.678   2.376
 8221SOL     OW25561   5.714   5.957   3.540
 8221SOL    HW125562   5.718   5.996   3.632
 8221SOL    HW225563   5.624   5.917   3.524
 8222SOL     OW25564   5.953   1.233   1.723
 8222SOL    HW125565   5.875   1.296   1.714
 8222SOL    HW225566   6.007   1.235   1.639
 8223SOL     OW25567   0.723   4.347   6.268
 8223SOL    HW125568   0.739   4.402   6.350
 8223SOL    HW225569   0.672   4.401   6.201
 8224SOL     OW25570   0.996   2.971   2.777
 8224SOL    HW125571   0.915   3.018   2.812
 8224SOL    HW225572   1.056   3.037   2.732
 8225SOL     OW25573   5.080   1.642   6.487
 8225SOL    HW125574   5.110   1.712   6.551
 8225SOL    HW225575   5.047   1.562   6.538
 8226SOL     OW25576   5.051   0.353   1.167
 8226SOL    HW125577   5.124   0.401   1.118
 8226SOL    HW225578   5.004   0.417   1.228
 8227SOL     OW25579   6.311   2.953   3.196
 8227SOL    HW125580   6.285   3.036   3.246
 8227SOL    HW225581   6.258   2.946   3.112
 8228SOL     OW25582   6.970   2.589   5.024
 8228SOL    HW125583   6.971   2.540   4.936
 8228SOL    HW225584   6.952   2.686   5.007
 8229SOL     OW25585   3.281   5.567   6.996
 8229SOL    HW125586   3.232   5.482   6.975
 8229SOL    HW225587   3.362   5.546   0.030
 8230SOL     OW25588   4.839   0.289   4.844
 8230SOL    HW125589   4.921   0.335   4.808
 8230SOL    HW225590   4.836   0.195   4.808
 8231SOL     OW25591   5.508   5.045   0.853
 8231SOL    HW125592   5.473   5.061   0.760
 8231SOL    HW225593   5.454   4.972   0.895
 8232SOL     OW25594   4.050   1.435   6.887
 8232SOL    HW125595   4.138   1.434   6.934
 8232SOL    HW225596   3.982   1.386   6.942
 8233SOL     OW25597   1.015   5.473   6.045
 8233SOL    HW125598   0.971   5.538   6.106
 8233SOL    HW225599   0.985   5.380   6.067
 8234SOL     OW25600   3.186   2.245   6.672
 8234SOL    HW125601   3.182   2.146   6.658
 8234SOL    HW225602   3.093   2.281   6.673
 8235SOL     OW25603   3.974   3.772   1.130
 8235SOL    HW125604   4.004   3.677   1.115
 8235SOL    HW225605   3.897   3.772   1.194
 8236SOL     OW25606   6.560   2.611   0.321
 8236SOL    HW125607   6.653   2.594   0.354
 8236SOL    HW225608   6.547   2.709   0.306
 8237SOL     OW25609   4.127   5.625   5.397
 8237SOL    HW125610   4.176   5.577   5.470
 8237SOL    HW225611   4.055   5.682   5.436
 8238SOL     OW25612   2.522   3.639   6.822
 8238SOL    HW125613   2.462   3.572   6.865
 8238SOL    HW225614   2.565   3.599   6.742
 8239SOL     OW25615   6.831   1.767   5.532
 8239SOL    HW125616   6.787   1.836   5.590
 8239SOL    HW225617   6.837   1.801   5.438
 8240SOL     OW25618   3.218   4.117   2.561
 8240SOL    HW125619   3.313   4.130   2.588
 8240SOL    HW225620   3.197   4.174   2.481
 8241SOL     OW25621   3.388   6.915   0.485
 8241SOL    HW125622   3.351   6.828   0.452
 8241SOL    HW225623   3.487   6.918   0.467
 8242SOL     OW25624   0.649   4.487   5.891
 8242SOL    HW125625   0.565   4.476   5.943
 8242SOL    HW225626   0.722   4.434   5.935
 8243SOL     OW25627   0.492   2.786   5.984
 8243SOL    HW125628   0.558   2.724   5.941
 8243SOL    HW225629   0.465   2.749   6.073
 8244SOL     OW25630   0.896   6.732   3.726
 8244SOL    HW125631   0.843   6.734   3.642
 8244SOL    HW225632   0.988   6.766   3.708
 8245SOL     OW25633   4.673   1.938   0.981
 8245SOL    HW125634   4.676   2.037   0.968
 8245SOL    HW225635   4.755   1.908   1.029
 8246SOL     OW25636   5.719   3.919   6.177
 8246SOL    HW125637   5.644   3.985   6.176
 8246SOL    HW225638   5.717   3.865   6.092
 8247SOL     OW25639   0.797   0.448   1.289
 8247SOL    HW125640   0.733   0.417   1.219
 8247SOL    HW225641   0.885   0.402   1.277
 8248SOL     OW25642   5.851   4.272   3.585
 8248SOL    HW125643   5.769   4.325   3.607
 8248SOL    HW225644   5.859   4.195   3.649
 8249SOL     OW25645   1.828   4.502   4.454
 8249SOL    HW125646   1.793   4.512   4.547
 8249SOL    HW225647   1.909   4.444   4.455
 8250SOL     OW25648   3.423   4.136   3.141
 8250SOL    HW125649   3.414   4.131   3.042
 8250SOL    HW225650   3.461   4.225   3.166
 8251SOL     OW25651   5.332   1.928   4.884
 8251SOL    HW125652   5.360   2.022   4.864
 8251SOL    HW225653   5.408   1.877   4.923
 8252SOL     OW25654   2.752   2.774   5.663
 8252SOL    HW125655   2.751   2.683   5.704
 8252SOL    HW225656   2.680   2.831   5.703
 8253SOL     OW25657   3.242   2.760   5.198
 8253SOL    HW125658   3.248   2.674   5.248
 8253SOL    HW225659   3.309   2.759   5.123
 8254SOL     OW25660   4.137   4.858   4.369
 8254SOL    HW125661   4.167   4.811   4.452
 8254SOL    HW225662   4.152   4.799   4.289
 8255SOL     OW25663   4.250   5.651   3.959
 8255SOL    HW125664   4.209   5.722   3.903
 8255SOL    HW225665   4.340   5.681   3.992
 8256SOL     OW25666   5.104   1.200   4.089
 8256SOL    HW125667   5.052   1.161   4.165
 8256SOL    HW225668   5.099   1.300   4.092
 8257SOL     OW25669   5.478   4.576   3.348
 8257SOL    HW125670   5.524   4.641   3.410
 8257SOL    HW225671   5.542   4.503   3.323
 8258SOL     OW25672   4.772   1.301   0.531
 8258SOL    HW125673   4.841   1.254   0.586
 8258SOL    HW225674   4.703   1.236   0.500
 8259SOL     OW25675   3.256   1.800   3.513
 8259SOL    HW125676   3.207   1.840   3.590
 8259SOL    HW225677   3.261   1.868   3.439
 8260SOL     OW25678   2.916   6.707   2.162
 8260SOL    HW125679   2.971   6.769   2.105
 8260SOL    HW225680   2.950   6.614   2.151
 8261SOL     OW25681   5.622   1.111   1.234
 8261SOL    HW125682   5.699   1.145   1.180
 8261SOL    HW225683   5.562   1.187   1.258
 8262SOL     OW25684   1.126   2.423   1.501
 8262SOL    HW125685   1.036   2.450   1.466
 8262SOL    HW225686   1.162   2.495   1.560
 8263SOL     OW25687   6.916   1.390   1.466
 8263SOL    HW125688   6.906   1.482   1.429
 8263SOL    HW225689   6.991   1.343   1.419
 8264SOL     OW25690   1.294   5.939   2.308
 8264SOL    HW125691   1.307   5.877   2.231
 8264SOL    HW225692   1.362   6.013   2.304
 8265SOL     OW25693   1.447   0.604   1.533
 8265SOL    HW125694   1.367   0.554   1.500
 8265SOL    HW225695   1.522   0.595   1.466
 8266SOL     OW25696   2.472   6.714   2.925
 8266SOL    HW125697   2.414   6.792   2.901
 8266SOL    HW225698   2.555   6.746   2.970
 8267SOL     OW25699   1.667   3.485   0.998
 8267SOL    HW125700   1.736   3.557   0.991
 8267SOL    HW225701   1.712   3.395   0.992
 8268SOL     OW25702   2.470   0.061   6.320
 8268SOL    HW125703   2.415   0.050   6.402
 8268SOL    HW225704   2.504   6.992   6.291
 8269SOL     OW25705   5.534   1.830   1.071
 8269SOL    HW125706   5.586   1.829   1.156
 8269SOL    HW225707   5.443   1.867   1.088
 8270SOL     OW25708   3.544   6.522   3.852
 8270SOL    HW125709   3.487   6.453   3.807
 8270SOL    HW225710   3.492   6.565   3.926
 8271SOL     OW25711   6.780   1.759   2.894
 8271SOL    HW125712   6.819   1.822   2.827
 8271SOL    HW225713   6.817   1.781   2.985
 8272SOL     OW25714   4.778   0.376   2.003
 8272SOL    HW125715   4.792   0.435   1.924
 8272SOL    HW225716   4.849   0.305   2.004
 8273SOL     OW25717   1.975   0.307   1.284
 8273SOL    HW125718   2.040   0.264   1.222
 8273SOL    HW225719   1.983   0.266   1.375
 8274SOL     OW25720   4.176   5.028   3.346
 8274SOL    HW125721   4.125   4.974   3.279
 8274SOL    HW225722   4.243   5.086   3.299
 8275SOL     OW25723   4.940   2.200   6.053
 8275SOL    HW125724   4.875   2.131   6.084
 8275SOL    HW225725   4.939   2.205   5.953
 8276SOL     OW25726   1.003   2.077   4.194
 8276SOL    HW125727   0.958   2.011   4.253
 8276SOL    HW225728   1.089   2.106   4.236
 8277SOL     OW25729   6.799   0.514   6.538
 8277SOL    HW125730   6.703   0.538   6.525
 8277SOL    HW225731   6.813   0.417   6.514
 8278SOL     OW25732   2.635   2.110   0.168
 8278SOL    HW125733   2.720   2.057   0.178
 8278SOL    HW225734   2.589   2.116   0.257
 8279SOL     OW25735   0.650   6.124   4.049
 8279SOL    HW125736   0.665   6.083   4.139
 8279SOL    HW225737   0.734   6.119   3.996
 8280SOL     OW25738   3.164   2.557   6.616
 8280SOL    HW125739   3.249   2.509   6.596
 8280SOL    HW225740   3.155   2.568   6.715
 8281SOL     OW25741   1.012   5.512   1.757
 8281SOL    HW125742   1.012   5.592   1.818
 8281SOL    HW225743   1.005   5.429   1.812
 8282SOL     OW25744   5.148   3.044   6.329
 8282SOL    HW125745   5.165   3.022   6.425
 8282SOL    HW225746   5.233   3.073   6.285
 8283SOL     OW25747   1.031   4.611   5.776
 8283SOL    HW125748   1.072   4.634   5.864
 8283SOL    HW225749   1.028   4.692   5.717
 8284SOL     OW25750   0.589   4.053   1.947
 8284SOL    HW125751   0.674   4.075   1.901
 8284SOL    HW225752   0.514   4.049   1.881
 8285SOL     OW25753   3.914   3.790   5.116
 8285SOL    HW125754   3.954   3.698   5.119
 8285SOL    HW225755   3.921   3.832   5.207
 8286SOL     OW25756   6.509   2.482   5.601
 8286SOL    HW125757   6.599   2.525   5.612
 8286SOL    HW225758   6.469   2.467   5.692
 8287SOL     OW25759   1.333   5.449   4.387
 8287SOL    HW125760   1.398   5.403   4.327
 8287SOL    HW225761   1.257   5.484   4.333
 8288SOL     OW25762   2.569   2.469   2.931
 8288SOL    HW125763   2.624   2.386   2.943
 8288SOL    HW225764   2.571   2.497   2.835
 8289SOL     OW25765   0.909   0.453   0.274
 8289SOL    HW125766   0.950   0.398   0.347
 8289SOL    HW225767   0.943   0.547   0.280
 8290SOL     OW25768   6.415   1.692   0.456
 8290SOL    HW125769   6.376   1.775   0.495
 8290SOL    HW225770   6.434   1.626   0.528
 8291SOL     OW25771   4.263   0.318   6.535
 8291SOL    HW125772   4.352   0.313   6.489
 8291SOL    HW225773   4.193   0.346   6.470
 8292SOL     OW25774   2.699   6.588   0.533
 8292SOL    HW125775   2.671   6.615   0.625
 8292SOL    HW225776   2.757   6.659   0.493
 8293SOL     OW25777   4.351   6.795   5.911
 8293SOL    HW125778   4.394   6.736   5.979
 8293SOL    HW225779   4.269   6.750   5.876
 8294SOL     OW25780   6.104   2.549   6.553
 8294SOL    HW125781   6.162   2.476   6.588
 8294SOL    HW225782   6.161   2.626   6.525
 8295SOL     OW25783   5.610   4.812   1.883
 8295SOL    HW125784   5.561   4.801   1.796
 8295SOL    HW225785   5.625   4.909   1.901
 8296SOL     OW25786   1.428   6.242   6.533
 8296SOL    HW125787   1.436   6.324   6.590
 8296SOL    HW225788   1.347   6.191   6.559
 8297SOL     OW25789   6.479   2.412   3.239
 8297SOL    HW125790   6.472   2.460   3.152
 8297SOL    HW225791   6.538   2.332   3.227
 8298SOL     OW25792   4.770   1.577   1.661
 8298SOL    HW125793   4.738   1.592   1.755
 8298SOL    HW225794   4.869   1.589   1.657
 8299SOL     OW25795   0.137   2.951   1.901
 8299SOL    HW125796   0.120   3.038   1.853
 8299SOL    HW225797   0.235   2.929   1.894
 8300SOL     OW25798   0.929   4.512   5.067
 8300SOL    HW125799   0.972   4.449   5.132
 8300SOL    HW225800   0.911   4.599   5.112
 8301SOL     OW25801   4.341   2.297   1.143
 8301SOL    HW125802   4.387   2.210   1.159
 8301SOL    HW225803   4.395   2.353   1.080
 8302SOL     OW25804   6.116   6.674   6.376
 8302SOL    HW125805   6.210   6.679   6.343
 8302SOL    HW225806   6.093   6.759   6.424
 8303SOL     OW25807   0.385   0.220   4.568
 8303SOL    HW125808   0.444   0.277   4.625
 8303SOL    HW225809   0.431   0.134   4.548
 8304SOL     OW25810   0.534   3.887   6.361
 8304SOL    HW125811   0.504   3.793   6.349
 8304SOL    HW225812   0.464   3.949   6.326
 8305SOL     OW25813   3.018   5.203   3.813
 8305SOL    HW125814   3.072   5.119   3.807
 8305SOL    HW225815   2.921   5.182   3.796
 8306SOL     OW25816   0.758   2.586   5.571
 8306SOL    HW125817   0.751   2.579   5.670
 8306SOL    HW225818   0.851   2.564   5.543
 8307SOL     OW25819   3.654   5.105   0.985
 8307SOL    HW125820   3.740   5.151   1.008
 8307SOL    HW225821   3.583   5.174   0.969
 8308SOL     OW25822   4.241   6.614   1.807
 8308SOL    HW125823   4.305   6.671   1.859
 8308SOL    HW225824   4.178   6.673   1.756
 8309SOL     OW25825   6.017   5.936   2.941
 8309SOL    HW125826   6.063   5.954   2.855
 8309SOL    HW225827   5.918   5.930   2.926
 8310SOL     OW25828   0.882   4.399   0.692
 8310SOL    HW125829   0.868   4.430   0.786
 8310SOL    HW225830   0.802   4.422   0.637
 8311SOL     OW25831   6.957   0.902   6.515
 8311SOL    HW125832   6.990   0.846   6.591
 8311SOL    HW225833   6.980   0.998   6.531
 8312SOL     OW25834   4.886   6.528   1.506
 8312SOL    HW125835   4.809   6.494   1.561
 8312SOL    HW225836   4.968   6.475   1.527
 8313SOL     OW25837   3.918   1.571   2.978
 8313SOL    HW125838   3.974   1.488   2.988
 8313SOL    HW225839   3.954   1.627   2.904
 8314SOL     OW25840   5.564   6.583   0.987
 8314SOL    HW125841   5.601   6.492   1.003
 8314SOL    HW225842   5.486   6.577   0.924
 8315SOL     OW25843   4.713   2.917   1.046
 8315SOL    HW125844   4.758   2.929   0.957
 8315SOL    HW225845   4.618   2.949   1.039
 8316SOL     OW25846   0.678   4.157   0.888
 8316SOL    HW125847   0.674   4.250   0.925
 8316SOL    HW225848   0.774   4.129   0.880
 8317SOL     OW25849   1.874   3.675   2.844
 8317SOL    HW125850   1.847   3.582   2.867
 8317SOL    HW225851   1.884   3.684   2.745
 8318SOL     OW25852   4.309   1.623   4.982
 8318SOL    HW125853   4.390   1.566   4.994
 8318SOL    HW225854   4.247   1.579   4.916
 8319SOL     OW25855   3.382   1.247   5.368
 8319SOL    HW125856   3.420   1.326   5.319
 8319SOL    HW225857   3.289   1.230   5.335
 8320SOL     OW25858   3.372   4.718   1.229
 8320SOL    HW125859   3.329   4.759   1.148
 8320SOL    HW225860   3.334   4.627   1.244
 8321SOL     OW25861   0.482   1.248   0.041
 8321SOL    HW125862   0.520   1.162   0.008
 8321SOL    HW225863   0.424   1.231   0.121
 8322SOL     OW25864   6.785   0.230   6.820
 8322SOL    HW125865   6.741   0.222   6.730
 8322SOL    HW225866   6.883   0.241   6.808
 8323SOL     OW25867   1.046   0.595   2.499
 8323SOL    HW125868   0.957   0.572   2.461
 8323SOL    HW225869   1.037   0.670   2.564
 8324SOL     OW25870   6.343   0.649   2.402
 8324SOL    HW125871   6.345   0.701   2.316
 8324SOL    HW225872   6.255   0.662   2.447
 8325SOL     OW25873   4.077   3.267   4.245
 8325SOL    HW125874   3.989   3.313   4.229
 8325SOL    HW225875   4.112   3.231   4.158
 8326SOL     OW25876   4.599   3.373   5.548
 8326SOL    HW125877   4.583   3.389   5.646
 8326SOL    HW225878   4.534   3.426   5.494
 8327SOL     OW25879   5.396   2.300   5.815
 8327SOL    HW125880   5.342   2.334   5.892
 8327SOL    HW225881   5.375   2.354   5.734
 8328SOL     OW25882   2.203   4.020   6.235
 8328SOL    HW125883   2.129   3.959   6.263
 8328SOL    HW225884   2.239   3.990   6.147
 8329SOL     OW25885   0.305   3.047   5.158
 8329SOL    HW125886   0.359   3.107   5.100
 8329SOL    HW225887   0.257   2.980   5.101
 8330SOL     OW25888   1.711   6.501   0.962
 8330SOL    HW125889   1.801   6.479   0.999
 8330SOL    HW225890   1.705   6.467   0.868
 8331SOL     OW25891   3.505   0.094   1.266
 8331SOL    HW125892   3.418   0.094   1.217
 8331SOL    HW225893   3.562   0.169   1.234
 8332SOL     OW25894   4.821   4.914   1.760
 8332SOL    HW125895   4.775   4.829   1.784
 8332SOL    HW225896   4.836   4.968   1.843
 8333SOL     OW25897   0.383   5.879   6.735
 8333SOL    HW125898   0.427   5.796   6.769
 8333SOL    HW225899   0.318   5.856   6.663
 8334SOL     OW25900   5.583   1.450   3.916
 8334SOL    HW125901   5.540   1.363   3.895
 8334SOL    HW225902   5.513   1.521   3.924
 8335SOL     OW25903   6.214   5.844   5.823
 8335SOL    HW125904   6.224   5.889   5.734
 8335SOL    HW225905   6.126   5.869   5.862
 8336SOL     OW25906   0.024   1.553   2.587
 8336SOL    HW125907   6.945   1.563   2.592
 8336SOL    HW225908   0.063   1.552   2.679
 8337SOL     OW25909   0.743   6.357   3.463
 8337SOL    HW125910   0.763   6.327   3.370
 8337SOL    HW225911   0.655   6.321   3.491
 8338SOL     OW25912   1.913   4.807   1.437
 8338SOL    HW125913   1.834   4.868   1.436
 8338SOL    HW225914   1.884   4.715   1.459
 8339SOL     OW25915   6.137   0.948   2.501
 8339SOL    HW125916   6.057   0.897   2.469
 8339SOL    HW225917   6.118   1.046   2.498
 8340SOL     OW25918   4.875   3.739   0.907
 8340SOL    HW125919   4.844   3.683   0.984
 8340SOL    HW225920   4.844   3.697   0.822
 8341SOL     OW25921   1.933   6.895   0.304
 8341SOL    HW125922   1.932   6.891   0.404
 8341SOL    HW225923   1.846   6.935   0.272
 8342SOL     OW25924   3.671   0.720   0.910
 8342SOL    HW125925   3.688   0.795   0.972
 8342SOL    HW225926   3.748   0.711   0.846
 8343SOL     OW25927   1.692   5.380   6.089
 8343SOL    HW125928   1.724   5.389   6.184
 8343SOL    HW225929   1.593   5.369   6.089
 8344SOL     OW25930   4.239   6.170   6.130
 8344SOL    HW125931   4.218   6.250   6.185
 8344SOL    HW225932   4.327   6.132   6.158
 8345SOL     OW25933   5.774   1.857   3.327
 8345SOL    HW125934   5.844   1.795   3.363
 8345SOL    HW225935   5.815   1.945   3.304
 8346SOL     OW25936   2.478   4.906   0.414
 8346SOL    HW125937   2.556   4.948   0.367
 8346SOL    HW225938   2.493   4.807   0.422
 8347SOL     OW25939   2.756   6.483   5.157
 8347SOL    HW125940   2.685   6.542   5.118
 8347SOL    HW225941   2.756   6.492   5.256
 8348SOL     OW25942   1.056   0.762   1.162
 8348SOL    HW125943   1.045   0.682   1.221
 8348SOL    HW225944   1.131   0.746   1.098
 8349SOL     OW25945   5.780   3.767   0.779
 8349SOL    HW125946   5.818   3.859   0.781
 8349SOL    HW225947   5.681   3.772   0.762
 8350SOL     OW25948   6.158   0.975   4.763
 8350SOL    HW125949   6.096   0.901   4.791
 8350SOL    HW225950   6.181   0.963   4.666
 8351SOL     OW25951   3.554   5.951   4.251
 8351SOL    HW125952   3.527   6.010   4.327
 8351SOL    HW225953   3.473   5.911   4.209
 8352SOL     OW25954   6.628   0.067   1.866
 8352SOL    HW125955   6.538   0.064   1.911
 8352SOL    HW225956   6.628   0.003   1.789
 8353SOL     OW25957   5.944   3.430   2.354
 8353SOL    HW125958   5.910   3.450   2.262
 8353SOL    HW225959   5.980   3.336   2.356
 8354SOL     OW25960   3.114   1.608   6.635
 8354SOL    HW125961   3.125   1.621   6.734
 8354SOL    HW225962   3.028   1.560   6.617
 8355SOL     OW25963   3.085   0.518   0.157
 8355SOL    HW125964   3.054   0.601   0.110
 8355SOL    HW225965   3.049   0.518   0.250
 8356SOL     OW25966   1.143   6.248   0.352
 8356SOL    HW125967   1.082   6.323   0.377
 8356SOL    HW225968   1.236   6.268   0.383
 8357SOL     OW25969   3.280   5.204   4.852
 8357SOL    HW125970   3.340   5.123   4.849
 8357SOL    HW225971   3.336   5.287   4.845
 8358SOL     OW25972   1.696   2.328   5.572
 8358SOL    HW125973   1.606   2.287   5.561
 8358SOL    HW225974   1.699   2.380   5.657
 8359SOL     OW25975   4.026   5.620   4.582
 8359SOL    HW125976   3.934   5.628   4.545
 8359SOL    HW225977   4.069   5.710   4.584
 8360SOL     OW25978   4.098   6.941   2.888
 8360SOL    HW125979   4.194   6.918   2.909
 8360SOL    HW225980   4.060   6.871   2.828
 8361SOL     OW25981   1.723   1.691   2.440
 8361SOL    HW125982   1.755   1.755   2.510
 8361SOL    HW225983   1.714   1.740   2.353
 8362SOL     OW25984   2.513   2.847   0.622
 8362SOL    HW125985   2.460   2.822   0.702
 8362SOL    HW225986   2.611   2.833   0.640
 8363SOL     OW25987   1.176   2.815   0.656
 8363SOL    HW125988   1.125   2.754   0.717
 8363SOL    HW225989   1.112   2.871   0.603
 8364SOL     OW25990   6.418   3.644   2.874
 8364SOL    HW125991   6.330   3.599   2.886
 8364SOL    HW225992   6.407   3.743   2.879
 8365SOL     OW25993   1.951   3.629   0.701
 8365SOL    HW125994   1.917   3.546   0.657
 8365SOL    HW225995   2.029   3.664   0.650
 8366SOL     OW25996   4.716   6.084   2.539
 8366SOL    HW125997   4.782   6.076   2.614
 8366SOL    HW225998   4.725   6.173   2.496
 8367SOL     OW25999   4.412   6.132   3.578
 8367SOL    HW126000   4.503   6.116   3.616
 8367SOL    HW226001   4.405   6.086   3.489
 8368SOL     OW26002   2.901   5.648   6.024
 8368SOL    HW126003   2.893   5.687   6.116
 8368SOL    HW226004   2.927   5.719   5.959
 8369SOL     OW26005   2.149   0.620   0.196
 8369SOL    HW126006   2.163   0.580   0.287
 8369SOL    HW226007   2.198   0.707   0.190
 8370SOL     OW26008   2.032   2.164   6.172
 8370SOL    HW126009   1.996   2.165   6.265
 8370SOL    HW226010   1.957   2.161   6.107
 8371SOL     OW26011   1.383   3.149   0.488
 8371SOL    HW126012   1.454   3.199   0.538
 8371SOL    HW226013   1.415   3.056   0.469
 8372SOL     OW26014   0.301   0.204   2.791
 8372SOL    HW126015   0.356   0.121   2.793
 8372SOL    HW226016   0.204   0.180   2.797
 8373SOL     OW26017   1.187   6.554   5.521
 8373SOL    HW126018   1.126   6.617   5.472
 8373SOL    HW226019   1.255   6.607   5.571
 8374SOL     OW26020   6.440   0.948   0.076
 8374SOL    HW126021   6.402   0.864   0.037
 8374SOL    HW226022   6.532   0.964   0.038
 8375SOL     OW26023   3.386   5.717   5.816
 8375SOL    HW126024   3.424   5.633   5.856
 8375SOL    HW226025   3.363   5.701   5.720
 8376SOL     OW26026   2.655   0.407   4.047
 8376SOL    HW126027   2.684   0.458   3.967
 8376SOL    HW226028   2.558   0.425   4.064
 8377SOL     OW26029   5.965   5.964   1.000
 8377SOL    HW126030   5.908   6.029   0.950
 8377SOL    HW226031   5.947   5.871   0.968
 8378SOL     OW26032   5.216   3.305   3.199
 8378SOL    HW126033   5.246   3.401   3.200
 8378SOL    HW226034   5.267   3.255   3.130
 8379SOL     OW26035   6.185   4.037   2.157
 8379SOL    HW126036   6.246   3.959   2.143
 8379SOL    HW226037   6.238   4.117   2.183
 8380SOL     OW26038   5.848   1.301   2.437
 8380SOL    HW126039   5.810   1.331   2.350
 8380SOL    HW226040   5.843   1.375   2.503
 8381SOL     OW26041   1.134   5.173   4.805
 8381SOL    HW126042   1.129   5.262   4.760
 8381SOL    HW226043   1.189   5.111   4.750
 8382SOL     OW26044   1.401   1.949   2.694
 8382SOL    HW126045   1.400   2.039   2.736
 8382SOL    HW226046   1.415   1.879   2.764
 8383SOL     OW26047   2.936   2.368   6.696
 8383SOL    HW126048   2.857   2.401   6.643
 8383SOL    HW226049   2.944   2.423   6.779
 8384SOL     OW26050   6.795   6.273   0.995
 8384SOL    HW126051   6.770   6.370   0.995
 8384SOL    HW226052   6.805   6.241   0.901
 8385SOL     OW26053   4.914   2.071   2.200
 8385SOL    HW126054   5.003   2.070   2.244
 8385SOL    HW226055   4.845   2.038   2.265
 8386SOL     OW26056   0.950   4.268   2.865
 8386SOL    HW126057   0.904   4.325   2.933
 8386SOL    HW226058   0.912   4.176   2.867
 8387SOL     OW26059   1.814   1.270   1.065
 8387SOL    HW126060   1.745   1.332   1.028
 8387SOL    HW226061   1.838   1.298   1.158
 8388SOL     OW26062   3.010   6.135   1.606
 8388SOL    HW126063   2.997   6.107   1.701
 8388SOL    HW226064   2.927   6.116   1.554
 8389SOL     OW26065   5.422   2.795   1.949
 8389SOL    HW126066   5.410   2.852   1.868
 8389SOL    HW226067   5.426   2.853   2.031
 8390SOL     OW26068   4.109   2.175   5.624
 8390SOL    HW126069   4.139   2.179   5.528
 8390SOL    HW226070   4.047   2.098   5.636
 8391SOL     OW26071   6.118   0.048   0.452
 8391SOL    HW126072   6.071   0.026   0.367
 8391SOL    HW226073   6.051   0.067   0.524
 8392SOL     OW26074   5.975   3.511   4.632
 8392SOL    HW126075   5.909   3.436   4.625
 8392SOL    HW226076   5.945   3.588   4.575
 8393SOL     OW26077   4.961   0.156   1.978
 8393SOL    HW126078   4.955   0.069   2.027
 8393SOL    HW226079   5.052   0.195   1.991
 8394SOL     OW26080   6.068   3.797   2.587
 8394SOL    HW126081   6.140   3.730   2.570
 8394SOL    HW226082   6.093   3.885   2.546
 8395SOL     OW26083   2.117   0.498   5.209
 8395SOL    HW126084   2.114   0.401   5.236
 8395SOL    HW226085   2.026   0.538   5.218
 8396SOL     OW26086   4.560   5.844   4.821
 8396SOL    HW126087   4.639   5.857   4.760
 8396SOL    HW226088   4.483   5.808   4.768
 8397SOL     OW26089   6.729   1.433   3.706
 8397SOL    HW126090   6.745   1.374   3.627
 8397SOL    HW226091   6.799   1.505   3.709
 8398SOL     OW26092   5.206   1.962   5.617
 8398SOL    HW126093   5.179   2.059   5.623
 8398SOL    HW226094   5.129   1.909   5.583
 8399SOL     OW26095   0.000   5.766   6.668
 8399SOL    HW126096   0.089   5.798   6.636
 8399SOL    HW226097   6.949   5.830   6.640
 8400SOL     OW26098   1.913   2.099   4.298
 8400SOL    HW126099   1.964   2.085   4.383
 8400SOL    HW226100   1.823   2.136   4.318
 8401SOL     OW26101   2.491   0.285   5.483
 8401SOL    HW126102   2.397   0.274   5.449
 8401SOL    HW226103   2.523   0.377   5.462
 8402SOL     OW26104   4.666   0.895   5.771
 8402SOL    HW126105   4.705   0.965   5.830
 8402SOL    HW226106   4.589   0.851   5.817
 8403SOL     OW26107   6.242   4.302   4.088
 8403SOL    HW126108   6.180   4.373   4.121
 8403SOL    HW226109   6.208   4.212   4.116
 8404SOL     OW26110   2.348   1.775   6.503
 8404SOL    HW126111   2.391   1.841   6.565
 8404SOL    HW226112   2.264   1.815   6.464
 8405SOL     OW26113   3.718   1.570   5.420
 8405SOL    HW126114   3.741   1.596   5.514
 8405SOL    HW226115   3.738   1.646   5.358
 8406SOL     OW26116   4.839   0.950   6.262
 8406SOL    HW126117   4.788   0.884   6.317
 8406SOL    HW226118   4.775   1.015   6.219
 8407SOL     OW26119   3.548   6.354   3.526
 8407SOL    HW126120   3.581   6.282   3.588
 8407SOL    HW226121   3.536   6.439   3.577
 8408SOL     OW26122   5.009   0.007   0.705
 8408SOL    HW126123   5.032   0.070   0.631
 8408SOL    HW226124   4.942   6.961   0.673
 8409SOL     OW26125   4.267   2.393   1.930
 8409SOL    HW126126   4.362   2.381   1.960
 8409SOL    HW226127   4.213   2.433   2.004
 8410SOL     OW26128   6.888   1.748   1.740
 8410SOL    HW126129   6.970   1.737   1.683
 8410SOL    HW226130   6.883   1.673   1.806
 8411SOL     OW26131   0.401   6.085   0.927
 8411SOL    HW126132   0.357   6.116   0.843
 8411SOL    HW226133   0.430   6.164   0.981
 8412SOL     OW26134   3.027   3.459   0.705
 8412SOL    HW126135   2.984   3.484   0.791
 8412SOL    HW226136   3.057   3.542   0.657
 8413SOL     OW26137   4.095   5.467   5.638
 8413SOL    HW126138   4.140   5.378   5.645
 8413SOL    HW226139   4.000   5.455   5.610
 8414SOL     OW26140   1.719   0.905   2.346
 8414SOL    HW126141   1.761   0.827   2.299
 8414SOL    HW226142   1.621   0.890   2.355
 8415SOL     OW26143   2.633   0.111   4.269
 8415SOL    HW126144   2.687   0.072   4.343
 8415SOL    HW226145   2.636   0.210   4.273
 8416SOL     OW26146   6.227   1.833   4.437
 8416SOL    HW126147   6.240   1.766   4.364
 8416SOL    HW226148   6.270   1.919   4.412
 8417SOL     OW26149   1.149   3.131   5.123
 8417SOL    HW126150   1.086   3.070   5.077
 8417SOL    HW226151   1.238   3.128   5.078
 8418SOL     OW26152   0.846   5.765   2.248
 8418SOL    HW126153   0.936   5.723   2.237
 8418SOL    HW226154   0.777   5.693   2.262
 8419SOL     OW26155   5.048   0.642   2.978
 8419SOL    HW126156   5.135   0.690   2.996
 8419SOL    HW226157   5.068   0.551   2.942
 8420SOL     OW26158   3.216   6.618   2.318
 8420SOL    HW126159   3.178   6.613   2.410
 8420SOL    HW226160   3.258   6.708   2.304
 8421SOL     OW26161   3.951   6.261   5.729
 8421SOL    HW126162   3.862   6.227   5.698
 8421SOL    HW226163   3.992   6.319   5.658
 8422SOL     OW26164   4.609   2.584   2.524
 8422SOL    HW126165   4.608   2.585   2.424
 8422SOL    HW226166   4.526   2.540   2.557
 8423SOL     OW26167   5.301   4.315   5.946
 8423SOL    HW126168   5.209   4.307   5.985
 8423SOL    HW226169   5.361   4.361   6.010
 8424SOL     OW26170   2.082   0.381   3.440
 8424SOL    HW126171   2.122   0.459   3.392
 8424SOL    HW226172   2.050   0.409   3.530
 8425SOL     OW26173   3.099   3.331   3.451
 8425SOL    HW126174   3.059   3.378   3.530
 8425SOL    HW226175   3.177   3.383   3.418
 8426SOL     OW26176   3.691   2.857   2.408
 8426SOL    HW126177   3.737   2.904   2.483
 8426SOL    HW226178   3.749   2.783   2.374
 8427SOL     OW26179   3.087   3.104   3.321
 8427SOL    HW126180   3.090   3.199   3.352
 8427SOL    HW226181   3.160   3.052   3.367
 8428SOL     OW26182   6.958   0.547   0.806
 8428SOL    HW126183   6.878   0.533   0.865
 8428SOL    HW226184   6.928   0.592   0.721
 8429SOL     OW26185   1.977   5.649   6.289
 8429SOL    HW126186   2.069   5.688   6.279
 8429SOL    HW226187   1.922   5.710   6.346
 8430SOL     OW26188   4.578   6.020   4.186
 8430SOL    HW126189   4.610   6.086   4.253
 8430SOL    HW226190   4.567   5.930   4.230
 8431SOL     OW26191   2.555   2.725   6.380
 8431SOL    HW126192   2.634   2.690   6.329
 8431SOL    HW226193   2.477   2.733   6.319
 8432SOL     OW26194   6.781   5.545   5.968
 8432SOL    HW126195   6.754   5.532   6.064
 8432SOL    HW226196   6.784   5.643   5.948
 8433SOL     OW26197   4.498   2.058   1.172
 8433SOL    HW126198   4.419   1.997   1.175
 8433SOL    HW226199   4.561   2.027   1.101
 8434SOL     OW26200   2.033   5.666   4.962
 8434SOL    HW126201   2.072   5.753   4.992
 8434SOL    HW226202   1.933   5.673   4.961
 8435SOL     OW26203   4.986   0.482   2.609
 8435SOL    HW126204   4.905   0.541   2.600
 8435SOL    HW226205   5.065   0.538   2.635
 8436SOL     OW26206   2.421   6.603   3.681
 8436SOL    HW126207   2.492   6.670   3.699
 8436SOL    HW226208   2.331   6.647   3.682
 8437SOL     OW26209   2.208   2.972   2.526
 8437SOL    HW126210   2.189   3.056   2.476
 8437SOL    HW226211   2.211   2.990   2.624
 8438SOL     OW26212   1.522   4.168   3.345
 8438SOL    HW126213   1.543   4.099   3.414
 8438SOL    HW226214   1.558   4.139   3.256
 8439SOL     OW26215   5.845   5.175   3.240
 8439SOL    HW126216   5.800   5.264   3.229
 8439SOL    HW226217   5.939   5.181   3.206
 8440SOL     OW26218   2.180   1.601   3.548
 8440SOL    HW126219   2.106   1.552   3.594
 8440SOL    HW226220   2.253   1.537   3.524
 8441SOL     OW26221   5.372   6.468   5.621
 8441SOL    HW126222   5.462   6.438   5.652
 8441SOL    HW226223   5.348   6.419   5.538
 8442SOL     OW26224   3.778   0.629   4.782
 8442SOL    HW126225   3.749   0.724   4.768
 8442SOL    HW226226   3.878   0.625   4.784
 8443SOL     OW26227   1.348   4.930   3.462
 8443SOL    HW126228   1.443   4.918   3.492
 8443SOL    HW226229   1.290   4.863   3.509
 8444SOL     OW26230   4.112   5.901   3.321
 8444SOL    HW126231   4.159   5.836   3.261
 8444SOL    HW226232   4.013   5.887   3.313
 8445SOL     OW26233   3.608   0.093   6.696
 8445SOL    HW126234   3.578   0.067   6.788
 8445SOL    HW226235   3.700   0.057   6.680
 8446SOL     OW26236   0.351   6.256   5.659
 8446SOL    HW126237   0.402   6.183   5.614
 8446SOL    HW226238   0.383   6.267   5.753
 8447SOL     OW26239   4.032   1.380   2.581
 8447SOL    HW126240   4.122   1.420   2.561
 8447SOL    HW226241   4.002   1.326   2.502
 8448SOL     OW26242   4.796   6.544   3.023
 8448SOL    HW126243   4.716   6.577   3.074
 8448SOL    HW226244   4.879   6.577   3.067
 8449SOL     OW26245   1.815   2.675   3.403
 8449SOL    HW126246   1.906   2.702   3.374
 8449SOL    HW226247   1.818   2.639   3.496
 8450SOL     OW26248   6.407   0.689   6.978
 8450SOL    HW126249   6.469   0.610   6.975
 8450SOL    HW226250   6.344   0.678   0.034
 8451SOL     OW26251   4.348   1.968   1.446
 8451SOL    HW126252   4.297   1.975   1.360
 8451SOL    HW226253   4.444   1.946   1.426
 8452SOL     OW26254   5.118   1.865   4.742
 8452SOL    HW126255   5.203   1.889   4.788
 8452SOL    HW226256   5.040   1.890   4.800
 8453SOL     OW26257   1.094   6.001   6.862
 8453SOL    HW126258   1.088   5.922   6.923
 8453SOL    HW226259   1.003   6.023   6.826
 8454SOL     OW26260   0.553   4.522   6.838
 8454SOL    HW126261   0.458   4.512   6.807
 8454SOL    HW226262   0.609   4.450   6.796
 8455SOL     OW26263   0.969   0.813   2.638
 8455SOL    HW126264   0.938   0.879   2.569
 8455SOL    HW226265   0.902   0.808   2.712
 8456SOL     OW26266   5.062   1.039   2.934
 8456SOL    HW126267   5.063   1.138   2.932
 8456SOL    HW226268   5.072   1.007   3.028
 8457SOL     OW26269   5.897   6.381   4.820
 8457SOL    HW126270   5.840   6.410   4.897
 8457SOL    HW226271   5.991   6.367   4.851
 8458SOL     OW26272   0.074   0.313   6.810
 8458SOL    HW126273   0.031   0.319   6.900
 8458SOL    HW226274   0.140   0.388   6.800
 8459SOL     OW26275   1.564   5.823   3.480
 8459SOL    HW126276   1.539   5.738   3.433
 8459SOL    HW226277   1.541   5.901   3.422
 8460SOL     OW26278   3.307   4.153   5.048
 8460SOL    HW126279   3.242   4.105   4.990
 8460SOL    HW226280   3.398   4.151   5.006
 8461SOL     OW26281   0.091   2.738   4.711
 8461SOL    HW126282   0.015   2.695   4.663
 8461SOL    HW226283   0.155   2.668   4.743
 8462SOL     OW26284   2.476   1.781   1.725
 8462SOL    HW126285   2.460   1.827   1.812
 8462SOL    HW226286   2.515   1.845   1.659
 8463SOL     OW26287   5.908   0.825   2.375
 8463SOL    HW126288   5.825   0.769   2.372
 8463SOL    HW226289   5.923   0.866   2.285
 8464SOL     OW26290   5.845   3.060   4.419
 8464SOL    HW126291   5.783   3.071   4.497
 8464SOL    HW226292   5.892   3.147   4.402
 8465SOL     OW26293   1.681   1.822   0.675
 8465SOL    HW126294   1.743   1.783   0.607
 8465SOL    HW226295   1.729   1.834   0.761
 8466SOL     OW26296   0.854   5.795   3.344
 8466SOL    HW126297   0.944   5.784   3.385
 8466SOL    HW226298   0.800   5.712   3.360
 8467SOL     OW26299   2.963   5.489   1.062
 8467SOL    HW126300   2.881   5.434   1.080
 8467SOL    HW226301   3.033   5.431   1.020
 8468SOL     OW26302   4.573   2.082   6.793
 8468SOL    HW126303   4.525   2.026   6.725
 8468SOL    HW226304   4.586   2.028   6.876
 8469SOL     OW26305   3.225   2.880   6.655
 8469SOL    HW126306   3.302   2.899   6.716
 8469SOL    HW226307   3.255   2.820   6.581
 8470SOL     OW26308   2.863   3.291   6.987
 8470SOL    HW126309   2.860   3.283   0.066
 8470SOL    HW226310   2.783   3.245   6.947
 8471SOL     OW26311   3.202   0.900   3.817
 8471SOL    HW126312   3.123   0.955   3.791
 8471SOL    HW226313   3.211   0.900   3.917
 8472SOL     OW26314   0.838   6.875   4.241
 8472SOL    HW126315   0.840   6.939   4.318
 8472SOL    HW226316   0.895   6.796   4.262
 8473SOL     OW26317   6.486   5.180   6.685
 8473SOL    HW126318   6.543   5.101   6.705
 8473SOL    HW226319   6.526   5.261   6.728
 8474SOL     OW26320   3.227   3.369   1.444
 8474SOL    HW126321   3.278   3.305   1.502
 8474SOL    HW226322   3.242   3.347   1.348
 8475SOL     OW26323   6.143   1.792   2.411
 8475SOL    HW126324   6.185   1.879   2.439
 8475SOL    HW226325   6.177   1.718   2.468
 8476SOL     OW26326   4.599   1.092   1.794
 8476SOL    HW126327   4.689   1.053   1.814
 8476SOL    HW226328   4.586   1.175   1.850
 8477SOL     OW26329   2.779   0.425   1.098
 8477SOL    HW126330   2.697   0.371   1.118
 8477SOL    HW226331   2.850   0.365   1.061
 8478SOL     OW26332   1.140   0.903   5.723
 8478SOL    HW126333   1.079   0.967   5.771
 8478SOL    HW226334   1.194   0.852   5.790
 8479SOL     OW26335   5.978   1.192   0.679
 8479SOL    HW126336   5.947   1.098   0.667
 8479SOL    HW226337   5.920   1.254   0.625
 8480SOL     OW26338   3.405   0.784   1.528
 8480SOL    HW126339   3.409   0.787   1.628
 8480SOL    HW226340   3.490   0.745   1.493
 8481SOL     OW26341   3.490   1.559   4.382
 8481SOL    HW126342   3.452   1.648   4.357
 8481SOL    HW226343   3.543   1.569   4.467
 8482SOL     OW26344   1.506   0.058   1.951
 8482SOL    HW126345   1.602   0.066   1.927
 8482SOL    HW226346   1.487   0.112   2.033
 8483SOL     OW26347   3.577   5.913   1.423
 8483SOL    HW126348   3.540   5.893   1.514
 8483SOL    HW226349   3.647   5.846   1.399
 8484SOL     OW26350   0.716   4.885   4.789
 8484SOL    HW126351   0.646   4.829   4.833
 8484SOL    HW226352   0.683   4.979   4.781
 8485SOL     OW26353   2.079   4.102   6.949
 8485SOL    HW126354   2.004   4.051   6.909
 8485SOL    HW226355   2.059   4.122   0.025
 8486SOL     OW26356   5.754   0.755   1.979
 8486SOL    HW126357   5.667   0.740   2.025
 8486SOL    HW226358   5.738   0.789   1.887
 8487SOL     OW26359   5.424   0.540   1.681
 8487SOL    HW126360   5.335   0.499   1.663
 8487SOL    HW226361   5.427   0.632   1.644
 8488SOL     OW26362   4.926   3.841   4.091
 8488SOL    HW126363   4.897   3.907   4.160
 8488SOL    HW226364   4.906   3.748   4.123
 8489SOL     OW26365   5.223   4.625   1.324
 8489SOL    HW126366   5.272   4.590   1.244
 8489SOL    HW226367   5.253   4.719   1.342
 8490SOL     OW26368   4.351   5.169   3.178
 8490SOL    HW126369   4.299   5.103   3.124
 8490SOL    HW226370   4.397   5.233   3.117
 8491SOL     OW26371   2.235   0.485   2.017
 8491SOL    HW126372   2.137   0.467   2.014
 8491SOL    HW226373   2.251   0.584   2.023
 8492SOL     OW26374   6.531   2.574   5.335
 8492SOL    HW126375   6.506   2.521   5.254
 8492SOL    HW226376   6.537   2.514   5.414
 8493SOL     OW26377   4.404   1.722   6.674
 8493SOL    HW126378   4.382   1.691   6.767
 8493SOL    HW226379   4.414   1.643   6.614
 8494SOL     OW26380   2.896   5.641   6.914
 8494SOL    HW126381   2.897   5.741   6.922
 8494SOL    HW226382   2.918   5.615   6.820
 8495SOL     OW26383   6.922   2.371   0.824
 8495SOL    HW126384   6.884   2.280   0.806
 8495SOL    HW226385   6.848   2.434   0.850
 8496SOL     OW26386   0.039   2.267   3.489
 8496SOL    HW126387   6.966   2.273   3.524
 8496SOL    HW226388   0.096   2.218   3.555
 8497SOL     OW26389   6.320   5.048   3.540
 8497SOL    HW126390   6.417   5.062   3.560
 8497SOL    HW226391   6.308   5.032   3.442
 8498SOL     OW26392   0.155   0.473   1.285
 8498SOL    HW126393   0.159   0.455   1.383
 8498SOL    HW226394   0.214   0.550   1.263
 8499SOL     OW26395   3.115   4.295   6.304
 8499SOL    HW126396   3.134   4.366   6.372
 8499SOL    HW226397   3.192   4.231   6.301
 8500SOL     OW26398   2.713   6.724   6.192
 8500SOL    HW126399   2.812   6.726   6.185
 8500SOL    HW226400   2.673   6.698   6.104
 8501SOL     OW26401   1.900   3.107   6.704
 8501SOL    HW126402   2.000   3.116   6.706
 8501SOL    HW226403   1.874   3.045   6.631
 8502SOL     OW26404   6.472   6.679   1.962
 8502SOL    HW126405   6.403   6.681   2.034
 8502SOL    HW226406   6.560   6.710   1.998
 8503SOL     OW26407   2.656   4.739   3.270
 8503SOL    HW126408   2.605   4.655   3.290
 8503SOL    HW226409   2.689   4.736   3.176
 8504SOL     OW26410   1.389   5.346   3.391
 8504SOL    HW126411   1.309   5.309   3.344
 8504SOL    HW226412   1.415   5.286   3.467
 8505SOL     OW26413   4.947   3.781   3.795
 8505SOL    HW126414   4.897   3.844   3.736
 8505SOL    HW226415   4.908   3.786   3.888
 8506SOL     OW26416   1.438   6.901   0.211
 8506SOL    HW126417   1.383   6.907   0.294
 8506SOL    HW226418   1.378   6.893   0.132
 8507SOL     OW26419   1.818   1.515   6.300
 8507SOL    HW126420   1.750   1.455   6.257
 8507SOL    HW226421   1.883   1.460   6.353
 8508SOL     OW26422   0.063   2.216   5.599
 8508SOL    HW126423   0.055   2.200   5.697
 8508SOL    HW226424   0.101   2.307   5.582
 8509SOL     OW26425   5.949   1.863   4.160
 8509SOL    HW126426   5.964   1.961   4.174
 8509SOL    HW226427   5.892   1.828   4.234
 8510SOL     OW26428   5.735   5.853   2.952
 8510SOL    HW126429   5.680   5.930   2.983
 8510SOL    HW226430   5.759   5.865   2.856
 8511SOL     OW26431   6.861   4.524   1.252
 8511SOL    HW126432   6.854   4.448   1.188
 8511SOL    HW226433   6.814   4.501   1.338
 8512SOL     OW26434   4.652   2.138   0.182
 8512SOL    HW126435   4.634   2.128   0.280
 8512SOL    HW226436   4.601   2.068   0.132
 8513SOL     OW26437   6.074   4.295   0.712
 8513SOL    HW126438   6.130   4.217   0.737
 8513SOL    HW226439   5.997   4.303   0.776
 8514SOL     OW26440   3.060   1.155   4.539
 8514SOL    HW126441   3.157   1.161   4.515
 8514SOL    HW226442   3.009   1.226   4.491
 8515SOL     OW26443   0.804   1.178   0.067
 8515SOL    HW126444   0.779   1.265   0.110
 8515SOL    HW226445   0.721   1.134   0.032
 8516SOL     OW26446   6.058   3.081   2.536
 8516SOL    HW126447   6.109   3.101   2.452
 8516SOL    HW226448   5.962   3.106   2.523
 8517SOL     OW26449   1.744   2.921   5.231
 8517SOL    HW126450   1.651   2.923   5.195
 8517SOL    HW226451   1.805   2.970   5.170
 8518SOL     OW26452   5.314   4.595   6.529
 8518SOL    HW126453   5.259   4.596   6.445
 8518SOL    HW226454   5.360   4.683   6.540
 8519SOL     OW26455   1.597   4.303   0.985
 8519SOL    HW126456   1.649   4.293   1.070
 8519SOL    HW226457   1.579   4.213   0.946
 8520SOL     OW26458   3.888   3.950   4.433
 8520SOL    HW126459   3.819   3.879   4.451
 8520SOL    HW226460   3.846   4.025   4.382
 8521SOL     OW26461   1.487   6.388   5.305
 8521SOL    HW126462   1.446   6.301   5.277
 8521SOL    HW226463   1.451   6.462   5.248
 8522SOL     OW26464   1.124   0.095   0.336
 8522SOL    HW126465   1.106   0.170   0.400
 8522SOL    HW226466   1.166   0.019   0.385
 8523SOL     OW26467   2.699   0.193   6.236
 8523SOL    HW126468   2.728   0.177   6.142
 8523SOL    HW226469   2.599   0.193   6.240
 8524SOL     OW26470   1.355   5.017   4.635
 8524SOL    HW126471   1.430   5.050   4.577
 8524SOL    HW226472   1.292   4.962   4.580
 8525SOL     OW26473   6.794   4.786   1.315
 8525SOL    HW126474   6.828   4.698   1.284
 8525SOL    HW226475   6.836   4.809   1.403
 8526SOL     OW26476   2.270   6.729   0.512
 8526SOL    HW126477   2.324   6.654   0.472
 8526SOL    HW226478   2.316   6.762   0.595
 8527SOL     OW26479   3.646   0.401   6.233
 8527SOL    HW126480   3.604   0.324   6.185
 8527SOL    HW226481   3.598   0.486   6.210
 8528SOL     OW26482   4.745   2.479   0.967
 8528SOL    HW126483   4.816   2.437   1.024
 8528SOL    HW226484   4.786   2.515   0.884
 8529SOL     OW26485   1.217   6.053   0.153
 8529SOL    HW126486   1.300   6.081   0.104
 8529SOL    HW226487   1.181   6.131   0.204
 8530SOL     OW26488   2.993   3.158   4.263
 8530SOL    HW126489   2.953   3.249   4.269
 8530SOL    HW226490   2.923   3.094   4.230
 8531SOL     OW26491   6.714   5.888   3.669
 8531SOL    HW126492   6.748   5.944   3.745
 8531SOL    HW226493   6.681   5.948   3.596
 8532SOL     OW26494   3.685   6.390   4.146
 8532SOL    HW126495   3.679   6.485   4.116
 8532SOL    HW226496   3.761   6.345   4.100
 8533SOL     OW26497   1.205   6.291   6.905
 8533SOL    HW126498   1.108   6.307   6.923
 8533SOL    HW226499   1.226   6.194   6.918
 8534SOL     OW26500   4.186   2.054   3.932
 8534SOL    HW126501   4.216   1.966   3.894
 8534SOL    HW226502   4.113   2.091   3.875
 8535SOL     OW26503   5.618   0.838   3.762
 8535SOL    HW126504   5.702   0.892   3.750
 8535SOL    HW226505   5.583   0.853   3.854
 8536SOL     OW26506   0.439   0.731   5.137
 8536SOL    HW126507   0.437   0.699   5.231
 8536SOL    HW226508   0.449   0.653   5.075
 8537SOL     OW26509   6.530   1.216   3.375
 8537SOL    HW126510   6.610   1.218   3.435
 8537SOL    HW226511   6.475   1.298   3.391
 8538SOL     OW26512   1.299   1.518   0.374
 8538SOL    HW126513   1.375   1.529   0.310
 8538SOL    HW226514   1.321   1.447   0.440
 8539SOL     OW26515   6.182   2.901   2.950
 8539SOL    HW126516   6.134   2.817   2.974
 8539SOL    HW226517   6.119   2.978   2.956
 8540SOL     OW26518   4.286   6.987   6.516
 8540SOL    HW126519   4.372   7.000   6.466
 8540SOL    HW226520   4.237   0.053   6.522
 8541SOL     OW26521   2.305   2.346   3.434
 8541SOL    HW126522   2.219   2.395   3.421
 8541SOL    HW226523   2.313   2.318   3.530
 8542SOL     OW26524   4.116   4.198   6.422
 8542SOL    HW126525   4.035   4.140   6.412
 8542SOL    HW226526   4.089   4.294   6.413
 8543SOL     OW26527   2.197   2.568   0.171
 8543SOL    HW126528   2.241   2.500   0.230
 8543SOL    HW226529   2.256   2.647   0.159
 8544SOL     OW26530   5.383   2.711   3.765
 8544SOL    HW126531   5.444   2.779   3.723
 8544SOL    HW226532   5.288   2.739   3.751
 8545SOL     OW26533   4.935   6.179   5.674
 8545SOL    HW126534   4.966   6.089   5.642
 8545SOL    HW226535   4.835   6.182   5.672
 8546SOL     OW26536   5.147   1.870   4.031
 8546SOL    HW126537   5.137   1.771   4.041
 8546SOL    HW226538   5.158   1.912   4.121
 8547SOL     OW26539   1.334   4.626   4.164
 8547SOL    HW126540   1.250   4.651   4.115
 8547SOL    HW226541   1.310   4.577   4.248
 8548SOL     OW26542   5.388   1.209   5.075
 8548SOL    HW126543   5.436   1.230   4.990
 8548SOL    HW226544   5.405   1.115   5.101
 8549SOL     OW26545   6.541   3.332   4.234
 8549SOL    HW126546   6.535   3.234   4.256
 8549SOL    HW226547   6.493   3.349   4.147
 8550SOL     OW26548   1.656   5.226   6.436
 8550SOL    HW126549   1.723   5.291   6.399
 8550SOL    HW226550   1.694   5.133   6.432
 8551SOL     OW26551   3.663   4.233   6.851
 8551SOL    HW126552   3.712   4.218   6.937
 8551SOL    HW226553   3.729   4.244   6.777
 8552SOL     OW26554   2.973   5.801   3.409
 8552SOL    HW126555   2.880   5.810   3.373
 8552SOL    HW226556   3.027   5.743   3.348
 8553SOL     OW26557   4.955   6.601   0.410
 8553SOL    HW126558   4.877   6.640   0.361
 8553SOL    HW226559   4.937   6.603   0.508
 8554SOL     OW26560   0.055   4.263   6.786
 8554SOL    HW126561   0.093   4.199   6.720
 8554SOL    HW226562   0.032   4.214   6.871
 8555SOL     OW26563   0.580   0.900   4.060
 8555SOL    HW126564   0.665   0.860   4.026
 8555SOL    HW226565   0.502   0.853   4.018
 8556SOL     OW26566   6.514   0.654   3.854
 8556SOL    HW126567   6.476   0.571   3.896
 8556SOL    HW226568   6.559   0.709   3.924
 8557SOL     OW26569   0.087   6.944   1.634
 8557SOL    HW126570   0.177   6.912   1.662
 8557SOL    HW226571   0.088   6.963   1.536
 8558SOL     OW26572   1.895   5.368   2.432
 8558SOL    HW126573   1.819   5.325   2.479
 8558SOL    HW226574   1.943   5.301   2.376
 8559SOL     OW26575   1.003   0.331   1.594
 8559SOL    HW126576   0.978   0.278   1.675
 8559SOL    HW226577   0.970   0.425   1.603
 8560SOL     OW26578   6.379   1.592   0.208
 8560SOL    HW126579   6.407   1.625   0.298
 8560SOL    HW226580   6.366   1.670   0.146
 8561SOL     OW26581   4.773   6.241   3.242
 8561SOL    HW126582   4.834   6.287   3.178
 8561SOL    HW226583   4.797   6.144   3.249
 8562SOL     OW26584   3.537   6.955   4.389
 8562SOL    HW126585   3.557   6.868   4.342
 8562SOL    HW226586   3.484   6.936   4.472
 8563SOL     OW26587   2.699   2.725   6.831
 8563SOL    HW126588   2.695   2.631   6.864
 8563SOL    HW226589   2.749   2.728   6.744
 8564SOL     OW26590   0.787   0.058   3.636
 8564SOL    HW126591   0.805   6.980   3.632
 8564SOL    HW226592   0.855   0.101   3.696
 8565SOL     OW26593   3.803   7.005   0.669
 8565SOL    HW126594   3.834   6.917   0.705
 8565SOL    HW226595   3.878   0.029   0.621
 8566SOL     OW26596   1.245   2.289   3.080
 8566SOL    HW126597   1.231   2.247   2.990
 8566SOL    HW226598   1.209   2.382   3.079
 8567SOL     OW26599   5.461   1.414   0.730
 8567SOL    HW126600   5.375   1.382   0.770
 8567SOL    HW226601   5.443   1.496   0.675
 8568SOL     OW26602   5.594   2.006   0.367
 8568SOL    HW126603   5.607   1.907   0.364
 8568SOL    HW226604   5.680   2.050   0.393
 8569SOL     OW26605   4.616   1.159   4.278
 8569SOL    HW126606   4.612   1.176   4.179
 8569SOL    HW226607   4.666   1.234   4.322
 8570SOL     OW26608   0.350   4.002   6.181
 8570SOL    HW126609   0.282   3.934   6.155
 8570SOL    HW226610   0.305   4.081   6.222
 8571SOL     OW26611   6.394   4.075   4.427
 8571SOL    HW126612   6.407   3.998   4.490
 8571SOL    HW226613   6.479   4.127   4.420
 8572SOL     OW26614   1.900   5.122   5.372
 8572SOL    HW126615   1.878   5.134   5.275
 8572SOL    HW226616   1.982   5.067   5.381
 8573SOL     OW26617   4.437   5.826   5.762
 8573SOL    HW126618   4.452   5.753   5.695
 8573SOL    HW226619   4.409   5.787   5.849
 8574SOL     OW26620   0.008   3.494   5.684
 8574SOL    HW126621   0.087   3.444   5.722
 8574SOL    HW226622   0.032   3.531   5.594
 8575SOL     OW26623   3.293   2.880   0.724
 8575SOL    HW126624   3.203   2.917   0.700
 8575SOL    HW226625   3.293   2.781   0.713
 8576SOL     OW26626   0.811   0.089   1.531
 8576SOL    HW126627   0.804   0.029   1.611
 8576SOL    HW226628   0.887   0.152   1.544
 8577SOL     OW26629   6.436   5.738   3.198
 8577SOL    HW126630   6.356   5.790   3.167
 8577SOL    HW226631   6.407   5.651   3.236
 8578SOL     OW26632   4.682   0.281   3.643
 8578SOL    HW126633   4.650   0.284   3.738
 8578SOL    HW226634   4.688   0.186   3.613
 8579SOL     OW26635   1.068   5.086   3.447
 8579SOL    HW126636   1.007   5.034   3.506
 8579SOL    HW226637   1.163   5.066   3.470
 8580SOL     OW26638   1.671   6.396   1.721
 8580SOL    HW126639   1.758   6.437   1.693
 8580SOL    HW226640   1.671   6.383   1.820
 8581SOL     OW26641   3.242   1.768   0.880
 8581SOL    HW126642   3.246   1.741   0.976
 8581SOL    HW226643   3.314   1.720   0.829
 8582SOL     OW26644   4.474   4.543   2.130
 8582SOL    HW126645   4.472   4.447   2.104
 8582SOL    HW226646   4.381   4.575   2.149
 8583SOL     OW26647   6.039   0.047   5.824
 8583SOL    HW126648   6.083   0.119   5.876
 8583SOL    HW226649   5.940   0.049   5.841
 8584SOL     OW26650   6.968   5.310   0.415
 8584SOL    HW126651   7.017   5.259   0.485
 8584SOL    HW226652   6.914   5.383   0.457
 8585SOL     OW26653   0.259   0.883   0.321
 8585SOL    HW126654   0.174   0.928   0.295
 8585SOL    HW226655   0.281   0.907   0.416
 8586SOL     OW26656   3.723   5.683   2.753
 8586SOL    HW126657   3.780   5.680   2.671
 8586SOL    HW226658   3.758   5.752   2.816
 8587SOL     OW26659   0.206   1.737   2.479
 8587SOL    HW126660   0.143   1.688   2.541
 8587SOL    HW226661   0.225   1.679   2.400
 8588SOL     OW26662   4.084   2.370   0.180
 8588SOL    HW126663   4.034   2.450   0.214
 8588SOL    HW226664   4.182   2.390   0.180
 8589SOL     OW26665   3.557   1.151   4.133
 8589SOL    HW126666   3.521   1.076   4.188
 8589SOL    HW226667   3.482   1.199   4.088
 8590SOL     OW26668   6.325   5.470   5.072
 8590SOL    HW126669   6.391   5.401   5.101
 8590SOL    HW226670   6.343   5.495   4.977
 8591SOL     OW26671   0.802   3.673   6.108
 8591SOL    HW126672   0.853   3.630   6.183
 8591SOL    HW226673   0.807   3.772   6.117
 8592SOL     OW26674   6.810   4.040   0.918
 8592SOL    HW126675   6.782   3.954   0.961
 8592SOL    HW226676   6.769   4.117   0.967
 8593SOL     OW26677   1.819   0.276   2.172
 8593SOL    HW126678   1.810   0.181   2.201
 8593SOL    HW226679   1.733   0.324   2.189
 8594SOL     OW26680   2.928   3.434   4.353
 8594SOL    HW126681   3.004   3.498   4.361
 8594SOL    HW226682   2.932   3.367   4.427
 8595SOL     OW26683   1.929   2.219   2.217
 8595SOL    HW126684   1.833   2.193   2.223
 8595SOL    HW226685   1.980   2.149   2.167
 8596SOL     OW26686   6.174   5.459   1.590
 8596SOL    HW126687   6.107   5.478   1.661
 8596SOL    HW226688   6.177   5.360   1.572
 8597SOL     OW26689   2.906   1.528   0.661
 8597SOL    HW126690   2.861   1.458   0.605
 8597SOL    HW226691   2.997   1.496   0.686
 8598SOL     OW26692   6.265   3.772   1.302
 8598SOL    HW126693   6.274   3.870   1.317
 8598SOL    HW226694   6.168   3.747   1.301
 8599SOL     OW26695   1.525   3.035   3.270
 8599SOL    HW126696   1.477   2.990   3.344
 8599SOL    HW226697   1.582   2.969   3.221
 8600SOL     OW26698   6.339   5.016   6.484
 8600SOL    HW126699   6.253   4.977   6.517
 8600SOL    HW226700   6.382   5.069   6.558
 8601SOL     OW26701   0.534   0.003   4.017
 8601SOL    HW126702   0.631   0.000   3.990
 8601SOL    HW226703   0.514   0.092   4.058
 8602SOL     OW26704   2.373   5.830   2.113
 8602SOL    HW126705   2.465   5.793   2.128
 8602SOL    HW226706   2.305   5.757   2.124
 8603SOL     OW26707   4.082   3.211   0.448
 8603SOL    HW126708   4.064   3.307   0.468
 8603SOL    HW226709   4.161   3.204   0.388
 8604SOL     OW26710   5.482   3.028   3.829
 8604SOL    HW126711   5.495   3.007   3.732
 8604SOL    HW226712   5.385   3.039   3.849
 8605SOL     OW26713   2.683   5.866   3.357
 8605SOL    HW126714   2.691   5.823   3.267
 8605SOL    HW226715   2.595   5.914   3.362
 8606SOL     OW26716   4.168   4.716   5.938
 8606SOL    HW126717   4.136   4.668   5.856
 8606SOL    HW226718   4.122   4.804   5.946
 8607SOL     OW26719   4.637   5.591   2.188
 8607SOL    HW126720   4.603   5.561   2.277
 8607SOL    HW226721   4.653   5.690   2.191
 8608SOL     OW26722   4.370   5.325   2.934
 8608SOL    HW126723   4.423   5.403   2.967
 8608SOL    HW226724   4.399   5.302   2.841
 8609SOL     OW26725   3.601   0.580   5.168
 8609SOL    HW126726   3.665   0.655   5.186
 8609SOL    HW226727   3.597   0.563   5.070
 8610SOL     OW26728   1.348   6.358   3.361
 8610SOL    HW126729   1.298   6.403   3.435
 8610SOL    HW226730   1.439   6.398   3.354
 8611SOL     OW26731   2.010   1.844   4.948
 8611SOL    HW126732   2.030   1.903   4.870
 8611SOL    HW226733   1.999   1.750   4.916
 8612SOL     OW26734   3.938   2.916   6.411
 8612SOL    HW126735   4.019   2.884   6.459
 8612SOL    HW226736   3.962   2.945   6.319
 8613SOL     OW26737   2.024   1.945   1.076
 8613SOL    HW126738   2.109   1.899   1.051
 8613SOL    HW226739   2.020   1.956   1.176
 8614SOL     OW26740   1.183   2.688   3.336
 8614SOL    HW126741   1.193   2.761   3.269
 8614SOL    HW226742   1.263   2.686   3.396
 8615SOL     OW26743   4.357   1.728   5.720
 8615SOL    HW126744   4.299   1.656   5.682
 8615SOL    HW226745   4.421   1.689   5.786
 8616SOL     OW26746   0.860   4.609   0.435
 8616SOL    HW126747   0.874   4.708   0.425
 8616SOL    HW226748   0.769   4.593   0.473
 8617SOL     OW26749   6.128   2.780   0.999
 8617SOL    HW126750   6.046   2.780   0.941
 8617SOL    HW226751   6.141   2.870   1.038
 8618SOL     OW26752   4.542   6.930   3.206
 8618SOL    HW126753   4.586   6.891   3.287
 8618SOL    HW226754   4.522   0.006   3.222
 8619SOL     OW26755   4.633   5.206   7.014
 8619SOL    HW126756   4.587   5.169   6.933
 8619SOL    HW226757   4.708   5.265   6.984
 8620SOL     OW26758   5.955   6.303   2.096
 8620SOL    HW126759   5.982   6.207   2.086
 8620SOL    HW226760   6.035   6.358   2.120
 8621SOL     OW26761   5.787   1.273   3.767
 8621SOL    HW126762   5.754   1.343   3.831
 8621SOL    HW226763   5.868   1.307   3.720
 8622SOL     OW26764   4.514   5.172   0.583
 8622SOL    HW126765   4.602   5.212   0.556
 8622SOL    HW226766   4.502   5.085   0.536
 8623SOL     OW26767   1.098   3.725   3.166
 8623SOL    HW126768   1.105   3.675   3.253
 8623SOL    HW226769   1.106   3.660   3.091
 8624SOL     OW26770   0.776   4.033   2.920
 8624SOL    HW126771   0.701   4.045   2.985
 8624SOL    HW226772   0.832   3.955   2.948
 8625SOL     OW26773   4.094   1.052   4.506
 8625SOL    HW126774   4.181   1.048   4.456
 8625SOL    HW226775   4.107   1.103   4.591
 8626SOL     OW26776   3.244   3.442   4.311
 8626SOL    HW126777   3.213   3.450   4.216
 8626SOL    HW226778   3.287   3.353   4.324
 8627SOL     OW26779   0.994   0.942   0.881
 8627SOL    HW126780   1.054   1.003   0.934
 8627SOL    HW226781   1.025   0.940   0.786
 8628SOL     OW26782   5.480   1.079   6.814
 8628SOL    HW126783   5.517   1.071   6.722
 8628SOL    HW226784   5.391   1.034   6.817
 8629SOL     OW26785   1.418   4.465   3.967
 8629SOL    HW126786   1.402   4.516   4.051
 8629SOL    HW226787   1.516   4.451   3.954
 8630SOL     OW26788   5.837   4.100   3.805
 8630SOL    HW126789   5.748   4.062   3.828
 8630SOL    HW226790   5.845   4.191   3.846
 8631SOL     OW26791   3.575   6.075   4.997
 8631SOL    HW126792   3.634   6.085   4.917
 8631SOL    HW226793   3.605   5.997   5.051
 8632SOL     OW26794   3.585   0.282   3.339
 8632SOL    HW126795   3.513   0.218   3.367
 8632SOL    HW226796   3.581   0.364   3.397
 8633SOL     OW26797   5.345   1.087   4.108
 8633SOL    HW126798   5.381   1.116   4.197
 8633SOL    HW226799   5.255   1.128   4.093
 8634SOL     OW26800   6.695   4.586   1.933
 8634SOL    HW126801   6.695   4.677   1.975
 8634SOL    HW226802   6.754   4.525   1.987
 8635SOL     OW26803   5.995   3.645   5.919
 8635SOL    HW126804   5.923   3.695   5.968
 8635SOL    HW226805   5.970   3.638   5.822
 8636SOL     OW26806   6.650   6.146   0.418
 8636SOL    HW126807   6.623   6.242   0.414
 8636SOL    HW226808   6.731   6.136   0.476
 8637SOL     OW26809   1.969   0.717   0.933
 8637SOL    HW126810   1.954   0.621   0.955
 8637SOL    HW226811   1.991   0.726   0.836
 8638SOL     OW26812   2.820   4.820   0.441
 8638SOL    HW126813   2.903   4.801   0.388
 8638SOL    HW226814   2.843   4.871   0.524
 8639SOL     OW26815   5.997   3.506   2.007
 8639SOL    HW126816   5.952   3.506   1.918
 8639SOL    HW226817   5.932   3.538   2.076
 8640SOL     OW26818   5.053   4.791   0.729
 8640SOL    HW126819   5.054   4.757   0.823
 8640SOL    HW226820   4.962   4.824   0.706
 8641SOL     OW26821   6.836   4.001   3.238
 8641SOL    HW126822   6.850   4.090   3.281
 8641SOL    HW226823   6.784   4.012   3.153
 8642SOL     OW26824   4.615   1.033   1.521
 8642SOL    HW126825   4.670   1.115   1.507
 8642SOL    HW226826   4.580   1.032   1.615
 8643SOL     OW26827   4.199   0.677   6.514
 8643SOL    HW126828   4.119   0.637   6.468
 8643SOL    HW226829   4.204   0.642   6.607
 8644SOL     OW26830   5.724   2.225   4.552
 8644SOL    HW126831   5.771   2.212   4.639
 8644SOL    HW226832   5.720   2.138   4.502
 8645SOL     OW26833   6.464   3.942   1.527
 8645SOL    HW126834   6.472   3.843   1.510
 8645SOL    HW226835   6.544   3.974   1.578
 8646SOL     OW26836   5.093   0.829   6.871
 8646SOL    HW126837   5.075   0.822   6.772
 8646SOL    HW226838   5.017   0.788   6.921
 8647SOL     OW26839   3.907   4.790   0.091
 8647SOL    HW126840   3.863   4.761   0.176
 8647SOL    HW226841   3.850   4.764   0.013
 8648SOL     OW26842   5.816   0.888   4.506
 8648SOL    HW126843   5.736   0.840   4.471
 8648SOL    HW226844   5.899   0.838   4.479
 8649SOL     OW26845   6.036   3.923   5.339
 8649SOL    HW126846   6.004   3.884   5.253
 8649SOL    HW226847   6.077   3.851   5.395
 8650SOL     OW26848   2.321   5.279   4.005
 8650SOL    HW126849   2.249   5.233   3.954
 8650SOL    HW226850   2.373   5.338   3.943
 8651SOL     OW26851   3.919   1.687   0.012
 8651SOL    HW126852   3.922   1.597   0.056
 8651SOL    HW226853   3.838   1.692   6.974
 8652SOL     OW26854   2.115   3.581   3.697
 8652SOL    HW126855   2.192   3.645   3.703
 8652SOL    HW226856   2.039   3.615   3.752
 8653SOL     OW26857   0.398   2.842   6.829
 8653SOL    HW126858   0.452   2.786   6.891
 8653SOL    HW226859   0.302   2.816   6.836
 8654SOL     OW26860   0.243   6.906   2.989
 8654SOL    HW126861   0.305   6.840   3.031
 8654SOL    HW226862   0.156   6.907   3.039
 8655SOL     OW26863   5.769   6.223   4.615
 8655SOL    HW126864   5.706   6.285   4.568
 8655SOL    HW226865   5.814   6.272   4.690
 8656SOL     OW26866   6.610   0.732   1.333
 8656SOL    HW126867   6.551   0.653   1.317
 8656SOL    HW226868   6.666   0.715   1.414
 8657SOL     OW26869   4.801   4.776   6.326
 8657SOL    HW126870   4.702   4.767   6.310
 8657SOL    HW226871   4.850   4.762   6.240
 8658SOL     OW26872   5.764   5.093   0.312
 8658SOL    HW126873   5.789   5.129   0.222
 8658SOL    HW226874   5.668   5.067   0.313
 8659SOL     OW26875   4.777   0.469   3.169
 8659SOL    HW126876   4.784   0.415   3.253
 8659SOL    HW226877   4.824   0.556   3.182
 8660SOL     OW26878   5.676   3.567   0.491
 8660SOL    HW126879   5.718   3.651   0.457
 8660SOL    HW226880   5.745   3.513   0.539
 8661SOL     OW26881   6.621   4.298   1.779
 8661SOL    HW126882   6.610   4.264   1.686
 8661SOL    HW226883   6.615   4.398   1.779
 8662SOL     OW26884   6.394   6.219   1.290
 8662SOL    HW126885   6.353   6.259   1.372
 8662SOL    HW226886   6.351   6.258   1.208
 8663SOL     OW26887   2.332   5.562   0.829
 8663SOL    HW126888   2.331   5.467   0.800
 8663SOL    HW226889   2.295   5.620   0.755
 8664SOL     OW26890   4.278   6.080   6.894
 8664SOL    HW126891   4.286   6.177   6.873
 8664SOL    HW226892   4.264   6.068   6.993
 8665SOL     OW26893   4.383   5.452   5.180
 8665SOL    HW126894   4.321   5.526   5.208
 8665SOL    HW226895   4.452   5.489   5.118
 8666SOL     OW26896   5.030   2.776   5.361
 8666SOL    HW126897   4.953   2.766   5.298
 8666SOL    HW226898   5.000   2.755   5.454
 8667SOL     OW26899   4.975   1.706   3.585
 8667SOL    HW126900   4.906   1.773   3.557
 8667SOL    HW226901   5.030   1.744   3.660
 8668SOL     OW26902   4.933   2.274   4.013
 8668SOL    HW126903   5.023   2.293   4.052
 8668SOL    HW226904   4.934   2.184   3.969
 8669SOL     OW26905   4.293   0.833   6.089
 8669SOL    HW126906   4.336   0.881   6.166
 8669SOL    HW226907   4.249   0.750   6.123
 8670SOL     OW26908   3.589   5.496   4.260
 8670SOL    HW126909   3.687   5.511   4.273
 8670SOL    HW226910   3.548   5.470   4.348
 8671SOL     OW26911   6.275   6.926   3.612
 8671SOL    HW126912   6.216   6.981   3.553
 8671SOL    HW226913   6.229   6.840   3.636
 8672SOL     OW26914   3.403   4.911   4.396
 8672SOL    HW126915   3.489   4.944   4.434
 8672SOL    HW226916   3.372   4.973   4.324
 8673SOL     OW26917   6.835   1.561   0.511
 8673SOL    HW126918   6.815   1.647   0.558
 8673SOL    HW226919   6.786   1.559   0.424
 8674SOL     OW26920   0.026   0.676   2.640
 8674SOL    HW126921   0.013   0.756   2.699
 8674SOL    HW226922   6.983   0.681   2.564
 8675SOL     OW26923   2.548   1.183   3.643
 8675SOL    HW126924   2.550   1.083   3.644
 8675SOL    HW226925   2.487   1.216   3.715
 8676SOL     OW26926   4.047   0.449   2.640
 8676SOL    HW126927   4.091   0.439   2.551
 8676SOL    HW226928   4.056   0.363   2.691
 8677SOL     OW26929   2.769   4.026   6.318
 8677SOL    HW126930   2.719   4.006   6.234
 8677SOL    HW226931   2.770   4.124   6.334
 8678SOL     OW26932   1.331   0.430   6.502
 8678SOL    HW126933   1.262   0.461   6.436
 8678SOL    HW226934   1.352   0.334   6.486
 8679SOL     OW26935   6.341   1.952   5.198
 8679SOL    HW126936   6.349   1.891   5.120
 8679SOL    HW226937   6.417   2.016   5.199
 8680SOL     OW26938   1.605   3.685   0.049
 8680SOL    HW126939   1.701   3.709   0.060
 8680SOL    HW226940   1.584   3.674   6.972
 8681SOL     OW26941   4.134   4.301   0.616
 8681SOL    HW126942   4.127   4.206   0.586
 8681SOL    HW226943   4.227   4.334   0.602
 8682SOL     OW26944   2.530   6.534   2.737
 8682SOL    HW126945   2.496   6.605   2.798
 8682SOL    HW226946   2.453   6.482   2.700
 8683SOL     OW26947   0.758   2.907   1.321
 8683SOL    HW126948   0.823   2.971   1.362
 8683SOL    HW226949   0.679   2.897   1.381
 8684SOL     OW26950   6.030   2.678   5.397
 8684SOL    HW126951   6.087   2.598   5.415
 8684SOL    HW226952   5.934   2.649   5.389
 8685SOL     OW26953   0.849   1.878   6.870
 8685SOL    HW126954   0.870   1.934   6.951
 8685SOL    HW226955   0.773   1.817   6.891
 8686SOL     OW26956   6.919   1.937   2.727
 8686SOL    HW126957   6.877   1.978   2.647
 8686SOL    HW226958   7.018   1.945   2.721
 8687SOL     OW26959   3.551   6.697   2.277
 8687SOL    HW126960   3.625   6.645   2.319
 8687SOL    HW226961   3.503   6.638   2.211
 8688SOL     OW26962   3.153   6.931   1.171
 8688SOL    HW126963   3.176   6.840   1.136
 8688SOL    HW226964   3.212   6.999   1.128
 8689SOL     OW26965   4.464   5.675   0.026
 8689SOL    HW126966   4.408   5.632   6.975
 8689SOL    HW226967   4.432   5.768   0.042
 8690SOL     OW26968   0.749   1.789   3.564
 8690SOL    HW126969   0.768   1.871   3.510
 8690SOL    HW226970   0.835   1.745   3.590
 8691SOL     OW26971   4.658   2.524   6.363
 8691SOL    HW126972   4.650   2.435   6.408
 8691SOL    HW226973   4.700   2.512   6.273
 8692SOL     OW26974   2.681   2.144   3.263
 8692SOL    HW126975   2.760   2.205   3.270
 8692SOL    HW226976   2.704   2.055   3.304
 8693SOL     OW26977   5.875   2.259   0.847
 8693SOL    HW126978   5.946   2.323   0.876
 8693SOL    HW226979   5.828   2.222   0.928
 8694SOL     OW26980   4.641   0.170   6.753
 8694SOL    HW126981   4.558   0.222   6.734
 8694SOL    HW226982   4.700   0.222   6.814
 8695SOL     OW26983   5.242   3.190   5.321
 8695SOL    HW126984   5.193   3.201   5.408
 8695SOL    HW226985   5.209   3.107   5.276
 8696SOL     OW26986   2.862   5.733   1.033
 8696SOL    HW126987   2.917   5.768   0.957
 8696SOL    HW226988   2.895   5.642   1.059
 8697SOL     OW26989   6.847   3.323   1.184
 8697SOL    HW126990   6.937   3.281   1.187
 8697SOL    HW226991   6.856   3.421   1.170
 8698SOL     OW26992   5.502   5.913   4.449
 8698SOL    HW126993   5.411   5.953   4.454
 8698SOL    HW226994   5.510   5.838   4.515
 8699SOL     OW26995   0.844   1.430   5.518
 8699SOL    HW126996   0.930   1.473   5.490
 8699SOL    HW226997   0.768   1.468   5.464
 8700SOL     OW26998   2.270   0.563   4.950
 8700SOL    HW126999   2.205   0.556   5.026
 8700SOL    HW227000   2.278   0.659   4.921
 8701SOL     OW27001   1.106   0.800   5.246
 8701SOL    HW127002   1.012   0.801   5.212
 8701SOL    HW227003   1.135   0.893   5.267
 8702SOL     OW27004   5.587   4.795   0.592
 8702SOL    HW127005   5.623   4.773   0.502
 8702SOL    HW227006   5.660   4.788   0.661
 8703SOL     OW27007   3.192   5.578   1.190
 8703SOL    HW127008   3.125   5.536   1.128
 8703SOL    HW227009   3.187   5.533   1.279
 8704SOL     OW27010   6.691   4.663   2.303
 8704SOL    HW127011   6.670   4.606   2.383
 8704SOL    HW227012   6.702   4.758   2.333
 8705SOL     OW27013   4.851   0.373   6.184
 8705SOL    HW127014   4.770   0.390   6.129
 8705SOL    HW227015   4.924   0.336   6.127
 8706SOL     OW27016   4.957   2.054   6.837
 8706SOL    HW127017   4.903   1.978   6.876
 8706SOL    HW227018   5.049   2.022   6.817
 8707SOL     OW27019   4.401   3.072   6.867
 8707SOL    HW127020   4.367   2.985   6.901
 8707SOL    HW227021   4.393   3.141   6.939
 8708SOL     OW27022   3.643   1.139   1.638
 8708SOL    HW127023   3.606   1.062   1.690
 8708SOL    HW227024   3.618   1.224   1.684
 8709SOL     OW27025   0.055   4.655   0.235
 8709SOL    HW127026   0.106   4.736   0.266
 8709SOL    HW227027   0.091   4.625   0.147
 8710SOL     OW27028   1.596   3.506   2.936
 8710SOL    HW127029   1.555   3.597   2.931
 8710SOL    HW227030   1.575   3.456   2.852
 8711SOL     OW27031   6.094   0.646   2.790
 8711SOL    HW127032   6.094   0.558   2.837
 8711SOL    HW227033   6.188   0.674   2.770
 8712SOL     OW27034   3.258   1.634   4.688
 8712SOL    HW127035   3.185   1.580   4.645
 8712SOL    HW227036   3.332   1.573   4.716
 8713SOL     OW27037   6.784   4.247   3.809
 8713SOL    HW127038   6.696   4.294   3.808
 8713SOL    HW227039   6.777   4.164   3.865
 8714SOL     OW27040   1.453   0.981   6.029
 8714SOL    HW127041   1.469   1.060   5.969
 8714SOL    HW227042   1.405   1.011   6.111
 8715SOL     OW27043   6.506   0.841   1.645
 8715SOL    HW127044   6.605   0.831   1.640
 8715SOL    HW227045   6.477   0.919   1.589
 8716SOL     OW27046   0.607   1.737   1.430
 8716SOL    HW127047   0.579   1.641   1.424
 8716SOL    HW227048   0.690   1.744   1.486
 8717SOL     OW27049   4.095   3.683   2.051
 8717SOL    HW127050   4.170   3.749   2.061
 8717SOL    HW227051   4.059   3.661   2.141
 8718SOL     OW27052   6.968   2.424   4.789
 8718SOL    HW127053   6.928   2.489   4.725
 8718SOL    HW227054   6.942   2.331   4.762
 8719SOL     OW27055   1.332   0.662   5.592
 8719SOL    HW127056   1.303   0.665   5.688
 8719SOL    HW227057   1.416   0.715   5.581
 8720SOL     OW27058   5.707   5.005   5.199
 8720SOL    HW127059   5.770   5.076   5.229
 8720SOL    HW227060   5.670   4.957   5.279
 8721SOL     OW27061   6.525   1.840   4.472
 8721SOL    HW127062   6.427   1.854   4.489
 8721SOL    HW227063   6.553   1.751   4.509
 8722SOL     OW27064   3.593   2.227   0.714
 8722SOL    HW127065   3.660   2.159   0.685
 8722SOL    HW227066   3.510   2.180   0.744
 8723SOL     OW27067   6.475   5.832   0.608
 8723SOL    HW127068   6.557   5.831   0.666
 8723SOL    HW227069   6.501   5.858   0.515
 8724SOL     OW27070   5.372   0.535   6.056
 8724SOL    HW127071   5.445   0.595   6.024
 8724SOL    HW227072   5.410   0.447   6.083
 8725SOL     OW27073   1.949   0.362   0.063
 8725SOL    HW127074   1.957   0.432   7.013
 8725SOL    HW227075   1.886   0.291   0.033
 8726SOL     OW27076   5.874   6.890   1.514
 8726SOL    HW127077   5.958   6.943   1.499
 8726SOL    HW227078   5.806   6.917   1.446
 8727SOL     OW27079   6.591   6.230   1.716
 8727SOL    HW127080   6.608   6.288   1.796
 8727SOL    HW227081   6.566   6.288   1.638
 8728SOL     OW27082   2.941   6.858   5.159
 8728SOL    HW127083   2.966   6.771   5.117
 8728SOL    HW227084   3.013   6.886   5.222
 8729SOL     OW27085   3.946   5.477   3.436
 8729SOL    HW127086   3.996   5.416   3.375
 8729SOL    HW227087   3.872   5.522   3.385
 8730SOL     OW27088   0.412   5.914   2.368
 8730SOL    HW127089   0.398   5.815   2.368
 8730SOL    HW227090   0.348   5.956   2.304
 8731SOL     OW27091   0.972   2.083   3.663
 8731SOL    HW127092   1.007   1.989   3.653
 8731SOL    HW227093   0.963   2.105   3.760
 8732SOL     OW27094   5.477   3.952   1.637
 8732SOL    HW127095   5.416   3.877   1.612
 8732SOL    HW227096   5.433   4.039   1.614
 8733SOL     OW27097   0.944   6.329   1.917
 8733SOL    HW127098   0.938   6.342   2.016
 8733SOL    HW227099   0.897   6.404   1.871
 8734SOL     OW27100   0.642   5.566   1.436
 8734SOL    HW127101   0.660   5.469   1.446
 8734SOL    HW227102   0.543   5.581   1.432
 8735SOL     OW27103   0.462   1.817   0.414
 8735SOL    HW127104   0.539   1.754   0.413
 8735SOL    HW227105   0.491   1.906   0.378
 8736SOL     OW27106   0.920   5.299   6.558
 8736SOL    HW127107   0.978   5.238   6.504
 8736SOL    HW227108   0.885   5.372   6.500
 8737SOL     OW27109   3.307   6.169   5.841
 8737SOL    HW127110   3.354   6.097   5.893
 8737SOL    HW227111   3.237   6.211   5.899
 8738SOL     OW27112   1.214   3.868   4.074
 8738SOL    HW127113   1.255   3.779   4.094
 8738SOL    HW227114   1.243   3.898   3.983
 8739SOL     OW27115   6.774   3.374   5.651
 8739SOL    HW127116   6.704   3.443   5.666
 8739SOL    HW227117   6.865   3.414   5.662
 8740SOL     OW27118   2.950   0.282   6.312
 8740SOL    HW127119   2.858   0.263   6.277
 8740SOL    HW227120   2.944   0.347   6.387
 8741SOL     OW27121   1.440   2.759   2.446
 8741SOL    HW127122   1.354   2.795   2.410
 8741SOL    HW227123   1.516   2.801   2.397
 8742SOL     OW27124   4.903   6.885   1.611
 8742SOL    HW127125   4.901   6.790   1.644
 8742SOL    HW227126   4.987   6.929   1.642
 8743SOL     OW27127   2.021   5.683   1.884
 8743SOL    HW127128   2.056   5.765   1.839
 8743SOL    HW227129   2.029   5.694   1.983
 8744SOL     OW27130   4.172   2.806   6.512
 8744SOL    HW127131   4.250   2.774   6.458
 8744SOL    HW227132   4.204   2.833   6.603
 8745SOL     OW27133   6.077   2.041   5.286
 8745SOL    HW127134   6.163   2.015   5.242
 8745SOL    HW227135   6.018   1.961   5.294
 8746SOL     OW27136   5.387   4.907   5.511
 8746SOL    HW127137   5.355   4.827   5.562
 8746SOL    HW227138   5.342   4.989   5.547
 8747SOL     OW27139   1.123   2.593   4.002
 8747SOL    HW127140   1.062   2.654   4.052
 8747SOL    HW227141   1.127   2.504   4.048
 8748SOL     OW27142   1.401   0.700   6.502
 8748SOL    HW127143   1.485   0.726   6.550
 8748SOL    HW227144   1.401   0.601   6.488
 8749SOL     OW27145   3.654   0.738   3.811
 8749SOL    HW127146   3.746   0.741   3.851
 8749SOL    HW227147   3.658   0.774   3.718
 8750SOL     OW27148   1.979   2.141   5.134
 8750SOL    HW127149   1.896   2.195   5.123
 8750SOL    HW227150   2.030   2.142   5.048
 8751SOL     OW27151   0.807   0.071   2.056
 8751SOL    HW127152   0.801   0.113   2.147
 8751SOL    HW227153   0.716   0.066   2.015
 8752SOL     OW27154   2.378   3.341   6.544
 8752SOL    HW127155   2.284   3.355   6.512
 8752SOL    HW227156   2.410   3.252   6.513
 8753SOL     OW27157   5.499   1.556   4.863
 8753SOL    HW127158   5.474   1.564   4.767
 8753SOL    HW227159   5.596   1.534   4.870
 8754SOL     OW27160   0.771   1.389   6.187
 8754SOL    HW127161   0.744   1.305   6.234
 8754SOL    HW227162   0.698   1.418   6.126
 8755SOL     OW27163   2.593   0.739   0.615
 8755SOL    HW127164   2.539   0.823   0.607
 8755SOL    HW227165   2.536   0.667   0.656
 8756SOL     OW27166   2.257   2.805   4.061
 8756SOL    HW127167   2.352   2.786   4.035
 8756SOL    HW227168   2.196   2.775   3.989
 8757SOL     OW27169   4.214   6.602   4.765
 8757SOL    HW127170   4.157   6.643   4.836
 8757SOL    HW227171   4.310   6.619   4.784
 8758SOL     OW27172   5.875   6.373   1.831
 8758SOL    HW127173   5.940   6.347   1.902
 8758SOL    HW227174   5.882   6.309   1.754
 8759SOL     OW27175   4.811   0.672   5.666
 8759SOL    HW127176   4.766   0.751   5.707
 8759SOL    HW227177   4.873   0.630   5.732
 8760SOL     OW27178   1.725   1.922   4.589
 8760SOL    HW127179   1.805   1.862   4.589
 8760SOL    HW227180   1.732   1.988   4.664
 8761SOL     OW27181   5.176   0.506   6.904
 8761SOL    HW127182   5.123   0.583   6.868
 8761SOL    HW227183   5.202   0.446   6.829
 8762SOL     OW27184   1.207   3.494   1.254
 8762SOL    HW127185   1.121   3.449   1.230
 8762SOL    HW227186   1.233   3.469   1.347
 8763SOL     OW27187   0.195   6.188   6.113
 8763SOL    HW127188   0.259   6.208   6.038
 8763SOL    HW227189   0.235   6.121   6.175
 8764SOL     OW27190   4.944   1.446   4.238
 8764SOL    HW127191   4.913   1.356   4.209
 8764SOL    HW227192   4.868   1.494   4.283
 8765SOL     OW27193   5.672   6.631   4.790
 8765SOL    HW127194   5.691   6.718   4.836
 8765SOL    HW227195   5.660   6.559   4.859
 8766SOL     OW27196   2.449   4.997   2.864
 8766SOL    HW127197   2.497   5.079   2.832
 8766SOL    HW227198   2.448   4.997   2.964
 8767SOL     OW27199   4.752   1.210   3.077
 8767SOL    HW127200   4.655   1.202   3.054
 8767SOL    HW227201   4.806   1.207   2.992
 8768SOL     OW27202   1.992   3.445   0.222
 8768SOL    HW127203   1.984   3.532   0.174
 8768SOL    HW227204   2.076   3.444   0.276
 8769SOL     OW27205   0.974   0.079   5.859
 8769SOL    HW127206   0.995   0.078   5.957
 8769SOL    HW227207   1.022   0.155   5.815
 8770SOL     OW27208   5.179   4.068   1.297
 8770SOL    HW127209   5.244   4.021   1.238
 8770SOL    HW227210   5.226   4.098   1.380
 8771SOL     OW27211   1.919   1.477   6.863
 8771SOL    HW127212   1.979   1.454   6.787
 8771SOL    HW227213   1.937   1.571   6.893
 8772SOL     OW27214   5.912   1.443   6.341
 8772SOL    HW127215   5.957   1.457   6.253
 8772SOL    HW227216   5.828   1.391   6.327
 8773SOL     OW27217   3.326   2.049   2.975
 8773SOL    HW127218   3.270   2.046   2.892
 8773SOL    HW227219   3.274   2.094   3.048
 8774SOL     OW27220   1.190   1.723   0.724
 8774SOL    HW127221   1.158   1.688   0.812
 8774SOL    HW227222   1.119   1.710   0.655
 8775SOL     OW27223   5.976   6.801   3.337
 8775SOL    HW127224   5.970   6.723   3.399
 8775SOL    HW227225   6.032   6.872   3.379
 8776SOL     OW27226   3.207   2.956   4.896
 8776SOL    HW127227   3.163   3.017   4.830
 8776SOL    HW227228   3.187   2.861   4.871
 8777SOL     OW27229   6.231   5.607   2.019
 8777SOL    HW127230   6.249   5.514   1.986
 8777SOL    HW227231   6.254   5.673   1.947
 8778SOL     OW27232   0.149   1.928   3.739
 8778SOL    HW127233   0.081   1.955   3.670
 8778SOL    HW227234   0.133   1.978   3.824
 8779SOL     OW27235   1.813   4.567   1.483
 8779SOL    HW127236   1.816   4.535   1.577
 8779SOL    HW227237   1.737   4.523   1.435
 8780SOL     OW27238   0.745   5.215   4.305
 8780SOL    HW127239   0.747   5.275   4.225
 8780SOL    HW227240   0.839   5.195   4.334
 8781SOL     OW27241   0.550   1.799   3.151
 8781SOL    HW127242   0.469   1.786   3.209
 8781SOL    HW227243   0.573   1.713   3.105
 8782SOL     OW27244   4.392   1.230   2.536
 8782SOL    HW127245   4.357   1.324   2.534
 8782SOL    HW227246   4.325   1.171   2.581
 8783SOL     OW27247   5.797   3.846   4.173
 8783SOL    HW127248   5.761   3.754   4.159
 8783SOL    HW227249   5.732   3.913   4.138
 8784SOL     OW27250   5.681   5.534   5.559
 8784SOL    HW127251   5.756   5.568   5.502
 8784SOL    HW227252   5.648   5.447   5.524
 8785SOL     OW27253   5.470   4.324   6.773
 8785SOL    HW127254   5.547   4.353   6.717
 8785SOL    HW227255   5.492   4.335   6.870
 8786SOL     OW27256   1.590   6.602   6.953
 8786SOL    HW127257   1.598   6.510   6.913
 8786SOL    HW227258   1.680   6.644   6.957
 8787SOL     OW27259   1.893   3.528   1.474
 8787SOL    HW127260   1.840   3.611   1.492
 8787SOL    HW227261   1.851   3.451   1.522
 8788SOL     OW27262   6.751   1.862   5.271
 8788SOL    HW127263   6.682   1.933   5.284
 8788SOL    HW227264   6.787   1.867   5.178
 8789SOL     OW27265   6.432   0.318   6.600
 8789SOL    HW127266   6.372   0.308   6.521
 8789SOL    HW227267   6.441   0.415   6.624
 8790SOL     OW27268   6.249   2.004   6.603
 8790SOL    HW127269   6.330   2.033   6.553
 8790SOL    HW227270   6.273   1.928   6.664
 8791SOL     OW27271   4.728   6.603   5.886
 8791SOL    HW127272   4.673   6.626   5.966
 8791SOL    HW227273   4.813   6.655   5.887
 8792SOL     OW27274   4.268   6.815   3.195
 8792SOL    HW127275   4.343   6.862   3.242
 8792SOL    HW227276   4.182   6.831   3.243
 8793SOL     OW27277   1.833   5.855   3.549
 8793SOL    HW127278   1.856   5.953   3.555
 8793SOL    HW227279   1.734   5.844   3.542
 8794SOL     OW27280   1.782   6.838   2.825
 8794SOL    HW127281   1.857   6.778   2.797
 8794SOL    HW227282   1.818   6.910   2.886
 8795SOL     OW27283   1.810   6.714   5.782
 8795SOL    HW127284   1.806   6.615   5.778
 8795SOL    HW227285   1.893   6.743   5.830
 8796SOL     OW27286   4.887   2.187   5.409
 8796SOL    HW127287   4.880   2.112   5.475
 8796SOL    HW227288   4.808   2.247   5.419
 8797SOL     OW27289   0.586   6.651   6.194
 8797SOL    HW127290   0.523   6.574   6.202
 8797SOL    HW227291   0.543   6.733   6.231
 8798SOL     OW27292   5.608   3.602   5.090
 8798SOL    HW127293   5.643   3.531   5.151
 8798SOL    HW227294   5.525   3.641   5.129
 8799SOL     OW27295   3.009   4.828   2.897
 8799SOL    HW127296   2.964   4.916   2.883
 8799SOL    HW227297   3.078   4.814   2.826
 8800SOL     OW27298   4.500   4.900   6.246
 8800SOL    HW127299   4.484   4.873   6.150
 8800SOL    HW227300   4.542   4.990   6.248
 8801SOL     OW27301   2.656   1.246   4.298
 8801SOL    HW127302   2.739   1.268   4.350
 8801SOL    HW227303   2.608   1.330   4.275
 8802SOL     OW27304   1.906   6.128   2.347
 8802SOL    HW127305   1.853   6.173   2.275
 8802SOL    HW227306   1.853   6.129   2.432
 8803SOL     OW27307   2.677   5.594   0.118
 8803SOL    HW127308   2.745   5.596   0.045
 8803SOL    HW227309   2.656   5.688   0.146
 8804SOL     OW27310   4.145   0.489   1.424
 8804SOL    HW127311   4.133   0.582   1.459
 8804SOL    HW227312   4.229   0.485   1.370
 8805SOL     OW27313   0.593   0.387   3.363
 8805SOL    HW127314   0.625   0.375   3.457
 8805SOL    HW227315   0.505   0.340   3.352
 8806SOL     OW27316   1.717   5.044   0.226
 8806SOL    HW127317   1.758   5.130   0.254
 8806SOL    HW227318   1.658   5.059   0.147
 8807SOL     OW27319   0.489   5.984   5.892
 8807SOL    HW127320   0.423   5.909   5.890
 8807SOL    HW227321   0.573   5.958   5.845
 8808SOL     OW27322   5.235   1.173   0.140
 8808SOL    HW127323   5.306   1.104   0.157
 8808SOL    HW227324   5.236   1.199   0.044
 8809SOL     OW27325   5.894   3.896   1.626
 8809SOL    HW127326   5.837   3.936   1.698
 8809SOL    HW227327   5.922   3.804   1.653
 8810SOL     OW27328   4.373   1.642   3.609
 8810SOL    HW127329   4.319   1.720   3.577
 8810SOL    HW227330   4.316   1.560   3.610
 8811SOL     OW27331   2.649   1.818   3.124
 8811SOL    HW127332   2.688   1.838   3.034
 8811SOL    HW227333   2.556   1.854   3.129
 8812SOL     OW27334   1.096   0.989   0.467
 8812SOL    HW127335   1.072   1.025   0.377
 8812SOL    HW227336   1.099   1.064   0.534
 8813SOL     OW27337   1.421   6.621   2.064
 8813SOL    HW127338   1.355   6.652   1.994
 8813SOL    HW227339   1.371   6.585   2.142
 8814SOL     OW27340   6.184   0.934   6.847
 8814SOL    HW127341   6.236   1.003   6.899
 8814SOL    HW227342   6.181   0.962   6.751
 8815SOL     OW27343   0.234   6.048   2.187
 8815SOL    HW127344   0.271   6.129   2.143
 8815SOL    HW227345   0.153   6.016   2.138
 8816SOL     OW27346   1.273   5.837   1.760
 8816SOL    HW127347   1.354   5.779   1.759
 8816SOL    HW227348   1.297   5.929   1.791
 8817SOL     OW27349   1.302   5.680   5.097
 8817SOL    HW127350   1.225   5.630   5.137
 8817SOL    HW227351   1.271   5.772   5.070
 8818SOL     OW27352   0.252   4.715   4.121
 8818SOL    HW127353   0.282   4.660   4.042
 8818SOL    HW227354   0.319   4.707   4.194
 8819SOL     OW27355   5.193   6.622   4.247
 8819SOL    HW127356   5.189   6.608   4.346
 8819SOL    HW227357   5.148   6.546   4.200
 8820SOL     OW27358   1.946   2.450   4.385
 8820SOL    HW127359   1.976   2.542   4.362
 8820SOL    HW227360   1.896   2.452   4.471
 8821SOL     OW27361   2.569   0.619   6.210
 8821SOL    HW127362   2.633   0.613   6.134
 8821SOL    HW227363   2.612   0.584   6.293
 8822SOL     OW27364   0.541   1.448   3.480
 8822SOL    HW127365   0.459   1.409   3.522
 8822SOL    HW227366   0.571   1.527   3.533
 8823SOL     OW27367   1.723   6.934   0.989
 8823SOL    HW127368   1.695   6.853   0.937
 8823SOL    HW227369   1.669   7.012   0.959
 8824SOL     OW27370   3.400   3.999   0.741
 8824SOL    HW127371   3.447   3.931   0.798
 8824SOL    HW227372   3.365   4.072   0.799
 8825SOL     OW27373   1.017   1.120   2.177
 8825SOL    HW127374   1.078   1.155   2.105
 8825SOL    HW227375   0.981   1.196   2.230
 8826SOL     OW27376   5.691   1.306   6.597
 8826SOL    HW127377   5.602   1.331   6.635
 8826SOL    HW227378   5.697   1.338   6.502
 8827SOL     OW27379   1.795   1.461   3.400
 8827SOL    HW127380   1.852   1.471   3.482
 8827SOL    HW227381   1.786   1.550   3.355
 8828SOL     OW27382   2.560   6.144   2.252
 8828SOL    HW127383   2.504   6.184   2.179
 8828SOL    HW227384   2.507   6.143   2.337
 8829SOL     OW27385   0.212   1.996   0.004
 8829SOL    HW127386   0.307   1.989   6.992
 8829SOL    HW227387   0.165   2.068   6.972
 8830SOL     OW27388   0.830   1.440   0.123
 8830SOL    HW127389   0.927   1.439   0.148
 8830SOL    HW227390   0.810   1.521   0.068
 8831SOL     OW27391   6.315   1.055   3.296
 8831SOL    HW127392   6.397   1.055   3.240
 8831SOL    HW227393   6.337   1.084   3.389
 8832SOL     OW27394   6.520   0.519   2.666
 8832SOL    HW127395   6.491   0.487   2.576
 8832SOL    HW227396   6.462   0.595   2.694
 8833SOL     OW27397   2.398   5.203   4.651
 8833SOL    HW127398   2.474   5.268   4.649
 8833SOL    HW227399   2.409   5.141   4.728
 8834SOL     OW27400   6.010   3.209   4.945
 8834SOL    HW127401   6.095   3.173   4.983
 8834SOL    HW227402   5.954   3.133   4.910
 8835SOL     OW27403   6.971   6.555   5.397
 8835SOL    HW127404   6.953   6.506   5.482
 8835SOL    HW227405   0.049   6.575   5.390
 8836SOL     OW27406   4.298   1.146   6.905
 8836SOL    HW127407   4.243   1.202   6.968
 8836SOL    HW227408   4.394   1.174   6.912
 8837SOL     OW27409   0.629   1.013   1.603
 8837SOL    HW127410   0.597   1.064   1.682
 8837SOL    HW227411   0.584   1.048   1.520
 8838SOL     OW27412   2.869   5.246   3.141
 8838SOL    HW127413   2.815   5.170   3.107
 8838SOL    HW227414   2.893   5.229   3.237
 8839SOL     OW27415   6.074   5.865   3.664
 8839SOL    HW127416   6.100   5.780   3.618
 8839SOL    HW227417   6.156   5.918   3.683
 8840SOL     OW27418   5.881   2.469   2.125
 8840SOL    HW127419   5.913   2.386   2.080
 8840SOL    HW227420   5.920   2.549   2.080
 8841SOL     OW27421   0.875   1.824   5.352
 8841SOL    HW127422   0.807   1.897   5.353
 8841SOL    HW227423   0.947   1.846   5.285
 8842SOL     OW27424   2.420   2.734   1.895
 8842SOL    HW127425   2.333   2.781   1.908
 8842SOL    HW227426   2.464   2.767   1.812
 8843SOL     OW27427   1.136   2.560   4.922
 8843SOL    HW127428   1.047   2.552   4.968
 8843SOL    HW227429   1.122   2.556   4.823
 8844SOL     OW27430   6.438   0.589   6.195
 8844SOL    HW127431   6.460   0.604   6.099
 8844SOL    HW227432   6.437   0.677   6.243
 8845SOL     OW27433   4.796   4.096   0.300
 8845SOL    HW127434   4.839   4.028   0.241
 8845SOL    HW227435   4.856   4.115   0.378
 8846SOL     OW27436   1.920   4.429   3.997
 8846SOL    HW127437   2.002   4.373   3.991
 8846SOL    HW227438   1.939   4.519   3.959
 8847SOL     OW27439   3.101   0.185   2.074
 8847SOL    HW127440   3.131   0.134   1.994
 8847SOL    HW227441   3.159   0.266   2.086
 8848SOL     OW27442   1.604   0.435   2.215
 8848SOL    HW127443   1.539   0.415   2.288
 8848SOL    HW227444   1.595   0.531   2.187
 8849SOL     OW27445   2.575   6.777   1.682
 8849SOL    HW127446   2.654   6.783   1.622
 8849SOL    HW227447   2.595   6.714   1.758
 8850SOL     OW27448   3.635   2.331   6.662
 8850SOL    HW127449   3.678   2.336   6.753
 8850SOL    HW227450   3.701   2.361   6.593
 8851SOL     OW27451   1.603   4.506   2.304
 8851SOL    HW127452   1.625   4.598   2.270
 8851SOL    HW227453   1.687   4.455   2.321
 8852SOL     OW27454   1.041   1.363   6.129
 8852SOL    HW127455   0.953   1.356   6.177
 8852SOL    HW227456   1.101   1.427   6.178
 8853SOL     OW27457   3.877   1.364   0.378
 8853SOL    HW127458   3.849   1.439   0.318
 8853SOL    HW227459   3.803   1.345   0.444
 8854SOL     OW27460   1.819   3.266   4.990
 8854SOL    HW127461   1.796   3.314   4.906
 8854SOL    HW227462   1.861   3.178   4.968
 8855SOL     OW27463   5.747   5.192   0.853
 8855SOL    HW127464   5.730   5.174   0.757
 8855SOL    HW227465   5.667   5.166   0.908
 8856SOL     OW27466   0.955   5.708   6.214
 8856SOL    HW127467   0.901   5.785   6.182
 8856SOL    HW227468   1.019   5.738   6.285
 8857SOL     OW27469   6.672   1.163   5.325
 8857SOL    HW127470   6.625   1.153   5.237
 8857SOL    HW227471   6.620   1.116   5.396
 8858SOL     OW27472   6.369   4.680   4.446
 8858SOL    HW127473   6.401   4.752   4.384
 8858SOL    HW227474   6.278   4.651   4.418
 8859SOL     OW27475   0.610   0.634   3.678
 8859SOL    HW127476   0.516   0.604   3.693
 8859SOL    HW227477   0.619   0.730   3.705
 8860SOL     OW27478   6.598   2.259   1.773
 8860SOL    HW127479   6.604   2.177   1.830
 8860SOL    HW227480   6.660   2.329   1.808
 8861SOL     OW27481   4.342   2.333   1.431
 8861SOL    HW127482   4.379   2.417   1.471
 8861SOL    HW227483   4.344   2.341   1.331
 8862SOL     OW27484   4.734   4.870   5.171
 8862SOL    HW127485   4.718   4.968   5.176
 8862SOL    HW227486   4.831   4.850   5.183
 8863SOL     OW27487   2.159   4.027   3.931
 8863SOL    HW127488   2.166   3.933   3.964
 8863SOL    HW227489   2.236   4.047   3.870
 8864SOL     OW27490   5.962   1.400   5.311
 8864SOL    HW127491   6.057   1.391   5.338
 8864SOL    HW227492   5.923   1.483   5.351
 8865SOL     OW27493   2.085   1.418   6.672
 8865SOL    HW127494   2.084   1.481   6.594
 8865SOL    HW227495   2.159   1.352   6.661
 8866SOL     OW27496   5.993   5.932   2.146
 8866SOL    HW127497   6.086   5.970   2.143
 8866SOL    HW227498   5.955   5.945   2.238
 8867SOL     OW27499   6.610   3.968   2.742
 8867SOL    HW127500   6.579   4.013   2.658
 8867SOL    HW227501   6.710   3.969   2.745
 8868SOL     OW27502   0.274   3.672   3.459
 8868SOL    HW127503   0.179   3.651   3.432
 8868SOL    HW227504   0.287   3.771   3.460
 8869SOL     OW27505   3.041   6.280   3.568
 8869SOL    HW127506   3.085   6.197   3.534
 8869SOL    HW227507   2.987   6.259   3.649
 8870SOL     OW27508   1.709   0.037   2.257
 8870SOL    HW127509   1.767   0.021   2.337
 8870SOL    HW227510   1.649   6.979   2.241
 8871SOL     OW27511   0.543   1.178   2.963
 8871SOL    HW127512   0.590   1.252   3.011
 8871SOL    HW227513   0.601   1.143   2.889
 8872SOL     OW27514   0.515   4.723   4.897
 8872SOL    HW127515   0.576   4.669   4.954
 8872SOL    HW227516   0.446   4.663   4.856
 8873SOL     OW27517   1.451   0.853   2.457
 8873SOL    HW127518   1.361   0.889   2.485
 8873SOL    HW227519   1.515   0.863   2.533
 8874SOL     OW27520   2.993   5.735   0.256
 8874SOL    HW127521   2.949   5.727   0.167
 8874SOL    HW227522   2.961   5.819   0.302
 8875SOL     OW27523   0.292   3.358   3.785
 8875SOL    HW127524   0.217   3.386   3.726
 8875SOL    HW227525   0.361   3.310   3.731
 8876SOL     OW27526   3.719   0.822   6.544
 8876SOL    HW127527   3.793   0.846   6.607
 8876SOL    HW227528   3.739   0.860   6.453
 8877SOL     OW27529   1.603   4.025   1.358
 8877SOL    HW127530   1.594   3.939   1.409
 8877SOL    HW227531   1.537   4.027   1.284
 8878SOL     OW27532   4.255   4.133   0.969
 8878SOL    HW127533   4.311   4.153   0.888
 8878SOL    HW227534   4.186   4.065   0.945
 8879SOL     OW27535   6.011   4.639   2.413
 8879SOL    HW127536   5.986   4.684   2.328
 8879SOL    HW227537   5.986   4.696   2.491
 8880SOL     OW27538   4.776   6.581   3.903
 8880SOL    HW127539   4.875   6.592   3.904
 8880SOL    HW227540   4.734   6.648   3.966
 8881SOL     OW27541   4.138   5.344   4.582
 8881SOL    HW127542   4.098   5.423   4.536
 8881SOL    HW227543   4.136   5.265   4.520
 8882SOL     OW27544   4.361   0.459   1.151
 8882SOL    HW127545   4.430   0.409   1.203
 8882SOL    HW227546   4.368   0.557   1.170
 8883SOL     OW27547   0.263   6.203   4.620
 8883SOL    HW127548   0.226   6.148   4.696
 8883SOL    HW227549   0.250   6.154   4.534
 8884SOL     OW27550   5.224   3.568   4.944
 8884SOL    HW127551   5.138   3.580   4.893
 8884SOL    HW227552   5.204   3.529   5.034
 8885SOL     OW27553   6.211   5.459   0.513
 8885SOL    HW127554   6.143   5.450   0.586
 8885SOL    HW227555   6.302   5.468   0.554
 8886SOL     OW27556   3.242   5.681   6.655
 8886SOL    HW127557   3.215   5.680   6.751
 8886SOL    HW227558   3.329   5.634   6.644
 8887SOL     OW27559   4.913   1.583   1.360
 8887SOL    HW127560   4.888   1.654   1.426
 8887SOL    HW227561   4.990   1.615   1.304
 8888SOL     OW27562   2.523   1.778   3.880
 8888SOL    HW127563   2.472   1.697   3.854
 8888SOL    HW227564   2.547   1.830   3.798
 8889SOL     OW27565   0.383   6.425   6.197
 8889SOL    HW127566   0.347   6.332   6.202
 8889SOL    HW227567   0.346   6.470   6.115
 8890SOL     OW27568   0.150   0.036   0.058
 8890SOL    HW127569   0.124   6.994   0.132
 8890SOL    HW227570   0.080   0.033   7.007
 8891SOL     OW27571   6.250   4.551   0.282
 8891SOL    HW127572   6.284   4.638   0.319
 8891SOL    HW227573   6.200   4.568   0.197
 8892SOL     OW27574   2.920   5.558   3.586
 8892SOL    HW127575   2.833   5.608   3.586
 8892SOL    HW227576   2.986   5.606   3.529
 8893SOL     OW27577   1.387   4.900   4.891
 8893SOL    HW127578   1.396   4.975   4.957
 8893SOL    HW227579   1.366   4.938   4.801
 8894SOL     OW27580   4.406   1.715   0.013
 8894SOL    HW127581   4.321   1.756   7.001
 8894SOL    HW227582   4.386   1.629   0.060
 8895SOL     OW27583   0.268   3.600   1.198
 8895SOL    HW127584   0.211   3.682   1.207
 8895SOL    HW227585   0.360   3.627   1.170
 8896SOL     OW27586   0.317   2.127   4.350
 8896SOL    HW127587   0.293   2.030   4.357
 8896SOL    HW227588   0.233   2.182   4.350
 8897SOL     OW27589   1.979   4.053   4.264
 8897SOL    HW127590   1.935   3.971   4.302
 8897SOL    HW227591   2.077   4.037   4.253
 8898SOL     OW27592   5.186   4.015   2.805
 8898SOL    HW127593   5.098   3.988   2.843
 8898SOL    HW227594   5.243   3.934   2.791
 8899SOL     OW27595   6.796   3.343   6.182
 8899SOL    HW127596   6.705   3.375   6.153
 8899SOL    HW227597   6.836   3.287   6.110
 8900SOL     OW27598   5.062   2.788   4.018
 8900SOL    HW127599   5.014   2.870   4.046
 8900SOL    HW227600   5.019   2.708   4.059
 8901SOL     OW27601   1.303   2.808   4.667
 8901SOL    HW127602   1.259   2.881   4.719
 8901SOL    HW227603   1.236   2.765   4.607
 8902SOL     OW27604   0.625   4.356   0.089
 8902SOL    HW127605   0.705   4.380   0.144
 8902SOL    HW227606   0.611   4.426   0.019
 8903SOL     OW27607   1.325   0.280   4.912
 8903SOL    HW127608   1.321   0.216   4.989
 8903SOL    HW227609   1.393   0.350   4.931
 8904SOL     OW27610   0.584   1.172   3.528
 8904SOL    HW127611   0.646   1.146   3.454
 8904SOL    HW227612   0.577   1.272   3.532
 8905SOL     OW27613   1.641   3.675   1.745
 8905SOL    HW127614   1.556   3.687   1.694
 8905SOL    HW227615   1.665   3.760   1.792
 8906SOL     OW27616   6.911   0.005   0.714
 8906SOL    HW127617   6.848   6.992   0.643
 8906SOL    HW227618   6.876   0.091   0.751
 8907SOL     OW27619   3.803   2.998   4.943
 8907SOL    HW127620   3.730   3.066   4.944
 8907SOL    HW227621   3.834   2.984   4.849
 8908SOL     OW27622   1.335   5.932   0.956
 8908SOL    HW127623   1.280   5.855   0.923
 8908SOL    HW227624   1.282   6.017   0.945
 8909SOL     OW27625   3.010   0.772   0.022
 8909SOL    HW127626   2.910   0.771   0.025
 8909SOL    HW227627   3.044   0.840   0.088
 8910SOL     OW27628   1.903   1.848   4.172
 8910SOL    HW127629   1.890   1.935   4.219
 8910SOL    HW227630   1.985   1.853   4.115
 8911SOL     OW27631   4.655   1.475   4.159
 8911SOL    HW127632   4.638   1.492   4.256
 8911SOL    HW227633   4.635   1.557   4.107
 8912SOL     OW27634   3.320   3.743   5.006
 8912SOL    HW127635   3.308   3.793   4.920
 8912SOL    HW227636   3.237   3.752   5.062
 8913SOL     OW27637   5.154   5.855   6.818
 8913SOL    HW127638   5.141   5.951   6.795
 8913SOL    HW227639   5.228   5.847   6.885
 8914SOL     OW27640   5.058   6.506   6.346
 8914SOL    HW127641   5.084   6.551   6.261
 8914SOL    HW227642   4.984   6.557   6.390
 8915SOL     OW27643   0.948   1.040   3.597
 8915SOL    HW127644   0.883   0.967   3.574
 8915SOL    HW227645   0.902   1.108   3.654
 8916SOL     OW27646   5.326   1.305   6.947
 8916SOL    HW127647   5.357   1.397   6.972
 8916SOL    HW227648   5.398   1.258   6.895
 8917SOL     OW27649   5.620   1.722   0.298
 8917SOL    HW127650   5.700   1.732   0.357
 8917SOL    HW227651   5.636   1.770   0.212
 8918SOL     OW27652   0.801   4.401   2.093
 8918SOL    HW127653   0.901   4.403   2.097
 8918SOL    HW227654   0.771   4.327   2.032
 8919SOL     OW27655   5.832   3.648   0.210
 8919SOL    HW127656   5.786   3.721   0.160
 8919SOL    HW227657   5.853   3.572   0.148
 8920SOL     OW27658   6.747   1.520   0.193
 8920SOL    HW127659   6.669   1.458   0.202
 8920SOL    HW227660   6.714   1.614   0.187
 8921SOL     OW27661   1.329   3.178   1.116
 8921SOL    HW127662   1.381   3.248   1.166
 8921SOL    HW227663   1.330   3.200   1.018
 8922SOL     OW27664   3.463   0.474   3.496
 8922SOL    HW127665   3.399   0.405   3.464
 8922SOL    HW227666   3.475   0.466   3.595
 8923SOL     OW27667   1.709   2.239   5.063
 8923SOL    HW127668   1.695   2.325   5.014
 8923SOL    HW227669   1.641   2.231   5.136
 8924SOL     OW27670   5.285   5.289   4.604
 8924SOL    HW127671   5.311   5.246   4.691
 8924SOL    HW227672   5.186   5.287   4.594
 8925SOL     OW27673   1.107   0.830   3.493
 8925SOL    HW127674   1.055   0.745   3.491
 8925SOL    HW227675   1.044   0.906   3.512
 8926SOL     OW27676   6.600   3.195   5.222
 8926SOL    HW127677   6.638   3.254   5.293
 8926SOL    HW227678   6.506   3.223   5.202
 8927SOL     OW27679   6.851   1.473   6.501
 8927SOL    HW127680   6.778   1.526   6.457
 8927SOL    HW227681   6.916   1.443   6.431
 8928SOL     OW27682   1.912   6.450   5.117
 8928SOL    HW127683   1.830   6.497   5.150
 8928SOL    HW227684   1.922   6.465   5.019
 8929SOL     OW27685   0.010   1.888   4.536
 8929SOL    HW127686   0.055   1.898   4.624
 8929SOL    HW227687   6.979   1.971   4.515
 8930SOL     OW27688   1.724   4.860   3.816
 8930SOL    HW127689   1.700   4.827   3.908
 8930SOL    HW227690   1.646   4.849   3.755
 8931SOL     OW27691   3.667   2.593   1.161
 8931SOL    HW127692   3.601   2.550   1.099
 8931SOL    HW227693   3.624   2.608   1.249
 8932SOL     OW27694   0.129   2.744   3.082
 8932SOL    HW127695   0.209   2.695   3.049
 8932SOL    HW227696   0.110   2.717   3.176
 8933SOL     OW27697   3.854   2.041   5.699
 8933SOL    HW127698   3.801   1.959   5.722
 8933SOL    HW227699   3.861   2.101   5.778
 8934SOL     OW27700   2.693   5.964   4.372
 8934SOL    HW127701   2.749   6.000   4.447
 8934SOL    HW227702   2.714   5.867   4.359
 8935SOL     OW27703   0.084   4.949   1.273
 8935SOL    HW127704   0.114   4.896   1.353
 8935SOL    HW227705   0.093   5.047   1.293
 8936SOL     OW27706   1.997   3.152   0.964
 8936SOL    HW127707   2.074   3.161   1.028
 8936SOL    HW227708   2.031   3.124   0.874
 8937SOL     OW27709   0.528   6.595   5.786
 8937SOL    HW127710   0.505   6.689   5.812
 8937SOL    HW227711   0.489   6.574   5.697
 8938SOL     OW27712   6.162   5.545   0.976
 8938SOL    HW127713   6.133   5.474   1.041
 8938SOL    HW227714   6.254   5.575   0.999
 8939SOL     OW27715   5.423   2.268   4.368
 8939SOL    HW127716   5.331   2.295   4.396
 8939SOL    HW227717   5.482   2.349   4.365
 8940SOL     OW27718   6.526   1.041   3.713
 8940SOL    HW127719   6.619   1.070   3.731
 8940SOL    HW227720   6.464   1.120   3.721
 8941SOL     OW27721   5.322   2.644   6.187
 8941SOL    HW127722   5.362   2.553   6.176
 8941SOL    HW227723   5.252   2.659   6.117
 8942SOL     OW27724   0.342   2.284   5.320
 8942SOL    HW127725   0.287   2.365   5.339
 8942SOL    HW227726   0.291   2.202   5.346
 8943SOL     OW27727   4.688   3.275   1.117
 8943SOL    HW127728   4.765   3.224   1.156
 8943SOL    HW227729   4.621   3.294   1.189
 8944SOL     OW27730   4.086   5.787   0.769
 8944SOL    HW127731   4.116   5.767   0.676
 8944SOL    HW227732   4.109   5.712   0.830
 8945SOL     OW27733   2.463   0.616   4.451
 8945SOL    HW127734   2.377   0.648   4.410
 8945SOL    HW227735   2.501   0.688   4.509
 8946SOL     OW27736   3.650   1.590   5.070
 8946SOL    HW127737   3.739   1.546   5.062
 8946SOL    HW227738   3.661   1.689   5.066
 8947SOL     OW27739   3.846   3.539   5.651
 8947SOL    HW127740   3.900   3.548   5.567
 8947SOL    HW227741   3.749   3.534   5.628
 8948SOL     OW27742   5.493   4.791   3.102
 8948SOL    HW127743   5.465   4.720   3.166
 8948SOL    HW227744   5.447   4.877   3.126
 8949SOL     OW27745   1.311   6.974   6.636
 8949SOL    HW127746   1.301   6.964   6.735
 8949SOL    HW227747   1.269   0.040   6.607
 8950SOL     OW27748   4.964   3.124   5.075
 8950SOL    HW127749   5.012   3.114   4.987
 8950SOL    HW227750   4.957   3.221   5.098
 8951SOL     OW27751   1.417   2.935   5.524
 8951SOL    HW127752   1.431   2.836   5.520
 8951SOL    HW227753   1.503   2.982   5.502
 8952SOL     OW27754   1.191   1.116   3.170
 8952SOL    HW127755   1.176   1.185   3.099
 8952SOL    HW227756   1.246   1.154   3.243
 8953SOL     OW27757   1.961   3.220   0.080
 8953SOL    HW127758   1.973   3.134   0.129
 8953SOL    HW227759   1.967   3.296   0.144
 8954SOL     OW27760   1.443   5.967   6.351
 8954SOL    HW127761   1.517   6.034   6.349
 8954SOL    HW227762   1.455   5.907   6.430
 8955SOL     OW27763   6.963   4.224   3.611
 8955SOL    HW127764   6.905   4.229   3.692
 8955SOL    HW227765   6.906   4.229   3.529
 8956SOL     OW27766   0.218   0.983   6.435
 8956SOL    HW127767   0.205   0.946   6.528
 8956SOL    HW227768   0.263   0.914   6.378
 8957SOL     OW27769   2.759   4.870   1.973
 8957SOL    HW127770   2.781   4.773   1.986
 8957SOL    HW227771   2.777   4.896   1.878
 8958SOL     OW27772   1.578   6.828   4.178
 8958SOL    HW127773   1.518   6.848   4.256
 8958SOL    HW227774   1.664   6.790   4.212
 8959SOL     OW27775   1.475   4.826   0.608
 8959SOL    HW127776   1.387   4.870   0.594
 8959SOL    HW227777   1.548   4.889   0.580
 8960SOL     OW27778   3.895   5.694   1.924
 8960SOL    HW127779   3.956   5.619   1.950
 8960SOL    HW227780   3.807   5.656   1.894
 8961SOL     OW27781   1.351   2.213   4.039
 8961SOL    HW127782   1.378   2.120   4.011
 8961SOL    HW227783   1.408   2.280   3.992
 8962SOL     OW27784   5.689   0.580   3.451
 8962SOL    HW127785   5.680   0.543   3.544
 8962SOL    HW227786   5.727   0.672   3.456
 8963SOL     OW27787   5.635   0.485   4.743
 8963SOL    HW127788   5.637   0.391   4.778
 8963SOL    HW227789   5.721   0.530   4.763
 8964SOL     OW27790   5.290   4.898   2.017
 8964SOL    HW127791   5.217   4.876   1.952
 8964SOL    HW227792   5.341   4.977   1.983
 8965SOL     OW27793   1.622   5.362   1.663
 8965SOL    HW127794   1.655   5.395   1.751
 8965SOL    HW227795   1.650   5.425   1.591
 8966SOL     OW27796   1.901   2.408   6.395
 8966SOL    HW127797   1.813   2.393   6.349
 8966SOL    HW227798   1.926   2.505   6.387
 8967SOL     OW27799   4.242   0.509   0.595
 8967SOL    HW127800   4.221   0.604   0.575
 8967SOL    HW227801   4.252   0.496   0.693
 8968SOL     OW27802   5.309   6.281   1.433
 8968SOL    HW127803   5.249   6.360   1.419
 8968SOL    HW227804   5.254   6.204   1.466
 8969SOL     OW27805   5.838   0.998   3.700
 8969SOL    HW127806   5.821   1.095   3.718
 8969SOL    HW227807   5.881   0.988   3.610
 8970SOL     OW27808   3.451   2.528   1.536
 8970SOL    HW127809   3.533   2.517   1.591
 8970SOL    HW227810   3.387   2.454   1.556
 8971SOL     OW27811   3.758   5.564   2.280
 8971SOL    HW127812   3.762   5.651   2.231
 8971SOL    HW227813   3.684   5.508   2.242
 8972SOL     OW27814   5.579   6.141   5.934
 8972SOL    HW127815   5.611   6.067   5.875
 8972SOL    HW227816   5.551   6.104   6.022
 8973SOL     OW27817   1.684   5.005   0.588
 8973SOL    HW127818   1.776   5.035   0.611
 8973SOL    HW227819   1.636   5.078   0.539
 8974SOL     OW27820   0.505   4.094   5.921
 8974SOL    HW127821   0.465   4.062   6.007
 8974SOL    HW227822   0.515   4.017   5.859
 8975SOL     OW27823   2.979   0.281   0.959
 8975SOL    HW127824   3.042   0.327   0.896
 8975SOL    HW227825   2.946   0.196   0.917
 8976SOL     OW27826   1.832   5.407   4.426
 8976SOL    HW127827   1.779   5.322   4.428
 8976SOL    HW227828   1.876   5.418   4.337
 8977SOL     OW27829   6.142   1.369   5.553
 8977SOL    HW127830   6.153   1.357   5.651
 8977SOL    HW227831   6.153   1.465   5.530
 8978SOL     OW27832   5.647   6.366   0.044
 8978SOL    HW127833   5.657   6.270   0.069
 8978SOL    HW227834   5.736   6.402   0.017
 8979SOL     OW27835   1.762   4.029   5.010
 8979SOL    HW127836   1.763   3.935   4.977
 8979SOL    HW227837   1.790   4.032   5.106
 8980SOL     OW27838   3.416   3.217   4.722
 8980SOL    HW127839   3.426   3.269   4.637
 8980SOL    HW227840   3.332   3.247   4.768
 8981SOL     OW27841   3.631   1.103   5.047
 8981SOL    HW127842   3.629   1.175   5.115
 8981SOL    HW227843   3.615   1.141   4.956
 8982SOL     OW27844   2.399   4.110   0.603
 8982SOL    HW127845   2.477   4.155   0.648
 8982SOL    HW227846   2.349   4.178   0.549
 8983SOL     OW27847   3.718   5.398   6.862
 8983SOL    HW127848   3.662   5.353   6.792
 8983SOL    HW227849   3.741   5.333   6.934
 8984SOL     OW27850   2.241   5.644   3.436
 8984SOL    HW127851   2.245   5.582   3.358
 8984SOL    HW227852   2.325   5.636   3.489
 8985SOL     OW27853   3.592   2.827   0.208
 8985SOL    HW127854   3.665   2.895   0.216
 8985SOL    HW227855   3.530   2.835   0.287
 8986SOL     OW27856   3.607   4.914   3.023
 8986SOL    HW127857   3.614   4.871   3.113
 8986SOL    HW227858   3.511   4.920   2.996
 8987SOL     OW27859   5.425   5.836   2.821
 8987SOL    HW127860   5.524   5.835   2.809
 8987SOL    HW227861   5.393   5.743   2.841
 8988SOL     OW27862   0.321   5.595   4.099
 8988SOL    HW127863   0.257   5.661   4.061
 8988SOL    HW227864   0.271   5.523   4.147
 8989SOL     OW27865   4.425   2.707   6.421
 8989SOL    HW127866   4.503   2.647   6.403
 8989SOL    HW227867   4.454   2.802   6.411
 8990SOL     OW27868   0.635   5.097   4.016
 8990SOL    HW127869   0.551   5.048   4.040
 8990SOL    HW227870   0.704   5.081   4.086
 8991SOL     OW27871   1.578   2.298   4.660
 8991SOL    HW127872   1.624   2.211   4.681
 8991SOL    HW227873   1.504   2.313   4.725
 8992SOL     OW27874   5.749   2.156   0.057
 8992SOL    HW127875   5.810   2.225   0.095
 8992SOL    HW227876   5.733   2.174   6.980
 8993SOL     OW27877   3.936   3.445   6.121
 8993SOL    HW127878   3.924   3.518   6.189
 8993SOL    HW227879   3.958   3.485   6.033
 8994SOL     OW27880   2.178   4.497   4.771
 8994SOL    HW127881   2.083   4.466   4.776
 8994SOL    HW227882   2.208   4.499   4.676
 8995SOL     OW27883   0.090   1.742   1.577
 8995SOL    HW127884   0.109   1.663   1.519
 8995SOL    HW227885   0.159   1.813   1.561
 8996SOL     OW27886   5.231   3.915   6.712
 8996SOL    HW127887   5.191   3.850   6.776
 8996SOL    HW227888   5.329   3.923   6.730
 8997SOL     OW27889   5.249   0.903   5.411
 8997SOL    HW127890   5.165   0.947   5.445
 8997SOL    HW227891   5.324   0.969   5.414
 8998SOL     OW27892   6.294   3.939   3.792
 8998SOL    HW127893   6.392   3.938   3.771
 8998SOL    HW227894   6.264   4.034   3.802
 8999SOL     OW27895   4.586   0.165   5.987
 8999SOL    HW127896   4.637   0.157   5.902
 8999SOL    HW227897   4.617   0.246   6.037
 9000SOL     OW27898   1.461   4.222   1.479
 9000SOL    HW127899   1.513   4.159   1.421
 9000SOL    HW227900   1.366   4.226   1.448
 9001SOL     OW27901   0.189   4.845   2.246
 9001SOL    HW127902   0.245   4.767   2.273
 9001SOL    HW227903   0.128   4.870   2.321
 9002SOL     OW27904   1.209   4.219   5.583
 9002SOL    HW127905   1.241   4.254   5.495
 9002SOL    HW227906   1.255   4.132   5.603
 9003SOL     OW27907   5.390   2.677   1.151
 9003SOL    HW127908   5.362   2.766   1.116
 9003SOL    HW227909   5.466   2.688   1.215
 9004SOL     OW27910   4.328   5.236   0.829
 9004SOL    HW127911   4.371   5.325   0.812
 9004SOL    HW227912   4.315   5.188   0.743
 9005SOL     OW27913   5.518   1.238   5.899
 9005SOL    HW127914   5.596   1.300   5.885
 9005SOL    HW227915   5.548   1.144   5.884
 9006SOL     OW27916   3.115   0.366   0.739
 9006SOL    HW127917   3.214   0.357   0.748
 9006SOL    HW227918   3.083   0.315   0.659
 9007SOL     OW27919   2.687   1.255   2.602
 9007SOL    HW127920   2.662   1.181   2.665
 9007SOL    HW227921   2.652   1.342   2.637
 9008SOL     OW27922   0.413   5.314   3.004
 9008SOL    HW127923   0.502   5.278   2.976
 9008SOL    HW227924   0.419   5.352   3.096
 9009SOL     OW27925   3.872   5.239   1.046
 9009SOL    HW127926   3.894   5.335   1.032
 9009SOL    HW227927   3.944   5.183   1.004
 9010SOL     OW27928   2.143   6.674   4.190
 9010SOL    HW127929   2.048   6.691   4.165
 9010SOL    HW227930   2.162   6.713   4.280
 9011SOL     OW27931   4.358   0.879   2.091
 9011SOL    HW127932   4.387   0.785   2.105
 9011SOL    HW227933   4.374   0.905   1.995
 9012SOL     OW27934   2.581   5.787   0.663
 9012SOL    HW127935   2.523   5.796   0.744
 9012SOL    HW227936   2.550   5.709   0.609
 9013SOL     OW27937   1.427   6.859   4.436
 9013SOL    HW127938   1.482   6.923   4.489
 9013SOL    HW227939   1.426   6.770   4.482
 9014SOL     OW27940   6.488   2.729   1.844
 9014SOL    HW127941   6.574   2.733   1.896
 9014SOL    HW227942   6.434   2.651   1.875
 9015SOL     OW27943   5.019   2.766   1.125
 9015SOL    HW127944   5.072   2.743   1.043
 9015SOL    HW227945   5.010   2.865   1.132
 9016SOL     OW27946   5.769   5.118   6.864
 9016SOL    HW127947   5.693   5.061   6.896
 9016SOL    HW227948   5.779   5.196   6.926
 9017SOL     OW27949   3.406   1.002   4.721
 9017SOL    HW127950   3.493   1.048   4.741
 9017SOL    HW227951   3.357   0.986   4.806
 9018SOL     OW27952   3.769   3.285   6.763
 9018SOL    HW127953   3.845   3.342   6.794
 9018SOL    HW227954   3.766   3.201   6.818
 9019SOL     OW27955   1.274   3.915   3.121
 9019SOL    HW127956   1.215   3.842   3.158
 9019SOL    HW227957   1.345   3.874   3.064
 9020SOL     OW27958   6.599   5.462   1.379
 9020SOL    HW127959   6.588   5.447   1.477
 9020SOL    HW227960   6.692   5.495   1.361
 9021SOL     OW27961   6.616   0.212   3.807
 9021SOL    HW127962   6.592   0.255   3.720
 9021SOL    HW227963   6.540   0.154   3.838
 9022SOL     OW27964   3.934   2.672   7.010
 9022SOL    HW127965   3.913   2.741   6.942
 9022SOL    HW227966   3.952   2.585   6.965
 9023SOL     OW27967   4.002   3.040   1.067
 9023SOL    HW127968   4.082   3.030   1.009
 9023SOL    HW227969   4.006   2.975   1.143
 9024SOL     OW27970   0.969   4.925   5.911
 9024SOL    HW127971   0.942   5.019   5.890
 9024SOL    HW227972   1.000   4.879   5.827
 9025SOL     OW27973   0.520   5.601   0.498
 9025SOL    HW127974   0.425   5.612   0.528
 9025SOL    HW227975   0.540   5.670   0.428
 9026SOL     OW27976   3.721   1.563   0.255
 9026SOL    HW127977   3.685   1.504   0.183
 9026SOL    HW227978   3.649   1.624   0.288
 9027SOL     OW27979   1.050   3.698   3.756
 9027SOL    HW127980   1.149   3.682   3.757
 9027SOL    HW227981   1.008   3.647   3.831
 9028SOL     OW27982   3.635   3.213   4.906
 9028SOL    HW127983   3.560   3.231   4.843
 9028SOL    HW227984   3.671   3.299   4.942
 9029SOL     OW27985   4.252   0.704   4.610
 9029SOL    HW127986   4.291   0.777   4.666
 9029SOL    HW227987   4.273   0.721   4.514
 9030SOL     OW27988   2.441   2.423   3.912
 9030SOL    HW127989   2.488   2.443   3.998
 9030SOL    HW227990   2.342   2.429   3.927
 9031SOL     OW27991   4.514   0.070   4.432
 9031SOL    HW127992   4.505   0.071   4.333
 9031SOL    HW227993   4.424   0.085   4.474
 9032SOL     OW27994   4.856   3.558   1.105
 9032SOL    HW127995   4.832   3.466   1.074
 9032SOL    HW227996   4.859   3.559   1.205
 9033SOL     OW27997   0.563   5.291   2.240
 9033SOL    HW127998   0.495   5.364   2.234
 9033SOL    HW227999   0.520   5.204   2.217
 9034SOL     OW28000   3.299   6.088   5.062
 9034SOL    HW128001   3.223   6.111   5.001
 9034SOL    HW228002   3.386   6.103   5.015
 9035SOL     OW28003   2.208   5.814   0.172
 9035SOL    HW128004   2.150   5.837   0.250
 9035SOL    HW228005   2.224   5.896   0.118
 9036SOL     OW28006   1.401   3.431   5.085
 9036SOL    HW128007   1.355   3.484   5.014
 9036SOL    HW228008   1.351   3.440   5.171
 9037SOL     OW28009   0.698   2.644   4.137
 9037SOL    HW128010   0.610   2.597   4.132
 9037SOL    HW228011   0.772   2.578   4.129
 9038SOL     OW28012   4.603   2.941   6.442
 9038SOL    HW128013   4.541   2.973   6.513
 9038SOL    HW228014   4.613   3.013   6.373
 9039SOL     OW28015   3.474   4.715   6.791
 9039SOL    HW128016   3.389   4.768   6.798
 9039SOL    HW228017   3.456   4.621   6.818
 9040SOL     OW28018   2.312   2.435   1.754
 9040SOL    HW128019   2.279   2.345   1.724
 9040SOL    HW228020   2.331   2.492   1.675
 9041SOL     OW28021   0.659   2.375   0.988
 9041SOL    HW128022   0.623   2.459   1.029
 9041SOL    HW228023   0.594   2.341   0.921
 9042SOL     OW28024   3.677   5.806   5.102
 9042SOL    HW128025   3.688   5.764   5.192
 9042SOL    HW228026   3.767   5.833   5.066
 9043SOL     OW28027   2.649   1.318   6.639
 9043SOL    HW128028   2.661   1.402   6.586
 9043SOL    HW228029   2.652   1.340   6.737
 9044SOL     OW28030   0.496   0.490   0.084
 9044SOL    HW128031   0.465   0.489   0.179
 9044SOL    HW228032   0.486   0.399   0.044
 9045SOL     OW28033   4.259   0.322   3.327
 9045SOL    HW128034   4.356   0.343   3.338
 9045SOL    HW228035   4.206   0.406   3.339
 9046SOL     OW28036   3.738   3.243   2.522
 9046SOL    HW128037   3.746   3.153   2.567
 9046SOL    HW228038   3.660   3.242   2.461
 9047SOL     OW28039   1.749   4.457   5.543
 9047SOL    HW128040   1.677   4.513   5.502
 9047SOL    HW228041   1.800   4.511   5.610
 9048SOL     OW28042   5.777   2.353   6.282
 9048SOL    HW128043   5.780   2.434   6.340
 9048SOL    HW228044   5.809   2.377   6.190
 9049SOL     OW28045   3.321   6.667   6.251
 9049SOL    HW128046   3.314   6.669   6.351
 9049SOL    HW228047   3.414   6.639   6.225
 9050SOL     OW28048   0.678   4.413   1.598
 9050SOL    HW128049   0.646   4.343   1.534
 9050SOL    HW228050   0.748   4.470   1.554
 9051SOL     OW28051   2.583   1.457   1.054
 9051SOL    HW128052   2.664   1.416   1.095
 9051SOL    HW228053   2.555   1.405   0.973
 9052SOL     OW28054   1.927   2.730   4.356
 9052SOL    HW128055   1.970   2.801   4.301
 9052SOL    HW228056   1.837   2.709   4.319
 9053SOL     OW28057   2.183   1.454   1.423
 9053SOL    HW128058   2.230   1.539   1.446
 9053SOL    HW228059   2.195   1.434   1.326
 9054SOL     OW28060   2.952   5.483   3.859
 9054SOL    HW128061   2.993   5.526   3.779
 9054SOL    HW228062   2.968   5.384   3.855
 9055SOL     OW28063   6.800   4.336   4.860
 9055SOL    HW128064   6.787   4.285   4.945
 9055SOL    HW228065   6.716   4.388   4.839
 9056SOL     OW28066   6.057   2.129   2.295
 9056SOL    HW128067   6.113   2.184   2.358
 9056SOL    HW228068   6.100   2.040   2.281
 9057SOL     OW28069   4.558   1.622   4.366
 9057SOL    HW128070   4.563   1.610   4.465
 9057SOL    HW228071   4.614   1.699   4.338
 9058SOL     OW28072   1.596   0.264   6.171
 9058SOL    HW128073   1.536   0.263   6.251
 9058SOL    HW228074   1.659   0.187   6.176
 9059SOL     OW28075   1.668   2.334   2.466
 9059SOL    HW128076   1.615   2.274   2.407
 9059SOL    HW228077   1.759   2.296   2.479
 9060SOL     OW28078   5.011   2.943   4.619
 9060SOL    HW128079   5.089   2.979   4.568
 9060SOL    HW228080   5.025   2.846   4.638
 9061SOL     OW28081   4.788   5.301   2.471
 9061SOL    HW128082   4.748   5.270   2.386
 9061SOL    HW228083   4.772   5.399   2.482
 9062SOL     OW28084   1.735   5.482   1.439
 9062SOL    HW128085   1.825   5.482   1.481
 9062SOL    HW228086   1.739   5.436   1.350
 9063SOL     OW28087   2.903   1.686   3.478
 9063SOL    HW128088   2.891   1.728   3.568
 9063SOL    HW228089   2.877   1.590   3.482
 9064SOL     OW28090   6.533   3.499   7.015
 9064SOL    HW128091   6.553   3.545   0.081
 9064SOL    HW228092   6.596   3.531   6.945
 9065SOL     OW28093   3.122   0.743   0.358
 9065SOL    HW128094   3.090   0.651   0.379
 9065SOL    HW228095   3.059   0.810   0.399
 9066SOL     OW28096   5.103   6.636   0.005
 9066SOL    HW128097   5.201   6.631   7.004
 9066SOL    HW228098   5.069   6.727   7.003
 9067SOL     OW28099   1.572   0.100   3.221
 9067SOL    HW128100   1.484   0.085   3.175
 9067SOL    HW228101   1.570   0.059   3.312
 9068SOL     OW28102   1.638   6.051   5.956
 9068SOL    HW128103   1.719   6.031   6.012
 9068SOL    HW228104   1.556   6.039   6.012
 9069SOL     OW28105   1.966   2.569   5.990
 9069SOL    HW128106   1.968   2.608   5.897
 9069SOL    HW228107   2.022   2.486   5.992
 9070SOL     OW28108   1.408   4.196   4.684
 9070SOL    HW128109   1.317   4.236   4.676
 9070SOL    HW228110   1.418   4.153   4.774
 9071SOL     OW28111   6.177   6.494   6.958
 9071SOL    HW128112   6.210   6.589   6.962
 9071SOL    HW228113   6.203   6.454   6.870
 9072SOL     OW28114   6.769   3.982   0.354
 9072SOL    HW128115   6.736   3.908   0.295
 9072SOL    HW228116   6.811   4.053   0.297
 9073SOL     OW28117   1.953   0.748   2.121
 9073SOL    HW128118   2.053   0.752   2.115
 9073SOL    HW228119   1.915   0.736   2.029
 9074SOL     OW28120   1.312   6.921   3.144
 9074SOL    HW128121   1.351   6.835   3.111
 9074SOL    HW228122   1.217   6.929   3.115
 9075SOL     OW28123   6.860   0.848   2.216
 9075SOL    HW128124   6.862   0.792   2.299
 9075SOL    HW228125   6.876   0.944   2.241
 9076SOL     OW28126   6.743   0.954   5.578
 9076SOL    HW128127   6.690   0.888   5.524
 9076SOL    HW228128   6.832   0.914   5.600
 9077SOL     OW28129   5.631   6.385   2.319
 9077SOL    HW128130   5.610   6.378   2.221
 9077SOL    HW228131   5.559   6.340   2.371
 9078SOL     OW28132   4.109   3.564   4.500
 9078SOL    HW128133   4.057   3.478   4.499
 9078SOL    HW228134   4.164   3.569   4.583
 9079SOL     OW28135   3.362   6.810   5.058
 9079SOL    HW128136   3.454   6.782   5.084
 9079SOL    HW228137   3.302   6.730   5.055
 9080SOL     OW28138   5.487   2.546   0.468
 9080SOL    HW128139   5.398   2.513   0.499
 9080SOL    HW228140   5.478   2.639   0.433
 9081SOL     OW28141   5.673   6.324   2.053
 9081SOL    HW128142   5.763   6.306   2.092
 9081SOL    HW228143   5.682   6.348   1.957
 9082SOL     OW28144   3.304   1.209   3.960
 9082SOL    HW128145   3.278   1.236   3.867
 9082SOL    HW228146   3.225   1.168   4.006
 9083SOL     OW28147   5.092   4.469   5.150
 9083SOL    HW128148   5.139   4.501   5.232
 9083SOL    HW228149   5.047   4.381   5.168
 9084SOL     OW28150   3.398   3.905   3.250
 9084SOL    HW128151   3.396   3.992   3.201
 9084SOL    HW228152   3.409   3.922   3.348
 9085SOL     OW28153   2.123   2.385   1.401
 9085SOL    HW128154   2.178   2.301   1.393
 9085SOL    HW228155   2.176   2.462   1.364
 9086SOL     OW28156   0.379   3.886   1.396
 9086SOL    HW128157   0.291   3.886   1.442
 9086SOL    HW228158   0.366   3.901   1.298
 9087SOL     OW28159   4.894   3.765   2.494
 9087SOL    HW128160   4.943   3.848   2.467
 9087SOL    HW228161   4.828   3.740   2.423
 9088SOL     OW28162   6.004   0.755   6.443
 9088SOL    HW128163   5.980   0.830   6.505
 9088SOL    HW228164   5.947   0.760   6.361
 9089SOL     OW28165   4.278   0.060   5.669
 9089SOL    HW128166   4.204   0.029   5.728
 9089SOL    HW228167   4.308   0.151   5.698
 9090SOL     OW28168   5.729   1.113   4.236
 9090SOL    HW128169   5.636   1.100   4.271
 9090SOL    HW228170   5.741   1.058   4.153
 9091SOL     OW28171   3.440   3.659   6.952
 9091SOL    HW128172   3.499   3.618   6.882
 9091SOL    HW228173   3.430   3.757   6.934
 9092SOL     OW28174   6.665   2.382   0.237
 9092SOL    HW128175   6.670   2.314   0.164
 9092SOL    HW228176   6.603   2.455   0.209
 9093SOL     OW28177   1.625   6.832   5.064
 9093SOL    HW128178   1.573   6.893   5.004
 9093SOL    HW228179   1.633   6.874   5.155
 9094SOL     OW28180   0.490   3.456   2.051
 9094SOL    HW128181   0.452   3.412   2.132
 9094SOL    HW228182   0.512   3.551   2.071
 9095SOL     OW28183   5.277   6.203   5.384
 9095SOL    HW128184   5.286   6.144   5.303
 9095SOL    HW228185   5.360   6.197   5.439
 9096SOL     OW28186   6.461   5.635   2.514
 9096SOL    HW128187   6.452   5.539   2.541
 9096SOL    HW228188   6.547   5.648   2.465
 9097SOL     OW28189   0.962   2.821   5.983
 9097SOL    HW128190   0.934   2.904   6.033
 9097SOL    HW228191   1.029   2.771   6.038
 9098SOL     OW28192   1.708   3.324   4.423
 9098SOL    HW128193   1.780   3.361   4.365
 9098SOL    HW228194   1.665   3.399   4.474
 9099SOL     OW28195   2.364   3.381   6.828
 9099SOL    HW128196   2.344   3.373   6.731
 9099SOL    HW228197   2.297   3.330   6.881
 9100SOL     OW28198   1.041   4.595   2.929
 9100SOL    HW128199   1.049   4.533   2.850
 9100SOL    HW228200   0.964   4.657   2.915
 9101SOL     OW28201   1.594   1.774   1.962
 9101SOL    HW128202   1.644   1.742   1.881
 9101SOL    HW228203   1.531   1.847   1.935
 9102SOL     OW28204   4.446   5.894   2.638
 9102SOL    HW128205   4.404   5.944   2.562
 9102SOL    HW228206   4.469   5.958   2.711
 9103SOL     OW28207   5.832   1.784   0.464
 9103SOL    HW128208   5.806   1.842   0.542
 9103SOL    HW228209   5.906   1.723   0.491
 9104SOL     OW28210   6.204   1.180   7.020
 9104SOL    HW128211   6.259   1.150   0.078
 9104SOL    HW228212   6.109   1.189   0.027
 9105SOL     OW28213   2.312   0.307   6.682
 9105SOL    HW128214   2.233   0.297   6.621
 9105SOL    HW228215   2.395   0.307   6.627
 9106SOL     OW28216   1.657   4.982   6.948
 9106SOL    HW128217   1.610   4.942   6.869
 9106SOL    HW228218   1.738   5.032   6.917
 9107SOL     OW28219   2.249   1.168   0.158
 9107SOL    HW128220   2.171   1.184   0.097
 9107SOL    HW228221   2.333   1.170   0.105
 9108SOL     OW28222   5.749   5.101   6.127
 9108SOL    HW128223   5.681   5.172   6.147
 9108SOL    HW228224   5.835   5.143   6.099
 9109SOL     OW28225   5.071   2.948   2.473
 9109SOL    HW128226   4.989   2.911   2.430
 9109SOL    HW228227   5.147   2.943   2.409
 9110SOL     OW28228   1.354   5.594   4.634
 9110SOL    HW128229   1.333   5.542   4.551
 9110SOL    HW228230   1.287   5.669   4.644
 9111SOL     OW28231   4.409   3.063   5.400
 9111SOL    HW128232   4.317   3.026   5.412
 9111SOL    HW228233   4.425   3.136   5.467
 9112SOL     OW28234   1.509   5.506   2.506
 9112SOL    HW128235   1.424   5.545   2.469
 9112SOL    HW228236   1.511   5.408   2.487
 9113SOL     OW28237   4.817   1.936   3.486
 9113SOL    HW128238   4.748   1.873   3.522
 9113SOL    HW228239   4.808   1.944   3.387
 9114SOL     OW28240   1.213   5.875   4.935
 9114SOL    HW128241   1.115   5.889   4.943
 9114SOL    HW228242   1.235   5.838   4.845
 9115SOL     OW28243   5.674   4.491   4.224
 9115SOL    HW128244   5.608   4.484   4.298
 9115SOL    HW228245   5.626   4.488   4.136
 9116SOL     OW28246   0.786   6.875   3.423
 9116SOL    HW128247   0.728   6.954   3.402
 9116SOL    HW228248   0.731   6.805   3.467
 9117SOL     OW28249   3.964   0.765   6.764
 9117SOL    HW128250   3.886   0.702   6.763
 9117SOL    HW228251   4.048   0.714   6.748
 9118SOL     OW28252   6.321   4.103   1.046
 9118SOL    HW128253   6.304   4.103   1.145
 9118SOL    HW228254   6.321   4.197   1.013
 9119SOL     OW28255   3.709   0.682   0.568
 9119SOL    HW128256   3.662   0.627   0.498
 9119SOL    HW228257   3.645   0.750   0.605
 9120SOL     OW28258   5.925   3.172   5.261
 9120SOL    HW128259   5.841   3.201   5.216
 9120SOL    HW228260   5.973   3.253   5.296
 9121SOL     OW28261   3.170   0.469   4.927
 9121SOL    HW128262   3.233   0.488   4.852
 9121SOL    HW228263   3.220   0.423   5.001
 9122SOL     OW28264   2.597   4.556   2.507
 9122SOL    HW128265   2.598   4.628   2.577
 9122SOL    HW228266   2.515   4.500   2.520
 9123SOL     OW28267   1.131   0.419   4.038
 9123SOL    HW128268   1.138   0.398   3.941
 9123SOL    HW228269   1.212   0.385   4.086
 9124SOL     OW28270   2.959   5.651   1.444
 9124SOL    HW128271   2.907   5.594   1.380
 9124SOL    HW228272   3.019   5.712   1.392
 9125SOL     OW28273   4.912   6.248   1.168
 9125SOL    HW128274   4.964   6.163   1.163
 9125SOL    HW228275   4.856   6.258   1.086
 9126SOL     OW28276   3.786   4.440   0.278
 9126SOL    HW128277   3.881   4.451   0.307
 9126SOL    HW228278   3.729   4.418   0.357
 9127SOL     OW28279   0.156   4.175   5.302
 9127SOL    HW128280   0.234   4.200   5.360
 9127SOL    HW228281   0.167   4.081   5.270
 9128SOL     OW28282   5.692   3.436   5.283
 9128SOL    HW128283   5.761   3.414   5.215
 9128SOL    HW228284   5.625   3.362   5.288
 9129SOL     OW28285   1.514   2.725   0.732
 9129SOL    HW128286   1.562   2.780   0.800
 9129SOL    HW228287   1.560   2.636   0.722
 9130SOL     OW28288   2.516   3.861   5.316
 9130SOL    HW128289   2.451   3.913   5.260
 9130SOL    HW228290   2.609   3.886   5.292
 9131SOL     OW28291   5.605   2.910   0.922
 9131SOL    HW128292   5.522   2.901   0.976
 9131SOL    HW228293   5.612   2.831   0.860
 9132SOL     OW28294   6.998   4.479   3.908
 9132SOL    HW128295   6.923   4.415   3.888
 9132SOL    HW228296   0.054   4.461   3.845
 9133SOL     OW28297   4.637   1.468   0.730
 9133SOL    HW128298   4.674   1.444   0.640
 9133SOL    HW228299   4.671   1.558   0.757
 9134SOL     OW28300   4.000   5.446   0.762
 9134SOL    HW128301   3.985   5.468   0.858
 9134SOL    HW228302   3.977   5.525   0.706
 9135SOL     OW28303   0.186   6.597   2.823
 9135SOL    HW128304   0.135   6.585   2.908
 9135SOL    HW228305   0.173   6.517   2.765
 9136SOL     OW28306   6.106   4.627   0.052
 9136SOL    HW128307   6.057   4.544   0.080
 9136SOL    HW228308   6.115   4.628   6.973
 9137SOL     OW28309   5.409   6.572   6.179
 9137SOL    HW128310   5.451   6.653   6.138
 9137SOL    HW228311   5.446   6.557   6.271
 9138SOL     OW28312   3.189   3.075   0.961
 9138SOL    HW128313   3.281   3.045   0.984
 9138SOL    HW228314   3.183   3.090   0.862
 9139SOL     OW28315   6.658   0.105   1.141
 9139SOL    HW128316   6.671   0.197   1.102
 9139SOL    HW228317   6.616   0.045   1.073
 9140SOL     OW28318   0.939   4.326   3.302
 9140SOL    HW128319   0.858   4.335   3.243
 9140SOL    HW228320   0.990   4.244   3.277
 9141SOL     OW28321   6.580   5.884   5.650
 9141SOL    HW128322   6.565   5.827   5.570
 9141SOL    HW228323   6.538   5.973   5.637
 9142SOL     OW28324   1.061   4.482   3.990
 9142SOL    HW128325   1.113   4.425   3.926
 9142SOL    HW228326   0.988   4.529   3.941
 9143SOL     OW28327   0.427   3.927   2.691
 9143SOL    HW128328   0.336   3.890   2.711
 9143SOL    HW228329   0.432   3.953   2.595
 9144SOL     OW28330   2.374   4.533   5.628
 9144SOL    HW128331   2.277   4.542   5.604
 9144SOL    HW228332   2.386   4.540   5.727
 9145SOL     OW28333   1.329   6.335   5.855
 9145SOL    HW128334   1.381   6.318   5.772
 9145SOL    HW228335   1.233   6.313   5.839
 9146SOL     OW28336   6.412   2.960   2.841
 9146SOL    HW128337   6.327   2.926   2.881
 9146SOL    HW228338   6.488   2.903   2.872
 9147SOL     OW28339   4.177   6.986   4.154
 9147SOL    HW128340   4.153   6.958   4.247
 9147SOL    HW228341   4.117   6.938   4.089
 9148SOL     OW28342   6.224   6.335   1.689
 9148SOL    HW128343   6.263   6.296   1.773
 9148SOL    HW228344   6.150   6.275   1.657
 9149SOL     OW28345   0.552   3.736   2.047
 9149SOL    HW128346   0.533   3.767   2.140
 9149SOL    HW228347   0.649   3.713   2.038
 9150SOL     OW28348   2.539   2.505   1.000
 9150SOL    HW128349   2.529   2.409   0.972
 9150SOL    HW228350   2.607   2.549   0.941
 9151SOL     OW28351   1.611   3.084   3.822
 9151SOL    HW128352   1.578   3.163   3.770
 9151SOL    HW228353   1.533   3.028   3.851
 9152SOL     OW28354   1.934   4.531   3.065
 9152SOL    HW128355   2.011   4.578   3.021
 9152SOL    HW228356   1.968   4.467   3.134
 9153SOL     OW28357   6.663   4.013   0.019
 9153SOL    HW128358   6.720   3.941   0.058
 9153SOL    HW228359   6.679   4.098   0.070
 9154SOL     OW28360   5.610   4.718   2.480
 9154SOL    HW128361   5.648   4.776   2.552
 9154SOL    HW228362   5.518   4.689   2.507
 9155SOL     OW28363   1.482   6.493   2.518
 9155SOL    HW128364   1.386   6.521   2.518
 9155SOL    HW228365   1.509   6.466   2.426
 9156SOL     OW28366   6.824   4.123   6.605
 9156SOL    HW128367   6.913   4.154   6.639
 9156SOL    HW228368   6.838   4.050   6.538
 9157SOL     OW28369   2.077   4.942   6.237
 9157SOL    HW128370   1.991   4.958   6.188
 9157SOL    HW228371   2.057   4.910   6.329
 9158SOL     OW28372   6.793   3.518   4.605
 9158SOL    HW128373   6.863   3.588   4.617
 9158SOL    HW228374   6.703   3.554   4.629
 9159SOL     OW28375   3.476   1.640   3.943
 9159SOL    HW128376   3.460   1.733   3.977
 9159SOL    HW228377   3.484   1.643   3.843
 9160SOL     OW28378   0.133   4.426   1.017
 9160SOL    HW128379   0.208   4.365   1.040
 9160SOL    HW228380   0.083   4.450   1.100
 9161SOL     OW28381   6.457   4.613   1.542
 9161SOL    HW128382   6.423   4.585   1.631
 9161SOL    HW228383   6.536   4.673   1.554
 9162SOL     OW28384   4.309   1.847   1.698
 9162SOL    HW128385   4.346   1.895   1.618
 9162SOL    HW228386   4.379   1.788   1.737
 9163SOL     OW28387   1.342   2.407   3.646
 9163SOL    HW128388   1.329   2.454   3.559
 9163SOL    HW228389   1.254   2.370   3.678
 9164SOL     OW28390   2.943   0.068   0.138
 9164SOL    HW128391   3.020   0.055   0.201
 9164SOL    HW228392   2.857   0.060   0.188
 9165SOL     OW28393   5.386   1.924   6.109
 9165SOL    HW128394   5.352   2.009   6.150
 9165SOL    HW228395   5.395   1.854   6.180
 9166SOL     OW28396   5.316   5.697   1.599
 9166SOL    HW128397   5.336   5.771   1.535
 9166SOL    HW228398   5.346   5.610   1.561
 9167SOL     OW28399   1.514   1.335   4.525
 9167SOL    HW128400   1.595   1.355   4.470
 9167SOL    HW228401   1.437   1.314   4.464
 9168SOL     OW28402   6.662   6.015   4.563
 9168SOL    HW128403   6.655   6.054   4.471
 9168SOL    HW228404   6.579   5.965   4.585
 9169SOL     OW28405   6.725   5.868   0.716
 9169SOL    HW128406   6.728   5.962   0.752
 9169SOL    HW228407   6.775   5.865   0.629
 9170SOL     OW28408   1.379   1.504   6.017
 9170SOL    HW128409   1.305   1.461   5.964
 9170SOL    HW228410   1.428   1.569   5.959
 9171SOL     OW28411   3.237   4.897   6.759
 9171SOL    HW128412   3.162   4.870   6.698
 9171SOL    HW228413   3.211   4.880   6.854
 9172SOL     OW28414   4.423   1.047   3.678
 9172SOL    HW128415   4.509   1.096   3.674
 9172SOL    HW228416   4.417   0.998   3.765
 9173SOL     OW28417   5.771   3.284   4.747
 9173SOL    HW128418   5.858   3.278   4.795
 9173SOL    HW228419   5.708   3.216   4.783
 9174SOL     OW28420   0.634   4.505   0.593
 9174SOL    HW128421   0.577   4.461   0.663
 9174SOL    HW228422   0.576   4.540   0.520
 9175SOL     OW28423   2.340   0.502   0.017
 9175SOL    HW128424   2.275   0.564   0.062
 9175SOL    HW228425   2.334   0.514   6.938
 9176SOL     OW28426   1.203   1.559   2.603
 9176SOL    HW128427   1.296   1.553   2.567
 9176SOL    HW228428   1.201   1.625   2.679
 9177SOL     OW28429   0.446   4.257   3.726
 9177SOL    HW128430   0.538   4.239   3.692
 9177SOL    HW228431   0.432   4.211   3.813
 9178SOL     OW28432   2.032   5.885   0.396
 9178SOL    HW128433   1.969   5.952   0.355
 9178SOL    HW228434   1.981   5.802   0.419
 9179SOL     OW28435   3.278   5.112   4.246
 9179SOL    HW128436   3.243   5.193   4.198
 9179SOL    HW228437   3.274   5.127   4.345
 9180SOL     OW28438   6.467   0.845   5.137
 9180SOL    HW128439   6.532   0.920   5.151
 9180SOL    HW228440   6.412   0.833   5.220
 9181SOL     OW28441   2.785   1.896   3.350
 9181SOL    HW128442   2.738   1.864   3.268
 9181SOL    HW228443   2.829   1.818   3.396
 9182SOL     OW28444   1.152   1.316   2.969
 9182SOL    HW128445   1.167   1.268   2.882
 9182SOL    HW228446   1.203   1.401   2.969
 9183SOL     OW28447   0.989   2.025   6.198
 9183SOL    HW128448   1.036   1.995   6.281
 9183SOL    HW228449   0.894   1.994   6.200
 9184SOL     OW28450   3.805   3.373   0.749
 9184SOL    HW128451   3.896   3.367   0.791
 9184SOL    HW228452   3.784   3.286   0.703
 9185SOL     OW28453   1.205   1.010   6.888
 9185SOL    HW128454   1.105   1.020   6.893
 9185SOL    HW228455   1.232   0.923   6.929
 9186SOL     OW28456   5.460   1.165   6.167
 9186SOL    HW128457   5.474   1.168   6.068
 9186SOL    HW228458   5.434   1.256   6.199
 9187SOL     OW28459   5.804   2.133   0.483
 9187SOL    HW128460   5.747   2.211   0.511
 9187SOL    HW228461   5.887   2.168   0.439
 9188SOL     OW28462   1.495   0.572   1.805
 9188SOL    HW128463   1.580   0.617   1.832
 9188SOL    HW228464   1.458   0.617   1.724
 9189SOL     OW28465   4.037   1.400   4.811
 9189SOL    HW128466   4.117   1.349   4.781
 9189SOL    HW228467   3.965   1.394   4.742
 9190SOL     OW28468   6.822   2.266   5.227
 9190SOL    HW128469   6.919   2.260   5.204
 9190SOL    HW228470   6.801   2.357   5.263
 9191SOL     OW28471   5.491   6.652   0.654
 9191SOL    HW128472   5.428   6.607   0.718
 9191SOL    HW228473   5.440   6.680   0.573
 9192SOL     OW28474   5.314   4.518   4.504
 9192SOL    HW128475   5.362   4.558   4.426
 9192SOL    HW228476   5.381   4.489   4.573
 9193SOL     OW28477   3.518   2.915   3.571
 9193SOL    HW128478   3.584   2.990   3.563
 9193SOL    HW228479   3.498   2.898   3.667
 9194SOL     OW28480   3.264   5.872   2.758
 9194SOL    HW128481   3.325   5.807   2.712
 9194SOL    HW228482   3.291   5.965   2.736
 9195SOL     OW28483   6.989   3.205   2.801
 9195SOL    HW128484   7.008   3.131   2.865
 9195SOL    HW228485   6.913   3.179   2.741
 9196SOL     OW28486   4.521   0.096   3.404
 9196SOL    HW128487   4.444   0.062   3.458
 9196SOL    HW228488   4.517   0.196   3.398
 9197SOL     OW28489   3.565   3.245   5.595
 9197SOL    HW128490   3.613   3.204   5.672
 9197SOL    HW228491   3.562   3.344   5.607
 9198SOL     OW28492   5.140   2.531   5.048
 9198SOL    HW128493   5.092   2.450   5.081
 9198SOL    HW228494   5.083   2.612   5.060
 9199SOL     OW28495   1.330   4.045   6.553
 9199SOL    HW128496   1.341   3.974   6.482
 9199SOL    HW228497   1.324   4.001   6.643
 9200SOL     OW28498   6.207   6.311   0.559
 9200SOL    HW128499   6.225   6.321   0.461
 9200SOL    HW228500   6.230   6.217   0.587
 9201SOL     OW28501   1.801   4.117   3.376
 9201SOL    HW128502   1.787   4.137   3.279
 9201SOL    HW228503   1.820   4.019   3.387
 9202SOL     OW28504   3.250   5.359   3.822
 9202SOL    HW128505   3.169   5.304   3.806
 9202SOL    HW228506   3.229   5.455   3.807
 9203SOL     OW28507   5.086   0.959   6.352
 9203SOL    HW128508   4.993   0.954   6.314
 9203SOL    HW228509   5.098   1.047   6.398
 9204SOL     OW28510   4.656   4.187   1.649
 9204SOL    HW128511   4.612   4.213   1.562
 9204SOL    HW228512   4.588   4.191   1.722
 9205SOL     OW28513   4.881   3.093   2.194
 9205SOL    HW128514   4.887   3.011   2.250
 9205SOL    HW228515   4.822   3.076   2.116
 9206SOL     OW28516   0.657   6.970   3.023
 9206SOL    HW128517   0.566   7.012   3.031
 9206SOL    HW228518   0.648   6.882   2.975
 9207SOL     OW28519   3.964   6.106   6.940
 9207SOL    HW128520   4.003   6.067   0.003
 9207SOL    HW228521   4.011   6.191   6.917
 9208SOL     OW28522   4.605   4.746   2.469
 9208SOL    HW128523   4.700   4.776   2.459
 9208SOL    HW228524   4.548   4.789   2.399
 9209SOL     OW28525   3.726   0.698   3.253
 9209SOL    HW128526   3.696   0.632   3.185
 9209SOL    HW228527   3.826   0.698   3.258
 9210SOL     OW28528   1.278   6.905   0.456
 9210SOL    HW128529   1.336   6.868   0.529
 9210SOL    HW228530   1.205   6.840   0.436
 9211SOL     OW28531   4.990   1.814   6.288
 9211SOL    HW128532   4.891   1.825   6.295
 9211SOL    HW228533   5.022   1.756   6.363
 9212SOL     OW28534   6.106   3.159   4.669
 9212SOL    HW128535   6.124   3.199   4.760
 9212SOL    HW228536   6.073   3.231   4.608
 9213SOL     OW28537   6.763   0.129   2.675
 9213SOL    HW128538   6.736   0.201   2.739
 9213SOL    HW228539   6.777   0.169   2.584
 9214SOL     OW28540   2.031   2.394   5.324
 9214SOL    HW128541   2.070   2.399   5.232
 9214SOL    HW228542   2.007   2.299   5.345
 9215SOL     OW28543   0.906   3.376   2.708
 9215SOL    HW128544   0.837   3.304   2.717
 9215SOL    HW228545   0.911   3.428   2.793
 9216SOL     OW28546   2.696   5.679   4.354
 9216SOL    HW128547   2.736   5.589   4.373
 9216SOL    HW228548   2.599   5.667   4.330
 9217SOL     OW28549   4.573   1.189   6.454
 9217SOL    HW128550   4.584   1.121   6.525
 9217SOL    HW228551   4.504   1.159   6.388
 9218SOL     OW28552   6.162   5.374   6.807
 9218SOL    HW128553   6.086   5.342   6.750
 9218SOL    HW228554   6.138   5.363   6.904
 9219SOL     OW28555   3.467   2.752   5.603
 9219SOL    HW128556   3.442   2.828   5.543
 9219SOL    HW228557   3.388   2.692   5.615
 9220SOL     OW28558   0.867   6.364   3.723
 9220SOL    HW128559   0.840   6.440   3.782
 9220SOL    HW228560   0.830   6.378   3.632
 9221SOL     OW28561   2.548   1.620   0.710
 9221SOL    HW128562   2.493   1.678   0.770
 9221SOL    HW228563   2.636   1.664   0.692
 9222SOL     OW28564   2.007   2.923   4.195
 9222SOL    HW128565   1.970   2.933   4.102
 9222SOL    HW228566   2.049   3.008   4.224
 9223SOL     OW28567   0.493   3.221   4.989
 9223SOL    HW128568   0.591   3.223   4.966
 9223SOL    HW228569   0.440   3.196   4.908
 9224SOL     OW28570   2.285   4.116   3.692
 9224SOL    HW128571   2.218   4.123   3.619
 9224SOL    HW228572   2.308   4.208   3.724
 9225SOL     OW28573   5.094   5.710   6.605
 9225SOL    HW128574   5.035   5.641   6.646
 9225SOL    HW228575   5.118   5.779   6.674
 9226SOL     OW28576   0.804   0.760   1.016
 9226SOL    HW128577   0.836   0.770   1.110
 9226SOL    HW228578   0.835   0.837   0.961
 9227SOL     OW28579   2.213   4.746   0.552
 9227SOL    HW128580   2.154   4.695   0.490
 9227SOL    HW228581   2.301   4.699   0.560
 9228SOL     OW28582   3.427   3.267   5.305
 9228SOL    HW128583   3.455   3.263   5.401
 9228SOL    HW228584   3.434   3.361   5.272
 9229SOL     OW28585   0.457   5.054   0.205
 9229SOL    HW128586   0.480   5.028   0.299
 9229SOL    HW228587   0.391   4.989   0.168
 9230SOL     OW28588   4.536   1.480   5.070
 9230SOL    HW128589   4.503   1.481   5.165
 9230SOL    HW228590   4.598   1.403   5.057
 9231SOL     OW28591   6.448   5.380   3.542
 9231SOL    HW128592   6.457   5.290   3.583
 9231SOL    HW228593   6.537   5.425   3.537
 9232SOL     OW28594   1.375   5.078   2.731
 9232SOL    HW128595   1.426   5.146   2.783
 9232SOL    HW228596   1.282   5.111   2.715
 9233SOL     OW28597   0.617   6.760   6.520
 9233SOL    HW128598   0.596   6.802   6.608
 9233SOL    HW228599   0.556   6.682   6.505
 9234SOL     OW28600   2.079   4.103   0.500
 9234SOL    HW128601   2.167   4.055   0.492
 9234SOL    HW228602   2.095   4.195   0.537
 9235SOL     OW28603   1.897   2.201   3.331
 9235SOL    HW128604   1.940   2.118   3.367
 9235SOL    HW228605   1.887   2.193   3.232
 9236SOL     OW28606   2.632   3.445   6.606
 9236SOL    HW128607   2.690   3.364   6.611
 9236SOL    HW228608   2.536   3.417   6.598
 9237SOL     OW28609   5.349   5.008   3.139
 9237SOL    HW128610   5.352   5.074   3.215
 9237SOL    HW228611   5.311   5.053   3.058
 9238SOL     OW28612   1.263   2.791   5.074
 9238SOL    HW128613   1.225   2.705   5.040
 9238SOL    HW228614   1.363   2.787   5.068
 9239SOL     OW28615   1.448   5.082   0.064
 9239SOL    HW128616   1.432   5.019   0.141
 9239SOL    HW228617   1.512   5.040   0.000
 9240SOL     OW28618   4.314   2.379   2.803
 9240SOL    HW128619   4.356   2.345   2.887
 9240SOL    HW228620   4.231   2.429   2.824
 9241SOL     OW28621   6.030   6.355   1.135
 9241SOL    HW128622   6.033   6.256   1.151
 9241SOL    HW228623   6.060   6.403   1.217
 9242SOL     OW28624   1.016   2.620   0.443
 9242SOL    HW128625   0.977   2.645   0.532
 9242SOL    HW228626   0.987   2.687   0.374
 9243SOL     OW28627   0.969   0.838   0.027
 9243SOL    HW128628   1.052   0.793   7.016
 9243SOL    HW228629   0.901   0.769   0.052
 9244SOL     OW28630   3.166   6.922   5.324
 9244SOL    HW128631   3.197   6.965   5.239
 9244SOL    HW228632   3.245   6.885   5.373
 9245SOL     OW28633   1.209   4.743   3.568
 9245SOL    HW128634   1.261   4.670   3.611
 9245SOL    HW228635   1.131   4.704   3.518
 9246SOL     OW28636   6.094   0.498   6.440
 9246SOL    HW128637   6.028   0.423   6.447
 9246SOL    HW228638   6.046   0.585   6.452
 9247SOL     OW28639   3.644   6.543   2.938
 9247SOL    HW128640   3.548   6.560   2.960
 9247SOL    HW228641   3.687   6.628   2.907
 9248SOL     OW28642   2.471   1.184   0.020
 9248SOL    HW128643   2.527   1.104   7.017
 9248SOL    HW228644   2.522   1.267   0.003
 9249SOL     OW28645   3.503   5.872   0.812
 9249SOL    HW128646   3.478   5.964   0.785
 9249SOL    HW228647   3.424   5.812   0.806
 9250SOL     OW28648   0.439   2.941   3.710
 9250SOL    HW128649   0.489   2.899   3.635
 9250SOL    HW228650   0.411   2.871   3.775
 9251SOL     OW28651   2.993   3.170   1.112
 9251SOL    HW128652   2.921   3.103   1.123
 9251SOL    HW228653   3.068   3.131   1.058
 9252SOL     OW28654   5.414   2.000   5.392
 9252SOL    HW128655   5.488   2.011   5.458
 9252SOL    HW228656   5.328   1.983   5.440
 9253SOL     OW28657   1.076   5.447   5.187
 9253SOL    HW128658   1.136   5.390   5.244
 9253SOL    HW228659   0.980   5.431   5.213
 9254SOL     OW28660   0.091   4.630   2.507
 9254SOL    HW128661   0.016   4.594   2.451
 9254SOL    HW228662   0.083   4.596   2.600
 9255SOL     OW28663   7.013   4.312   0.539
 9255SOL    HW128664   0.020   4.226   0.583
 9255SOL    HW228665   6.937   4.353   0.591
 9256SOL     OW28666   2.769   6.163   1.438
 9256SOL    HW128667   2.805   6.179   1.346
 9256SOL    HW228668   2.727   6.248   1.472
 9257SOL     OW28669   6.825   5.989   3.917
 9257SOL    HW128670   6.920   6.020   3.928
 9257SOL    HW228671   6.798   5.933   3.995
 9258SOL     OW28672   3.523   5.097   1.418
 9258SOL    HW128673   3.610   5.134   1.386
 9258SOL    HW228674   3.524   4.997   1.411
 9259SOL     OW28675   2.066   1.992   0.380
 9259SOL    HW128676   2.089   2.029   0.290
 9259SOL    HW228677   2.095   1.896   0.384
 9260SOL     OW28678   5.629   3.928   5.065
 9260SOL    HW128679   5.700   3.998   5.073
 9260SOL    HW228680   5.666   3.848   5.017
 9261SOL     OW28681   3.643   2.531   1.750
 9261SOL    HW128682   3.726   2.533   1.695
 9261SOL    HW228683   3.642   2.448   1.806
 9262SOL     OW28684   6.415   5.788   4.982
 9262SOL    HW128685   6.506   5.792   4.942
 9262SOL    HW228686   6.416   5.833   5.072
 9263SOL     OW28687   1.743   4.123   4.143
 9263SOL    HW128688   1.672   4.145   4.209
 9263SOL    HW228689   1.833   4.138   4.184
 9264SOL     OW28690   4.484   4.480   0.250
 9264SOL    HW128691   4.579   4.508   0.257
 9264SOL    HW228692   4.444   4.517   0.166
 9265SOL     OW28693   6.355   1.954   0.526
 9265SOL    HW128694   6.422   2.021   0.559
 9265SOL    HW228695   6.284   1.942   0.596
 9266SOL     OW28696   1.239   4.607   1.199
 9266SOL    HW128697   1.252   4.561   1.111
 9266SOL    HW228698   1.225   4.705   1.183
 9267SOL     OW28699   6.571   0.964   4.367
 9267SOL    HW128700   6.540   1.005   4.453
 9267SOL    HW228701   6.500   0.974   4.298
 9268SOL     OW28702   0.911   0.195   1.823
 9268SOL    HW128703   0.993   0.239   1.859
 9268SOL    HW228704   0.837   0.203   1.890
 9269SOL     OW28705   3.851   1.294   0.020
 9269SOL    HW128706   3.835   1.204   6.999
 9269SOL    HW228707   3.768   1.349   0.017
 9270SOL     OW28708   2.098   0.237   6.452
 9270SOL    HW128709   1.999   0.235   6.467
 9270SOL    HW228710   2.117   0.256   6.356
 9271SOL     OW28711   1.171   6.311   4.845
 9271SOL    HW128712   1.089   6.277   4.799
 9271SOL    HW228713   1.154   6.317   4.943
 9272SOL     OW28714   6.806   6.354   5.829
 9272SOL    HW128715   6.803   6.445   5.870
 9272SOL    HW228716   6.732   6.298   5.865
 9273SOL     OW28717   4.956   4.669   3.589
 9273SOL    HW128718   4.912   4.758   3.601
 9273SOL    HW228719   4.924   4.627   3.504
 9274SOL     OW28720   0.446   2.808   0.609
 9274SOL    HW128721   0.539   2.826   0.639
 9274SOL    HW228722   0.408   2.891   0.567
 9275SOL     OW28723   6.682   0.913   0.315
 9275SOL    HW128724   6.670   0.937   0.219
 9275SOL    HW228725   6.628   0.976   0.372
 9276SOL     OW28726   2.596   5.407   0.306
 9276SOL    HW128727   2.669   5.339   0.314
 9276SOL    HW228728   2.626   5.481   0.246
 9277SOL     OW28729   5.004   5.632   1.584
 9277SOL    HW128730   4.973   5.610   1.491
 9277SOL    HW228731   5.101   5.657   1.582
 9278SOL     OW28732   1.267   0.425   5.373
 9278SOL    HW128733   1.215   0.431   5.288
 9278SOL    HW228734   1.234   0.494   5.438
 9279SOL     OW28735   4.355   6.024   1.577
 9279SOL    HW128736   4.383   5.940   1.531
 9279SOL    HW228737   4.255   6.031   1.574
 9280SOL     OW28738   1.518   6.825   2.480
 9280SOL    HW128739   1.611   6.852   2.505
 9280SOL    HW228740   1.516   6.795   2.385
 9281SOL     OW28741   2.382   5.314   0.153
 9281SOL    HW128742   2.342   5.348   0.238
 9281SOL    HW228743   2.482   5.311   0.161
 9282SOL     OW28744   2.755   6.931   4.971
 9282SOL    HW128745   2.831   6.911   5.033
 9282SOL    HW228746   2.750   0.009   4.955
 9283SOL     OW28747   4.095   6.451   1.125
 9283SOL    HW128748   4.067   6.360   1.158
 9283SOL    HW228749   4.174   6.482   1.178
 9284SOL     OW28750   3.514   4.003   5.262
 9284SOL    HW128751   3.445   3.938   5.294
 9284SOL    HW228752   3.510   4.010   5.162
 9285SOL     OW28753   0.606   5.362   2.689
 9285SOL    HW128754   0.579   5.294   2.620
 9285SOL    HW228755   0.627   5.315   2.775
 9286SOL     OW28756   4.658   6.469   1.651
 9286SOL    HW128757   4.592   6.393   1.651
 9286SOL    HW228758   4.609   6.555   1.633
 9287SOL     OW28759   3.440   4.383   6.276
 9287SOL    HW128760   3.407   4.448   6.207
 9287SOL    HW228761   3.426   4.290   6.244
 9288SOL     OW28762   3.461   1.911   2.363
 9288SOL    HW128763   3.452   1.930   2.461
 9288SOL    HW228764   3.388   1.958   2.313
 9289SOL     OW28765   4.983   6.623   0.695
 9289SOL    HW128766   5.059   6.683   0.720
 9289SOL    HW228767   4.988   6.538   0.749
 9290SOL     OW28768   4.628   0.833   3.791
 9290SOL    HW128769   4.602   0.804   3.883
 9290SOL    HW228770   4.598   0.765   3.724
 9291SOL     OW28771   0.935   4.572   6.112
 9291SOL    HW128772   0.906   4.484   6.073
 9291SOL    HW228773   0.858   4.635   6.113
 9292SOL     OW28774   1.084   1.292   6.399
 9292SOL    HW128775   1.005   1.299   6.460
 9292SOL    HW228776   1.146   1.222   6.433
 9293SOL     OW28777   4.849   2.669   4.494
 9293SOL    HW128778   4.773   2.621   4.538
 9293SOL    HW228779   4.930   2.665   4.553
 9294SOL     OW28780   4.894   1.037   6.599
 9294SOL    HW128781   4.919   1.063   6.692
 9294SOL    HW228782   4.907   1.116   6.538
 9295SOL     OW28783   0.684   1.241   5.183
 9295SOL    HW128784   0.781   1.267   5.182
 9295SOL    HW228785   0.627   1.322   5.171
 9296SOL     OW28786   1.783   4.686   6.936
 9296SOL    HW128787   1.688   4.675   6.906
 9296SOL    HW228788   1.792   4.772   6.986
 9297SOL     OW28789   6.093   5.927   2.633
 9297SOL    HW128790   6.167   5.862   2.651
 9297SOL    HW228791   6.044   5.900   2.550
 9298SOL     OW28792   1.630   5.238   6.737
 9298SOL    HW128793   1.715   5.197   6.769
 9298SOL    HW228794   1.637   5.259   6.640
 9299SOL     OW28795   2.341   2.663   4.723
 9299SOL    HW128796   2.324   2.743   4.666
 9299SOL    HW228797   2.258   2.607   4.729
 9300SOL     OW28798   1.513   5.252   5.054
 9300SOL    HW128799   1.556   5.266   4.964
 9300SOL    HW228800   1.499   5.340   5.098
 9301SOL     OW28801   0.470   4.456   4.772
 9301SOL    HW128802   0.438   4.365   4.745
 9301SOL    HW228803   0.568   4.464   4.752
 9302SOL     OW28804   2.369   3.646   5.397
 9302SOL    HW128805   2.410   3.729   5.359
 9302SOL    HW228806   2.350   3.582   5.323
 9303SOL     OW28807   2.439   4.433   0.938
 9303SOL    HW128808   2.437   4.529   0.967
 9303SOL    HW228809   2.527   4.393   0.964
 9304SOL     OW28810   4.120   5.047   0.203
 9304SOL    HW128811   4.187   5.054   0.277
 9304SOL    HW228812   4.048   4.982   0.228
 9305SOL     OW28813   2.005   1.949   1.787
 9305SOL    HW128814   2.056   1.878   1.740
 9305SOL    HW228815   1.922   1.971   1.735
 9306SOL     OW28816   6.773   5.620   4.767
 9306SOL    HW128817   6.762   5.637   4.669
 9306SOL    HW228818   6.721   5.689   4.818
 9307SOL     OW28819   2.460   3.415   1.443
 9307SOL    HW128820   2.488   3.320   1.461
 9307SOL    HW228821   2.396   3.445   1.515
 9308SOL     OW28822   2.142   3.667   2.214
 9308SOL    HW128823   2.056   3.642   2.168
 9308SOL    HW228824   2.219   3.636   2.158
 9309SOL     OW28825   5.106   5.235   6.421
 9309SOL    HW128826   5.074   5.265   6.511
 9309SOL    HW228827   5.143   5.313   6.370
 9310SOL     OW28828   5.905   6.472   7.005
 9310SOL    HW128829   5.980   6.538   7.005
 9310SOL    HW228830   5.908   6.417   6.921
 9311SOL     OW28831   4.682   3.730   1.515
 9311SOL    HW128832   4.707   3.809   1.571
 9311SOL    HW228833   4.585   3.708   1.529
 9312SOL     OW28834   0.759   3.055   2.863
 9312SOL    HW128835   0.751   3.040   2.962
 9312SOL    HW228836   0.701   3.131   2.836
 9313SOL     OW28837   0.521   0.648   2.222
 9313SOL    HW128838   0.438   0.654   2.277
 9313SOL    HW228839   0.506   0.584   2.147
 9314SOL     OW28840   5.156   3.646   0.542
 9314SOL    HW128841   5.167   3.634   0.640
 9314SOL    HW228842   5.246   3.644   0.498
 9315SOL     OW28843   5.204   0.295   6.232
 9315SOL    HW128844   5.191   0.363   6.304
 9315SOL    HW228845   5.116   0.273   6.191
 9316SOL     OW28846   4.582   0.378   5.511
 9316SOL    HW128847   4.677   0.410   5.506
 9316SOL    HW228848   4.554   0.374   5.607
 9317SOL     OW28849   3.833   6.539   3.184
 9317SOL    HW128850   3.830   6.529   3.085
 9317SOL    HW228851   3.781   6.466   3.227
 9318SOL     OW28852   4.478   6.279   1.657
 9318SOL    HW128853   4.411   6.281   1.732
 9318SOL    HW228854   4.454   6.206   1.593
 9319SOL     OW28855   2.792   2.863   0.029
 9319SOL    HW128856   2.749   2.812   6.975
 9319SOL    HW228857   2.891   2.845   0.030
 9320SOL     OW28858   6.498   6.467   6.857
 9320SOL    HW128859   6.520   6.405   6.932
 9320SOL    HW228860   6.537   6.558   6.876
 9321SOL     OW28861   0.551   3.572   4.743
 9321SOL    HW128862   0.601   3.639   4.688
 9321SOL    HW228863   0.606   3.546   4.823
 9322SOL     OW28864   5.853   3.379   6.502
 9322SOL    HW128865   5.914   3.434   6.559
 9322SOL    HW228866   5.889   3.286   6.495
 9323SOL     OW28867   0.532   2.032   5.600
 9323SOL    HW128868   0.526   2.122   5.559
 9323SOL    HW228869   0.608   1.981   5.560
 9324SOL     OW28870   1.234   4.695   1.898
 9324SOL    HW128871   1.151   4.751   1.906
 9324SOL    HW228872   1.282   4.694   1.986
 9325SOL     OW28873   0.829   4.436   3.710
 9325SOL    HW128874   0.915   4.393   3.683
 9325SOL    HW228875   0.753   4.391   3.663
 9326SOL     OW28876   4.709   4.480   1.924
 9326SOL    HW128877   4.714   4.471   1.825
 9326SOL    HW228878   4.629   4.430   1.959
 9327SOL     OW28879   3.692   0.783   3.537
 9327SOL    HW128880   3.742   0.868   3.516
 9327SOL    HW228881   3.736   0.707   3.489
 9328SOL     OW28882   2.456   6.958   4.134
 9328SOL    HW128883   2.439   6.893   4.208
 9328SOL    HW228884   2.533   7.017   4.159
 9329SOL     OW28885   0.287   5.230   6.677
 9329SOL    HW128886   0.277   5.312   6.733
 9329SOL    HW228887   0.198   5.186   6.667
 9330SOL     OW28888   6.726   6.196   6.452
 9330SOL    HW128889   6.643   6.182   6.506
 9330SOL    HW228890   6.701   6.239   6.365
 9331SOL     OW28891   1.560   3.572   4.481
 9331SOL    HW128892   1.464   3.588   4.460
 9331SOL    HW228893   1.597   3.653   4.527
 9332SOL     OW28894   4.834   5.841   1.237
 9332SOL    HW128895   4.761   5.782   1.202
 9332SOL    HW228896   4.844   5.921   1.177
 9333SOL     OW28897   4.637   4.035   0.638
 9333SOL    HW128898   4.625   4.068   0.732
 9333SOL    HW228899   4.702   4.094   0.590
 9334SOL     OW28900   5.960   5.918   5.897
 9334SOL    HW128901   5.870   5.913   5.854
 9334SOL    HW228902   5.970   6.007   5.943
 9335SOL     OW28903   0.767   3.787   1.550
 9335SOL    HW128904   0.685   3.768   1.496
 9335SOL    HW228905   0.841   3.725   1.523
 9336SOL     OW28906   5.811   6.853   5.641
 9336SOL    HW128907   5.888   6.899   5.597
 9336SOL    HW228908   5.810   6.757   5.615
 9337SOL     OW28909   2.542   0.354   6.508
 9337SOL    HW128910   2.561   0.452   6.507
 9337SOL    HW228911   2.624   0.304   6.539
 9338SOL     OW28912   5.452   6.431   0.195
 9338SOL    HW128913   5.487   6.452   0.286
 9338SOL    HW228914   5.528   6.404   0.136
 9339SOL     OW28915   5.955   3.617   5.651
 9339SOL    HW128916   5.899   3.652   5.576
 9339SOL    HW228917   6.044   3.589   5.615
 9340SOL     OW28918   3.705   5.683   1.425
 9340SOL    HW128919   3.790   5.656   1.469
 9340SOL    HW228920   3.632   5.621   1.452
 9341SOL     OW28921   5.171   4.163   0.005
 9341SOL    HW128922   5.094   4.209   0.050
 9341SOL    HW228923   5.177   4.193   6.931
 9342SOL     OW28924   3.138   0.342   4.162
 9342SOL    HW128925   3.128   0.415   4.230
 9342SOL    HW228926   3.051   0.293   4.153
 9343SOL     OW28927   4.600   3.924   1.139
 9343SOL    HW128928   4.594   4.016   1.102
 9343SOL    HW228929   4.687   3.913   1.186
 9344SOL     OW28930   6.183   6.398   5.171
 9344SOL    HW128931   6.252   6.331   5.200
 9344SOL    HW228932   6.097   6.379   5.220
 9345SOL     OW28933   0.908   6.140   0.601
 9345SOL    HW128934   0.812   6.166   0.600
 9345SOL    HW228935   0.930   6.088   0.518
 9346SOL     OW28936   5.854   5.631   0.781
 9346SOL    HW128937   5.855   5.635   0.881
 9346SOL    HW228938   5.823   5.719   0.745
 9347SOL     OW28939   3.424   5.336   0.979
 9347SOL    HW128940   3.327   5.315   0.973
 9347SOL    HW228941   3.450   5.395   0.902
 9348SOL     OW28942   2.901   5.853   2.078
 9348SOL    HW128943   2.962   5.857   2.157
 9348SOL    HW228944   2.955   5.849   1.994
 9349SOL     OW28945   6.846   5.672   1.839
 9349SOL    HW128946   6.812   5.618   1.761
 9349SOL    HW228947   6.914   5.737   1.806
 9350SOL     OW28948   6.708   0.587   5.929
 9350SOL    HW128949   6.750   0.610   6.017
 9350SOL    HW228950   6.612   0.614   5.930
 9351SOL     OW28951   3.553   2.493   6.282
 9351SOL    HW128952   3.490   2.561   6.243
 9351SOL    HW228953   3.640   2.496   6.233
 9352SOL     OW28954   3.601   2.538   5.963
 9352SOL    HW128955   3.693   2.506   5.941
 9352SOL    HW228956   3.538   2.460   5.964
 9353SOL     OW28957   0.929   3.347   1.633
 9353SOL    HW128958   0.947   3.264   1.581
 9353SOL    HW228959   0.838   3.343   1.672
 9354SOL     OW28960   5.012   2.213   1.630
 9354SOL    HW128961   4.956   2.134   1.655
 9354SOL    HW228962   5.015   2.223   1.531
 9355SOL     OW28963   6.850   0.232   3.339
 9355SOL    HW128964   6.939   0.226   3.294
 9355SOL    HW228965   6.798   0.308   3.299
 9356SOL     OW28966   4.498   4.592   2.698
 9356SOL    HW128967   4.405   4.612   2.730
 9356SOL    HW228968   4.531   4.667   2.641
 9357SOL     OW28969   3.766   2.484   0.876
 9357SOL    HW128970   3.768   2.561   0.941
 9357SOL    HW228971   3.676   2.440   0.881
 9358SOL     OW28972   5.959   4.483   2.019
 9358SOL    HW128973   5.917   4.398   2.050
 9358SOL    HW228974   5.958   4.486   1.919
 9359SOL     OW28975   6.389   3.917   5.664
 9359SOL    HW128976   6.473   3.913   5.609
 9359SOL    HW228977   6.346   4.006   5.651
 9360SOL     OW28978   2.019   0.660   6.957
 9360SOL    HW128979   2.058   0.652   0.028
 9360SOL    HW228980   2.008   0.756   6.933
 9361SOL     OW28981   3.066   6.984   2.588
 9361SOL    HW128982   3.092   0.052   2.550
 9361SOL    HW228983   3.066   6.915   2.515
 9362SOL     OW28984   2.111   1.172   2.594
 9362SOL    HW128985   2.041   1.111   2.558
 9362SOL    HW228986   2.068   1.245   2.648
 9363SOL     OW28987   3.502   5.387   2.563
 9363SOL    HW128988   3.467   5.480   2.569
 9363SOL    HW228989   3.465   5.332   2.638
 9364SOL     OW28990   4.215   4.699   0.326
 9364SOL    HW128991   4.182   4.605   0.336
 9364SOL    HW228992   4.197   4.730   0.233
 9365SOL     OW28993   3.076   1.697   4.424
 9365SOL    HW128994   3.130   1.781   4.434
 9365SOL    HW228995   3.022   1.682   4.507
 9366SOL     OW28996   2.805   1.779   0.712
 9366SOL    HW128997   2.887   1.837   0.703
 9366SOL    HW228998   2.832   1.683   0.705
 9367SOL     OW28999   0.113   5.704   3.077
 9367SOL    HW129000   0.026   5.747   3.104
 9367SOL    HW229001   0.179   5.776   3.053
 9368SOL     OW29002   2.925   1.944   1.664
 9368SOL    HW129003   2.912   1.988   1.753
 9368SOL    HW229004   2.924   1.845   1.675
 9369SOL     OW29005   6.801   2.183   4.763
 9369SOL    HW129006   6.740   2.110   4.794
 9369SOL    HW229007   6.762   2.227   4.682
 9370SOL     OW29008   5.716   1.253   2.894
 9370SOL    HW129009   5.709   1.194   2.814
 9370SOL    HW229010   5.651   1.223   2.964
 9371SOL     OW29011   0.408   6.215   0.616
 9371SOL    HW129012   0.470   6.138   0.602
 9371SOL    HW229013   0.327   6.203   0.559
 9372SOL     OW29014   6.002   6.522   4.584
 9372SOL    HW129015   6.087   6.471   4.570
 9372SOL    HW229016   5.946   6.475   4.652
 9373SOL     OW29017   3.490   1.728   3.658
 9373SOL    HW129018   3.402   1.755   3.620
 9373SOL    HW229019   3.525   1.647   3.610
 9374SOL     OW29020   5.573   3.400   0.133
 9374SOL    HW129021   5.527   3.312   0.141
 9374SOL    HW229022   5.642   3.408   0.205
 9375SOL     OW29023   0.359   1.059   3.425
 9375SOL    HW129024   0.321   1.005   3.500
 9375SOL    HW229025   0.447   1.097   3.453
 9376SOL     OW29026   2.288   3.894   1.532
 9376SOL    HW129027   2.248   3.859   1.616
 9376SOL    HW229028   2.361   3.833   1.502
 9377SOL     OW29029   6.089   5.481   3.899
 9377SOL    HW129030   6.050   5.428   3.974
 9377SOL    HW229031   6.015   5.516   3.841
 9378SOL     OW29032   2.571   0.235   0.476
 9378SOL    HW129033   2.565   0.297   0.397
 9378SOL    HW229034   2.481   0.195   0.493
 9379SOL     OW29035   5.077   4.926   4.378
 9379SOL    HW129036   5.019   4.925   4.297
 9379SOL    HW229037   5.166   4.964   4.355
 9380SOL     OW29038   5.805   0.166   5.607
 9380SOL    HW129039   5.786   0.172   5.509
 9380SOL    HW229040   5.755   0.088   5.645
 9381SOL     OW29041   2.317   1.562   5.710
 9381SOL    HW129042   2.313   1.595   5.804
 9381SOL    HW229043   2.239   1.599   5.658
 9382SOL     OW29044   4.647   2.126   2.739
 9382SOL    HW129045   4.670   2.031   2.717
 9382SOL    HW229046   4.615   2.173   2.657
 9383SOL     OW29047   4.265   6.236   4.566
 9383SOL    HW129048   4.296   6.186   4.646
 9383SOL    HW229049   4.184   6.291   4.589
 9384SOL     OW29050   4.995   5.958   2.216
 9384SOL    HW129051   4.992   6.003   2.126
 9384SOL    HW229052   4.902   5.932   2.243
 9385SOL     OW29053   3.714   1.203   3.292
 9385SOL    HW129054   3.737   1.197   3.389
 9385SOL    HW229055   3.644   1.135   3.270
 9386SOL     OW29056   2.737   6.968   5.645
 9386SOL    HW129057   2.815   6.994   5.588
 9386SOL    HW229058   2.770   6.943   5.737
 9387SOL     OW29059   3.330   6.683   0.292
 9387SOL    HW129060   3.352   6.603   0.348
 9387SOL    HW229061   3.342   6.660   0.195
 9388SOL     OW29062   6.946   0.653   3.141
 9388SOL    HW129063   6.950   0.610   3.231
 9388SOL    HW229064   0.014   0.643   3.095
 9389SOL     OW29065   2.505   0.899   5.710
 9389SOL    HW129066   2.488   0.987   5.755
 9389SOL    HW229067   2.456   0.826   5.759
 9390SOL     OW29068   2.617   5.561   1.993
 9390SOL    HW129069   2.646   5.622   1.920
 9390SOL    HW229070   2.679   5.571   2.071
 9391SOL     OW29071   0.285   1.283   5.695
 9391SOL    HW129072   0.328   1.263   5.783
 9391SOL    HW229073   0.351   1.330   5.636
 9392SOL     OW29074   1.387   5.913   4.672
 9392SOL    HW129075   1.382   6.004   4.712
 9392SOL    HW229076   1.483   5.890   4.654
 9393SOL     OW29077   3.728   2.240   5.249
 9393SOL    HW129078   3.671   2.173   5.202
 9393SOL    HW229079   3.785   2.287   5.181
 9394SOL     OW29080   6.309   2.868   2.513
 9394SOL    HW129081   6.222   2.908   2.543
 9394SOL    HW229082   6.325   2.783   2.563
 9395SOL     OW29083   2.260   3.482   0.671
 9395SOL    HW129084   2.171   3.445   0.695
 9395SOL    HW229085   2.250   3.546   0.594
 9396SOL     OW29086   6.133   0.294   5.901
 9396SOL    HW129087   6.096   0.314   5.992
 9396SOL    HW229088   6.074   0.333   5.831
 9397SOL     OW29089   2.633   6.953   0.944
 9397SOL    HW129090   2.577   7.014   0.887
 9397SOL    HW229091   2.589   6.940   1.033
 9398SOL     OW29092   2.632   1.548   6.504
 9398SOL    HW129093   2.584   1.589   6.581
 9398SOL    HW229094   2.610   1.599   6.421
 9399SOL     OW29095   7.006   0.889   5.630
 9399SOL    HW129096   7.014   0.852   5.723
 9399SOL    HW229097   0.074   0.880   5.584
 9400SOL     OW29098   5.674   3.190   2.288
 9400SOL    HW129099   5.764   3.146   2.284
 9400SOL    HW229100   5.679   3.279   2.243
 9401SOL     OW29101   2.889   6.332   3.241
 9401SOL    HW129102   2.978   6.378   3.237
 9401SOL    HW229103   2.863   6.318   3.337
 9402SOL     OW29104   2.027   5.198   6.398
 9402SOL    HW129105   2.075   5.128   6.449
 9402SOL    HW229106   2.027   5.174   6.301
 9403SOL     OW29107   5.161   2.081   4.214
 9403SOL    HW129108   5.171   2.180   4.211
 9403SOL    HW229109   5.075   2.057   4.260
 9404SOL     OW29110   1.253   4.875   6.538
 9404SOL    HW129111   1.233   4.956   6.594
 9404SOL    HW229112   1.251   4.901   6.442
 9405SOL     OW29113   6.326   6.911   0.802
 9405SOL    HW129114   6.318   6.811   0.796
 9405SOL    HW229115   6.264   6.945   0.872
 9406SOL     OW29116   0.088   1.255   4.694
 9406SOL    HW129117   0.127   1.166   4.672
 9406SOL    HW229118   0.122   1.285   4.783
 9407SOL     OW29119   3.072   5.887   3.009
 9407SOL    HW129120   3.115   5.956   2.950
 9407SOL    HW229121   3.052   5.929   3.098
 9408SOL     OW29122   3.903   1.775   6.090
 9408SOL    HW129123   3.974   1.841   6.066
 9408SOL    HW229124   3.845   1.812   6.162
 9409SOL     OW29125   5.879   3.584   3.959
 9409SOL    HW129126   5.945   3.516   3.990
 9409SOL    HW229127   5.926   3.660   3.914
 9410SOL     OW29128   4.242   6.346   2.933
 9410SOL    HW129129   4.295   6.360   2.849
 9410SOL    HW229130   4.218   6.435   2.972
 9411SOL     OW29131   4.151   5.782   0.302
 9411SOL    HW129132   4.220   5.716   0.271
 9411SOL    HW229133   4.073   5.733   0.340
 9412SOL     OW29134   7.015   2.473   1.336
 9412SOL    HW129135   0.041   2.404   1.393
 9412SOL    HW229136   6.997   2.434   1.246
 9413SOL     OW29137   3.937   5.916   5.324
 9413SOL    HW129138   3.963   5.905   5.228
 9413SOL    HW229139   3.989   5.991   5.364
 9414SOL     OW29140   2.969   1.454   2.402
 9414SOL    HW129141   2.979   1.372   2.346
 9414SOL    HW229142   3.058   1.481   2.437
 9415SOL     OW29143   2.341   6.491   2.369
 9415SOL    HW129144   2.371   6.451   2.455
 9415SOL    HW229145   2.326   6.589   2.381
 9416SOL     OW29146   1.516   2.027   1.876
 9416SOL    HW129147   1.498   2.064   1.784
 9416SOL    HW229148   1.578   2.089   1.924
 9417SOL     OW29149   2.270   5.423   5.645
 9417SOL    HW129150   2.202   5.371   5.593
 9417SOL    HW229151   2.226   5.462   5.726
 9418SOL     OW29152   2.418   4.930   1.145
 9418SOL    HW129153   2.515   4.932   1.122
 9418SOL    HW229154   2.405   4.963   1.239
 9419SOL     OW29155   2.924   6.521   4.753
 9419SOL    HW129156   2.974   6.565   4.678
 9419SOL    HW229157   2.988   6.469   4.809
 9420SOL     OW29158   6.925   1.120   4.465
 9420SOL    HW129159   6.839   1.172   4.463
 9420SOL    HW229160   7.001   1.183   4.479
 9421SOL     OW29161   0.690   4.196   5.418
 9421SOL    HW129162   0.692   4.270   5.352
 9421SOL    HW229163   0.778   4.191   5.466
 9422SOL     OW29164   5.218   0.273   2.010
 9422SOL    HW129165   5.312   0.253   1.981
 9422SOL    HW229166   5.220   0.324   2.096
 9423SOL     OW29167   3.960   0.748   3.873
 9423SOL    HW129168   3.990   0.654   3.889
 9423SOL    HW229169   4.011   0.786   3.796
 9424SOL     OW29170   3.765   6.797   4.860
 9424SOL    HW129171   3.685   6.741   4.839
 9424SOL    HW229172   3.744   6.893   4.841
 9425SOL     OW29173   1.009   3.335   5.002
 9425SOL    HW129174   1.051   3.402   4.942
 9425SOL    HW229175   1.079   3.290   5.057
 9426SOL     OW29176   3.280   0.388   6.790
 9426SOL    HW129177   3.316   0.369   6.699
 9426SOL    HW229178   3.331   0.337   6.858
 9427SOL     OW29179   2.833   5.194   4.953
 9427SOL    HW129180   2.800   5.116   4.900
 9427SOL    HW229181   2.755   5.245   4.989
 9428SOL     OW29182   5.824   0.247   3.135
 9428SOL    HW129183   5.745   0.303   3.161
 9428SOL    HW229184   5.901   0.306   3.114
 9429SOL     OW29185   1.032   3.857   1.961
 9429SOL    HW129186   0.969   3.900   1.897
 9429SOL    HW229187   1.126   3.876   1.932
 9430SOL     OW29188   6.495   6.727   1.692
 9430SOL    HW129189   6.424   6.737   1.623
 9430SOL    HW229190   6.456   6.741   1.783
 9431SOL     OW29191   0.026   3.779   0.827
 9431SOL    HW129192   0.103   3.757   0.768
 9431SOL    HW229193   6.984   3.701   0.831
 9432SOL     OW29194   6.179   0.204   2.879
 9432SOL    HW129195   6.141   0.208   2.787
 9432SOL    HW229196   6.146   0.122   2.926
 9433SOL     OW29197   3.358   4.732   5.410
 9433SOL    HW129198   3.281   4.732   5.347
 9433SOL    HW229199   3.416   4.811   5.391
 9434SOL     OW29200   5.901   4.803   2.907
 9434SOL    HW129201   5.855   4.769   2.989
 9434SOL    HW229202   5.950   4.887   2.929
 9435SOL     OW29203   1.325   1.162   4.357
 9435SOL    HW129204   1.380   1.082   4.379
 9435SOL    HW229205   1.247   1.167   4.420
 9436SOL     OW29206   2.525   3.449   0.351
 9436SOL    HW129207   2.577   3.528   0.316
 9436SOL    HW229208   2.552   3.367   0.301
 9437SOL     OW29209   1.710   5.257   3.550
 9437SOL    HW129210   1.752   5.228   3.464
 9437SOL    HW229211   1.734   5.353   3.568
 9438SOL     OW29212   0.515   6.440   2.137
 9438SOL    HW129213   0.542   6.536   2.147
 9438SOL    HW229214   0.541   6.390   2.220
 9439SOL     OW29215   0.177   2.694   2.035
 9439SOL    HW129216   0.146   2.784   2.003
 9439SOL    HW229217   0.121   2.665   2.113
 9440SOL     OW29218   4.740   6.320   5.966
 9440SOL    HW129219   4.831   6.280   5.950
 9440SOL    HW229220   4.738   6.413   5.929
 9441SOL     OW29221   1.950   4.814   5.019
 9441SOL    HW129222   1.958   4.850   5.112
 9441SOL    HW229223   2.036   4.770   4.992
 9442SOL     OW29224   6.769   2.652   0.550
 9442SOL    HW129225   6.708   2.684   0.622
 9442SOL    HW229226   6.840   2.721   0.534
 9443SOL     OW29227   1.825   4.064   1.051
 9443SOL    HW129228   1.821   4.158   1.086
 9443SOL    HW229229   1.900   4.056   0.987
 9444SOL     OW29230   0.489   3.060   0.158
 9444SOL    HW129231   0.399   3.076   0.117
 9444SOL    HW229232   0.496   3.112   0.242
 9445SOL     OW29233   5.713   3.974   1.797
 9445SOL    HW129234   5.689   4.000   1.890
 9445SOL    HW229235   5.629   3.967   1.742
 9446SOL     OW29236   6.453   6.147   2.145
 9446SOL    HW129237   6.462   6.050   2.122
 9446SOL    HW229238   6.486   6.163   2.238
 9447SOL     OW29239   5.694   3.945   2.337
 9447SOL    HW129240   5.645   4.012   2.392
 9447SOL    HW229241   5.747   3.885   2.397
 9448SOL     OW29242   5.736   6.223   0.362
 9448SOL    HW129243   5.694   6.307   0.396
 9448SOL    HW229244   5.828   6.214   0.399
 9449SOL     OW29245   5.686   5.549   5.823
 9449SOL    HW129246   5.689   5.576   5.727
 9449SOL    HW229247   5.602   5.497   5.841
 9450SOL     OW29248   3.436   4.993   4.805
 9450SOL    HW129249   3.497   4.974   4.729
 9450SOL    HW229250   3.364   4.924   4.808
 9451SOL     OW29251   4.375   5.646   6.442
 9451SOL    HW129252   4.347   5.734   6.404
 9451SOL    HW229253   4.453   5.660   6.503
 9452SOL     OW29254   2.326   4.404   1.534
 9452SOL    HW129255   2.425   4.391   1.547
 9452SOL    HW229256   2.280   4.316   1.543
 9453SOL     OW29257   2.270   5.285   2.610
 9453SOL    HW129258   2.228   5.357   2.554
 9453SOL    HW229259   2.344   5.243   2.559
 9454SOL     OW29260   1.521   3.829   5.851
 9454SOL    HW129261   1.478   3.798   5.936
 9454SOL    HW229262   1.577   3.756   5.813
 9455SOL     OW29263   3.473   1.002   2.429
 9455SOL    HW129264   3.448   1.097   2.444
 9455SOL    HW229265   3.572   0.996   2.413
 9456SOL     OW29266   1.069   3.739   0.764
 9456SOL    HW129267   1.067   3.641   0.780
 9456SOL    HW229268   1.150   3.779   0.806
 9457SOL     OW29269   1.467   3.037   0.118
 9457SOL    HW129270   1.477   3.082   0.030
 9457SOL    HW229271   1.552   2.989   0.142
 9458SOL     OW29272   0.145   5.292   5.257
 9458SOL    HW129273   0.089   5.209   5.249
 9458SOL    HW229274   0.185   5.297   5.348
 9459SOL     OW29275   6.557   5.370   1.639
 9459SOL    HW129276   6.480   5.359   1.702
 9459SOL    HW229277   6.619   5.439   1.674
 9460SOL     OW29278   0.983   1.946   5.042
 9460SOL    HW129279   0.959   1.850   5.029
 9460SOL    HW229280   0.900   2.001   5.044
 9461SOL     OW29281   0.770   0.846   3.520
 9461SOL    HW129282   0.771   0.780   3.445
 9461SOL    HW229283   0.682   0.892   3.523
 9462SOL     OW29284   0.414   2.958   1.963
 9462SOL    HW129285   0.452   2.869   1.988
 9462SOL    HW229286   0.461   3.030   2.014
 9463SOL     OW29287   6.025   1.426   6.963
 9463SOL    HW129288   5.964   1.486   6.911
 9463SOL    HW229289   5.994   1.331   6.954
 9464SOL     OW29290   5.922   0.187   6.102
 9464SOL    HW129291   5.964   0.105   6.141
 9464SOL    HW229292   5.863   0.161   6.025
 9465SOL     OW29293   6.210   0.210   4.017
 9465SOL    HW129294   6.238   0.148   4.090
 9465SOL    HW229295   6.123   0.254   4.042
 9466SOL     OW29296   2.289   2.969   5.968
 9466SOL    HW129297   2.246   3.054   5.999
 9466SOL    HW229298   2.379   2.959   6.011
 9467SOL     OW29299   1.682   2.605   2.416
 9467SOL    HW129300   1.658   2.509   2.431
 9467SOL    HW229301   1.630   2.663   2.479
 9468SOL     OW29302   6.591   3.186   5.841
 9468SOL    HW129303   6.684   3.221   5.825
 9468SOL    HW229304   6.556   3.146   5.757
 9469SOL     OW29305   6.286   5.813   2.391
 9469SOL    HW129306   6.346   5.754   2.446
 9469SOL    HW229307   6.226   5.756   2.336
 9470SOL     OW29308   4.697   3.723   0.472
 9470SOL    HW129309   4.708   3.817   0.504
 9470SOL    HW229310   4.699   3.660   0.549
 9471SOL     OW29311   6.949   2.371   5.923
 9471SOL    HW129312   6.909   2.423   5.847
 9471SOL    HW229313   7.011   2.430   5.974
 9472SOL     OW29314   5.886   4.434   4.786
 9472SOL    HW129315   5.963   4.436   4.850
 9472SOL    HW229316   5.800   4.437   4.837
 9473SOL     OW29317   2.272   5.691   6.061
 9473SOL    HW129318   2.261   5.738   6.149
 9473SOL    HW229319   2.325   5.748   5.999
 9474SOL     OW29320   4.655   5.001   2.093
 9474SOL    HW129321   4.723   4.928   2.097
 9474SOL    HW229322   4.608   4.997   2.005
 9475SOL     OW29323   2.786   4.068   1.103
 9475SOL    HW129324   2.755   4.009   1.028
 9475SOL    HW229325   2.884   4.055   1.117
 9476SOL     OW29326   4.266   3.347   5.426
 9476SOL    HW129327   4.275   3.345   5.525
 9476SOL    HW229328   4.330   3.415   5.389
 9477SOL     OW29329   1.027   2.537   1.131
 9477SOL    HW129330   0.976   2.451   1.137
 9477SOL    HW229331   1.120   2.518   1.101
 9478SOL     OW29332   6.040   4.703   5.297
 9478SOL    HW129333   6.075   4.778   5.242
 9478SOL    HW229334   5.986   4.739   5.373
 9479SOL     OW29335   5.884   6.100   6.419
 9479SOL    HW129336   5.825   6.085   6.340
 9479SOL    HW229337   5.978   6.076   6.396
 9480SOL     OW29338   5.519   4.647   0.037
 9480SOL    HW129339   5.541   4.728   7.002
 9480SOL    HW229340   5.419   4.639   0.044
 9481SOL     OW29341   6.779   3.909   2.066
 9481SOL    HW129342   6.858   3.866   2.110
 9481SOL    HW229343   6.808   3.995   2.023
 9482SOL     OW29344   4.822   0.606   1.866
 9482SOL    HW129345   4.917   0.575   1.868
 9482SOL    HW229346   4.811   0.685   1.926
 9483SOL     OW29347   1.979   1.842   0.641
 9483SOL    HW129348   1.983   1.935   0.677
 9483SOL    HW229349   2.057   1.826   0.581
 9484SOL     OW29350   6.361   1.639   3.957
 9484SOL    HW129351   6.452   1.675   3.934
 9484SOL    HW229352   6.317   1.603   3.875
 9485SOL     OW29353   1.007   0.976   2.981
 9485SOL    HW129354   1.089   1.027   3.008
 9485SOL    HW229355   1.011   0.884   3.020
 9486SOL     OW29356   2.605   5.700   1.153
 9486SOL    HW129357   2.687   5.709   1.097
 9486SOL    HW229358   2.606   5.770   1.225
 9487SOL     OW29359   2.938   3.462   3.623
 9487SOL    HW129360   2.855   3.487   3.573
 9487SOL    HW229361   2.951   3.523   3.701
 9488SOL     OW29362   1.693   6.445   1.300
 9488SOL    HW129363   1.687   6.359   1.351
 9488SOL    HW229364   1.648   6.434   1.211
 9489SOL     OW29365   3.979   4.647   1.430
 9489SOL    HW129366   4.074   4.670   1.408
 9489SOL    HW229367   3.974   4.555   1.467
 9490SOL     OW29368   5.511   0.858   1.309
 9490SOL    HW129369   5.550   0.942   1.271
 9490SOL    HW229370   5.519   0.784   1.241
 9491SOL     OW29371   6.370   5.264   4.399
 9491SOL    HW129372   6.316   5.330   4.347
 9491SOL    HW229373   6.382   5.296   4.493
 9492SOL     OW29374   3.198   3.904   1.871
 9492SOL    HW129375   3.133   3.950   1.932
 9492SOL    HW229376   3.289   3.943   1.883
 9493SOL     OW29377   4.569   5.712   3.343
 9493SOL    HW129378   4.509   5.748   3.414
 9493SOL    HW229379   4.557   5.766   3.259
 9494SOL     OW29380   5.411   3.431   6.716
 9494SOL    HW129381   5.462   3.460   6.635
 9494SOL    HW229382   5.362   3.346   6.696
 9495SOL     OW29383   6.250   1.840   4.702
 9495SOL    HW129384   6.216   1.844   4.608
 9495SOL    HW229385   6.297   1.925   4.724
 9496SOL     OW29386   5.885   3.947   0.081
 9496SOL    HW129387   5.789   3.972   0.074
 9496SOL    HW229388   5.941   4.030   0.084
 9497SOL     OW29389   5.338   5.440   0.274
 9497SOL    HW129390   5.353   5.518   0.213
 9497SOL    HW229391   5.413   5.434   0.340
 9498SOL     OW29392   3.572   0.359   5.295
 9498SOL    HW129393   3.575   0.446   5.244
 9498SOL    HW229394   3.654   0.351   5.351
 9499SOL     OW29395   2.982   3.587   5.350
 9499SOL    HW129396   3.039   3.568   5.270
 9499SOL    HW229397   3.015   3.670   5.396
 9500SOL     OW29398   4.209   5.710   1.794
 9500SOL    HW129399   4.140   5.782   1.793
 9500SOL    HW229400   4.293   5.745   1.836
 9501SOL     OW29401   3.540   1.504   4.775
 9501SOL    HW129402   3.591   1.504   4.688
 9501SOL    HW229403   3.572   1.579   4.832
 9502SOL     OW29404   6.428   2.437   5.128
 9502SOL    HW129405   6.364   2.495   5.077
 9502SOL    HW229406   6.489   2.391   5.065
 9503SOL     OW29407   0.529   0.062   2.021
 9503SOL    HW129408   0.517   0.074   2.119
 9503SOL    HW229409   0.440   0.044   1.978
 9504SOL     OW29410   0.199   2.646   0.604
 9504SOL    HW129411   0.176   2.613   0.695
 9504SOL    HW229412   0.281   2.703   0.608
 9505SOL     OW29413   6.330   3.211   3.350
 9505SOL    HW129414   6.248   3.264   3.373
 9505SOL    HW229415   6.409   3.272   3.351
 9506SOL     OW29416   6.988   3.377   0.070
 9506SOL    HW129417   6.984   3.277   0.072
 9506SOL    HW229418   7.011   3.412   0.161
 9507SOL     OW29419   1.141   1.389   3.974
 9507SOL    HW129420   1.240   1.402   3.968
 9507SOL    HW229421   1.103   1.384   3.882
 9508SOL     OW29422   5.700   1.744   0.871
 9508SOL    HW129423   5.636   1.782   0.937
 9508SOL    HW229424   5.709   1.806   0.793
 9509SOL     OW29425   1.949   6.457   5.432
 9509SOL    HW129426   1.855   6.490   5.442
 9509SOL    HW229427   1.967   6.386   5.501
 9510SOL     OW29428   6.974   4.489   2.319
 9510SOL    HW129429   6.883   4.520   2.293
 9510SOL    HW229430   6.970   4.393   2.347
 9511SOL     OW29431   0.339   2.252   0.006
 9511SOL    HW129432   0.291   2.300   0.079
 9511SOL    HW229433   0.369   2.317   6.957
 9512SOL     OW29434   0.927   2.084   3.935
 9512SOL    HW129435   0.842   2.136   3.933
 9512SOL    HW229436   0.941   2.047   4.027
 9513SOL     OW29437   2.133   3.768   3.980
 9513SOL    HW129438   2.058   3.766   3.914
 9513SOL    HW229439   2.150   3.675   4.014
 9514SOL     OW29440   1.803   3.247   6.895
 9514SOL    HW129441   1.836   3.182   6.826
 9514SOL    HW229442   1.861   3.244   6.976
 9515SOL     OW29443   1.553   6.225   6.237
 9515SOL    HW129444   1.512   6.244   6.326
 9515SOL    HW229445   1.493   6.260   6.165
 9516SOL     OW29446   5.348   4.403   3.772
 9516SOL    HW129447   5.300   4.437   3.691
 9516SOL    HW229448   5.331   4.305   3.782
 9517SOL     OW29449   0.711   5.490   1.736
 9517SOL    HW129450   0.691   5.588   1.725
 9517SOL    HW229451   0.808   5.473   1.720
 9518SOL     OW29452   0.859   2.626   6.199
 9518SOL    HW129453   0.930   2.693   6.219
 9518SOL    HW229454   0.793   2.624   6.274
 9519SOL     OW29455   3.383   3.590   2.858
 9519SOL    HW129456   3.439   3.580   2.776
 9519SOL    HW229457   3.429   3.651   2.923
 9520SOL     OW29458   0.191   0.604   5.237
 9520SOL    HW129459   0.173   0.567   5.328
 9520SOL    HW229460   0.288   0.596   5.217
 9521SOL     OW29461   3.507   6.763   1.330
 9521SOL    HW129462   3.558   6.732   1.250
 9521SOL    HW229463   3.427   6.815   1.300
 9522SOL     OW29464   3.747   5.620   1.145
 9522SOL    HW129465   3.734   5.710   1.104
 9522SOL    HW229466   3.713   5.621   1.238
 9523SOL     OW29467   2.501   5.012   4.828
 9523SOL    HW129468   2.491   4.944   4.902
 9523SOL    HW229469   2.598   5.028   4.810
 9524SOL     OW29470   1.409   3.999   1.191
 9524SOL    HW129471   1.340   4.060   1.153
 9524SOL    HW229472   1.445   3.940   1.119
 9525SOL     OW29473   1.930   2.190   5.576
 9525SOL    HW129474   1.874   2.271   5.560
 9525SOL    HW229475   1.871   2.112   5.594
 9526SOL     OW29476   5.201   5.095   6.780
 9526SOL    HW129477   5.195   5.180   6.832
 9526SOL    HW229478   5.231   5.021   6.840
 9527SOL     OW29479   3.451   6.770   3.603
 9527SOL    HW129480   3.396   6.691   3.629
 9527SOL    HW229481   3.538   6.740   3.564
 9528SOL     OW29482   6.414   1.385   0.980
 9528SOL    HW129483   6.318   1.398   0.955
 9528SOL    HW229484   6.471   1.448   0.928
 9529SOL     OW29485   6.520   2.015   1.900
 9529SOL    HW129486   6.465   2.053   1.826
 9529SOL    HW229487   6.559   1.927   1.871
 9530SOL     OW29488   0.532   5.304   3.843
 9530SOL    HW129489   0.612   5.363   3.829
 9530SOL    HW229490   0.560   5.222   3.893
 9531SOL     OW29491   4.196   4.717   3.334
 9531SOL    HW129492   4.135   4.767   3.395
 9531SOL    HW229493   4.252   4.654   3.387
 9532SOL     OW29494   6.123   5.625   2.265
 9532SOL    HW129495   6.135   5.526   2.268
 9532SOL    HW229496   6.143   5.659   2.173
 9533SOL     OW29497   1.696   5.689   4.150
 9533SOL    HW129498   1.600   5.707   4.170
 9533SOL    HW229499   1.752   5.711   4.230
 9534SOL     OW29500   6.013   4.984   4.475
 9534SOL    HW129501   5.969   4.934   4.401
 9534SOL    HW229502   5.991   4.941   4.562
 9535SOL     OW29503   1.485   1.731   5.863
 9535SOL    HW129504   1.558   1.753   5.799
 9535SOL    HW229505   1.473   1.807   5.927
 9536SOL     OW29506   3.686   3.654   5.260
 9536SOL    HW129507   3.668   3.693   5.170
 9536SOL    HW229508   3.777   3.612   5.261
 9537SOL     OW29509   1.661   1.119   3.950
 9537SOL    HW129510   1.755   1.123   3.984
 9537SOL    HW229511   1.655   1.169   3.864
 9538SOL     OW29512   3.623   0.463   4.613
 9538SOL    HW129513   3.687   0.513   4.672
 9538SOL    HW229514   3.558   0.528   4.574
 9539SOL     OW29515   3.782   2.942   3.086
 9539SOL    HW129516   3.700   2.923   3.033
 9539SOL    HW229517   3.779   2.893   3.173
 9540SOL     OW29518   4.794   5.210   4.381
 9540SOL    HW129519   4.771   5.145   4.309
 9540SOL    HW229520   4.719   5.275   4.393
 9541SOL     OW29521   1.297   6.759   4.835
 9541SOL    HW129522   1.245   6.839   4.866
 9541SOL    HW229523   1.235   6.689   4.801
 9542SOL     OW29524   5.833   4.867   4.294
 9542SOL    HW129525   5.793   4.948   4.251
 9542SOL    HW229526   5.851   4.798   4.223
 9543SOL     OW29527   2.927   0.802   6.275
 9543SOL    HW129528   2.862   0.730   6.249
 9543SOL    HW229529   3.010   0.759   6.311
 9544SOL     OW29530   5.117   4.021   3.410
 9544SOL    HW129531   5.083   4.090   3.346
 9544SOL    HW229532   5.181   3.960   3.362
 9545SOL     OW29533   1.476   4.726   1.762
 9545SOL    HW129534   1.514   4.635   1.746
 9545SOL    HW229535   1.383   4.718   1.796
 9546SOL     OW29536   2.827   1.317   5.614
 9546SOL    HW129537   2.856   1.404   5.652
 9546SOL    HW229538   2.761   1.332   5.541
 9547SOL     OW29539   3.455   6.255   4.228
 9547SOL    HW129540   3.530   6.319   4.207
 9547SOL    HW229541   3.430   6.205   4.145
 9548SOL     OW29542   1.124   5.133   6.025
 9548SOL    HW129543   1.050   5.182   6.071
 9548SOL    HW229544   1.091   5.043   5.997
 9549SOL     OW29545   3.831   2.083   2.548
 9549SOL    HW129546   3.829   2.104   2.450
 9549SOL    HW229547   3.805   1.987   2.562
 9550SOL     OW29548   5.650   2.845   1.578
 9550SOL    HW129549   5.698   2.914   1.631
 9550SOL    HW229550   5.697   2.757   1.586
 9551SOL     OW29551   6.405   1.866   6.162
 9551SOL    HW129552   6.362   1.952   6.190
 9551SOL    HW229553   6.440   1.818   6.242
 9552SOL     OW29554   2.582   0.819   6.632
 9552SOL    HW129555   2.622   0.904   6.665
 9552SOL    HW229556   2.484   0.819   6.650
 9553SOL     OW29557   5.210   2.458   0.461
 9553SOL    HW129558   5.179   2.481   0.369
 9553SOL    HW229559   5.155   2.383   0.497
 9554SOL     OW29560   2.640   6.408   3.904
 9554SOL    HW129561   2.596   6.382   3.818
 9554SOL    HW229562   2.611   6.346   3.976
 9555SOL     OW29563   6.079   1.391   3.354
 9555SOL    HW129564   6.071   1.320   3.285
 9555SOL    HW229565   6.089   1.480   3.310
 9556SOL     OW29566   1.536   4.586   0.943
 9556SOL    HW129567   1.572   4.498   0.972
 9556SOL    HW229568   1.436   4.580   0.935
 9557SOL     OW29569   5.194   6.872   2.289
 9557SOL    HW129570   5.234   6.836   2.204
 9557SOL    HW229571   5.158   6.964   2.272
 9558SOL     OW29572   5.639   6.391   5.683
 9558SOL    HW129573   5.640   6.371   5.781
 9558SOL    HW229574   5.705   6.332   5.637
 9559SOL     OW29575   1.363   3.868   6.746
 9559SOL    HW129576   1.428   3.794   6.765
 9559SOL    HW229577   1.274   3.830   6.722
 9560SOL     OW29578   3.737   0.291   2.215
 9560SOL    HW129579   3.835   0.308   2.225
 9560SOL    HW229580   3.686   0.377   2.226
 9561SOL     OW29581   0.640   0.184   0.820
 9561SOL    HW129582   0.625   0.153   0.726
 9561SOL    HW229583   0.575   0.139   0.881
 9562SOL     OW29584   2.515   5.670   3.980
 9562SOL    HW129585   2.505   5.641   4.075
 9562SOL    HW229586   2.581   5.746   3.975
 9563SOL     OW29587   0.565   6.708   0.091
 9563SOL    HW129588   0.632   6.771   0.053
 9563SOL    HW229589   0.515   6.753   0.166
 9564SOL     OW29590   1.067   0.420   1.061
 9564SOL    HW129591   0.994   0.351   1.066
 9564SOL    HW229592   1.153   0.376   1.039
 9565SOL     OW29593   3.199   0.904   4.084
 9565SOL    HW129594   3.150   0.930   4.167
 9565SOL    HW229595   3.297   0.912   4.099
 9566SOL     OW29596   2.463   6.546   0.411
 9566SOL    HW129597   2.552   6.569   0.452
 9566SOL    HW229598   2.473   6.539   0.312
 9567SOL     OW29599   0.108   4.877   0.377
 9567SOL    HW129600   0.065   4.882   0.468
 9567SOL    HW229601   0.075   4.953   0.321
 9568SOL     OW29602   3.912   1.925   0.139
 9568SOL    HW129603   3.917   1.843   0.081
 9568SOL    HW229604   3.973   1.913   0.217
 9569SOL     OW29605   6.134   0.631   1.971
 9569SOL    HW129606   6.204   0.563   1.993
 9569SOL    HW229607   6.054   0.616   2.028
 9570SOL     OW29608   0.424   2.984   0.916
 9570SOL    HW129609   0.399   2.896   0.957
 9570SOL    HW229610   0.344   3.044   0.913
 9571SOL     OW29611   2.773   2.632   6.279
 9571SOL    HW129612   2.783   2.535   6.260
 9571SOL    HW229613   2.853   2.665   6.328
 9572SOL     OW29614   2.147   3.868   3.669
 9572SOL    HW129615   2.153   3.853   3.570
 9572SOL    HW229616   2.180   3.960   3.690
 9573SOL     OW29617   6.707   0.707   5.243
 9573SOL    HW129618   6.770   0.775   5.206
 9573SOL    HW229619   6.613   0.734   5.223
 9574SOL     OW29620   4.025   2.886   1.278
 9574SOL    HW129621   4.056   2.889   1.374
 9574SOL    HW229622   3.979   2.800   1.260
 9575SOL     OW29623   6.109   0.219   2.352
 9575SOL    HW129624   6.049   0.142   2.374
 9575SOL    HW229625   6.060   0.305   2.367
 9576SOL     OW29626   1.090   1.384   0.236
 9576SOL    HW129627   1.163   1.453   0.241
 9576SOL    HW229628   1.118   1.311   0.174
 9577SOL     OW29629   6.984   6.222   0.322
 9577SOL    HW129630   6.938   6.228   0.410
 9577SOL    HW229631   6.954   6.296   0.263
 9578SOL     OW29632   1.348   2.985   2.939
 9578SOL    HW129633   1.359   2.964   2.841
 9578SOL    HW229634   1.352   3.084   2.952
 9579SOL     OW29635   6.362   0.239   2.259
 9579SOL    HW129636   6.272   0.209   2.290
 9579SOL    HW229637   6.419   0.259   2.338
 9580SOL     OW29638   4.773   4.213   1.047
 9580SOL    HW129639   4.749   4.259   1.133
 9580SOL    HW229640   4.833   4.136   1.066
 9581SOL     OW29641   6.938   0.748   0.173
 9581SOL    HW129642   6.973   0.841   0.179
 9581SOL    HW229643   6.870   0.734   0.245
 9582SOL     OW29644   3.727   6.073   4.758
 9582SOL    HW129645   3.659   6.135   4.720
 9582SOL    HW229646   3.767   6.018   4.685
 9583SOL     OW29647   3.322   4.493   1.538
 9583SOL    HW129648   3.263   4.573   1.544
 9583SOL    HW229649   3.321   4.457   1.445
 9584SOL     OW29650   1.697   4.717   4.999
 9584SOL    HW129651   1.791   4.752   4.994
 9584SOL    HW229652   1.651   4.732   4.912
 9585SOL     OW29653   5.227   6.054   1.603
 9585SOL    HW129654   5.130   6.051   1.578
 9585SOL    HW229655   5.236   6.077   1.699
 9586SOL     OW29656   4.581   4.771   1.417
 9586SOL    HW129657   4.505   4.806   1.363
 9586SOL    HW229658   4.665   4.775   1.364
 9587SOL     OW29659   2.373   6.825   2.139
 9587SOL    HW129660   2.376   6.885   2.219
 9587SOL    HW229661   2.283   6.830   2.096
 9588SOL     OW29662   6.271   6.314   0.997
 9588SOL    HW129663   6.264   6.219   0.967
 9588SOL    HW229664   6.185   6.361   0.980
 9589SOL     OW29665   1.755   3.420   6.530
 9589SOL    HW129666   1.744   3.334   6.480
 9589SOL    HW229667   1.744   3.404   6.628
 9590SOL     OW29668   6.045   1.828   1.820
 9590SOL    HW129669   5.953   1.808   1.855
 9590SOL    HW229670   6.105   1.750   1.839
 9591SOL     OW29671   3.324   6.915   5.666
 9591SOL    HW129672   3.360   6.899   5.575
 9591SOL    HW229673   3.391   6.886   5.735
 9592SOL     OW29674   2.949   4.235   6.627
 9592SOL    HW129675   3.022   4.303   6.631
 9592SOL    HW229676   2.869   4.274   6.582
 9593SOL     OW29677   1.653   1.014   5.716
 9593SOL    HW129678   1.608   1.102   5.728
 9593SOL    HW229679   1.685   0.980   5.804
 9594SOL     OW29680   2.500   6.251   4.149
 9594SOL    HW129681   2.472   6.177   4.210
 9594SOL    HW229682   2.466   6.338   4.186
 9595SOL     OW29683   0.371   3.421   3.439
 9595SOL    HW129684   0.324   3.510   3.434
 9595SOL    HW229685   0.457   3.426   3.387
 9596SOL     OW29686   0.706   5.186   0.890
 9596SOL    HW129687   0.661   5.225   0.971
 9596SOL    HW229688   0.692   5.247   0.812
 9597SOL     OW29689   1.196   4.228   1.425
 9597SOL    HW129690   1.136   4.295   1.381
 9597SOL    HW229691   1.144   4.176   1.493
 9598SOL     OW29692   1.831   3.573   2.586
 9598SOL    HW129693   1.923   3.556   2.551
 9598SOL    HW229694   1.769   3.502   2.554
 9599SOL     OW29695   3.465   6.647   4.098
 9599SOL    HW129696   3.377   6.682   4.130
 9599SOL    HW229697   3.523   6.626   4.177
 9600SOL     OW29698   3.339   0.110   1.054
 9600SOL    HW129699   3.372   0.053   0.978
 9600SOL    HW229700   3.336   0.206   1.025
 9601SOL     OW29701   6.261   4.371   0.981
 9601SOL    HW129702   6.305   4.460   0.992
 9601SOL    HW229703   6.229   4.361   0.887
 9602SOL     OW29704   4.505   4.829   5.742
 9602SOL    HW129705   4.425   4.784   5.703
 9602SOL    HW229706   4.588   4.782   5.711
 9603SOL     OW29707   5.677   6.375   6.182
 9603SOL    HW129708   5.762   6.410   6.220
 9603SOL    HW229709   5.612   6.357   6.257
 9604SOL     OW29710   4.743   0.452   1.660
 9604SOL    HW129711   4.817   0.391   1.631
 9604SOL    HW229712   4.779   0.518   1.727
 9605SOL     OW29713   0.221   5.126   3.000
 9605SOL    HW129714   0.283   5.204   3.006
 9605SOL    HW229715   0.274   5.042   2.986
 9606SOL     OW29716   1.613   1.031   6.854
 9606SOL    HW129717   1.627   1.028   6.756
 9606SOL    HW229718   1.525   1.074   6.874
 9607SOL     OW29719   3.136   1.724   6.910
 9607SOL    HW129720   3.061   1.676   6.957
 9607SOL    HW229721   3.098   1.799   6.856
 9608SOL     OW29722   6.985   4.561   2.814
 9608SOL    HW129723   7.002   4.647   2.863
 9608SOL    HW229724   6.890   4.559   2.784
 9609SOL     OW29725   3.948   2.670   6.622
 9609SOL    HW129726   3.899   2.736   6.679
 9609SOL    HW229727   4.042   2.700   6.609
 9610SOL     OW29728   1.784   4.894   2.734
 9610SOL    HW129729   1.864   4.905   2.794
 9610SOL    HW229730   1.800   4.818   2.672
 9611SOL     OW29731   1.695   6.719   0.822
 9611SOL    HW129732   1.772   6.715   0.759
 9611SOL    HW229733   1.697   6.640   0.883
 9612SOL     OW29734   0.433   3.086   1.716
 9612SOL    HW129735   0.420   3.040   1.804
 9612SOL    HW229736   0.365   3.158   1.706
 9613SOL     OW29737   5.733   6.282   3.532
 9613SOL    HW129738   5.644   6.325   3.544
 9613SOL    HW229739   5.768   6.303   3.440
 9614SOL     OW29740   3.679   1.846   2.665
 9614SOL    HW129741   3.610   1.845   2.592
 9614SOL    HW229742   3.634   1.852   2.754
 9615SOL     OW29743   2.994   2.202   1.228
 9615SOL    HW129744   2.956   2.183   1.138
 9615SOL    HW229745   2.925   2.248   1.284
 9616SOL     OW29746   3.533   3.390   1.285
 9616SOL    HW129747   3.446   3.377   1.238
 9616SOL    HW229748   3.527   3.470   1.344
 9617SOL     OW29749   1.945   3.342   3.855
 9617SOL    HW129750   1.906   3.412   3.795
 9617SOL    HW229751   2.024   3.300   3.810
 9618SOL     OW29752   3.224   0.619   1.052
 9618SOL    HW129753   3.131   0.654   1.062
 9618SOL    HW229754   3.284   0.663   1.119
 9619SOL     OW29755   1.924   0.355   5.565
 9619SOL    HW129756   1.849   0.421   5.564
 9619SOL    HW229757   1.918   0.299   5.648
 9620SOL     OW29758   4.538   0.382   4.676
 9620SOL    HW129759   4.440   0.400   4.683
 9620SOL    HW229760   4.577   0.371   4.768
 9621SOL     OW29761   1.667   2.702   1.803
 9621SOL    HW129762   1.589   2.755   1.768
 9621SOL    HW229763   1.647   2.669   1.895
 9622SOL     OW29764   5.991   1.536   0.526
 9622SOL    HW129765   5.908   1.506   0.572
 9622SOL    HW229766   6.068   1.532   0.590
 9623SOL     OW29767   2.102   2.897   6.890
 9623SOL    HW129768   2.185   2.878   6.944
 9623SOL    HW229769   2.028   2.838   6.922
 9624SOL     OW29770   6.135   3.540   3.208
 9624SOL    HW129771   6.139   3.540   3.108
 9624SOL    HW229772   6.103   3.451   3.240
 9625SOL     OW29773   5.337   5.613   0.051
 9625SOL    HW129774   5.354   5.696   0.103
 9625SOL    HW229775   5.406   5.604   6.999
 9626SOL     OW29776   3.825   5.143   0.699
 9626SOL    HW129777   3.769   5.072   0.659
 9626SOL    HW229778   3.873   5.107   0.779
 9627SOL     OW29779   1.141   6.119   6.585
 9627SOL    HW129780   1.044   6.116   6.611
 9627SOL    HW229781   1.196   6.084   6.661
 9628SOL     OW29782   4.878   5.182   0.829
 9628SOL    HW129783   4.960   5.131   0.853
 9628SOL    HW229784   4.850   5.159   0.735
 9629SOL     OW29785   2.057   0.745   1.850
 9629SOL    HW129786   2.105   0.832   1.835
 9629SOL    HW229787   2.095   0.675   1.789
 9630SOL     OW29788   6.104   6.760   5.268
 9630SOL    HW129789   6.038   6.824   5.227
 9630SOL    HW229790   6.133   6.693   5.200
 9631SOL     OW29791   6.149   0.147   6.417
 9631SOL    HW129792   6.217   0.207   6.374
 9631SOL    HW229793   6.091   0.202   6.477
 9632SOL     OW29794   1.727   6.560   2.649
 9632SOL    HW129795   1.632   6.552   2.616
 9632SOL    HW229796   1.735   6.515   2.738
 9633SOL     OW29797   5.732   5.353   0.006
 9633SOL    HW129798   5.760   5.402   0.089
 9633SOL    HW229799   5.633   5.342   0.006
 9634SOL     OW29800   1.522   6.527   4.165
 9634SOL    HW129801   1.544   6.622   4.142
 9634SOL    HW229802   1.455   6.492   4.099
 9635SOL     OW29803   2.237   5.042   5.048
 9635SOL    HW129804   2.187   5.112   5.099
 9635SOL    HW229805   2.178   5.005   4.976
 9636SOL     OW29806   4.204   1.597   5.362
 9636SOL    HW129807   4.303   1.601   5.351
 9636SOL    HW229808   4.179   1.621   5.455
 9637SOL     OW29809   2.196   2.338   6.561
 9637SOL    HW129810   2.169   2.406   6.493
 9637SOL    HW229811   2.145   2.253   6.546
 9638SOL     OW29812   6.744   3.645   5.492
 9638SOL    HW129813   6.688   3.606   5.565
 9638SOL    HW229814   6.760   3.742   5.509
 9639SOL     OW29815   4.168   1.708   2.390
 9639SOL    HW129816   4.099   1.749   2.450
 9639SOL    HW229817   4.135   1.709   2.296
 9640SOL     OW29818   2.389   2.742   3.327
 9640SOL    HW129819   2.365   2.827   3.280
 9640SOL    HW229820   2.392   2.667   3.260
 9641SOL     OW29821   4.640   7.002   0.253
 9641SOL    HW129822   4.557   6.969   0.209
 9641SOL    HW229823   4.620   0.067   0.302
 9642SOL     OW29824   2.877   0.162   4.698
 9642SOL    HW129825   2.889   0.261   4.699
 9642SOL    HW229826   2.832   0.133   4.782
 9643SOL     OW29827   5.512   3.861   3.313
 9643SOL    HW129828   5.557   3.934   3.261
 9643SOL    HW229829   5.415   3.858   3.289
 9644SOL     OW29830   1.313   3.159   6.259
 9644SOL    HW129831   1.317   3.194   6.353
 9644SOL    HW229832   1.233   3.197   6.213
 9645SOL     OW29833   3.116   5.274   5.345
 9645SOL    HW129834   3.138   5.333   5.267
 9645SOL    HW229835   3.024   5.236   5.333
 9646SOL     OW29836   4.373   5.004   2.653
 9646SOL    HW129837   4.281   4.990   2.617
 9646SOL    HW229838   4.424   4.918   2.647
 9647SOL     OW29839   6.555   3.361   1.278
 9647SOL    HW129840   6.507   3.426   1.219
 9647SOL    HW229841   6.645   3.342   1.239
 9648SOL     OW29842   4.218   1.927   1.212
 9648SOL    HW129843   4.205   1.935   1.113
 9648SOL    HW229844   4.178   1.841   1.245
 9649SOL     OW29845   2.747   6.483   0.049
 9649SOL    HW129846   2.808   6.562   0.057
 9649SOL    HW229847   2.727   6.466   6.973
 9650SOL     OW29848   0.003   5.690   2.441
 9650SOL    HW129849   6.989   5.780   2.467
 9650SOL    HW229850   0.082   5.667   2.499
 9651SOL     OW29851   0.558   1.933   5.857
 9651SOL    HW129852   0.653   1.931   5.825
 9651SOL    HW229853   0.499   1.967   5.784
 9652SOL     OW29854   1.133   4.807   2.245
 9652SOL    HW129855   1.133   4.907   2.232
 9652SOL    HW229856   1.208   4.767   2.192
 9653SOL     OW29857   4.568   4.845   4.591
 9653SOL    HW129858   4.642   4.826   4.527
 9653SOL    HW229859   4.604   4.845   4.685
 9654SOL     OW29860   2.454   2.466   2.018
 9654SOL    HW129861   2.463   2.560   1.985
 9654SOL    HW229862   2.418   2.408   1.945
 9655SOL     OW29863   0.074   2.011   6.286
 9655SOL    HW129864   0.015   1.969   6.355
 9655SOL    HW229865   0.170   2.008   6.317
 9656SOL     OW29866   3.068   0.215   2.368
 9656SOL    HW129867   3.089   0.189   2.274
 9656SOL    HW229868   3.152   0.243   2.414
 9657SOL     OW29869   6.250   0.832   4.473
 9657SOL    HW129870   6.324   0.766   4.456
 9657SOL    HW229871   6.188   0.832   4.394
 9658SOL     OW29872   6.244   2.980   2.098
 9658SOL    HW129873   6.323   2.965   2.158
 9658SOL    HW229874   6.234   3.078   2.080
 9659SOL     OW29875   0.648   4.959   0.035
 9659SOL    HW129876   0.622   4.862   0.039
 9659SOL    HW229877   0.581   5.013   0.087
 9660SOL     OW29878   0.840   5.575   0.752
 9660SOL    HW129879   0.879   5.641   0.688
 9660SOL    HW229880   0.909   5.547   0.819
 9661SOL     OW29881   4.358   0.174   0.766
 9661SOL    HW129882   4.374   0.164   0.667
 9661SOL    HW229883   4.422   0.116   0.816
 9662SOL     OW29884   6.008   1.969   4.775
 9662SOL    HW129885   6.082   1.901   4.772
 9662SOL    HW229886   5.940   1.948   4.705
 9663SOL     OW29887   1.443   5.428   3.066
 9663SOL    HW129888   1.407   5.499   3.006
 9663SOL    HW229889   1.451   5.463   3.159
 9664SOL     OW29890   4.375   6.263   2.709
 9664SOL    HW129891   4.446   6.330   2.685
 9664SOL    HW229892   4.413   6.197   2.774
 9665SOL     OW29893   5.498   4.129   4.915
 9665SOL    HW129894   5.567   4.198   4.892
 9665SOL    HW229895   5.539   4.060   4.974
 9666SOL     OW29896   5.558   4.332   2.208
 9666SOL    HW129897   5.539   4.363   2.115
 9666SOL    HW229898   5.473   4.329   2.260
 9667SOL     OW29899   3.830   3.583   3.906
 9667SOL    HW129900   3.797   3.488   3.915
 9667SOL    HW229901   3.920   3.583   3.864
 9668SOL     OW29902   0.033   1.226   5.605
 9668SOL    HW129903   0.012   1.129   5.589
 9668SOL    HW229904   0.130   1.235   5.630
 9669SOL     OW29905   0.363   0.360   0.340
 9669SOL    HW129906   0.383   0.402   0.428
 9669SOL    HW229907   0.267   0.331   0.337
 9670SOL     OW29908   4.716   4.409   6.673
 9670SOL    HW129909   4.788   4.468   6.636
 9670SOL    HW229910   4.664   4.370   6.597
 9671SOL     OW29911   0.275   5.316   5.525
 9671SOL    HW129912   0.367   5.278   5.515
 9671SOL    HW229913   0.226   5.268   5.597
 9672SOL     OW29914   0.717   6.220   4.889
 9672SOL    HW129915   0.732   6.312   4.926
 9672SOL    HW229916   0.671   6.227   4.800
 9673SOL     OW29917   3.670   3.760   6.761
 9673SOL    HW129918   3.598   3.796   6.702
 9673SOL    HW229919   3.651   3.664   6.783
 9674SOL     OW29920   3.217   6.293   1.544
 9674SOL    HW129921   3.130   6.245   1.557
 9674SOL    HW229922   3.270   6.248   1.472
 9675SOL     OW29923   6.704   1.593   2.305
 9675SOL    HW129924   6.647   1.514   2.281
 9675SOL    HW229925   6.682   1.669   2.244
 9676SOL     OW29926   0.724   3.676   5.452
 9676SOL    HW129927   0.741   3.578   5.462
 9676SOL    HW229928   0.663   3.707   5.524
 9677SOL     OW29929   2.111   4.215   6.091
 9677SOL    HW129930   2.174   4.232   6.016
 9677SOL    HW229931   2.142   4.136   6.143
 9678SOL     OW29932   3.927   3.992   3.485
 9678SOL    HW129933   3.872   4.071   3.511
 9678SOL    HW229934   3.995   3.974   3.556
 9679SOL     OW29935   1.424   2.586   2.038
 9679SOL    HW129936   1.408   2.685   2.036
 9679SOL    HW229937   1.519   2.569   2.064
 9680SOL     OW29938   5.874   6.150   3.239
 9680SOL    HW129939   5.950   6.172   3.178
 9680SOL    HW229940   5.890   6.062   3.283
 9681SOL     OW29941   1.795   0.701   1.825
 9681SOL    HW129942   1.890   0.733   1.828
 9681SOL    HW229943   1.743   0.758   1.761
 9682SOL     OW29944   5.489   4.709   3.732
 9682SOL    HW129945   5.525   4.747   3.647
 9682SOL    HW229946   5.397   4.675   3.718
 9683SOL     OW29947   3.905   5.371   0.171
 9683SOL    HW129948   3.872   5.463   0.151
 9683SOL    HW229949   3.831   5.305   0.161
 9684SOL     OW29950   0.681   3.929   5.317
 9684SOL    HW129951   0.698   3.860   5.387
 9684SOL    HW229952   0.674   4.019   5.360
 9685SOL     OW29953   1.739   3.215   1.275
 9685SOL    HW129954   1.837   3.232   1.265
 9685SOL    HW229955   1.690   3.302   1.281
 9686SOL     OW29956   6.779   0.607   1.506
 9686SOL    HW129957   6.736   0.521   1.534
 9686SOL    HW229958   6.797   0.663   1.586
 9687SOL     OW29959   2.494   0.941   3.342
 9687SOL    HW129960   2.590   0.937   3.369
 9687SOL    HW229961   2.436   0.913   3.419
 9688SOL     OW29962   0.342   1.748   2.959
 9688SOL    HW129963   0.393   1.665   2.980
 9688SOL    HW229964   0.369   1.820   3.023
 9689SOL     OW29965   2.923   6.531   6.621
 9689SOL    HW129966   2.865   6.591   6.566
 9689SOL    HW229967   2.968   6.465   6.562
 9690SOL     OW29968   6.126   5.037   0.744
 9690SOL    HW129969   6.150   5.126   0.784
 9690SOL    HW229970   6.085   5.052   0.654
 9691SOL     OW29971   1.987   5.231   1.960
 9691SOL    HW129972   2.022   5.213   2.052
 9691SOL    HW229973   1.992   5.148   1.905
 9692SOL     OW29974   2.811   5.403   1.818
 9692SOL    HW129975   2.847   5.487   1.776
 9692SOL    HW229976   2.765   5.426   1.904
 9693SOL     OW29977   0.338   6.141   1.615
 9693SOL    HW129978   0.249   6.113   1.577
 9693SOL    HW229979   0.400   6.062   1.616
 9694SOL     OW29980   1.267   2.561   0.445
 9694SOL    HW129981   1.167   2.559   0.442
 9694SOL    HW229982   1.299   2.655   0.442
 9695SOL     OW29983   6.702   3.802   1.002
 9695SOL    HW129984   6.694   3.823   1.100
 9695SOL    HW229985   6.611   3.810   0.960
 9696SOL     OW29986   3.862   2.852   1.781
 9696SOL    HW129987   3.905   2.783   1.839
 9696SOL    HW229988   3.764   2.857   1.802
 9697SOL     OW29989   0.389   5.006   6.798
 9697SOL    HW129990   0.361   5.082   6.740
 9697SOL    HW229991   0.473   5.030   6.847
 9698SOL     OW29992   5.810   1.114   5.183
 9698SOL    HW129993   5.868   1.102   5.102
 9698SOL    HW229994   5.825   1.205   5.223
 9699SOL     OW29995   0.945   3.768   6.489
 9699SOL    HW129996   0.855   3.799   6.519
 9699SOL    HW229997   0.976   3.824   6.412
 9700SOL     OW29998   3.330   4.877   5.688
 9700SOL    HW129999   3.343   4.933   5.769
 9700SOL    HW230000   3.289   4.932   5.615
 9701SOL     OW30001   4.423   5.320   4.665
 9701SOL    HW130002   4.444   5.226   4.692
 9701SOL    HW230003   4.326   5.327   4.642
 9702SOL     OW30004   5.177   0.853   0.829
 9702SOL    HW130005   5.248   0.795   0.868
 9702SOL    HW230006   5.182   0.944   0.869
 9703SOL     OW30007   3.222   5.966   4.490
 9703SOL    HW130008   3.240   5.880   4.442
 9703SOL    HW230009   3.187   6.034   4.425
 9704SOL     OW30010   3.428   6.805   2.791
 9704SOL    HW130011   3.366   6.800   2.870
 9704SOL    HW230012   3.470   6.896   2.788
 9705SOL     OW30013   3.283   4.370   0.517
 9705SOL    HW130014   3.247   4.336   0.604
 9705SOL    HW230015   3.342   4.300   0.477
 9706SOL     OW30016   6.466   2.877   2.300
 9706SOL    HW130017   6.539   2.943   2.314
 9706SOL    HW230018   6.410   2.869   2.382
 9707SOL     OW30019   1.446   4.071   2.315
 9707SOL    HW130020   1.354   4.108   2.320
 9707SOL    HW230021   1.447   3.992   2.254
 9708SOL     OW30022   2.260   1.957   3.786
 9708SOL    HW130023   2.288   1.980   3.693
 9708SOL    HW230024   2.294   2.028   3.849
 9709SOL     OW30025   1.597   6.188   3.529
 9709SOL    HW130026   1.688   6.217   3.498
 9709SOL    HW230027   1.550   6.143   3.453
 9710SOL     OW30028   0.203   1.238   3.301
 9710SOL    HW130029   0.263   1.316   3.283
 9710SOL    HW230030   0.253   1.169   3.353
 9711SOL     OW30031   1.686   3.615   6.042
 9711SOL    HW130032   1.683   3.586   5.947
 9711SOL    HW230033   1.723   3.708   6.048
 9712SOL     OW30034   5.466   2.000   4.552
 9712SOL    HW130035   5.447   2.064   4.627
 9712SOL    HW230036   5.411   2.025   4.473
 9713SOL     OW30037   0.491   5.082   3.490
 9713SOL    HW130038   0.422   5.077   3.419
 9713SOL    HW230039   0.577   5.043   3.456
 9714SOL     OW30040   2.089   2.527   1.953
 9714SOL    HW130041   2.099   2.501   2.049
 9714SOL    HW230042   2.175   2.513   1.905
 9715SOL     OW30043   5.247   5.190   4.883
 9715SOL    HW130044   5.341   5.223   4.890
 9715SOL    HW230045   5.247   5.090   4.872
 9716SOL     OW30046   4.093   1.816   6.327
 9716SOL    HW130047   4.050   1.898   6.289
 9716SOL    HW230048   4.169   1.843   6.386
 9717SOL     OW30049   5.584   5.662   3.497
 9717SOL    HW130050   5.520   5.644   3.572
 9717SOL    HW230051   5.677   5.646   3.530
 9718SOL     OW30052   3.993   3.245   1.268
 9718SOL    HW130053   4.051   3.235   1.349
 9718SOL    HW230054   3.997   3.162   1.214
 9719SOL     OW30055   0.487   2.783   0.091
 9719SOL    HW130056   0.505   2.881   0.106
 9719SOL    HW230057   0.554   2.747   0.026
 9720SOL     OW30058   0.489   6.302   2.401
 9720SOL    HW130059   0.415   6.370   2.398
 9720SOL    HW230060   0.501   6.271   2.496
 9721SOL     OW30061   0.133   3.925   2.455
 9721SOL    HW130062   0.196   3.848   2.461
 9721SOL    HW230063   0.065   3.918   2.528
 9722SOL     OW30064   0.377   0.512   3.748
 9722SOL    HW130065   0.383   0.427   3.695
 9722SOL    HW230066   0.293   0.560   3.722
 9723SOL     OW30067   0.270   0.547   3.469
 9723SOL    HW130068   0.346   0.576   3.411
 9723SOL    HW230069   0.186   0.545   3.415
 9724SOL     OW30070   3.005   2.352   1.610
 9724SOL    HW130071   2.985   2.370   1.706
 9724SOL    HW230072   2.919   2.342   1.560
 9725SOL     OW30073   5.356   3.355   6.393
 9725SOL    HW130074   5.442   3.403   6.408
 9725SOL    HW230075   5.315   3.329   6.481
 9726SOL     OW30076   4.973   6.751   4.802
 9726SOL    HW130077   4.949   6.734   4.897
 9726SOL    HW230078   5.070   6.731   4.787
 9727SOL     OW30079   0.690   2.634   5.859
 9727SOL    HW130080   0.772   2.635   5.916
 9727SOL    HW230081   0.631   2.557   5.886
 9728SOL     OW30082   2.150   6.088   6.093
 9728SOL    HW130083   2.121   6.152   6.165
 9728SOL    HW230084   2.193   6.139   6.019
 9729SOL     OW30085   1.045   4.364   3.554
 9729SOL    HW130086   1.131   4.314   3.548
 9729SOL    HW230087   0.995   4.355   3.467
 9730SOL     OW30088   6.894   3.468   2.747
 9730SOL    HW130089   6.925   3.386   2.796
 9730SOL    HW230090   6.821   3.512   2.799
 9731SOL     OW30091   3.641   5.321   0.675
 9731SOL    HW130092   3.630   5.382   0.753
 9731SOL    HW230093   3.723   5.265   0.688
 9732SOL     OW30094   7.000   6.190   2.732
 9732SOL    HW130095   0.025   6.106   2.701
 9732SOL    HW230096   6.901   6.180   2.722
 9733SOL     OW30097   5.251   4.676   4.738
 9733SOL    HW130098   5.259   4.634   4.648
 9733SOL    HW230099   5.154   4.683   4.763
 9734SOL     OW30100   5.449   2.146   3.776
 9734SOL    HW130101   5.416   2.185   3.690
 9734SOL    HW230102   5.372   2.133   3.839
 9735SOL     OW30103   2.468   5.349   1.895
 9735SOL    HW130104   2.529   5.417   1.935
 9735SOL    HW230105   2.416   5.390   1.820
 9736SOL     OW30106   4.799   1.618   6.772
 9736SOL    HW130107   4.813   1.667   6.858
 9736SOL    HW230108   4.885   1.575   6.744
 9737SOL     OW30109   4.352   2.193   5.056
 9737SOL    HW130110   4.293   2.269   5.081
 9737SOL    HW230111   4.316   2.148   4.974
 9738SOL     OW30112   1.947   1.340   3.212
 9738SOL    HW130113   1.862   1.302   3.174
 9738SOL    HW230114   1.931   1.370   3.306
 9739SOL     OW30115   6.546   4.999   1.897
 9739SOL    HW130116   6.479   4.983   1.824
 9739SOL    HW230117   6.634   5.024   1.857
 9740SOL     OW30118   6.456   4.061   2.514
 9740SOL    HW130119   6.426   4.153   2.541
 9740SOL    HW230120   6.376   4.005   2.493
 9741SOL     OW30121   4.715   1.608   1.969
 9741SOL    HW130122   4.748   1.684   2.026
 9741SOL    HW230123   4.641   1.561   2.017
 9742SOL     OW30124   5.299   0.822   3.099
 9742SOL    HW130125   5.250   0.841   3.184
 9742SOL    HW230126   5.385   0.775   3.120
 9743SOL     OW30127   2.044   3.307   5.502
 9743SOL    HW130128   2.081   3.399   5.516
 9743SOL    HW230129   1.964   3.313   5.442
 9744SOL     OW30130   1.877   1.220   1.892
 9744SOL    HW130131   1.906   1.180   1.979
 9744SOL    HW230132   1.897   1.318   1.892
 9745SOL     OW30133   0.714   2.180   5.054
 9745SOL    HW130134   0.630   2.202   5.103
 9745SOL    HW230135   0.705   2.090   5.011
 9746SOL     OW30136   5.675   0.753   5.160
 9746SOL    HW130137   5.747   0.685   5.174
 9746SOL    HW230138   5.618   0.725   5.083
 9747SOL     OW30139   1.241   0.558   0.331
 9747SOL    HW130140   1.319   0.610   0.365
 9747SOL    HW230141   1.261   0.523   0.239
 9748SOL     OW30142   1.018   5.948   4.266
 9748SOL    HW130143   1.043   5.897   4.348
 9748SOL    HW230144   1.050   5.898   4.185
 9749SOL     OW30145   1.187   3.514   4.841
 9749SOL    HW130146   1.155   3.471   4.757
 9749SOL    HW230147   1.156   3.608   4.845
 9750SOL     OW30148   4.847   5.019   3.444
 9750SOL    HW130149   4.764   5.003   3.390
 9750SOL    HW230150   4.927   4.998   3.388
 9751SOL     OW30151   1.711   2.177   0.932
 9751SOL    HW130152   1.642   2.207   0.865
 9751SOL    HW230153   1.737   2.255   0.990
 9752SOL     OW30154   4.159   0.780   5.687
 9752SOL    HW130155   4.146   0.876   5.660
 9752SOL    HW230156   4.230   0.739   5.630
 9753SOL     OW30157   6.605   5.791   5.409
 9753SOL    HW130158   6.592   5.724   5.336
 9753SOL    HW230159   6.649   5.873   5.371
 9754SOL     OW30160   1.659   1.868   0.332
 9754SOL    HW130161   1.703   1.788   0.374
 9754SOL    HW230162   1.617   1.924   0.404
 9755SOL     OW30163   3.922   3.968   4.712
 9755SOL    HW130164   4.017   3.999   4.721
 9755SOL    HW230165   3.898   3.961   4.615
 9756SOL     OW30166   5.875   3.009   6.667
 9756SOL    HW130167   5.952   2.990   6.728
 9756SOL    HW230168   5.902   3.077   6.599
 9757SOL     OW30169   5.718   2.642   3.834
 9757SOL    HW130170   5.790   2.691   3.883
 9757SOL    HW230171   5.629   2.662   3.875
 9758SOL     OW30172   2.605   0.608   6.880
 9758SOL    HW130173   2.515   0.600   6.837
 9758SOL    HW230174   2.660   0.528   6.857
 9759SOL     OW30175   2.904   6.255   1.156
 9759SOL    HW130176   2.839   6.314   1.109
 9759SOL    HW230177   2.997   6.277   1.125
 9760SOL     OW30178   5.619   4.539   5.910
 9760SOL    HW130179   5.634   4.448   5.873
 9760SOL    HW230180   5.549   4.535   5.981
 9761SOL     OW30181   5.162   5.222   1.388
 9761SOL    HW130182   5.257   5.211   1.360
 9761SOL    HW230183   5.156   5.231   1.487
 9762SOL     OW30184   2.785   2.123   5.236
 9762SOL    HW130185   2.745   2.033   5.218
 9762SOL    HW230186   2.715   2.193   5.228
 9763SOL     OW30187   3.230   1.239   1.867
 9763SOL    HW130188   3.299   1.251   1.938
 9763SOL    HW230189   3.139   1.237   1.909
 9764SOL     OW30190   1.235   2.197   3.345
 9764SOL    HW130191   1.220   2.239   3.256
 9764SOL    HW230192   1.182   2.246   3.415
 9765SOL     OW30193   0.314   2.140   6.024
 9765SOL    HW130194   0.288   2.095   6.109
 9765SOL    HW230195   0.392   2.092   5.984
 9766SOL     OW30196   2.786   0.247   3.414
 9766SOL    HW130197   2.779   0.177   3.343
 9766SOL    HW230198   2.865   0.227   3.472
 9767SOL     OW30199   5.233   0.539   5.207
 9767SOL    HW130200   5.221   0.621   5.152
 9767SOL    HW230201   5.287   0.472   5.156
 9768SOL     OW30202   4.542   2.119   2.476
 9768SOL    HW130203   4.458   2.066   2.470
 9768SOL    HW230204   4.520   2.213   2.501
 9769SOL     OW30205   1.288   2.154   1.212
 9769SOL    HW130206   1.312   2.100   1.292
 9769SOL    HW230207   1.339   2.120   1.132
 9770SOL     OW30208   5.674   4.967   5.906
 9770SOL    HW130209   5.704   5.016   5.987
 9770SOL    HW230210   5.719   4.878   5.902
 9771SOL     OW30211   4.388   5.498   6.017
 9771SOL    HW130212   4.398   5.424   6.084
 9771SOL    HW230213   4.304   5.549   6.035
 9772SOL     OW30214   6.917   0.250   2.476
 9772SOL    HW130215   6.981   0.187   2.433
 9772SOL    HW230216   6.963   0.337   2.495
 9773SOL     OW30217   6.094   5.673   3.465
 9773SOL    HW130218   6.157   5.609   3.423
 9773SOL    HW230219   6.007   5.627   3.483
 9774SOL     OW30220   6.368   4.853   3.834
 9774SOL    HW130221   6.316   4.939   3.827
 9774SOL    HW230222   6.452   4.869   3.885
 9775SOL     OW30223   1.760   2.492   4.633
 9775SOL    HW130224   1.729   2.587   4.621
 9775SOL    HW230225   1.681   2.431   4.636
 9776SOL     OW30226   6.823   5.819   4.423
 9776SOL    HW130227   6.742   5.819   4.365
 9776SOL    HW230228   6.821   5.898   4.484
 9777SOL     OW30229   5.047   4.332   6.078
 9777SOL    HW130230   5.018   4.369   6.166
 9777SOL    HW230231   5.021   4.236   6.072
 9778SOL     OW30232   5.327   6.586   2.788
 9778SOL    HW130233   5.336   6.566   2.886
 9778SOL    HW230234   5.398   6.538   2.737
 9779SOL     OW30235   2.741   1.568   5.548
 9779SOL    HW130236   2.670   1.612   5.603
 9779SOL    HW230237   2.820   1.629   5.541
 9780SOL     OW30238   2.684   3.716   0.398
 9780SOL    HW130239   2.719   3.645   0.336
 9780SOL    HW230240   2.688   3.682   0.492
 9781SOL     OW30241   2.670   4.847   5.191
 9781SOL    HW130242   2.580   4.867   5.154
 9781SOL    HW230243   2.718   4.783   5.130
 9782SOL     OW30244   6.254   0.288   1.587
 9782SOL    HW130245   6.264   0.386   1.574
 9782SOL    HW230246   6.215   0.270   1.678
 9783SOL     OW30247   5.858   1.742   2.016
 9783SOL    HW130248   5.766   1.776   1.999
 9783SOL    HW230249   5.853   1.651   2.058
 9784SOL     OW30250   4.470   1.099   3.014
 9784SOL    HW130251   4.395   1.115   3.078
 9784SOL    HW230252   4.437   1.107   2.920
 9785SOL     OW30253   0.283   2.805   2.392
 9785SOL    HW130254   0.334   2.884   2.356
 9785SOL    HW230255   0.318   2.721   2.350
 9786SOL     OW30256   2.484   5.658   5.605
 9786SOL    HW130257   2.435   5.571   5.597
 9786SOL    HW230258   2.582   5.643   5.589
 9787SOL     OW30259   4.866   4.008   1.908
 9787SOL    HW130260   4.938   3.950   1.948
 9787SOL    HW230261   4.815   4.054   1.981
 9788SOL     OW30262   6.241   0.706   4.844
 9788SOL    HW130263   6.318   0.642   4.853
 9788SOL    HW230264   6.214   0.738   4.934
 9789SOL     OW30265   2.402   5.248   5.262
 9789SOL    HW130266   2.423   5.183   5.335
 9789SOL    HW230267   2.309   5.282   5.273
 9790SOL     OW30268   5.564   1.732   4.465
 9790SOL    HW130269   5.550   1.830   4.479
 9790SOL    HW230270   5.649   1.718   4.414
 9791SOL     OW30271   0.968   1.453   1.941
 9791SOL    HW130272   1.032   1.403   1.998
 9791SOL    HW230273   0.916   1.517   1.998
 9792SOL     OW30274   4.254   4.748   0.905
 9792SOL    HW130275   4.237   4.688   0.983
 9792SOL    HW230276   4.253   4.844   0.935
 9793SOL     OW30277   5.850   5.722   2.021
 9793SOL    HW130278   5.918   5.782   2.063
 9793SOL    HW230279   5.805   5.667   2.092
 9794SOL     OW30280   4.718   2.709   6.549
 9794SOL    HW130281   4.669   2.791   6.517
 9794SOL    HW230282   4.695   2.631   6.491
 9795SOL     OW30283   1.624   3.590   4.073
 9795SOL    HW130284   1.657   3.655   4.142
 9795SOL    HW230285   1.692   3.517   4.062
 9796SOL     OW30286   2.693   5.171   0.073
 9796SOL    HW130287   2.666   5.095   0.133
 9796SOL    HW230288   2.623   5.184   0.002
 9797SOL     OW30289   4.664   3.100   6.228
 9797SOL    HW130290   4.693   3.190   6.196
 9797SOL    HW230291   4.709   3.029   6.173
 9798SOL     OW30292   2.804   1.277   0.875
 9798SOL    HW130293   2.845   1.335   0.945
 9798SOL    HW230294   2.804   1.325   0.787
 9799SOL     OW30295   2.998   3.612   2.686
 9799SOL    HW130296   3.049   3.563   2.757
 9799SOL    HW230297   2.936   3.549   2.640
 9800SOL     OW30298   4.343   5.336   6.453
 9800SOL    HW130299   4.332   5.319   6.551
 9800SOL    HW230300   4.311   5.429   6.432
 9801SOL     OW30301   3.683   5.881   6.447
 9801SOL    HW130302   3.753   5.810   6.458
 9801SOL    HW230303   3.725   5.971   6.453
 9802SOL     OW30304   0.023   3.386   0.804
 9802SOL    HW130305   0.115   3.412   0.831
 9802SOL    HW230306   6.982   3.464   0.816
 9803SOL     OW30307   5.737   0.652   7.018
 9803SOL    HW130308   5.764   0.746   7.000
 9803SOL    HW230309   5.715   0.642   0.095
 9804SOL     OW30310   6.257   5.470   4.258
 9804SOL    HW130311   6.172   5.424   4.231
 9804SOL    HW230312   6.244   5.569   4.255
 9805SOL     OW30313   1.924   5.556   0.076
 9805SOL    HW130314   2.005   5.573   0.020
 9805SOL    HW230315   1.928   5.463   0.113
 9806SOL     OW30316   0.136   2.382   2.546
 9806SOL    HW130317   0.150   2.454   2.614
 9806SOL    HW230318   0.221   2.367   2.495
 9807SOL     OW30319   3.878   2.242   0.410
 9807SOL    HW130320   3.785   2.249   0.374
 9807SOL    HW230321   3.932   2.320   0.378
 9808SOL     OW30322   0.252   1.552   4.419
 9808SOL    HW130323   0.158   1.547   4.454
 9808SOL    HW230324   0.309   1.486   4.469
 9809SOL     OW30325   0.391   1.296   4.454
 9809SOL    HW130326   0.337   1.230   4.506
 9809SOL    HW230327   0.458   1.248   4.397
 9810SOL     OW30328   3.196   0.794   3.086
 9810SOL    HW130329   3.133   0.869   3.104
 9810SOL    HW230330   3.266   0.823   3.021
 9811SOL     OW30331   0.066   6.788   2.678
 9811SOL    HW130332   0.107   6.725   2.744
 9811SOL    HW230333   0.124   6.868   2.668
 9812SOL     OW30334   5.108   2.407   6.235
 9812SOL    HW130335   5.091   2.364   6.324
 9812SOL    HW230336   5.058   2.493   6.229
 9813SOL     OW30337   6.854   4.752   0.351
 9813SOL    HW130338   6.924   4.739   0.280
 9813SOL    HW230339   6.894   4.734   0.441
 9814SOL     OW30340   6.894   6.627   5.709
 9814SOL    HW130341   6.923   6.696   5.642
 9814SOL    HW230342   6.938   6.645   5.797
 9815SOL     OW30343   5.693   3.370   1.880
 9815SOL    HW130344   5.700   3.288   1.822
 9815SOL    HW230345   5.677   3.450   1.823
 9816SOL     OW30346   6.754   0.142   0.056
 9816SOL    HW130347   6.765   0.176   6.983
 9816SOL    HW230348   6.771   0.216   0.121
 9817SOL     OW30349   2.971   6.308   6.809
 9817SOL    HW130350   2.958   6.372   6.733
 9817SOL    HW230351   2.890   6.250   6.819
 9818SOL     OW30352   1.011   6.661   3.977
 9818SOL    HW130353   1.084   6.603   3.941
 9818SOL    HW230354   0.938   6.670   3.908
 9819SOL     OW30355   6.513   3.610   5.332
 9819SOL    HW130356   6.455   3.692   5.332
 9819SOL    HW230357   6.593   3.626   5.390
 9820SOL     OW30358   3.739   2.135   6.182
 9820SOL    HW130359   3.820   2.158   6.235
 9820SOL    HW230360   3.659   2.130   6.242
 9821SOL     OW30361   4.715   2.522   1.779
 9821SOL    HW130362   4.663   2.608   1.774
 9821SOL    HW230363   4.781   2.527   1.854
 9822SOL     OW30364   3.366   6.360   5.223
 9822SOL    HW130365   3.278   6.344   5.177
 9822SOL    HW230366   3.362   6.321   5.316
 9823SOL     OW30367   1.898   0.647   3.369
 9823SOL    HW130368   1.850   0.696   3.442
 9823SOL    HW230369   1.945   0.568   3.407
 9824SOL     OW30370   0.705   5.918   5.150
 9824SOL    HW130371   0.691   6.003   5.202
 9824SOL    HW230372   0.709   5.841   5.213
 9825SOL     OW30373   5.294   6.229   6.324
 9825SOL    HW130374   5.276   6.282   6.241
 9825SOL    HW230375   5.208   6.194   6.362
 9826SOL     OW30376   2.408   6.500   5.820
 9826SOL    HW130377   2.353   6.569   5.773
 9826SOL    HW230378   2.432   6.427   5.757
 9827SOL     OW30379   1.753   5.682   1.797
 9827SOL    HW130380   1.822   5.673   1.868
 9827SOL    HW230381   1.798   5.684   1.707
 9828SOL     OW30382   3.869   2.010   4.884
 9828SOL    HW130383   3.940   2.075   4.911
 9828SOL    HW230384   3.817   2.047   4.807
 9829SOL     OW30385   4.568   5.598   5.025
 9829SOL    HW130386   4.592   5.694   5.008
 9829SOL    HW230387   4.591   5.543   4.944
 9830SOL     OW30388   5.891   2.193   2.089
 9830SOL    HW130389   5.812   2.133   2.099
 9830SOL    HW230390   5.958   2.172   2.161
 9831SOL     OW30391   0.383   4.066   2.463
 9831SOL    HW130392   0.399   4.148   2.407
 9831SOL    HW230393   0.287   4.063   2.489
 9832SOL     OW30394   4.443   4.593   4.815
 9832SOL    HW130395   4.374   4.585   4.887
 9832SOL    HW230396   4.523   4.641   4.851
 9833SOL     OW30397   3.161   3.974   3.969
 9833SOL    HW130398   3.253   3.935   3.964
 9833SOL    HW230399   3.110   3.949   3.887
 9834SOL     OW30400   2.110   5.665   5.327
 9834SOL    HW130401   2.090   5.727   5.404
 9834SOL    HW230402   2.204   5.631   5.336
 9835SOL     OW30403   3.217   4.114   4.231
 9835SOL    HW130404   3.212   4.080   4.137
 9835SOL    HW230405   3.124   4.123   4.268
 9836SOL     OW30406   0.151   3.644   5.500
 9836SOL    HW130407   0.174   3.705   5.424
 9836SOL    HW230408   0.235   3.615   5.546
 9837SOL     OW30409   5.164   1.990   3.149
 9837SOL    HW130410   5.136   1.952   3.237
 9837SOL    HW230411   5.087   1.984   3.085
 9838SOL     OW30412   1.302   0.022   1.748
 9838SOL    HW130413   1.382   0.033   1.806
 9838SOL    HW230414   1.225   7.012   1.804
 9839SOL     OW30415   4.490   0.449   2.685
 9839SOL    HW130416   4.514   0.401   2.770
 9839SOL    HW230417   4.496   0.385   2.608
 9840SOL     OW30418   5.962   1.212   0.179
 9840SOL    HW130419   5.863   1.227   0.185
 9840SOL    HW230420   6.010   1.286   0.226
 9841SOL     OW30421   0.570   6.305   3.787
 9841SOL    HW130422   0.588   6.260   3.875
 9841SOL    HW230423   0.607   6.248   3.713
 9842SOL     OW30424   2.816   2.145   6.748
 9842SOL    HW130425   2.745   2.127   6.679
 9842SOL    HW230426   2.869   2.225   6.721
 9843SOL     OW30427   0.865   0.149   1.039
 9843SOL    HW130428   0.779   0.191   1.068
 9843SOL    HW230429   0.846   0.058   1.001
 9844SOL     OW30430   5.381   6.797   3.965
 9844SOL    HW130431   5.435   6.763   4.043
 9844SOL    HW230432   5.302   6.847   3.999
 9845SOL     OW30433   1.736   3.761   1.493
 9845SOL    HW130434   1.789   3.844   1.472
 9845SOL    HW230435   1.733   3.748   1.592
 9846SOL     OW30436   5.587   2.240   0.794
 9846SOL    HW130437   5.677   2.282   0.799
 9846SOL    HW230438   5.580   2.168   0.863
 9847SOL     OW30439   3.878   3.546   0.062
 9847SOL    HW130440   3.852   3.562   0.157
 9847SOL    HW230441   3.859   3.628   0.008
 9848SOL     OW30442   3.431   3.547   5.255
 9848SOL    HW130443   3.527   3.574   5.265
 9848SOL    HW230444   3.387   3.606   5.188
 9849SOL     OW30445   0.786   1.612   4.452
 9849SOL    HW130446   0.716   1.579   4.516
 9849SOL    HW230447   0.776   1.565   4.365
 9850SOL     OW30448   0.921   0.304   4.591
 9850SOL    HW130449   0.983   0.234   4.557
 9850SOL    HW230450   0.852   0.325   4.521
 9851SOL     OW30451   3.730   4.993   4.358
 9851SOL    HW130452   3.774   4.906   4.334
 9851SOL    HW230453   3.748   5.060   4.286
 9852SOL     OW30454   2.209   0.879   0.195
 9852SOL    HW130455   2.162   0.876   0.283
 9852SOL    HW230456   2.248   0.969   0.180
 9853SOL     OW30457   6.566   4.561   3.897
 9853SOL    HW130458   6.590   4.496   3.824
 9853SOL    HW230459   6.468   4.579   3.894
 9854SOL     OW30460   0.740   4.778   6.087
 9854SOL    HW130461   0.738   4.864   6.138
 9854SOL    HW230462   0.715   4.795   5.991
 9855SOL     OW30463   1.494   4.914   1.565
 9855SOL    HW130464   1.524   4.869   1.481
 9855SOL    HW230465   1.507   4.853   1.643
 9856SOL     OW30466   5.801   4.011   3.193
 9856SOL    HW130467   5.740   3.944   3.150
 9856SOL    HW230468   5.820   4.085   3.129
 9857SOL     OW30469   3.855   0.696   4.388
 9857SOL    HW130470   3.834   0.785   4.348
 9857SOL    HW230471   3.918   0.647   4.328
 9858SOL     OW30472   6.297   6.879   2.488
 9858SOL    HW130473   6.300   6.811   2.560
 9858SOL    HW230474   6.364   6.856   2.417
 9859SOL     OW30475   6.689   5.763   3.301
 9859SOL    HW130476   6.601   5.780   3.257
 9859SOL    HW230477   6.739   5.850   3.310
 9860SOL     OW30478   1.289   2.850   4.262
 9860SOL    HW130479   1.378   2.894   4.253
 9860SOL    HW230480   1.218   2.914   4.232
 9861SOL     OW30481   3.732   1.507   4.027
 9861SOL    HW130482   3.667   1.571   4.067
 9861SOL    HW230483   3.688   1.418   4.014
 9862SOL     OW30484   1.227   4.956   0.623
 9862SOL    HW130485   1.203   4.932   0.528
 9862SOL    HW230486   1.159   5.020   0.659
 9863SOL     OW30487   3.507   5.838   0.508
 9863SOL    HW130488   3.602   5.868   0.494
 9863SOL    HW230489   3.469   5.884   0.588
 9864SOL     OW30490   2.754   5.614   5.554
 9864SOL    HW130491   2.735   5.516   5.552
 9864SOL    HW230492   2.756   5.649   5.460
 9865SOL     OW30493   0.109   6.155   5.517
 9865SOL    HW130494   0.175   6.219   5.555
 9865SOL    HW230495   0.063   6.106   5.591
 9866SOL     OW30496   6.079   4.695   4.917
 9866SOL    HW130497   6.073   4.771   4.981
 9866SOL    HW230498   6.065   4.608   4.966
 9867SOL     OW30499   4.471   2.159   1.653
 9867SOL    HW130500   4.522   2.204   1.580
 9867SOL    HW230501   4.385   2.123   1.616
 9868SOL     OW30502   1.922   3.806   3.797
 9868SOL    HW130503   1.892   3.880   3.857
 9868SOL    HW230504   1.995   3.837   3.738
 9869SOL     OW30505   6.634   2.799   0.770
 9869SOL    HW130506   6.538   2.801   0.742
 9869SOL    HW230507   6.658   2.885   0.814
 9870SOL     OW30508   2.965   1.152   2.558
 9870SOL    HW130509   2.978   1.080   2.627
 9870SOL    HW230510   2.873   1.189   2.565
 9871SOL     OW30511   0.003   4.387   4.736
 9871SOL    HW130512   0.033   4.309   4.680
 9871SOL    HW230513   6.951   4.357   4.799
 9872SOL     OW30514   1.309   5.205   5.785
 9872SOL    HW130515   1.354   5.121   5.755
 9872SOL    HW230516   1.233   5.182   5.846
 9873SOL     OW30517   0.830   1.574   5.779
 9873SOL    HW130518   0.879   1.657   5.805
 9873SOL    HW230519   0.851   1.550   5.684
 9874SOL     OW30520   0.584   2.671   4.766
 9874SOL    HW130521   0.546   2.745   4.822
 9874SOL    HW230522   0.513   2.638   4.704
 9875SOL     OW30523   6.257   5.257   0.824
 9875SOL    HW130524   6.307   5.292   0.745
 9875SOL    HW230525   6.279   5.311   0.905
 9876SOL     OW30526   1.804   6.595   3.822
 9876SOL    HW130527   1.899   6.623   3.838
 9876SOL    HW230528   1.802   6.523   3.752
 9877SOL     OW30529   0.493   5.094   5.028
 9877SOL    HW130530   0.556   5.122   5.099
 9877SOL    HW230531   0.535   5.108   4.938
 9878SOL     OW30532   2.358   2.583   6.898
 9878SOL    HW130533   2.370   2.635   6.813
 9878SOL    HW230534   2.329   2.490   6.876
 9879SOL     OW30535   6.672   5.226   6.384
 9879SOL    HW130536   6.698   5.162   6.312
 9879SOL    HW230537   6.575   5.250   6.373
 9880SOL     OW30538   2.965   1.353   6.813
 9880SOL    HW130539   3.044   1.307   6.852
 9880SOL    HW230540   2.940   1.310   6.726
 9881SOL     OW30541   5.848   0.697   4.158
 9881SOL    HW130542   5.869   0.682   4.061
 9881SOL    HW230543   5.931   0.725   4.206
 9882SOL     OW30544   3.432   2.835   5.019
 9882SOL    HW130545   3.354   2.895   5.001
 9882SOL    HW230546   3.500   2.883   5.074
 9883SOL     OW30547   2.630   7.004   1.829
 9883SOL    HW130548   2.552   0.003   1.889
 9883SOL    HW230549   2.603   6.937   1.760
 9884SOL     OW30550   2.449   3.576   5.657
 9884SOL    HW130551   2.412   3.593   5.566
 9884SOL    HW230552   2.496   3.488   5.658
 9885SOL     OW30553   5.677   2.837   4.731
 9885SOL    HW130554   5.585   2.858   4.763
 9885SOL    HW230555   5.737   2.821   4.810
 9886SOL     OW30556   3.898   5.880   1.251
 9886SOL    HW130557   3.839   5.801   1.269
 9886SOL    HW230558   3.866   5.928   1.169
 9887SOL     OW30559   3.465   6.911   6.558
 9887SOL    HW130560   3.370   6.936   6.538
 9887SOL    HW230561   3.510   6.985   6.606
 9888SOL     OW30562   6.364   6.486   3.164
 9888SOL    HW130563   6.347   6.388   3.156
 9888SOL    HW230564   6.357   6.514   3.259
 9889SOL     OW30565   6.955   5.490   3.340
 9889SOL    HW130566   6.983   5.549   3.415
 9889SOL    HW230567   0.009   5.484   3.272
 9890SOL     OW30568   0.156   3.948   2.067
 9890SOL    HW130569   0.136   3.872   2.128
 9890SOL    HW230570   0.130   3.923   1.973
 9891SOL     OW30571   5.635   5.477   0.750
 9891SOL    HW130572   5.632   5.378   0.759
 9891SOL    HW230573   5.729   5.509   0.757
 9892SOL     OW30574   2.107   4.607   4.143
 9892SOL    HW130575   2.038   4.647   4.203
 9892SOL    HW230576   2.186   4.578   4.197
 9893SOL     OW30577   5.356   5.233   3.670
 9893SOL    HW130578   5.413   5.265   3.745
 9893SOL    HW230579   5.336   5.309   3.609
 9894SOL     OW30580   4.187   3.355   6.283
 9894SOL    HW130581   4.254   3.298   6.236
 9894SOL    HW230582   4.102   3.356   6.231
 9895SOL     OW30583   5.315   2.033   6.726
 9895SOL    HW130584   5.302   2.067   6.633
 9895SOL    HW230585   5.406   1.992   6.734
 9896SOL     OW30586   3.702   4.100   0.915
 9896SOL    HW130587   3.661   4.013   0.887
 9896SOL    HW230588   3.791   4.111   0.871
 9897SOL     OW30589   6.329   1.877   3.592
 9897SOL    HW130590   6.298   1.863   3.498
 9897SOL    HW230591   6.266   1.940   3.639
 9898SOL     OW30592   1.210   5.079   5.311
 9898SOL    HW130593   1.238   5.096   5.217
 9898SOL    HW230594   1.194   5.167   5.357
 9899SOL     OW30595   5.730   5.570   1.466
 9899SOL    HW130596   5.670   5.629   1.412
 9899SOL    HW230597   5.823   5.608   1.464
 9900SOL     OW30598   1.287   3.568   3.675
 9900SOL    HW130599   1.356   3.580   3.604
 9900SOL    HW230600   1.251   3.474   3.672
 9901SOL     OW30601   3.335   2.122   5.211
 9901SOL    HW130602   3.274   2.201   5.206
 9901SOL    HW230603   3.286   2.044   5.249
 9902SOL     OW30604   4.443   3.801   0.049
 9902SOL    HW130605   4.469   3.781   0.143
 9902SOL    HW230606   4.522   3.791   7.009
 9903SOL     OW30607   3.904   1.367   1.719
 9903SOL    HW130608   3.845   1.433   1.765
 9903SOL    HW230609   3.905   1.386   1.620
 9904SOL     OW30610   0.099   0.668   2.080
 9904SOL    HW130611   0.064   0.762   2.075
 9904SOL    HW230612   0.137   0.643   1.991
 9905SOL     OW30613   1.119   6.402   5.102
 9905SOL    HW130614   1.190   6.463   5.137
 9905SOL    HW230615   1.083   6.347   5.178
 9906SOL     OW30616   3.041   2.649   5.945
 9906SOL    HW130617   2.947   2.631   5.917
 9906SOL    HW230618   3.050   2.745   5.972
 9907SOL     OW30619   2.323   6.549   3.063
 9907SOL    HW130620   2.352   6.454   3.056
 9907SOL    HW230621   2.388   6.608   3.013
 9908SOL     OW30622   1.009   3.339   5.717
 9908SOL    HW130623   0.974   3.388   5.797
 9908SOL    HW230624   1.107   3.357   5.706
 9909SOL     OW30625   4.066   6.633   2.781
 9909SOL    HW130626   4.007   6.553   2.772
 9909SOL    HW230627   4.124   6.623   2.862
 9910SOL     OW30628   0.031   4.056   1.283
 9910SOL    HW130629   6.960   4.091   1.263
 9910SOL    HW230630   0.099   4.115   1.241
 9911SOL     OW30631   3.151   4.848   3.120
 9911SOL    HW130632   3.240   4.805   3.105
 9911SOL    HW230633   3.093   4.833   3.040
 9912SOL     OW30634   5.201   0.407   1.626
 9912SOL    HW130635   5.107   0.411   1.660
 9912SOL    HW230636   5.202   0.364   1.535
 9913SOL     OW30637   4.697   1.866   2.732
 9913SOL    HW130638   4.786   1.823   2.746
 9913SOL    HW230639   4.626   1.809   2.773
 9914SOL     OW30640   1.553   6.591   4.874
 9914SOL    HW130641   1.472   6.639   4.839
 9914SOL    HW230642   1.610   6.656   4.925
 9915SOL     OW30643   5.341   3.639   4.464
 9915SOL    HW130644   5.378   3.588   4.541
 9915SOL    HW230645   5.392   3.724   4.452
 9916SOL     OW30646   2.202   2.933   1.911
 9916SOL    HW130647   2.124   2.879   1.877
 9916SOL    HW230648   2.235   2.993   1.839
 9917SOL     OW30649   2.320   3.299   5.840
 9917SOL    HW130650   2.343   3.214   5.793
 9917SOL    HW230651   2.246   3.345   5.791
 9918SOL     OW30652   1.556   1.412   5.704
 9918SOL    HW130653   1.493   1.465   5.648
 9918SOL    HW230654   1.649   1.449   5.694
 9919SOL     OW30655   0.249   5.157   3.288
 9919SOL    HW130656   0.218   5.129   3.197
 9919SOL    HW230657   0.333   5.212   3.278
 9920SOL     OW30658   4.343   0.076   1.566
 9920SOL    HW130659   4.243   0.078   1.568
 9920SOL    HW230660   4.375   7.001   1.565
 9921SOL     OW30661   5.550   0.381   2.759
 9921SOL    HW130662   5.556   0.284   2.783
 9921SOL    HW230663   5.472   0.396   2.698
 9922SOL     OW30664   4.277   3.185   1.078
 9922SOL    HW130665   4.240   3.159   1.167
 9922SOL    HW230666   4.315   3.104   1.033
 9923SOL     OW30667   6.491   2.306   6.769
 9923SOL    HW130668   6.546   2.225   6.751
 9923SOL    HW230669   6.480   2.318   6.868
 9924SOL     OW30670   6.231   0.485   3.265
 9924SOL    HW130671   6.322   0.471   3.225
 9924SOL    HW230672   6.241   0.535   3.352
 9925SOL     OW30673   2.484   2.527   4.923
 9925SOL    HW130674   2.488   2.601   4.990
 9925SOL    HW230675   2.443   2.561   4.838
 9926SOL     OW30676   1.188   1.173   0.656
 9926SOL    HW130677   1.266   1.216   0.612
 9926SOL    HW230678   1.140   1.241   0.713
 9927SOL     OW30679   0.742   2.555   2.749
 9927SOL    HW130680   0.769   2.577   2.656
 9927SOL    HW230681   0.783   2.620   2.813
 9928SOL     OW30682   0.204   3.426   3.033
 9928SOL    HW130683   0.119   3.403   3.079
 9928SOL    HW230684   0.281   3.385   3.082
 9929SOL     OW30685   2.301   4.450   6.722
 9929SOL    HW130686   2.227   4.391   6.754
 9929SOL    HW230687   2.270   4.500   6.641
 9930SOL     OW30688   0.162   6.268   6.712
 9930SOL    HW130689   0.080   6.212   6.700
 9930SOL    HW230690   0.223   6.253   6.634
 9931SOL     OW30691   2.120   5.880   5.803
 9931SOL    HW130692   2.049   5.811   5.816
 9931SOL    HW230693   2.200   5.856   5.857
 9932SOL     OW30694   1.532   2.281   0.761
 9932SOL    HW130695   1.541   2.273   0.662
 9932SOL    HW230696   1.441   2.250   0.789
 9933SOL     OW30697   1.386   1.943   3.688
 9933SOL    HW130698   1.329   1.888   3.628
 9933SOL    HW230699   1.443   2.003   3.633
 9934SOL     OW30700   3.535   1.201   5.930
 9934SOL    HW130701   3.617   1.179   5.982
 9934SOL    HW230702   3.496   1.117   5.892
 9935SOL     OW30703   2.411   2.277   0.871
 9935SOL    HW130704   2.362   2.268   0.958
 9935SOL    HW230705   2.354   2.242   0.797
 9936SOL     OW30706   6.012   6.520   5.598
 9936SOL    HW130707   6.104   6.531   5.560
 9936SOL    HW230708   6.015   6.534   5.697
 9937SOL     OW30709   0.366   0.267   3.615
 9937SOL    HW130710   0.430   0.192   3.596
 9937SOL    HW230711   0.276   0.244   3.579
 9938SOL     OW30712   6.718   1.744   3.673
 9938SOL    HW130713   6.806   1.792   3.680
 9938SOL    HW230714   6.675   1.740   3.764
 9939SOL     OW30715   3.298   4.444   1.259
 9939SOL    HW130716   3.297   4.448   1.159
 9939SOL    HW230717   3.208   4.417   1.293
 9940SOL     OW30718   0.272   0.867   3.225
 9940SOL    HW130719   0.272   0.869   3.125
 9940SOL    HW230720   0.313   0.951   3.260
 9941SOL     OW30721   4.954   4.545   6.557
 9941SOL    HW130722   5.039   4.514   6.599
 9941SOL    HW230723   4.966   4.550   6.457
 9942SOL     OW30724   4.995   5.096   2.901
 9942SOL    HW130725   5.085   5.126   2.934
 9942SOL    HW230726   4.951   5.040   2.972
 9943SOL     OW30727   2.282   4.125   6.466
 9943SOL    HW130728   2.265   4.066   6.387
 9943SOL    HW230729   2.360   4.185   6.447
 9944SOL     OW30730   0.536   4.969   6.473
 9944SOL    HW130731   0.541   5.063   6.506
 9944SOL    HW230732   0.528   4.907   6.551
 9945SOL     OW30733   6.034   3.147   6.485
 9945SOL    HW130734   6.071   3.169   6.575
 9945SOL    HW230735   6.108   3.137   6.419
 9946SOL     OW30736   5.453   1.704   1.685
 9946SOL    HW130737   5.409   1.790   1.659
 9946SOL    HW230738   5.397   1.659   1.755
 9947SOL     OW30739   1.259   1.717   3.792
 9947SOL    HW130740   1.181   1.750   3.846
 9947SOL    HW230741   1.334   1.782   3.802
 9948SOL     OW30742   6.361   0.144   4.710
 9948SOL    HW130743   6.442   0.115   4.661
 9948SOL    HW230744   6.294   0.182   4.646
 9949SOL     OW30745   5.972   4.966   3.711
 9949SOL    HW130746   6.056   5.011   3.740
 9949SOL    HW230747   5.926   4.925   3.789
 9950SOL     OW30748   5.775   4.073   5.391
 9950SOL    HW130749   5.865   4.029   5.387
 9950SOL    HW230750   5.764   4.116   5.481
 9951SOL     OW30751   0.554   2.148   3.447
 9951SOL    HW130752   0.542   2.240   3.485
 9951SOL    HW230753   0.554   2.081   3.522
 9952SOL     OW30754   0.497   4.917   1.803
 9952SOL    HW130755   0.421   4.877   1.854
 9952SOL    HW230756   0.565   4.953   1.867
 9953SOL     OW30757   6.073   2.582   3.556
 9953SOL    HW130758   6.060   2.677   3.530
 9953SOL    HW230759   5.985   2.534   3.550
 9954SOL     OW30760   3.781   1.826   5.865
 9954SOL    HW130761   3.847   1.807   5.938
 9954SOL    HW230762   3.694   1.853   5.905
 9955SOL     OW30763   6.018   3.976   0.978
 9955SOL    HW130764   5.977   4.007   0.893
 9955SOL    HW230765   6.117   3.985   0.973
 9956SOL     OW30766   2.053   3.221   3.294
 9956SOL    HW130767   1.981   3.155   3.314
 9956SOL    HW230768   2.091   3.256   3.380
 9957SOL     OW30769   4.687   0.058   0.699
 9957SOL    HW130770   4.646   0.059   0.790
 9957SOL    HW230771   4.757   7.006   0.695
 9958SOL     OW30772   5.126   5.758   0.231
 9958SOL    HW130773   5.073   5.674   0.219
 9958SOL    HW230774   5.065   5.837   0.221
 9959SOL     OW30775   4.883   4.147   0.805
 9959SOL    HW130776   4.930   4.076   0.858
 9959SOL    HW230777   4.807   4.183   0.858
 9960SOL     OW30778   0.451   0.795   0.099
 9960SOL    HW130779   0.420   0.715   0.050
 9960SOL    HW230780   0.386   0.817   0.172
 9961SOL     OW30781   2.647   4.926   1.336
 9961SOL    HW130782   2.553   4.958   1.348
 9961SOL    HW230783   2.666   4.854   1.402
 9962SOL     OW30784   3.436   0.030   1.535
 9962SOL    HW130785   3.373   6.977   1.562
 9962SOL    HW230786   3.474   0.010   1.445
 9963SOL     OW30787   0.678   1.166   6.323
 9963SOL    HW130788   0.591   1.142   6.280
 9963SOL    HW230789   0.750   1.106   6.288
 9964SOL     OW30790   4.400   4.189   6.117
 9964SOL    HW130791   4.357   4.101   6.102
 9964SOL    HW230792   4.355   4.236   6.193
 9965SOL     OW30793   2.841   5.434   4.461
 9965SOL    HW130794   2.936   5.436   4.492
 9965SOL    HW230795   2.828   5.357   4.399
 9966SOL     OW30796   3.881   4.827   2.588
 9966SOL    HW130797   3.815   4.822   2.663
 9966SOL    HW230798   3.837   4.798   2.503
 9967SOL     OW30799   0.296   0.644   2.686
 9967SOL    HW130800   0.310   0.555   2.642
 9967SOL    HW230801   0.199   0.660   2.701
 9968SOL     OW30802   3.372   6.599   0.037
 9968SOL    HW130803   3.438   6.524   0.027
 9968SOL    HW230804   3.328   6.617   6.970
 9969SOL     OW30805   1.645   5.545   3.927
 9969SOL    HW130806   1.632   5.590   4.016
 9969SOL    HW230807   1.738   5.561   3.895
 9970SOL     OW30808   6.489   3.695   1.457
 9970SOL    HW130809   6.554   3.649   1.396
 9970SOL    HW230810   6.399   3.697   1.413
 9971SOL     OW30811   0.701   4.538   2.794
 9971SOL    HW130812   0.706   4.463   2.860
 9971SOL    HW230813   0.606   4.548   2.762
 9972SOL     OW30814   3.060   3.154   6.908
 9972SOL    HW130815   2.998   3.221   6.949
 9972SOL    HW230816   3.011   3.100   6.840
 9973SOL     OW30817   2.834   2.109   3.525
 9973SOL    HW130818   2.761   2.170   3.494
 9973SOL    HW230819   2.854   2.042   3.453
 9974SOL     OW30820   1.215   3.307   2.943
 9974SOL    HW130821   1.267   3.247   3.003
 9974SOL    HW230822   1.118   3.280   2.945
 9975SOL     OW30823   1.870   5.121   6.834
 9975SOL    HW130824   1.911   5.206   6.866
 9975SOL    HW230825   1.941   5.059   6.803
 9976SOL     OW30826   3.135   3.982   6.347
 9976SOL    HW130827   3.234   3.976   6.335
 9976SOL    HW230828   3.113   4.057   6.410
 9977SOL     OW30829   5.139   6.379   5.755
 9977SOL    HW130830   5.096   6.302   5.708
 9977SOL    HW230831   5.228   6.398   5.713
 9978SOL     OW30832   0.694   3.415   6.496
 9978SOL    HW130833   0.653   3.326   6.516
 9978SOL    HW230834   0.768   3.404   6.430
 9979SOL     OW30835   4.166   3.294   5.169
 9979SOL    HW130836   4.207   3.302   5.260
 9979SOL    HW230837   4.224   3.235   5.112
 9980SOL     OW30838   2.190   1.350   0.836
 9980SOL    HW130839   2.153   1.442   0.823
 9980SOL    HW230840   2.120   1.291   0.875
 9981SOL     OW30841   0.095   2.780   1.663
 9981SOL    HW130842   0.054   2.860   1.706
 9981SOL    HW230843   0.071   2.777   1.566
 9982SOL     OW30844   2.316   2.107   5.208
 9982SOL    HW130845   2.232   2.074   5.166
 9982SOL    HW230846   2.391   2.100   5.142
 9983SOL     OW30847   1.076   2.897   2.201
 9983SOL    HW130848   1.105   2.887   2.296
 9983SOL    HW230849   1.050   2.808   2.164
 9984SOL     OW30850   6.979   6.169   1.172
 9984SOL    HW130851   0.047   6.215   1.171
 9984SOL    HW230852   6.924   6.201   1.094
 9985SOL     OW30853   3.880   5.352   0.432
 9985SOL    HW130854   3.851   5.442   0.465
 9985SOL    HW230855   3.914   5.360   0.338
 9986SOL     OW30856   5.408   4.848   0.254
 9986SOL    HW130857   5.344   4.857   0.330
 9986SOL    HW230858   5.473   4.775   0.273
 9987SOL     OW30859   5.179   2.907   1.493
 9987SOL    HW130860   5.131   2.989   1.461
 9987SOL    HW230861   5.153   2.830   1.435
 9988SOL     OW30862   5.449   6.810   4.361
 9988SOL    HW130863   5.546   6.819   4.380
 9988SOL    HW230864   5.404   6.765   4.438
 9989SOL     OW30865   6.716   5.321   2.409
 9989SOL    HW130866   6.653   5.269   2.351
 9989SOL    HW230867   6.756   5.396   2.356
 9990SOL     OW30868   0.503   6.835   3.614
 9990SOL    HW130869   0.496   6.923   3.565
 9990SOL    HW230870   0.490   6.851   3.712
 9991SOL     OW30871   1.568   4.577   3.437
 9991SOL    HW130872   1.581   4.482   3.468
 9991SOL    HW230873   1.615   4.590   3.350
 9992SOL     OW30874   3.583   4.845   0.957
 9992SOL    HW130875   3.628   4.935   0.960
 9992SOL    HW230876   3.607   4.793   1.039
 9993SOL     OW30877   3.809   6.755   4.525
 9993SOL    HW130878   3.875   6.703   4.578
 9993SOL    HW230879   3.823   6.853   4.542
 9994SOL     OW30880   6.681   4.703   4.385
 9994SOL    HW130881   6.616   4.735   4.316
 9994SOL    HW230882   6.667   4.605   4.400
 9995SOL     OW30883   2.906   0.573   4.899
 9995SOL    HW130884   2.981   0.522   4.857
 9995SOL    HW230885   2.872   0.523   4.978
 9996SOL     OW30886   1.946   3.688   0.975
 9996SOL    HW130887   1.995   3.636   1.045
 9996SOL    HW230888   1.971   3.653   0.884
 9997SOL     OW30889   5.816   3.124   3.792
 9997SOL    HW130890   5.901   3.134   3.844
 9997SOL    HW230891   5.765   3.045   3.826
 9998SOL     OW30892   5.191   4.369   2.587
 9998SOL    HW130893   5.212   4.407   2.677
 9998SOL    HW230894   5.092   4.363   2.575
 9999SOL     OW30895   0.861   6.136   3.879
 9999SOL    HW130896   0.919   6.139   3.960
 9999SOL    HW230897   0.861   6.226   3.835
10000SOL     OW30898   5.695   1.836   1.569
10000SOL    HW130899   5.626   1.768   1.592
10000SOL    HW230900   5.704   1.902   1.643
10001SOL     OW30901   3.983   6.182   2.228
10001SOL    HW130902   4.030   6.262   2.265
10001SOL    HW230903   3.896   6.169   2.276
10002SOL     OW30904   2.860   0.798   1.886
10002SOL    HW130905   2.818   0.888   1.890
10002SOL    HW230906   2.916   0.791   1.803
10003SOL     OW30907   1.418   0.950   3.945
10003SOL    HW130908   1.495   1.013   3.957
10003SOL    HW230909   1.338   0.985   3.994
10004SOL     OW30910   6.184   4.155   5.117
10004SOL    HW130911   6.283   4.149   5.106
10004SOL    HW230912   6.163   4.197   5.205
10005SOL     OW30913   1.862   5.391   3.314
10005SOL    HW130914   1.891   5.451   3.388
10005SOL    HW230915   1.937   5.381   3.248
10006SOL     OW30916   5.475   0.583   5.379
10006SOL    HW130917   5.456   0.622   5.470
10006SOL    HW230918   5.426   0.635   5.310
10007SOL     OW30919   1.528   5.069   4.409
10007SOL    HW130920   1.561   5.145   4.353
10007SOL    HW230921   1.468   5.010   4.355
10008SOL     OW30922   4.310   1.721   6.159
10008SOL    HW130923   4.300   1.783   6.081
10008SOL    HW230924   4.226   1.723   6.213
10009SOL     OW30925   0.964   3.530   2.032
10009SOL    HW130926   0.923   3.607   1.984
10009SOL    HW230927   0.977   3.454   1.968
10010SOL     OW30928   2.343   4.617   0.029
10010SOL    HW130929   2.333   4.617   6.950
10010SOL    HW230930   2.388   4.532   0.058
10011SOL     OW30931   1.438   3.447   0.732
10011SOL    HW130932   1.457   3.533   0.685
10011SOL    HW230933   1.390   3.465   0.817
10012SOL     OW30934   4.938   1.463   2.436
10012SOL    HW130935   4.924   1.527   2.360
10012SOL    HW230936   4.927   1.369   2.403
10013SOL     OW30937   0.704   6.007   4.573
10013SOL    HW130938   0.671   5.927   4.622
10013SOL    HW230939   0.649   6.087   4.598
10014SOL     OW30940   0.868   0.139   2.971
10014SOL    HW130941   0.807   0.060   2.966
10014SOL    HW230942   0.817   0.217   3.007
10015SOL     OW30943   4.305   4.445   5.680
10015SOL    HW130944   4.288   4.543   5.674
10015SOL    HW230945   4.356   4.425   5.763
10016SOL     OW30946   2.266   6.900   2.836
10016SOL    HW130947   2.194   6.934   2.897
10016SOL    HW230948   2.229   6.892   2.743
10017SOL     OW30949   2.323   1.813   3.024
10017SOL    HW130950   2.269   1.799   3.107
10017SOL    HW230951   2.304   1.741   2.958
10018SOL     OW30952   6.078   2.554   6.260
10018SOL    HW130953   6.024   2.510   6.332
10018SOL    HW230954   6.028   2.634   6.225
10019SOL     OW30955   0.590   1.831   2.376
10019SOL    HW130956   0.519   1.786   2.431
10019SOL    HW230957   0.680   1.813   2.417
10020SOL     OW30958   6.583   0.586   1.952
10020SOL    HW130959   6.612   0.571   2.046
10020SOL    HW230960   6.546   0.678   1.942
10021SOL     OW30961   1.574   4.083   1.962
10021SOL    HW130962   1.534   4.066   1.872
10021SOL    HW230963   1.547   4.173   1.995
10022SOL     OW30964   2.534   6.182   0.414
10022SOL    HW130965   2.543   6.082   0.419
10022SOL    HW230966   2.549   6.212   0.320
10023SOL     OW30967   2.038   6.727   5.936
10023SOL    HW130968   2.020   6.662   6.010
10023SOL    HW230969   2.061   6.816   5.975
10024SOL     OW30970   1.663   4.572   3.170
10024SOL    HW130971   1.762   4.578   3.162
10024SOL    HW230972   1.627   4.509   3.101
10025SOL     OW30973   1.016   4.441   1.375
10025SOL    HW130974   1.022   4.534   1.339
10025SOL    HW230975   0.921   4.411   1.373
10026SOL     OW30976   5.217   1.417   3.883
10026SOL    HW130977   5.295   1.359   3.904
10026SOL    HW230978   5.183   1.396   3.791
10027SOL     OW30979   1.687   1.795   5.679
10027SOL    HW130980   1.732   1.706   5.690
10027SOL    HW230981   1.738   1.863   5.732
10028SOL     OW30982   4.139   0.734   1.747
10028SOL    HW130983   4.209   0.803   1.771
10028SOL    HW230984   4.126   0.733   1.648
10029SOL     OW30985   0.091   3.408   4.942
10029SOL    HW130986   0.145   3.393   5.024
10029SOL    HW230987   0.045   3.323   4.916
10030SOL     OW30988   2.572   6.984   4.624
10030SOL    HW130989   2.565   0.059   4.652
10030SOL    HW230990   2.544   6.925   4.700
10031SOL     OW30991   3.203   4.888   4.046
10031SOL    HW130992   3.227   4.798   4.081
10031SOL    HW230993   3.191   4.951   4.123
10032SOL     OW30994   3.012   6.065   4.948
10032SOL    HW130995   3.023   6.020   4.859
10032SOL    HW230996   3.011   5.995   5.020
10033SOL     OW30997   4.157   1.955   2.801
10033SOL    HW130998   4.249   1.947   2.840
10033SOL    HW230999   4.149   2.042   2.752
10034SOL     OW31000   2.656   0.573   3.688
10034SOL    HW131001   2.740   0.533   3.724
10034SOL    HW231002   2.675   0.663   3.649
10035SOL     OW31003   6.226   2.876   1.615
10035SOL    HW131004   6.247   2.905   1.708
10035SOL    HW231005   6.311   2.868   1.563
10036SOL     OW31006   6.073   0.621   6.970
10036SOL    HW131007   6.099   0.549   6.906
10036SOL    HW231008   5.986   0.660   6.942
10037SOL     OW31009   6.140   6.968   6.945
10037SOL    HW131010   6.188   0.019   6.894
10037SOL    HW231011   6.077   6.920   6.884
10038SOL     OW31012   4.179   0.146   6.873
10038SOL    HW131013   4.146   0.197   6.952
10038SOL    HW231014   4.276   0.125   6.884
10039SOL     OW31015   5.622   5.100   3.643
10039SOL    HW131016   5.535   5.141   3.672
10039SOL    HW231017   5.617   5.074   3.547
10040SOL     OW31018   3.556   0.574   0.360
10040SOL    HW131019   3.587   0.536   0.273
10040SOL    HW231020   3.492   0.649   0.343
10041SOL     OW31021   6.682   4.757   5.540
10041SOL    HW131022   6.686   4.752   5.440
10041SOL    HW231023   6.725   4.676   5.580
10042SOL     OW31024   0.813   0.885   5.160
10042SOL    HW131025   0.787   0.835   5.077
10042SOL    HW231026   0.740   0.875   5.228
10043SOL     OW31027   1.774   1.096   3.171
10043SOL    HW131028   1.836   1.096   3.092
10043SOL    HW231029   1.683   1.069   3.141
10044SOL     OW31030   2.071   1.326   5.423
10044SOL    HW131031   2.088   1.382   5.342
10044SOL    HW231032   2.009   1.252   5.399
10045SOL     OW31033   4.547   6.647   4.639
10045SOL    HW131034   4.638   6.627   4.604
10045SOL    HW231035   4.479   6.601   4.582
10046SOL     OW31036   0.329   2.364   1.941
10046SOL    HW131037   0.275   2.427   1.885
10046SOL    HW231038   0.299   2.369   2.036
10047SOL     OW31039   6.528   1.595   4.920
10047SOL    HW131040   6.537   1.573   5.018
10047SOL    HW231041   6.563   1.520   4.865
10048SOL     OW31042   3.760   1.611   1.876
10048SOL    HW131043   3.733   1.691   1.930
10048SOL    HW231044   3.798   1.642   1.788
10049SOL     OW31045   2.131   0.548   6.414
10049SOL    HW131046   2.151   0.463   6.364
10049SOL    HW231047   2.133   0.529   6.512
10050SOL     OW31048   5.052   2.659   4.714
10050SOL    HW131049   4.998   2.591   4.763
10050SOL    HW231050   5.147   2.629   4.710
10051SOL     OW31051   6.001   2.906   4.585
10051SOL    HW131052   6.024   2.989   4.636
10051SOL    HW231053   5.940   2.930   4.509
10052SOL     OW31054   1.615   3.271   1.963
10052SOL    HW131055   1.556   3.326   2.021
10052SOL    HW231056   1.686   3.330   1.924
10053SOL     OW31057   3.206   5.252   3.381
10053SOL    HW131058   3.226   5.205   3.467
10053SOL    HW231059   3.246   5.200   3.306
10054SOL     OW31060   4.185   5.639   5.813
10054SOL    HW131061   4.118   5.647   5.887
10054SOL    HW231062   4.162   5.560   5.755
10055SOL     OW31063   6.668   2.747   5.187
10055SOL    HW131064   6.616   2.683   5.243
10055SOL    HW231065   6.740   2.788   5.242
10056SOL     OW31066   6.590   4.935   1.209
10056SOL    HW131067   6.675   4.891   1.237
10056SOL    HW231068   6.602   5.034   1.209
10057SOL     OW31069   4.226   2.001   4.525
10057SOL    HW131070   4.207   1.975   4.430
10057SOL    HW231071   4.266   2.092   4.527
10058SOL     OW31072   6.913   5.423   3.896
10058SOL    HW131073   6.841   5.491   3.885
10058SOL    HW231074   6.967   5.417   3.811
10059SOL     OW31075   5.316   0.161   0.917
10059SOL    HW131076   5.323   0.200   0.826
10059SOL    HW231077   5.220   0.149   0.942
10060SOL     OW31078   2.735   2.326   1.813
10060SOL    HW131079   2.671   2.256   1.844
10060SOL    HW231080   2.819   2.320   1.867
10061SOL     OW31081   6.151   1.306   4.132
10061SOL    HW131082   6.119   1.211   4.141
10061SOL    HW231083   6.101   1.364   4.196
10062SOL     OW31084   5.924   5.915   3.367
10062SOL    HW131085   5.986   5.842   3.395
10062SOL    HW231086   5.854   5.929   3.438
10063SOL     OW31087   1.417   3.338   3.940
10063SOL    HW131088   1.439   3.341   3.843
10063SOL    HW231089   1.486   3.284   3.989
10064SOL     OW31090   4.861   5.609   4.344
10064SOL    HW131091   4.866   5.629   4.246
10064SOL    HW231092   4.903   5.520   4.362
10065SOL     OW31093   1.213   6.581   2.491
10065SOL    HW131094   1.145   6.542   2.553
10065SOL    HW231095   1.193   6.678   2.476
10066SOL     OW31096   0.597   0.267   4.188
10066SOL    HW131097   0.506   0.285   4.226
10066SOL    HW231098   0.606   0.314   4.100
10067SOL     OW31099   5.060   4.684   4.520
10067SOL    HW131100   5.125   4.614   4.489
10067SOL    HW231101   5.086   4.773   4.484
10068SOL     OW31102   5.388   2.733   4.502
10068SOL    HW131103   5.363   2.756   4.596
10068SOL    HW231104   5.479   2.771   4.482
10069SOL     OW31105   2.993   1.051   3.730
10069SOL    HW131106   3.003   1.114   3.653
10069SOL    HW231107   2.984   1.103   3.815
10070SOL     OW31108   0.489   6.136   5.034
10070SOL    HW131109   0.502   6.115   5.131
10070SOL    HW231110   0.578   6.148   4.991
10071SOL     OW31111   4.771   5.411   4.041
10071SOL    HW131112   4.673   5.419   4.063
10071SOL    HW231113   4.824   5.461   4.109
10072SOL     OW31114   0.479   6.295   3.483
10072SOL    HW131115   0.420   6.236   3.538
10072SOL    HW231116   0.455   6.284   3.386
10073SOL     OW31117   6.407   4.935   5.243
10073SOL    HW131118   6.497   4.891   5.254
10073SOL    HW231119   6.387   4.990   5.325
10074SOL     OW31120   1.341   0.054   5.697
10074SOL    HW131121   1.307   6.980   5.701
10074SOL    HW231122   1.441   0.053   5.691
10075SOL     OW31123   1.053   2.312   3.518
10075SOL    HW131124   1.046   2.398   3.568
10075SOL    HW231125   1.026   2.236   3.577
10076SOL     OW31126   4.991   0.240   4.259
10076SOL    HW131127   5.078   0.280   4.230
10076SOL    HW231128   4.940   0.210   4.179
10077SOL     OW31129   4.119   2.389   6.619
10077SOL    HW131130   4.149   2.306   6.572
10077SOL    HW231131   4.151   2.469   6.569
10078SOL     OW31132   6.146   6.422   4.903
10078SOL    HW131133   6.142   6.393   4.999
10078SOL    HW231134   6.227   6.479   4.889
10079SOL     OW31135   0.955   3.047   1.455
10079SOL    HW131136   0.978   2.962   1.503
10079SOL    HW231137   1.032   3.075   1.399
10080SOL     OW31138   2.174   2.695   0.537
10080SOL    HW131139   2.254   2.695   0.477
10080SOL    HW231140   2.156   2.602   0.568
10081SOL     OW31141   0.726   0.210   6.610
10081SOL    HW131142   0.760   0.285   6.552
10081SOL    HW231143   0.631   0.190   6.585
10082SOL     OW31144   6.303   2.005   1.728
10082SOL    HW131145   6.322   1.910   1.751
10082SOL    HW231146   6.231   2.040   1.788
10083SOL     OW31147   4.350   0.380   3.895
10083SOL    HW131148   4.269   0.418   3.850
10083SOL    HW231149   4.368   0.430   3.980
10084SOL     OW31150   2.844   1.006   6.056
10084SOL    HW131151   2.883   0.949   6.129
10084SOL    HW231152   2.749   1.026   6.077
10085SOL     OW31153   0.752   4.951   3.048
10085SOL    HW131154   0.815   4.979   3.121
10085SOL    HW231155   0.658   4.952   3.084
10086SOL     OW31156   6.168   4.662   2.021
10086SOL    HW131157   6.115   4.578   2.036
10086SOL    HW231158   6.245   4.664   2.085
10087SOL     OW31159   1.046   0.826   4.362
10087SOL    HW131160   1.081   0.762   4.294
10087SOL    HW231161   1.116   0.894   4.382
10088SOL     OW31162   0.537   6.915   4.698
10088SOL    HW131163   0.585   6.990   4.744
10088SOL    HW231164   0.569   6.828   4.735
10089SOL     OW31165   2.528   1.476   2.651
10089SOL    HW131166   2.576   1.530   2.581
10089SOL    HW231167   2.433   1.508   2.658
10090SOL     OW31168   1.060   4.412   0.501
10090SOL    HW131169   1.032   4.505   0.476
10090SOL    HW231170   1.009   4.383   0.582
10091SOL     OW31171   0.953   3.149   4.616
10091SOL    HW131172   0.940   3.080   4.544
10091SOL    HW231173   0.868   3.157   4.669
10092SOL     OW31174   1.847   3.612   5.191
10092SOL    HW131175   1.810   3.519   5.198
10092SOL    HW231176   1.943   3.608   5.164
10093SOL     OW31177   0.392   5.351   5.153
10093SOL    HW131178   0.312   5.316   5.203
10093SOL    HW231179   0.475   5.308   5.189
10094SOL     OW31180   2.498   0.579   2.525
10094SOL    HW131181   2.479   0.536   2.437
10094SOL    HW231182   2.431   0.548   2.593
10095SOL     OW31183   6.815   1.670   5.867
10095SOL    HW131184   6.872   1.594   5.899
10095SOL    HW231185   6.719   1.648   5.882
10096SOL     OW31186   0.002   5.051   2.747
10096SOL    HW131187   0.012   5.104   2.663
10096SOL    HW231188   0.081   5.068   2.806
10097SOL     OW31189   1.101   1.632   0.951
10097SOL    HW131190   1.023   1.653   1.010
10097SOL    HW231191   1.149   1.552   0.987
10098SOL     OW31192   1.975   6.131   5.821
10098SOL    HW131193   1.886   6.097   5.791
10098SOL    HW231194   2.023   6.059   5.871
10099SOL     OW31195   6.947   3.565   5.296
10099SOL    HW131196   6.898   3.579   5.382
10099SOL    HW231197   7.019   3.634   5.288
10100SOL     OW31198   4.625   0.862   4.771
10100SOL    HW131199   4.655   0.930   4.838
10100SOL    HW231200   4.597   0.778   4.818
10101SOL     OW31201   0.314   4.791   1.967
10101SOL    HW131202   0.377   4.748   2.032
10101SOL    HW231203   0.221   4.787   2.003
10102SOL     OW31204   3.051   1.206   2.310
10102SOL    HW131205   3.151   1.208   2.305
10102SOL    HW231206   3.022   1.188   2.404
10103SOL     OW31207   2.779   1.224   4.948
10103SOL    HW131208   2.854   1.209   5.012
10103SOL    HW231209   2.711   1.152   4.958
10104SOL     OW31210   0.816   4.552   5.428
10104SOL    HW131211   0.772   4.526   5.514
10104SOL    HW231212   0.906   4.509   5.421
10105SOL     OW31213   1.508   1.485   6.422
10105SOL    HW131214   1.572   1.552   6.460
10105SOL    HW231215   1.505   1.405   6.482
10106SOL     OW31216   5.088   5.268   0.598
10106SOL    HW131217   5.139   5.353   0.608
10106SOL    HW231218   5.110   5.207   0.674
10107SOL     OW31219   6.073   1.072   6.016
10107SOL    HW131220   6.016   1.136   6.067
10107SOL    HW231221   6.015   1.017   5.956
10108SOL     OW31222   6.153   6.349   0.196
10108SOL    HW131223   6.160   6.384   0.103
10108SOL    HW231224   6.230   6.383   0.250
10109SOL     OW31225   4.770   5.962   3.330
10109SOL    HW131226   4.779   5.908   3.414
10109SOL    HW231227   4.831   5.925   3.260
10110SOL     OW31228   3.429   6.929   5.403
10110SOL    HW131229   3.484   6.971   5.331
10110SOL    HW231230   3.455   6.833   5.414
10111SOL     OW31231   6.705   3.260   3.399
10111SOL    HW131232   6.681   3.301   3.486
10111SOL    HW231233   6.722   3.162   3.412
10112SOL     OW31234   5.605   3.854   5.371
10112SOL    HW131235   5.659   3.938   5.373
10112SOL    HW231236   5.566   3.841   5.281
10113SOL     OW31237   3.998   0.858   0.045
10113SOL    HW131238   4.090   0.882   0.075
10113SOL    HW231239   4.003   0.808   6.979
10114SOL     OW31240   5.453   1.506   0.068
10114SOL    HW131241   5.421   1.599   0.050
10114SOL    HW231242   5.550   1.499   0.044
10115SOL     OW31243   1.718   2.556   3.721
10115SOL    HW131244   1.715   2.488   3.648
10115SOL    HW231245   1.809   2.555   3.763
10116SOL     OW31246   0.828   6.891   0.521
10116SOL    HW131247   0.750   6.830   0.535
10116SOL    HW231248   0.856   6.888   0.425
10117SOL     OW31249   6.210   0.224   5.342
10117SOL    HW131250   6.173   0.317   5.350
10117SOL    HW231251   6.303   0.229   5.305
10118SOL     OW31252   0.309   4.939   2.704
10118SOL    HW131253   0.389   4.934   2.644
10118SOL    HW231254   0.287   5.035   2.722
10119SOL     OW31255   2.161   0.483   4.449
10119SOL    HW131256   2.191   0.388   4.438
10119SOL    HW231257   2.151   0.504   4.546
10120SOL     OW31258   0.423   3.242   4.055
10120SOL    HW131259   0.427   3.209   3.961
10120SOL    HW231260   0.343   3.204   4.101
10121SOL     OW31261   6.663   4.802   5.240
10121SOL    HW131262   6.635   4.796   5.145
10121SOL    HW231263   6.762   4.815   5.245
10122SOL     OW31264   5.160   3.036   6.859
10122SOL    HW131265   5.097   2.959   6.864
10122SOL    HW231266   5.215   3.030   6.776
10123SOL     OW31267   0.865   5.888   0.704
10123SOL    HW131268   0.781   5.889   0.758
10123SOL    HW231269   0.898   5.982   0.691
10124SOL     OW31270   2.852   4.415   0.228
10124SOL    HW131271   2.761   4.455   0.241
10124SOL    HW231272   2.844   4.319   0.204
10125SOL     OW31273   2.039   0.651   2.846
10125SOL    HW131274   2.129   0.676   2.882
10125SOL    HW231275   1.987   0.602   2.917
10126SOL     OW31276   6.217   5.691   6.900
10126SOL    HW131277   6.236   5.780   6.859
10126SOL    HW231278   6.195   5.625   6.828
10127SOL     OW31279   3.228   5.363   5.607
10127SOL    HW131280   3.284   5.443   5.591
10127SOL    HW231281   3.191   5.330   5.520
10128SOL     OW31282   0.624   1.353   1.188
10128SOL    HW131283   0.537   1.304   1.177
10128SOL    HW231284   0.663   1.372   1.098
10129SOL     OW31285   5.105   2.760   3.738
10129SOL    HW131286   5.042   2.775   3.662
10129SOL    HW231287   5.052   2.742   3.821
10130SOL     OW31288   1.106   5.516   3.163
10130SOL    HW131289   1.183   5.578   3.172
10130SOL    HW231290   1.133   5.423   3.190
10131SOL     OW31291   0.741   2.182   2.163
10131SOL    HW131292   0.798   2.210   2.241
10131SOL    HW231293   0.675   2.254   2.143
10132SOL     OW31294   3.174   6.763   2.929
10132SOL    HW131295   3.110   6.705   2.980
10132SOL    HW231296   3.147   6.859   2.939
10133SOL     OW31297   4.118   6.033   3.568
10133SOL    HW131298   4.104   5.994   3.477
10133SOL    HW231299   4.206   6.081   3.569
10134SOL     OW31300   6.358   0.841   3.730
10134SOL    HW131301   6.426   0.912   3.712
10134SOL    HW231302   6.398   0.771   3.788
10135SOL     OW31303   4.991   3.794   2.754
10135SOL    HW131304   4.988   3.787   2.654
10135SOL    HW231305   4.980   3.703   2.794
10136SOL     OW31306   5.736   6.956   3.317
10136SOL    HW131307   5.801   6.881   3.331
10136SOL    HW231308   5.749   0.004   3.389
10137SOL     OW31309   6.874   5.372   4.413
10137SOL    HW131310   6.909   5.461   4.440
10137SOL    HW231311   6.784   5.357   4.455
10138SOL     OW31312   5.622   2.332   0.547
10138SOL    HW131313   5.597   2.297   0.637
10138SOL    HW231314   5.566   2.411   0.525
10139SOL     OW31315   3.877   2.972   2.847
10139SOL    HW131316   3.860   2.967   2.946
10139SOL    HW231317   3.943   3.044   2.828
10140SOL     OW31318   6.473   6.013   6.237
10140SOL    HW131319   6.459   6.097   6.183
10140SOL    HW231320   6.528   5.948   6.184
10141SOL     OW31321   2.948   2.278   4.311
10141SOL    HW131322   3.005   2.229   4.377
10141SOL    HW231323   2.967   2.376   4.317
10142SOL     OW31324   4.652   6.635   5.412
10142SOL    HW131325   4.680   6.728   5.387
10142SOL    HW231326   4.731   6.575   5.413
10143SOL     OW31327   4.320   0.167   1.293
10143SOL    HW131328   4.272   0.246   1.254
10143SOL    HW231329   4.330   0.179   1.391
10144SOL     OW31330   3.637   5.648   5.590
10144SOL    HW131331   3.543   5.639   5.621
10144SOL    HW231332   3.693   5.689   5.662
10145SOL     OW31333   2.765   6.112   6.085
10145SOL    HW131334   2.701   6.040   6.112
10145SOL    HW231335   2.857   6.089   6.115
10146SOL     OW31336   3.816   5.293   4.655
10146SOL    HW131337   3.830   5.232   4.733
10146SOL    HW231338   3.904   5.322   4.619
10147SOL     OW31339   4.959   4.526   4.722
10147SOL    HW131340   4.995   4.540   4.630
10147SOL    HW231341   4.860   4.510   4.717
10148SOL     OW31342   6.301   5.899   0.268
10148SOL    HW131343   6.262   5.807   0.265
10148SOL    HW231344   6.257   5.956   0.198
10149SOL     OW31345   4.991   1.704   0.677
10149SOL    HW131346   5.063   1.634   0.688
10149SOL    HW231347   4.978   1.723   0.580
10150SOL     OW31348   4.571   4.197   0.861
10150SOL    HW131349   4.548   4.286   0.822
10150SOL    HW231350   4.658   4.204   0.910
10151SOL     OW31351   1.685   0.007   6.520
10151SOL    HW131352   1.735   7.017   6.434
10151SOL    HW231353   1.721   6.964   6.588
10152SOL     OW31354   1.414   5.400   4.119
10152SOL    HW131355   1.399   5.349   4.034
10152SOL    HW231356   1.402   5.498   4.101
10153SOL     OW31357   4.416   5.885   3.781
10153SOL    HW131358   4.379   5.915   3.869
10153SOL    HW231359   4.485   5.949   3.749
10154SOL     OW31360   6.601   6.208   5.899
10154SOL    HW131361   6.660   6.129   5.881
10154SOL    HW231362   6.511   6.176   5.928
10155SOL     OW31363   4.263   1.315   6.036
10155SOL    HW131364   4.350   1.268   6.022
10155SOL    HW231365   4.246   1.377   5.960
10156SOL     OW31366   5.946   6.741   2.233
10156SOL    HW131367   5.920   6.806   2.162
10156SOL    HW231368   5.864   6.705   2.277
10157SOL     OW31369   5.889   1.618   5.720
10157SOL    HW131370   5.864   1.673   5.800
10157SOL    HW231371   5.833   1.535   5.717
10158SOL     OW31372   4.912   3.869   0.146
10158SOL    HW131373   4.913   3.770   0.160
10158SOL    HW231374   4.915   3.889   0.047
10159SOL     OW31375   2.624   3.009   5.762
10159SOL    HW131376   2.531   3.043   5.746
10159SOL    HW231377   2.690   3.074   5.723
10160SOL     OW31378   1.170   4.729   2.699
10160SOL    HW131379   1.151   4.637   2.735
10160SOL    HW231380   1.143   4.733   2.603
10161SOL     OW31381   3.493   4.723   0.570
10161SOL    HW131382   3.568   4.789   0.567
10161SOL    HW231383   3.410   4.769   0.603
10162SOL     OW31384   2.733   3.692   7.003
10162SOL    HW131385   2.673   3.681   6.924
10162SOL    HW231386   2.823   3.653   6.982
10163SOL     OW31387   5.809   4.076   6.399
10163SOL    HW131388   5.751   4.034   6.329
10163SOL    HW231389   5.816   4.014   6.477
10164SOL     OW31390   6.415   2.925   4.903
10164SOL    HW131391   6.350   2.997   4.927
10164SOL    HW231392   6.501   2.941   4.951
10165SOL     OW31393   1.249   2.198   4.302
10165SOL    HW131394   1.303   2.188   4.218
10165SOL    HW231395   1.299   2.256   4.367
10166SOL     OW31396   3.618   1.075   2.080
10166SOL    HW131397   3.689   1.093   2.012
10166SOL    HW231398   3.597   0.977   2.081
10167SOL     OW31399   5.018   1.096   6.879
10167SOL    HW131400   5.107   1.052   6.862
10167SOL    HW231401   4.979   1.061   6.964
10168SOL     OW31402   6.431   3.934   4.649
10168SOL    HW131403   6.415   3.843   4.610
10168SOL    HW231404   6.479   3.924   4.736
10169SOL     OW31405   6.866   4.247   3.355
10169SOL    HW131406   6.933   4.299   3.301
10169SOL    HW231407   6.779   4.296   3.356
10170SOL     OW31408   0.422   4.392   5.990
10170SOL    HW131409   0.431   4.294   5.970
10170SOL    HW231410   0.372   4.404   6.076
10171SOL     OW31411   6.284   3.603   6.687
10171SOL    HW131412   6.356   3.654   6.734
10171SOL    HW231413   6.320   3.515   6.656
10172SOL     OW31414   6.074   0.449   3.027
10172SOL    HW131415   6.092   0.463   3.125
10172SOL    HW231416   6.098   0.355   3.002
10173SOL     OW31417   1.821   2.399   1.048
10173SOL    HW131418   1.840   2.482   0.995
10173SOL    HW231419   1.836   2.417   1.145
10174SOL     OW31420   5.679   4.627   2.184
10174SOL    HW131421   5.596   4.669   2.145
10174SOL    HW231422   5.656   4.537   2.221
10175SOL     OW31423   6.589   2.782   4.301
10175SOL    HW131424   6.553   2.720   4.370
10175SOL    HW231425   6.538   2.772   4.216
10176SOL     OW31426   1.054   2.993   5.812
10176SOL    HW131427   1.038   2.911   5.867
10176SOL    HW231428   0.967   3.042   5.801
10177SOL     OW31429   2.936   0.305   0.008
10177SOL    HW131430   2.981   0.378   0.058
10177SOL    HW231431   2.960   0.217   0.049
10178SOL     OW31432   6.503   3.293   4.708
10178SOL    HW131433   6.546   3.329   4.791
10178SOL    HW231434   6.404   3.291   4.721
10179SOL     OW31435   0.817   2.001   5.791
10179SOL    HW131436   0.819   2.071   5.862
10179SOL    HW231437   0.871   1.922   5.819
10180SOL     OW31438   3.188   5.145   6.226
10180SOL    HW131439   3.151   5.089   6.301
10180SOL    HW231440   3.161   5.104   6.139
10181SOL     OW31441   5.093   3.541   2.004
10181SOL    HW131442   5.013   3.581   1.959
10181SOL    HW231443   5.112   3.451   1.966
10182SOL     OW31444   5.846   1.589   1.638
10182SOL    HW131445   5.929   1.575   1.693
10182SOL    HW231446   5.829   1.687   1.628
10183SOL     OW31447   1.096   1.885   6.406
10183SOL    HW131448   1.147   1.940   6.471
10183SOL    HW231449   1.020   1.839   6.454
10184SOL     OW31450   5.001   1.741   6.016
10184SOL    HW131451   5.030   1.756   6.111
10184SOL    HW231452   5.076   1.763   5.954
10185SOL     OW31453   4.793   6.292   0.904
10185SOL    HW131454   4.770   6.197   0.926
10185SOL    HW231455   4.713   6.337   0.864
10186SOL     OW31456   6.060   3.392   3.612
10186SOL    HW131457   5.979   3.448   3.598
10186SOL    HW231458   6.043   3.323   3.682
10187SOL     OW31459   1.167   1.836   2.071
10187SOL    HW131460   1.198   1.773   1.999
10187SOL    HW231461   1.084   1.883   2.040
10188SOL     OW31462   3.927   5.760   6.816
10188SOL    HW131463   3.844   5.809   6.787
10188SOL    HW231464   4.005   5.793   6.764
10189SOL     OW31465   2.554   0.130   5.700
10189SOL    HW131466   2.621   0.064   5.666
10189SOL    HW231467   2.529   0.193   5.626
10190SOL     OW31468   5.331   2.416   1.061
10190SOL    HW131469   5.412   2.360   1.082
10190SOL    HW231470   5.352   2.512   1.076
10191SOL     OW31471   4.924   4.232   0.084
10191SOL    HW131472   4.879   4.235   7.014
10191SOL    HW231473   4.855   4.215   0.154
10192SOL     OW31474   4.354   0.907   4.750
10192SOL    HW131475   4.315   0.997   4.735
10192SOL    HW231476   4.454   0.911   4.739
10193SOL     OW31477   4.457   3.951   1.646
10193SOL    HW131478   4.556   3.939   1.654
10193SOL    HW231479   4.429   4.034   1.693
10194SOL     OW31480   5.847   4.847   5.026
10194SOL    HW131481   5.843   4.755   5.063
10194SOL    HW231482   5.822   4.913   5.097
10195SOL     OW31483   5.785   4.403   1.265
10195SOL    HW131484   5.796   4.327   1.201
10195SOL    HW231485   5.851   4.475   1.243
10196SOL     OW31486   6.016   1.521   4.686
10196SOL    HW131487   5.942   1.456   4.704
10196SOL    HW231488   5.977   1.610   4.660
10197SOL     OW31489   0.225   1.780   4.956
10197SOL    HW131490   0.254   1.831   5.036
10197SOL    HW231491   0.177   1.842   4.893
10198SOL     OW31492   4.108   0.643   2.264
10198SOL    HW131493   4.021   0.683   2.233
10198SOL    HW231494   4.168   0.629   2.186
10199SOL     OW31495   1.977   2.682   5.732
10199SOL    HW131496   1.932   2.772   5.737
10199SOL    HW231497   1.947   2.635   5.649
10200SOL     OW31498   4.989   2.284   1.380
10200SOL    HW131499   5.066   2.322   1.329
10200SOL    HW231500   4.904   2.315   1.339
10201SOL     OW31501   0.792   4.712   0.783
10201SOL    HW131502   0.696   4.698   0.806
10201SOL    HW231503   0.816   4.658   0.702
10202SOL     OW31504   4.147   2.375   5.867
10202SOL    HW131505   4.235   2.377   5.819
10202SOL    HW231506   4.091   2.301   5.831
10203SOL     OW31507   5.262   2.516   4.342
10203SOL    HW131508   5.174   2.557   4.319
10203SOL    HW231509   5.318   2.583   4.390
10204SOL     OW31510   4.943   6.411   6.924
10204SOL    HW131511   5.010   6.475   6.959
10204SOL    HW231512   4.909   6.443   6.835
10205SOL     OW31513   0.717   1.699   0.455
10205SOL    HW131514   0.788   1.762   0.423
10205SOL    HW231515   0.743   1.606   0.432
10206SOL     OW31516   0.937   1.338   5.876
10206SOL    HW131517   0.943   1.341   5.976
10206SOL    HW231518   0.895   1.423   5.843
10207SOL     OW31519   1.311   1.578   6.280
10207SOL    HW131520   1.374   1.532   6.342
10207SOL    HW231521   1.338   1.557   6.185
10208SOL     OW31522   5.427   5.198   4.148
10208SOL    HW131523   5.375   5.115   4.165
10208SOL    HW231524   5.501   5.205   4.215
10209SOL     OW31525   6.743   0.241   5.888
10209SOL    HW131526   6.837   0.214   5.870
10209SOL    HW231527   6.733   0.340   5.877
10210SOL     OW31528   4.314   6.514   1.286
10210SOL    HW131529   4.397   6.568   1.267
10210SOL    HW231530   4.278   6.540   1.376
10211SOL     OW31531   3.383   6.647   4.669
10211SOL    HW131532   3.435   6.732   4.665
10211SOL    HW231533   3.420   6.582   4.603
10212SOL     OW31534   0.743   0.051   5.460
10212SOL    HW131535   0.734   0.019   5.555
10212SOL    HW231536   0.734   6.993   5.398
10213SOL     OW31537   5.171   2.688   0.843
10213SOL    HW131538   5.145   2.720   0.752
10213SOL    HW231539   5.127   2.600   0.861
10214SOL     OW31540   1.337   1.936   1.406
10214SOL    HW131541   1.376   1.880   1.333
10214SOL    HW231542   1.238   1.925   1.407
10215SOL     OW31543   4.085   3.631   2.844
10215SOL    HW131544   4.065   3.540   2.882
10215SOL    HW231545   4.097   3.696   2.918
10216SOL     OW31546   6.169   0.222   1.857
10216SOL    HW131547   6.184   0.278   1.939
10216SOL    HW231548   6.071   0.211   1.841
10217SOL     OW31549   2.872   0.803   3.767
10217SOL    HW131550   2.777   0.828   3.750
10217SOL    HW231551   2.929   0.885   3.769
10218SOL     OW31552   1.039   2.972   1.810
10218SOL    HW131553   0.999   2.884   1.785
10218SOL    HW231554   1.124   2.986   1.760
10219SOL     OW31555   0.266   1.341   2.025
10219SOL    HW131556   0.339   1.409   2.029
10219SOL    HW231557   0.260   1.303   1.933
10220SOL     OW31558   3.566   3.096   1.252
10220SOL    HW131559   3.596   3.044   1.332
10220SOL    HW231560   3.571   3.194   1.273
10221SOL     OW31561   0.455   6.019   3.211
10221SOL    HW131562   0.457   6.118   3.201
10221SOL    HW231563   0.362   5.986   3.192
10222SOL     OW31564   2.899   3.282   4.580
10222SOL    HW131565   2.909   3.237   4.669
10222SOL    HW231566   2.876   3.378   4.593
10223SOL     OW31567   0.736   5.743   1.184
10223SOL    HW131568   0.753   5.696   1.271
10223SOL    HW231569   0.813   5.802   1.162
10224SOL     OW31570   6.059   3.944   3.563
10224SOL    HW131571   6.023   3.876   3.627
10224SOL    HW231572   6.147   3.978   3.596
10225SOL     OW31573   1.388   4.040   5.665
10225SOL    HW131574   1.391   3.972   5.739
10225SOL    HW231575   1.425   4.000   5.581
10226SOL     OW31576   3.704   2.215   6.909
10226SOL    HW131577   3.781   2.201   6.971
10226SOL    HW231578   3.649   2.292   6.940
10227SOL     OW31579   5.653   3.977   0.929
10227SOL    HW131580   5.566   3.931   0.945
10227SOL    HW231581   5.642   4.044   0.856
10228SOL     OW31582   5.747   0.931   0.426
10228SOL    HW131583   5.786   1.023   0.440
10228SOL    HW231584   5.663   0.922   0.479
10229SOL     OW31585   0.434   3.388   5.225
10229SOL    HW131586   0.337   3.378   5.245
10229SOL    HW231587   0.457   3.338   5.142
10230SOL     OW31588   6.755   5.607   2.384
10230SOL    HW131589   6.818   5.655   2.445
10230SOL    HW231590   6.774   5.634   2.289
10231SOL     OW31591   1.993   6.435   3.208
10231SOL    HW131592   1.993   6.462   3.111
10231SOL    HW231593   2.002   6.517   3.265
10232SOL     OW31594   3.746   0.109   2.891
10232SOL    HW131595   3.751   0.074   2.985
10232SOL    HW231596   3.775   0.205   2.890
10233SOL     OW31597   3.839   4.415   6.412
10233SOL    HW131598   3.915   4.466   6.370
10233SOL    HW231599   3.792   4.361   6.342
10234SOL     OW31600   6.421   0.544   1.306
10234SOL    HW131601   6.368   0.550   1.390
10234SOL    HW231602   6.378   0.478   1.244
10235SOL     OW31603   0.945   1.117   3.327
10235SOL    HW131604   0.955   1.143   3.422
10235SOL    HW231605   1.034   1.116   3.282
10236SOL     OW31606   2.368   6.833   0.231
10236SOL    HW131607   2.330   6.856   0.321
10236SOL    HW231608   2.407   6.741   0.234
10237SOL     OW31609   0.434   3.265   6.853
10237SOL    HW131610   0.415   3.316   6.769
10237SOL    HW231611   0.353   3.265   6.911
10238SOL     OW31612   3.994   5.026   0.882
10238SOL    HW131613   3.959   4.986   0.968
10238SOL    HW231614   4.082   4.984   0.860
10239SOL     OW31615   1.637   2.997   4.768
10239SOL    HW131616   1.697   3.025   4.693
10239SOL    HW231617   1.552   3.050   4.765
10240SOL     OW31618   2.546   0.010   1.484
10240SOL    HW131619   2.529   0.070   1.562
10240SOL    HW231620   2.459   7.001   1.445
10241SOL     OW31621   4.617   2.112   1.880
10241SOL    HW131622   4.560   2.098   1.961
10241SOL    HW231623   4.559   2.139   1.802
10242SOL     OW31624   0.227   2.251   0.668
10242SOL    HW131625   0.227   2.332   0.726
10242SOL    HW231626   0.232   2.169   0.724
10243SOL     OW31627   2.457   4.636   0.597
10243SOL    HW131628   2.477   4.554   0.544
10243SOL    HW231629   2.538   4.663   0.649
10244SOL     OW31630   2.208   4.136   1.607
10244SOL    HW131631   2.240   4.057   1.556
10244SOL    HW231632   2.108   4.136   1.609
10245SOL     OW31633   3.652   4.073   0.582
10245SOL    HW131634   3.612   4.039   0.667
10245SOL    HW231635   3.740   4.028   0.566
10246SOL     OW31636   3.364   2.903   4.487
10246SOL    HW131637   3.390   2.907   4.583
10246SOL    HW231638   3.278   2.952   4.473
10247SOL     OW31639   0.840   3.897   4.405
10247SOL    HW131640   0.898   3.934   4.478
10247SOL    HW231641   0.897   3.876   4.325
10248SOL     OW31642   1.380   0.396   3.596
10248SOL    HW131643   1.465   0.348   3.573
10248SOL    HW231644   1.385   0.490   3.562
10249SOL     OW31645   2.032   4.648   6.841
10249SOL    HW131646   1.943   4.654   6.886
10249SOL    HW231647   2.069   4.555   6.850
10250SOL     OW31648   5.391   2.679   6.909
10250SOL    HW131649   5.445   2.714   6.832
10250SOL    HW231650   5.417   2.728   6.992
10251SOL     OW31651   1.546   0.372   3.919
10251SOL    HW131652   1.514   0.291   3.869
10251SOL    HW231653   1.476   0.444   3.912
10252SOL     OW31654   4.591   3.772   5.793
10252SOL    HW131655   4.530   3.843   5.826
10252SOL    HW231656   4.659   3.750   5.863
10253SOL     OW31657   3.887   6.628   6.987
10253SOL    HW131658   3.886   6.681   0.052
10253SOL    HW231659   3.811   6.656   6.929
10254SOL     OW31660   5.538   1.815   5.067
10254SOL    HW131661   5.586   1.736   5.029
10254SOL    HW231662   5.601   1.892   5.074
10255SOL     OW31663   3.078   5.843   1.297
10255SOL    HW131664   3.011   5.889   1.238
10255SOL    HW231665   3.143   5.792   1.240
10256SOL     OW31666   5.181   0.781   1.761
10256SOL    HW131667   5.274   0.808   1.784
10256SOL    HW231668   5.118   0.855   1.786
10257SOL     OW31669   2.694   5.077   3.016
10257SOL    HW131670   2.711   4.979   3.008
10257SOL    HW231671   2.677   5.115   2.925
10258SOL     OW31672   2.484   2.059   2.572
10258SOL    HW131673   2.501   2.121   2.649
10258SOL    HW231674   2.399   2.009   2.587
10259SOL     OW31675   0.494   4.012   4.177
10259SOL    HW131676   0.568   4.060   4.225
10259SOL    HW231677   0.532   3.942   4.117
10260SOL     OW31678   1.393   1.036   3.642
10260SOL    HW131679   1.309   1.083   3.617
10260SOL    HW231680   1.421   1.063   3.735
10261SOL     OW31681   0.398   3.709   0.475
10261SOL    HW131682   0.361   3.670   0.559
10261SOL    HW231683   0.491   3.675   0.460
10262SOL     OW31684   3.846   1.073   6.891
10262SOL    HW131685   3.893   0.996   6.935
10262SOL    HW231686   3.907   1.115   6.825
10263SOL     OW31687   6.047   1.097   0.925
10263SOL    HW131688   6.047   1.107   0.825
10263SOL    HW231689   6.082   1.006   0.949
10264SOL     OW31690   6.271   5.003   6.787
10264SOL    HW131691   6.325   5.087   6.781
10264SOL    HW231692   6.187   5.019   6.839
10265SOL     OW31693   2.259   2.907   0.217
10265SOL    HW131694   2.315   2.884   0.297
10265SOL    HW231695   2.311   2.888   0.134
10266SOL     OW31696   3.168   3.007   2.810
10266SOL    HW131697   3.209   3.093   2.841
10266SOL    HW231698   3.105   2.973   2.880
10267SOL     OW31699   5.660   0.418   0.377
10267SOL    HW131700   5.662   0.364   0.461
10267SOL    HW231701   5.606   0.501   0.393
10268SOL     OW31702   5.203   0.169   1.322
10268SOL    HW131703   5.134   0.221   1.272
10268SOL    HW231704   5.208   0.076   1.284
10269SOL     OW31705   1.960   2.163   6.474
10269SOL    HW131706   1.905   2.246   6.458
10269SOL    HW231707   1.921   2.111   6.550
10270SOL     OW31708   3.541   5.830   2.411
10270SOL    HW131709   3.590   5.913   2.438
10270SOL    HW231710   3.520   5.834   2.314
10271SOL     OW31711   2.651   2.140   0.782
10271SOL    HW131712   2.652   2.132   0.683
10271SOL    HW231713   2.560   2.167   0.813
10272SOL     OW31714   6.808   0.728   4.403
10272SOL    HW131715   6.753   0.807   4.377
10272SOL    HW231716   6.874   0.755   4.473
10273SOL     OW31717   2.721   5.176   4.077
10273SOL    HW131718   2.660   5.239   4.124
10273SOL    HW231719   2.682   5.084   4.080
10274SOL     OW31720   0.227   4.839   5.509
10274SOL    HW131721   0.204   4.839   5.412
10274SOL    HW231722   0.323   4.813   5.521
10275SOL     OW31723   0.155   0.659   2.987
10275SOL    HW131724   0.253   0.662   3.005
10275SOL    HW231725   0.134   0.716   2.907
10276SOL     OW31726   4.724   5.610   5.709
10276SOL    HW131727   4.707   5.660   5.625
10276SOL    HW231728   4.664   5.530   5.713
10277SOL     OW31729   1.196   6.803   4.099
10277SOL    HW131730   1.285   6.759   4.092
10277SOL    HW231731   1.133   6.763   4.033
10278SOL     OW31732   0.462   0.441   5.217
10278SOL    HW131733   0.526   0.408   5.286
10278SOL    HW231734   0.509   0.452   5.129
10279SOL     OW31735   2.392   5.612   4.646
10279SOL    HW131736   2.330   5.647   4.576
10279SOL    HW231737   2.342   5.553   4.710
10280SOL     OW31738   5.381   3.830   0.878
10280SOL    HW131739   5.374   3.730   0.884
10280SOL    HW231740   5.419   3.855   0.789
10281SOL     OW31741   6.419   2.078   3.088
10281SOL    HW131742   6.488   2.133   3.135
10281SOL    HW231743   6.426   1.983   3.117
10282SOL     OW31744   4.950   3.462   2.611
10282SOL    HW131745   4.884   3.537   2.607
10282SOL    HW231746   4.926   3.392   2.543
10283SOL     OW31747   0.097   3.796   1.145
10283SOL    HW131748   0.073   3.858   1.220
10283SOL    HW231749   0.135   3.849   1.069
10284SOL     OW31750   0.328   2.435   4.126
10284SOL    HW131751   0.258   2.406   4.192
10284SOL    HW231752   0.384   2.357   4.101
10285SOL     OW31753   4.344   6.316   3.759
10285SOL    HW131754   4.381   6.246   3.698
10285SOL    HW231755   4.411   6.390   3.769
10286SOL     OW31756   3.414   1.781   4.268
10286SOL    HW131757   3.386   1.855   4.329
10286SOL    HW231758   3.362   1.786   4.183
10287SOL     OW31759   2.149   6.230   1.762
10287SOL    HW131760   2.104   6.295   1.823
10287SOL    HW231761   2.205   6.279   1.695
10288SOL     OW31762   3.247   6.958   4.844
10288SOL    HW131763   3.168   6.901   4.821
10288SOL    HW231764   3.307   6.909   4.907
10289SOL     OW31765   3.412   6.428   0.457
10289SOL    HW131766   3.371   6.350   0.410
10289SOL    HW231767   3.356   6.451   0.537
10290SOL     OW31768   2.874   3.392   2.556
10290SOL    HW131769   2.912   3.302   2.578
10290SOL    HW231770   2.891   3.412   2.460
10291SOL     OW31771   3.434   0.652   2.720
10291SOL    HW131772   3.487   0.572   2.746
10291SOL    HW231773   3.338   0.638   2.742
10292SOL     OW31774   0.003   0.751   6.293
10292SOL    HW131775   6.939   0.708   6.260
10292SOL    HW231776   7.004   0.799   6.379
10293SOL     OW31777   0.849   3.627   3.992
10293SOL    HW131778   0.776   3.692   3.974
10293SOL    HW231779   0.810   3.537   4.012
10294SOL     OW31780   3.431   1.971   2.636
10294SOL    HW131781   3.451   2.068   2.653
10294SOL    HW231782   3.437   1.920   2.722
10295SOL     OW31783   1.107   2.527   6.334
10295SOL    HW131784   1.124   2.526   6.432
10295SOL    HW231785   1.037   2.459   6.312
10296SOL     OW31786   5.624   0.957   5.864
10296SOL    HW131787   5.579   0.878   5.906
10296SOL    HW231788   5.641   0.938   5.767
10297SOL     OW31789   3.190   1.982   6.661
10297SOL    HW131790   3.115   1.948   6.717
10297SOL    HW231791   3.272   1.928   6.680
10298SOL     OW31792   1.332   3.868   2.166
10298SOL    HW131793   1.307   3.939   2.100
10298SOL    HW231794   1.386   3.798   2.120
10299SOL     OW31795   4.933   6.600   2.527
10299SOL    HW131796   4.935   6.697   2.503
10299SOL    HW231797   4.955   6.590   2.624
10300SOL     OW31798   1.293   4.008   1.930
10300SOL    HW131799   1.267   4.096   1.890
10300SOL    HW231800   1.351   3.958   1.866
10301SOL     OW31801   4.012   1.235   5.525
10301SOL    HW131802   3.996   1.202   5.432
10301SOL    HW231803   3.943   1.197   5.587
10302SOL     OW31804   2.844   6.376   4.180
10302SOL    HW131805   2.837   6.425   4.093
10302SOL    HW231806   2.816   6.281   4.166
10303SOL     OW31807   1.157   5.837   4.027
10303SOL    HW131808   1.165   5.892   3.943
10303SOL    HW231809   1.086   5.768   4.015
10304SOL     OW31810   6.492   0.017   6.991
10304SOL    HW131811   6.568   0.076   7.019
10304SOL    HW231812   6.498   6.951   0.021
10305SOL     OW31813   2.820   3.585   5.871
10305SOL    HW131814   2.820   3.676   5.828
10305SOL    HW231815   2.736   3.536   5.847
10306SOL     OW31816   5.611   0.110   0.923
10306SOL    HW131817   5.633   0.172   0.998
10306SOL    HW231818   5.524   0.136   0.882
10307SOL     OW31819   2.975   1.008   4.277
10307SOL    HW131820   3.036   1.088   4.275
10307SOL    HW231821   3.013   0.940   4.339
10308SOL     OW31822   2.122   4.507   2.705
10308SOL    HW131823   2.213   4.469   2.722
10308SOL    HW231824   2.122   4.559   2.620
10309SOL     OW31825   5.695   0.435   5.432
10309SOL    HW131826   5.615   0.490   5.408
10309SOL    HW231827   5.694   0.418   5.531
10310SOL     OW31828   2.596   3.231   6.889
10310SOL    HW131829   2.515   3.276   6.852
10310SOL    HW231830   2.611   3.143   6.843
10311SOL     OW31831   5.530   5.652   6.870
10311SOL    HW131832   5.519   5.731   6.810
10311SOL    HW231833   5.613   5.602   6.845
10312SOL     OW31834   4.226   6.922   1.974
10312SOL    HW131835   4.268   6.966   2.053
10312SOL    HW231836   4.139   6.882   2.001
10313SOL     OW31837   4.471   5.573   2.993
10313SOL    HW131838   4.418   5.579   3.077
10313SOL    HW231839   4.481   5.664   2.952
10314SOL     OW31840   0.580   0.325   6.849
10314SOL    HW131841   0.624   0.270   6.778
10314SOL    HW231842   0.644   0.395   6.881
10315SOL     OW31843   5.021   6.352   3.689
10315SOL    HW131844   5.077   6.427   3.652
10315SOL    HW231845   4.956   6.323   3.619
10316SOL     OW31846   6.713   1.604   6.272
10316SOL    HW131847   6.804   1.587   6.235
10316SOL    HW231848   6.653   1.528   6.248
10317SOL     OW31849   3.437   5.936   5.982
10317SOL    HW131850   3.473   5.923   6.074
10317SOL    HW231851   3.398   5.850   5.949
10318SOL     OW31852   5.278   0.160   6.840
10318SOL    HW131853   5.207   0.146   6.909
10318SOL    HW231854   5.235   0.173   6.750
10319SOL     OW31855   0.393   4.856   5.110
10319SOL    HW131856   0.428   4.789   5.044
10319SOL    HW231857   0.427   4.947   5.086
10320SOL     OW31858   0.006   0.345   3.632
10320SOL    HW131859   0.057   0.360   3.717
10320SOL    HW231860   6.971   0.426   3.612
10321SOL     OW31861   6.061   2.104   1.905
10321SOL    HW131862   6.065   2.005   1.901
10321SOL    HW231863   5.981   2.132   1.958
10322SOL     OW31864   4.255   4.715   4.545
10322SOL    HW131865   4.283   4.649   4.476
10322SOL    HW231866   4.303   4.697   4.631
10323SOL     OW31867   6.192   4.317   5.356
10323SOL    HW131868   6.219   4.412   5.374
10323SOL    HW231869   6.265   4.256   5.386
10324SOL     OW31870   2.949   3.676   2.421
10324SOL    HW131871   2.940   3.667   2.520
10324SOL    HW231872   2.984   3.590   2.383
10325SOL     OW31873   0.230   5.598   2.582
10325SOL    HW131874   0.277   5.586   2.670
10325SOL    HW231875   0.296   5.628   2.513
10326SOL     OW31876   5.496   3.847   6.820
10326SOL    HW131877   5.529   3.817   6.730
10326SOL    HW231878   5.500   3.770   6.884
10327SOL     OW31879   2.559   3.622   1.026
10327SOL    HW131880   2.632   3.553   1.025
10327SOL    HW231881   2.510   3.617   1.113
10328SOL     OW31882   6.509   3.171   2.403
10328SOL    HW131883   6.544   3.263   2.423
10328SOL    HW231884   6.524   3.111   2.482
10329SOL     OW31885   3.163   0.658   2.811
10329SOL    HW131886   3.083   0.630   2.757
10329SOL    HW231887   3.149   0.633   2.907
10330SOL     OW31888   4.788   0.531   0.793
10330SOL    HW131889   4.871   0.574   0.828
10330SOL    HW231890   4.775   0.555   0.697
10331SOL     OW31891   6.304   6.369   6.690
10331SOL    HW131892   6.318   6.273   6.665
10331SOL    HW231893   6.387   6.405   6.732
10332SOL     OW31894   0.949   0.726   6.621
10332SOL    HW131895   0.972   0.761   6.530
10332SOL    HW231896   1.033   0.701   6.669
10333SOL     OW31897   0.602   5.537   4.540
10333SOL    HW131898   0.552   5.453   4.520
10333SOL    HW231899   0.574   5.608   4.475
10334SOL     OW31900   3.258   7.014   4.304
10334SOL    HW131901   3.189   0.007   4.375
10334SOL    HW231902   3.344   0.035   4.332
10335SOL     OW31903   0.652   4.757   6.650
10335SOL    HW131904   0.652   4.689   6.723
10335SOL    HW231905   0.735   4.745   6.594
10336SOL     OW31906   6.441   6.837   2.249
10336SOL    HW131907   6.460   6.901   2.176
10336SOL    HW231908   6.525   6.816   2.299
10337SOL     OW31909   6.399   5.551   0.294
10337SOL    HW131910   6.302   5.558   0.318
10337SOL    HW231911   6.410   5.558   0.195
10338SOL     OW31912   2.155   6.614   2.069
10338SOL    HW131913   2.213   6.603   1.988
10338SOL    HW231914   2.115   6.705   2.069
10339SOL     OW31915   6.226   3.641   6.310
10339SOL    HW131916   6.132   3.673   6.297
10339SOL    HW231917   6.225   3.543   6.333
10340SOL     OW31918   1.826   2.873   6.560
10340SOL    HW131919   1.913   2.825   6.566
10340SOL    HW231920   1.770   2.833   6.488
10341SOL     OW31921   2.076   3.385   2.196
10341SOL    HW131922   1.996   3.441   2.174
10341SOL    HW231923   2.149   3.405   2.131
10342SOL     OW31924   1.737   0.769   3.553
10342SOL    HW131925   1.729   0.684   3.605
10342SOL    HW231926   1.648   0.795   3.516
10343SOL     OW31927   2.470   5.285   0.713
10343SOL    HW131928   2.387   5.240   0.747
10343SOL    HW231929   2.515   5.225   0.646
10344SOL     OW31930   3.483   3.648   6.534
10344SOL    HW131931   3.398   3.687   6.568
10344SOL    HW231932   3.509   3.694   6.449
10345SOL     OW31933   1.175   2.992   5.354
10345SOL    HW131934   1.178   3.021   5.259
10345SOL    HW231935   1.258   2.943   5.377
10346SOL     OW31936   0.371   5.694   1.466
10346SOL    HW131937   0.315   5.624   1.421
10346SOL    HW231938   0.345   5.699   1.563
10347SOL     OW31939   4.283   1.355   3.558
10347SOL    HW131940   4.381   1.341   3.571
10347SOL    HW231941   4.232   1.286   3.610
10348SOL     OW31942   6.212   2.972   0.513
10348SOL    HW131943   6.290   2.921   0.478
10348SOL    HW231944   6.235   3.014   0.601
10349SOL     OW31945   0.904   7.020   6.640
10349SOL    HW131946   0.932   0.002   6.736
10349SOL    HW231947   0.825   0.059   6.627
10350SOL     OW31948   2.743   5.958   5.116
10350SOL    HW131949   2.720   6.055   5.105
10350SOL    HW231950   2.815   5.948   5.183
10351SOL     OW31951   4.927   5.392   5.757
10351SOL    HW131952   4.915   5.339   5.673
10351SOL    HW231953   4.860   5.466   5.759
10352SOL     OW31954   3.638   1.092   6.241
10352SOL    HW131955   3.566   1.023   6.235
10352SOL    HW231956   3.723   1.055   6.203
10353SOL     OW31957   6.672   3.104   4.578
10353SOL    HW131958   6.604   3.164   4.618
10353SOL    HW231959   6.764   3.137   4.601
10354SOL     OW31960   5.423   0.794   1.556
10354SOL    HW131961   5.466   0.844   1.630
10354SOL    HW231962   5.474   0.809   1.471
10355SOL     OW31963   2.425   6.399   2.128
10355SOL    HW131964   2.389   6.411   2.221
10355SOL    HW231965   2.410   6.483   2.075
10356SOL     OW31966   6.627   3.950   5.532
10356SOL    HW131967   6.614   4.018   5.460
10356SOL    HW231968   6.716   3.963   5.575
10357SOL     OW31969   2.465   2.294   6.547
10357SOL    HW131970   2.486   2.318   6.452
10357SOL    HW231971   2.367   2.306   6.563
10358SOL     OW31972   0.187   2.571   2.781
10358SOL    HW131973   0.265   2.571   2.844
10358SOL    HW231974   0.182   2.659   2.734
10359SOL     OW31975   0.220   1.532   1.462
10359SOL    HW131976   0.317   1.547   1.441
10359SOL    HW231977   0.191   1.444   1.426
10360SOL     OW31978   4.961   6.256   3.015
10360SOL    HW131979   5.043   6.310   3.035
10360SOL    HW231980   4.988   6.163   2.989
10361SOL     OW31981   3.161   5.756   2.515
10361SOL    HW131982   3.134   5.682   2.577
10361SOL    HW231983   3.201   5.831   2.568
10362SOL     OW31984   2.216   4.766   4.883
10362SOL    HW131985   2.299   4.766   4.938
10362SOL    HW231986   2.201   4.674   4.846
10363SOL     OW31987   5.284   0.398   2.672
10363SOL    HW131988   5.258   0.341   2.595
10363SOL    HW231989   5.278   0.494   2.647
10364SOL     OW31990   2.377   4.013   1.240
10364SOL    HW131991   2.355   3.972   1.329
10364SOL    HW231992   2.295   4.055   1.202
10365SOL     OW31993   4.518   5.200   0.227
10365SOL    HW131994   4.576   5.197   0.145
10365SOL    HW231995   4.484   5.293   0.240
10366SOL     OW31996   2.584   6.914   3.889
10366SOL    HW131997   2.677   6.950   3.901
10366SOL    HW231998   2.533   6.925   3.974
10367SOL     OW31999   6.174   2.396   3.007
10367SOL    HW132000   6.134   2.326   2.948
10367SOL    HW232001   6.111   2.416   3.082
10368SOL     OW32002   2.121   1.228   2.279
10368SOL    HW132003   2.210   1.183   2.278
10368SOL    HW232004   2.093   1.245   2.374
10369SOL     OW32005   3.820   1.670   0.896
10369SOL    HW132006   3.738   1.639   0.943
10369SOL    HW232007   3.901   1.629   0.939
10370SOL     OW32008   4.088   1.006   5.106
10370SOL    HW132009   4.131   0.924   5.144
10370SOL    HW232010   4.008   0.979   5.051
10371SOL     OW32011   4.329   5.946   5.142
10371SOL    HW132012   4.286   6.037   5.137
10371SOL    HW232013   4.422   5.951   5.107
10372SOL     OW32014   2.237   0.975   4.271
10372SOL    HW132015   2.327   1.011   4.294
10372SOL    HW232016   2.220   0.892   4.324
10373SOL     OW32017   0.927   6.282   4.480
10373SOL    HW132018   0.947   6.248   4.571
10373SOL    HW232019   0.860   6.356   4.486
10374SOL     OW32020   3.262   1.822   3.162
10374SOL    HW132021   3.247   1.902   3.104
10374SOL    HW232022   3.180   1.765   3.160
10375SOL     OW32023   5.585   2.318   1.102
10375SOL    HW132024   5.639   2.234   1.111
10375SOL    HW232025   5.543   2.340   1.190
10376SOL     OW32026   0.056   1.277   3.569
10376SOL    HW132027   0.141   1.241   3.529
10376SOL    HW232028   0.060   1.269   3.669
10377SOL     OW32029   0.192   0.558   4.053
10377SOL    HW132030   0.182   0.461   4.029
10377SOL    HW232031   0.288   0.584   4.043
10378SOL     OW32032   6.660   0.449   6.259
10378SOL    HW132033   6.587   0.517   6.245
10378SOL    HW232034   6.620   0.364   6.292
10379SOL     OW32035   5.442   0.435   4.554
10379SOL    HW132036   5.504   0.468   4.624
10379SOL    HW232037   5.416   0.510   4.494
10380SOL     OW32038   5.417   0.097   2.629
10380SOL    HW132039   5.498   0.089   2.688
10380SOL    HW232040   5.364   0.012   2.634
10381SOL     OW32041   4.823   5.032   5.716
10381SOL    HW132042   4.766   4.956   5.687
10381SOL    HW232043   4.860   5.079   5.636
10382SOL     OW32044   2.476   5.654   6.457
10382SOL    HW132045   2.397   5.621   6.405
10382SOL    HW232046   2.453   5.658   6.554
10383SOL     OW32047   0.914   2.547   1.401
10383SOL    HW132048   0.826   2.504   1.381
10383SOL    HW232049   0.945   2.597   1.320
10384SOL     OW32050   6.717   6.771   0.352
10384SOL    HW132051   6.649   6.741   0.418
10384SOL    HW232052   6.805   6.727   0.373
10385SOL     OW32053   6.321   0.988   6.104
10385SOL    HW132054   6.329   0.995   6.204
10385SOL    HW232055   6.254   1.056   6.072
10386SOL     OW32056   6.307   2.697   5.048
10386SOL    HW132057   6.365   2.754   4.990
10386SOL    HW232058   6.261   2.754   5.116
10387SOL     OW32059   1.844   3.061   3.308
10387SOL    HW132060   1.881   2.968   3.308
10387SOL    HW232061   1.744   3.056   3.307
10388SOL     OW32062   1.389   4.943   3.184
10388SOL    HW132063   1.384   4.944   3.283
10388SOL    HW232064   1.296   4.951   3.146
10389SOL     OW32065   0.846   4.757   3.799
10389SOL    HW132066   0.828   4.678   3.740
10389SOL    HW232067   0.818   4.736   3.893
10390SOL     OW32068   1.091   3.102   3.310
10390SOL    HW132069   1.111   3.199   3.297
10390SOL    HW232070   1.061   3.086   3.404
10391SOL     OW32071   2.489   6.488   6.584
10391SOL    HW132072   2.552   6.563   6.564
10391SOL    HW232073   2.452   6.451   6.498
10392SOL     OW32074   6.470   5.273   0.617
10392SOL    HW132075   6.532   5.318   0.681
10392SOL    HW232076   6.468   5.175   0.636
10393SOL     OW32077   0.618   1.099   4.235
10393SOL    HW132078   0.616   1.040   4.155
10393SOL    HW232079   0.712   1.123   4.257
10394SOL     OW32080   2.305   6.392   0.012
10394SOL    HW132081   2.333   6.322   6.966
10394SOL    HW232082   2.295   6.350   0.102
10395SOL     OW32083   0.231   0.876   4.948
10395SOL    HW132084   0.149   0.819   4.946
10395SOL    HW232085   0.305   0.827   4.993
10396SOL     OW32086   0.990   6.985   4.790
10396SOL    HW132087   0.948   6.896   4.773
10396SOL    HW232088   1.046   6.981   4.873
10397SOL     OW32089   3.567   1.519   3.285
10397SOL    HW132090   3.635   1.521   3.358
10397SOL    HW232091   3.609   1.484   3.201
10398SOL     OW32092   6.115   2.684   2.113
10398SOL    HW132093   6.194   2.642   2.158
10398SOL    HW232094   6.139   2.778   2.087
10399SOL     OW32095   5.553   2.715   5.071
10399SOL    HW132096   5.508   2.795   5.109
10399SOL    HW232097   5.492   2.670   5.005
10400SOL     OW32098   2.725   5.586   2.236
10400SOL    HW132099   2.665   5.590   2.315
10400SOL    HW232100   2.730   5.676   2.192
10401SOL     OW32101   0.897   5.935   2.027
10401SOL    HW132102   0.849   5.871   2.088
10401SOL    HW232103   0.834   6.008   2.000
10402SOL     OW32104   0.679   3.187   4.687
10402SOL    HW132105   0.643   3.129   4.614
10402SOL    HW232106   0.634   3.276   4.684
10403SOL     OW32107   5.730   1.128   1.931
10403SOL    HW132108   5.699   1.215   1.894
10403SOL    HW232109   5.784   1.080   1.863
10404SOL     OW32110   0.576   6.562   3.738
10404SOL    HW132111   0.585   6.623   3.816
10404SOL    HW232112   0.581   6.467   3.769
10405SOL     OW32113   1.791   6.431   5.854
10405SOL    HW132114   1.784   6.346   5.802
10405SOL    HW232115   1.837   6.413   5.941
10406SOL     OW32116   2.336   4.227   5.910
10406SOL    HW132117   2.381   4.214   5.999
10406SOL    HW232118   2.383   4.173   5.840
10407SOL     OW32119   0.673   2.329   6.951
10407SOL    HW132120   0.587   2.338   6.900
10407SOL    HW232121   0.657   2.352   0.027
10408SOL     OW32122   4.707   5.329   3.074
10408SOL    HW132123   4.773   5.321   2.999
10408SOL    HW232124   4.755   5.346   3.160
10409SOL     OW32125   0.194   4.544   2.208
10409SOL    HW132126   0.109   4.523   2.255
10409SOL    HW232127   0.263   4.475   2.231
10410SOL     OW32128   4.642   0.364   0.976
10410SOL    HW132129   4.707   0.290   0.991
10410SOL    HW232130   4.681   0.431   0.914
10411SOL     OW32131   2.356   4.404   3.011
10411SOL    HW132132   2.343   4.503   3.020
10411SOL    HW232133   2.361   4.362   3.101
10412SOL     OW32134   0.831   2.130   0.378
10412SOL    HW132135   0.866   2.052   0.429
10412SOL    HW232136   0.807   2.101   0.285
10413SOL     OW32137   6.856   2.593   6.961
10413SOL    HW132138   6.921   2.573   6.888
10413SOL    HW232139   6.901   2.652   0.009
10414SOL     OW32140   5.691   6.573   5.986
10414SOL    HW132141   5.674   6.505   6.058
10414SOL    HW232142   5.773   6.546   5.935
10415SOL     OW32143   0.678   6.085   3.646
10415SOL    HW132144   0.742   6.063   3.720
10415SOL    HW232145   0.724   6.079   3.558
10416SOL     OW32146   5.977   1.376   5.036
10416SOL    HW132147   5.977   1.357   5.135
10416SOL    HW232148   6.061   1.340   4.995
10417SOL     OW32149   3.933   4.853   4.020
10417SOL    HW132150   4.010   4.794   4.043
10417SOL    HW232151   3.954   4.947   4.048
10418SOL     OW32152   6.343   3.771   7.016
10418SOL    HW132153   6.381   3.679   7.011
10418SOL    HW232154   6.299   3.793   6.928
10419SOL     OW32155   3.185   0.876   4.379
10419SOL    HW132156   3.228   0.965   4.391
10419SOL    HW232157   3.221   0.811   4.446
10420SOL     OW32158   6.882   3.812   3.417
10420SOL    HW132159   6.877   3.864   3.331
10420SOL    HW232160   6.929   3.866   3.486
10421SOL     OW32161   1.165   4.350   4.596
10421SOL    HW132162   1.073   4.316   4.614
10421SOL    HW232163   1.164   4.450   4.593
10422SOL     OW32164   6.455   3.616   4.807
10422SOL    HW132165   6.442   3.530   4.856
10422SOL    HW232166   6.553   3.633   4.795
10423SOL     OW32167   3.497   5.028   4.040
10423SOL    HW132168   3.416   5.068   4.084
10423SOL    HW232169   3.511   4.936   4.076
10424SOL     OW32170   3.519   1.219   0.295
10424SOL    HW132171   3.579   1.142   0.315
10424SOL    HW232172   3.425   1.186   0.284
10425SOL     OW32173   2.046   1.588   0.880
10425SOL    HW132174   2.002   1.596   0.969
10425SOL    HW232175   1.995   1.641   0.812
10426SOL     OW32176   6.082   2.230   6.016
10426SOL    HW132177   6.159   2.269   6.066
10426SOL    HW232178   6.107   2.221   5.919
10427SOL     OW32179   5.634   6.915   4.086
10427SOL    HW132180   5.673   6.902   4.177
10427SOL    HW232181   5.703   6.895   4.016
10428SOL     OW32182   2.383   0.495   4.106
10428SOL    HW132183   2.339   0.458   4.187
10428SOL    HW232184   2.325   0.480   4.026
10429SOL     OW32185   0.668   2.869   2.170
10429SOL    HW132186   0.667   2.799   2.099
10429SOL    HW232187   0.752   2.923   2.163
10430SOL     OW32188   3.073   0.099   3.435
10430SOL    HW132189   3.022   0.119   3.519
10430SOL    HW232190   3.043   0.012   3.397
10431SOL     OW32191   3.319   0.471   3.181
10431SOL    HW132192   3.404   0.518   3.156
10431SOL    HW232193   3.256   0.536   3.223
10432SOL     OW32194   0.875   5.465   5.794
10432SOL    HW132195   0.901   5.481   5.889
10432SOL    HW232196   0.952   5.488   5.735
10433SOL     OW32197   2.466   0.022   2.760
10433SOL    HW132198   2.551   6.998   2.732
10433SOL    HW232199   2.400   6.972   2.789
10434SOL     OW32200   4.446   6.864   5.647
10434SOL    HW132201   4.372   6.930   5.661
10434SOL    HW232202   4.481   6.834   5.736
10435SOL     OW32203   2.367   1.865   0.094
10435SOL    HW132204   2.446   1.804   0.095
10435SOL    HW232205   2.385   1.942   0.033
10436SOL     OW32206   6.203   3.565   5.088
10436SOL    HW132207   6.225   3.637   5.021
10436SOL    HW232208   6.108   3.575   5.117
10437SOL     OW32209   5.397   6.270   4.713
10437SOL    HW132210   5.298   6.269   4.703
10437SOL    HW232211   5.432   6.177   4.699
10438SOL     OW32212   6.807   6.516   6.676
10438SOL    HW132213   6.817   6.422   6.709
10438SOL    HW232214   6.769   6.516   6.584
10439SOL     OW32215   6.847   6.360   5.221
10439SOL    HW132216   6.880   6.430   5.285
10439SOL    HW232217   6.891   6.374   5.132
10440SOL     OW32218   0.043   2.558   0.381
10440SOL    HW132219   0.101   2.613   0.442
10440SOL    HW232220   7.012   2.492   0.435
10441SOL     OW32221   3.811   1.844   0.690
10441SOL    HW132222   3.813   1.763   0.632
10441SOL    HW232223   3.806   1.816   0.786
10442SOL     OW32224   2.325   1.598   6.014
10442SOL    HW132225   2.281   1.680   6.052
10442SOL    HW232226   2.422   1.598   6.038
10443SOL     OW32227   0.362   1.450   3.266
10443SOL    HW132228   0.428   1.480   3.334
10443SOL    HW232229   0.279   1.505   3.274
10444SOL     OW32230   3.900   5.898   4.274
10444SOL    HW132231   3.813   5.872   4.232
10444SOL    HW232232   3.968   5.912   4.202
10445SOL     OW32233   1.197   4.111   2.968
10445SOL    HW132234   1.204   4.027   3.022
10445SOL    HW232235   1.138   4.094   2.889
10446SOL     OW32236   1.781   4.153   5.564
10446SOL    HW132237   1.760   4.248   5.541
10446SOL    HW232238   1.796   4.101   5.479
10447SOL     OW32239   0.358   2.269   2.982
10447SOL    HW132240   0.385   2.277   2.886
10447SOL    HW232241   0.433   2.228   3.034
10448SOL     OW32242   2.742   6.135   2.783
10448SOL    HW132243   2.669   6.070   2.763
10448SOL    HW232244   2.702   6.218   2.823
10449SOL     OW32245   3.897   5.334   5.048
10449SOL    HW132246   3.901   5.433   5.062
10449SOL    HW232247   3.966   5.306   4.980
10450SOL     OW32248   0.010   0.863   6.012
10450SOL    HW132249   6.986   0.834   6.097
10450SOL    HW232250   6.973   0.929   5.965
10451SOL     OW32251   2.769   0.914   3.342
10451SOL    HW132252   2.845   0.867   3.386
10451SOL    HW232253   2.732   0.856   3.269
10452SOL     OW32254   0.131   3.711   4.518
10452SOL    HW132255   0.105   3.620   4.486
10452SOL    HW232256   0.210   3.702   4.579
10453SOL     OW32257   3.845   5.827   3.549
10453SOL    HW132258   3.933   5.854   3.589
10453SOL    HW232259   3.819   5.737   3.583
10454SOL     OW32260   6.550   0.860   6.023
10454SOL    HW132261   6.542   0.845   5.924
10454SOL    HW232262   6.459   0.881   6.060
10455SOL     OW32263   6.288   6.082   3.625
10455SOL    HW132264   6.358   6.151   3.642
10455SOL    HW232265   6.321   5.992   3.652
10456SOL     OW32266   1.133   5.121   6.946
10456SOL    HW132267   1.216   5.162   6.907
10456SOL    HW232268   1.133   5.023   6.929
10457SOL     OW32269   3.409   2.464   6.537
10457SOL    HW132270   3.457   2.501   6.457
10457SOL    HW232271   3.473   2.408   6.590
10458SOL     OW32272   6.826   5.908   6.554
10458SOL    HW132273   6.758   5.835   6.561
10458SOL    HW232274   6.781   5.991   6.522
10459SOL     OW32275   0.016   5.093   0.204
10459SOL    HW132276   0.090   5.159   0.191
10459SOL    HW232277   6.970   5.129   0.269
10460SOL     OW32278   0.592   2.276   0.494
10460SOL    HW132279   0.500   2.242   0.472
10460SOL    HW232280   0.657   2.235   0.430
10461SOL     OW32281   6.697   5.234   5.827
10461SOL    HW132282   6.788   5.268   5.851
10461SOL    HW232283   6.704   5.162   5.758
10462SOL     OW32284   4.199   1.998   0.926
10462SOL    HW132285   4.154   1.951   0.851
10462SOL    HW232286   4.196   2.097   0.910
10463SOL     OW32287   4.769   2.832   6.250
10463SOL    HW132288   4.731   2.885   6.326
10463SOL    HW232289   4.695   2.787   6.200
10464SOL     OW32290   6.376   4.986   2.119
10464SOL    HW132291   6.280   4.967   2.098
10464SOL    HW232292   6.430   4.980   2.036
10465SOL     OW32293   5.146   4.484   1.557
10465SOL    HW132294   5.181   4.505   1.465
10465SOL    HW232295   5.181   4.395   1.586
10466SOL     OW32296   6.011   4.966   6.897
10466SOL    HW132297   5.990   4.939   6.991
10466SOL    HW232298   5.939   5.027   6.864
10467SOL     OW32299   1.315   2.607   6.908
10467SOL    HW132300   1.323   2.705   6.921
10467SOL    HW232301   1.405   2.564   6.915
10468SOL     OW32302   2.783   4.709   3.497
10468SOL    HW132303   2.732   4.728   3.413
10468SOL    HW232304   2.875   4.748   3.490
10469SOL     OW32305   6.761   1.348   4.493
10469SOL    HW132306   6.854   1.379   4.475
10469SOL    HW232307   6.711   1.344   4.406
10470SOL     OW32308   2.228   2.859   3.526
10470SOL    HW132309   2.308   2.854   3.466
10470SOL    HW232310   2.252   2.819   3.615
10471SOL     OW32311   3.512   6.983   6.910
10471SOL    HW132312   3.430   6.937   6.878
10471SOL    HW232313   3.549   6.935   6.989
10472SOL     OW32314   3.570   5.136   6.333
10472SOL    HW132315   3.530   5.218   6.374
10472SOL    HW232316   3.608   5.078   6.405
10473SOL     OW32317   5.013   5.497   0.195
10473SOL    HW132318   5.033   5.484   0.098
10473SOL    HW232319   4.998   5.408   0.239
10474SOL     OW32320   5.027   1.011   3.908
10474SOL    HW132321   5.067   0.921   3.927
10474SOL    HW232322   5.068   1.079   3.969
10475SOL     OW32323   1.186   6.872   1.300
10475SOL    HW132324   1.095   6.890   1.336
10475SOL    HW232325   1.254   6.921   1.355
10476SOL     OW32326   3.476   5.563   6.692
10476SOL    HW132327   3.501   5.468   6.676
10476SOL    HW232328   3.548   5.623   6.656
10477SOL     OW32329   6.409   5.844   3.681
10477SOL    HW132330   6.483   5.790   3.641
10477SOL    HW232331   6.356   5.786   3.742
10478SOL     OW32332   5.699   0.706   0.266
10478SOL    HW132333   5.629   0.672   0.328
10478SOL    HW232334   5.718   0.802   0.285
10479SOL     OW32335   1.045   2.456   1.919
10479SOL    HW132336   1.142   2.447   1.894
10479SOL    HW232337   0.998   2.370   1.902
10480SOL     OW32338   2.186   0.106   2.529
10480SOL    HW132339   2.207   0.169   2.454
10480SOL    HW232340   2.224   0.141   2.614
10481SOL     OW32341   0.115   1.459   2.337
10481SOL    HW132342   0.082   1.488   2.427
10481SOL    HW232343   0.186   1.390   2.349
10482SOL     OW32344   5.023   4.110   4.210
10482SOL    HW132345   5.001   4.102   4.307
10482SOL    HW232346   5.065   4.199   4.192
10483SOL     OW32347   6.139   6.094   0.070
10483SOL    HW132348   6.065   6.029   0.090
10483SOL    HW232349   6.138   6.167   0.139
10484SOL     OW32350   6.291   0.819   2.155
10484SOL    HW132351   6.368   0.801   2.093
10484SOL    HW232352   6.208   0.775   2.119
10485SOL     OW32353   5.805   3.671   5.434
10485SOL    HW132354   5.796   3.578   5.397
10485SOL    HW232355   5.726   3.726   5.407
10486SOL     OW32356   5.365   2.807   1.662
10486SOL    HW132357   5.460   2.830   1.642
10486SOL    HW232358   5.306   2.848   1.592
10487SOL     OW32359   5.994   6.854   1.953
10487SOL    HW132360   6.089   6.822   1.951
10487SOL    HW232361   5.934   6.785   1.913
10488SOL     OW32362   2.478   2.343   6.266
10488SOL    HW132363   2.417   2.275   6.226
10488SOL    HW232364   2.543   2.374   6.196
10489SOL     OW32365   0.583   5.757   6.029
10489SOL    HW132366   0.582   5.787   5.933
10489SOL    HW232367   0.628   5.668   6.035
10490SOL     OW32368   6.786   1.319   3.477
10490SOL    HW132369   6.873   1.271   3.468
10490SOL    HW232370   6.797   1.414   3.448
10491SOL     OW32371   1.649   4.425   5.898
10491SOL    HW132372   1.737   4.381   5.914
10491SOL    HW232373   1.584   4.358   5.861
10492SOL     OW32374   5.172   3.431   5.199
10492SOL    HW132375   5.191   3.348   5.251
10492SOL    HW232376   5.074   3.449   5.198
10493SOL     OW32377   3.247   1.387   1.615
10493SOL    HW132378   3.254   1.345   1.706
10493SOL    HW232379   3.267   1.319   1.545
10494SOL     OW32380   6.116   2.194   4.374
10494SOL    HW132381   6.191   2.128   4.371
10494SOL    HW232382   6.073   2.192   4.464
10495SOL     OW32383   1.365   6.507   0.652
10495SOL    HW132384   1.445   6.481   0.708
10495SOL    HW232385   1.357   6.444   0.575
10496SOL     OW32386   0.185   0.161   6.108
10496SOL    HW132387   0.240   0.080   6.131
10496SOL    HW232388   0.129   0.186   6.186
10497SOL     OW32389   1.393   0.992   0.955
10497SOL    HW132390   1.379   0.894   0.971
10497SOL    HW232391   1.461   1.004   0.883
10498SOL     OW32392   2.428   6.547   6.073
10498SOL    HW132393   2.493   6.623   6.067
10498SOL    HW232394   2.413   6.509   5.982
10499SOL     OW32395   3.396   5.999   3.332
10499SOL    HW132396   3.297   6.003   3.338
10499SOL    HW232397   3.435   5.998   3.425
10500SOL     OW32398   1.436   1.943   6.034
10500SOL    HW132399   1.348   1.984   6.006
10500SOL    HW232400   1.431   1.916   6.130
10501SOL     OW32401   1.434   3.759   2.951
10501SOL    HW132402   1.475   3.812   2.877
10501SOL    HW232403   1.363   3.700   2.914
10502SOL     OW32404   3.279   6.349   6.472
10502SOL    HW132405   3.375   6.332   6.449
10502SOL    HW232406   3.264   6.330   6.569
10503SOL     OW32407   3.290   2.655   0.004
10503SOL    HW132408   3.381   2.658   0.046
10503SOL    HW232409   3.285   2.578   6.961
10504SOL     OW32410   2.913   3.527   0.935
10504SOL    HW132411   2.870   3.606   0.891
10504SOL    HW232412   2.952   3.554   1.023
10505SOL     OW32413   6.825   6.046   1.580
10505SOL    HW132414   6.754   5.990   1.622
10505SOL    HW232415   6.825   6.030   1.481
10506SOL     OW32416   0.492   3.817   5.843
10506SOL    HW132417   0.395   3.820   5.870
10506SOL    HW232418   0.540   3.751   5.901
10507SOL     OW32419   1.045   0.366   6.004
10507SOL    HW132420   1.048   0.276   6.046
10507SOL    HW232421   1.109   0.369   5.927
10508SOL     OW32422   5.500   4.364   2.935
10508SOL    HW132423   5.469   4.384   3.028
10508SOL    HW232424   5.579   4.420   2.912
10509SOL     OW32425   1.378   6.710   6.790
10509SOL    HW132426   1.454   6.695   6.853
10509SOL    HW232427   1.414   6.731   6.699
10510SOL     OW32428   6.174   5.657   0.142
10510SOL    HW132429   6.159   5.558   0.138
10510SOL    HW232430   6.182   5.694   0.050
10511SOL     OW32431   4.373   2.833   0.656
10511SOL    HW132432   4.288   2.813   0.607
10511SOL    HW232433   4.383   2.932   0.666
10512SOL     OW32434   4.065   6.964   5.787
10512SOL    HW132435   4.097   6.876   5.754
10512SOL    HW232436   4.008   6.951   5.868
10513SOL     OW32437   0.792   2.576   6.679
10513SOL    HW132438   0.705   2.579   6.728
10513SOL    HW232439   0.861   2.531   6.735
10514SOL     OW32440   0.455   4.562   0.398
10514SOL    HW132441   0.426   4.587   0.305
10514SOL    HW232442   0.374   4.536   0.452
10515SOL     OW32443   6.948   1.985   3.586
10515SOL    HW132444   6.909   2.069   3.624
10515SOL    HW232445   6.880   1.940   3.528
10516SOL     OW32446   4.045   1.005   5.904
10516SOL    HW132447   4.056   0.934   5.834
10516SOL    HW232448   4.054   0.963   5.995
10517SOL     OW32449   6.500   1.394   2.268
10517SOL    HW132450   6.404   1.421   2.262
10517SOL    HW232451   6.506   1.301   2.305
10518SOL     OW32452   0.575   6.569   0.992
10518SOL    HW132453   0.552   6.471   0.991
10518SOL    HW232454   0.662   6.582   1.039
10519SOL     OW32455   3.362   3.172   5.818
10519SOL    HW132456   3.420   3.252   5.800
10519SOL    HW232457   3.298   3.160   5.742
10520SOL     OW32458   3.563   2.689   6.995
10520SOL    HW132459   3.577   2.716   0.070
10520SOL    HW232460   3.649   2.695   6.945
10521SOL     OW32461   6.605   5.754   1.147
10521SOL    HW132462   6.665   5.782   1.072
10521SOL    HW232463   6.659   5.709   1.218
10522SOL     OW32464   6.667   0.584   0.932
10522SOL    HW132465   6.617   0.626   1.008
10522SOL    HW232466   6.645   0.632   0.847
10523SOL     OW32467   0.483   5.535   5.817
10523SOL    HW132468   0.529   5.504   5.901
10523SOL    HW232469   0.509   5.630   5.799
10524SOL     OW32470   2.500   0.353   4.418
10524SOL    HW132471   2.411   0.309   4.407
10524SOL    HW232472   2.488   0.452   4.420
10525SOL     OW32473   1.910   6.122   5.000
10525SOL    HW132474   2.006   6.149   5.003
10525SOL    HW232475   1.889   6.062   5.077
10526SOL     OW32476   0.057   0.964   2.451
10526SOL    HW132477   6.986   0.954   2.491
10526SOL    HW232478   0.093   1.055   2.475
10527SOL     OW32479   0.804   2.799   4.621
10527SOL    HW132480   0.723   2.749   4.590
10527SOL    HW232481   0.838   2.758   4.706
10528SOL     OW32482   7.011   4.855   5.229
10528SOL    HW132483   6.994   4.760   5.256
10528SOL    HW232484   0.002   4.860   5.130
10529SOL     OW32485   6.394   0.057   3.833
10529SOL    HW132486   6.338   0.115   3.892
10529SOL    HW232487   6.336   0.010   3.766
10530SOL     OW32488   2.729   1.985   6.265
10530SOL    HW132489   2.817   2.030   6.284
10530SOL    HW232490   2.704   2.000   6.169
10531SOL     OW32491   1.816   3.104   4.578
10531SOL    HW132492   1.787   3.109   4.482
10531SOL    HW232493   1.911   3.072   4.582
10532SOL     OW32494   4.254   2.637   6.036
10532SOL    HW132495   4.212   2.713   5.985
10532SOL    HW232496   4.260   2.557   5.977
10533SOL     OW32497   2.647   1.639   5.809
10533SOL    HW132498   2.676   1.544   5.820
10533SOL    HW232499   2.616   1.675   5.896
10534SOL     OW32500   0.325   5.331   0.423
10534SOL    HW132501   0.277   5.402   0.473
10534SOL    HW232502   0.277   5.314   0.336
10535SOL     OW32503   0.643   1.472   2.256
10535SOL    HW132504   0.559   1.473   2.311
10535SOL    HW232505   0.623   1.433   2.166
10536SOL     OW32506   4.486   0.287   2.452
10536SOL    HW132507   4.523   0.269   2.361
10536SOL    HW232508   4.422   0.213   2.476
10537SOL     OW32509   2.111   5.125   2.198
10537SOL    HW132510   2.202   5.086   2.181
10537SOL    HW232511   2.052   5.055   2.239
10538SOL     OW32512   4.190   4.235   0.292
10538SOL    HW132513   4.153   4.143   0.282
10538SOL    HW232514   4.290   4.230   0.296
10539SOL     OW32515   0.483   3.526   6.330
10539SOL    HW132516   0.439   3.535   6.420
10539SOL    HW232517   0.568   3.475   6.340
10540SOL     OW32518   1.802   0.264   6.463
10540SOL    HW132519   1.734   0.318   6.413
10540SOL    HW232520   1.760   0.180   6.496
10541SOL     OW32521   3.454   3.216   0.122
10541SOL    HW132522   3.457   3.316   0.127
10541SOL    HW232523   3.543   3.178   0.146
10542SOL     OW32524   0.238   2.411   0.238
10542SOL    HW132525   0.168   2.457   0.293
10542SOL    HW232526   0.231   2.312   0.252
10543SOL     OW32527   0.586   1.555   5.485
10543SOL    HW132528   0.589   1.595   5.577
10543SOL    HW232529   0.519   1.604   5.430
10544SOL     OW32530   2.038   1.872   2.377
10544SOL    HW132531   1.972   1.831   2.314
10544SOL    HW232532   2.131   1.854   2.344
10545SOL     OW32533   6.768   0.872   2.522
10545SOL    HW132534   6.813   0.895   2.608
10545SOL    HW232535   6.669   0.867   2.536
10546SOL     OW32536   2.248   0.192   4.419
10546SOL    HW132537   2.282   0.109   4.463
10546SOL    HW232538   2.170   0.170   4.361
10547SOL     OW32539   4.382   1.646   1.191
10547SOL    HW132540   4.360   1.696   1.107
10547SOL    HW232541   4.478   1.619   1.190
10548SOL     OW32542   5.038   3.930   4.687
10548SOL    HW132543   5.040   3.853   4.623
10548SOL    HW232544   5.053   4.015   4.637
10549SOL     OW32545   0.965   0.872   2.027
10549SOL    HW132546   0.968   0.896   1.930
10549SOL    HW232547   1.013   0.942   2.080
10550SOL     OW32548   5.666   0.168   3.971
10550SOL    HW132549   5.589   0.231   3.959
10550SOL    HW232550   5.633   0.085   4.016
10551SOL     OW32551   1.149   2.031   5.961
10551SOL    HW132552   1.103   2.002   6.044
10551SOL    HW232553   1.148   2.131   5.955
10552SOL     OW32554   3.246   2.275   5.565
10552SOL    HW132555   3.334   2.302   5.603
10552SOL    HW232556   3.239   2.308   5.471
10553SOL     OW32557   1.047   5.498   0.341
10553SOL    HW132558   1.047   5.419   0.402
10553SOL    HW232559   1.018   5.580   0.391
10554SOL     OW32560   6.705   4.903   7.006
10554SOL    HW132561   6.681   4.977   0.048
10554SOL    HW232562   6.650   4.822   0.007
10555SOL     OW32563   3.786   1.377   2.058
10555SOL    HW132564   3.814   1.407   2.149
10555SOL    HW232565   3.785   1.456   1.996
10556SOL     OW32566   1.983   3.328   5.203
10556SOL    HW132567   1.928   3.301   5.124
10556SOL    HW232568   2.047   3.254   5.226
10557SOL     OW32569   6.663   2.974   3.174
10557SOL    HW132570   6.594   3.040   3.204
10557SOL    HW232571   6.617   2.898   3.127
10558SOL     OW32572   4.636   6.015   5.438
10558SOL    HW132573   4.552   6.046   5.393
10558SOL    HW232574   4.652   6.069   5.521
10559SOL     OW32575   4.831   2.070   0.680
10559SOL    HW132576   4.769   2.044   0.606
10559SOL    HW232577   4.778   2.110   0.755
10560SOL     OW32578   1.001   3.757   4.814
10560SOL    HW132579   0.939   3.691   4.771
10560SOL    HW232580   1.032   3.823   4.746
10561SOL     OW32581   2.074   4.345   6.842
10561SOL    HW132582   2.001   4.335   6.775
10561SOL    HW232583   2.091   4.257   6.886
10562SOL     OW32584   4.300   1.093   0.762
10562SOL    HW132585   4.237   1.145   0.819
10562SOL    HW232586   4.279   0.995   0.769
10563SOL     OW32587   1.630   1.985   5.498
10563SOL    HW132588   1.650   1.920   5.570
10563SOL    HW232589   1.688   1.966   5.418
10564SOL     OW32590   5.672   1.373   1.824
10564SOL    HW132591   5.698   1.457   1.871
10564SOL    HW232592   5.631   1.395   1.735
10565SOL     OW32593   6.263   1.431   4.787
10565SOL    HW132594   6.304   1.520   4.809
10565SOL    HW232595   6.165   1.443   4.772
10566SOL     OW32596   3.740   3.991   6.136
10566SOL    HW132597   3.718   4.087   6.117
10566SOL    HW232598   3.719   3.935   6.056
10567SOL     OW32599   1.838   3.845   4.360
10567SOL    HW132600   1.847   3.751   4.395
10567SOL    HW232601   1.805   3.904   4.433
10568SOL     OW32602   5.003   1.204   2.567
10568SOL    HW132603   4.971   1.132   2.628
10568SOL    HW232604   5.048   1.276   2.620
10569SOL     OW32605   5.633   2.767   4.176
10569SOL    HW132606   5.598   2.674   4.187
10569SOL    HW232607   5.588   2.828   4.241
10570SOL     OW32608   1.874   4.665   2.604
10570SOL    HW132609   1.846   4.598   2.536
10570SOL    HW232610   1.955   4.715   2.571
10571SOL     OW32611   6.586   6.050   2.977
10571SOL    HW132612   6.607   5.961   2.938
10571SOL    HW232613   6.522   6.098   2.916
10572SOL     OW32614   5.509   3.543   2.588
10572SOL    HW132615   5.554   3.622   2.628
10572SOL    HW232616   5.519   3.546   2.488
10573SOL     OW32617   6.114   5.347   4.646
10573SOL    HW132618   6.200   5.396   4.636
10573SOL    HW232619   6.113   5.300   4.735
10574SOL     OW32620   0.178   1.661   3.630
10574SOL    HW132621   0.187   1.678   3.532
10574SOL    HW232622   0.181   1.749   3.679
10575SOL     OW32623   1.136   0.440   5.134
10575SOL    HW132624   1.045   0.415   5.167
10575SOL    HW232625   1.131   0.527   5.084
10576SOL     OW32626   1.843   5.675   4.372
10576SOL    HW132627   1.835   5.581   4.403
10576SOL    HW232628   1.933   5.711   4.397
10577SOL     OW32629   1.998   3.217   5.835
10577SOL    HW132630   1.912   3.200   5.788
10577SOL    HW232631   2.050   3.287   5.786
10578SOL     OW32632   5.739   0.189   5.295
10578SOL    HW132633   5.657   0.139   5.325
10578SOL    HW232634   5.726   0.287   5.312
10579SOL     OW32635   4.448   1.740   0.645
10579SOL    HW132636   4.534   1.711   0.687
10579SOL    HW232637   4.457   1.835   0.613
10580SOL     OW32638   6.982   6.405   0.126
10580SOL    HW132639   0.050   6.387   0.082
10580SOL    HW232640   6.909   6.359   0.075
10581SOL     OW32641   5.562   0.469   3.231
10581SOL    HW132642   5.622   0.491   3.308
10581SOL    HW232643   5.469   0.453   3.265
10582SOL     OW32644   3.818   4.986   6.762
10582SOL    HW132645   3.762   4.920   6.811
10582SOL    HW232646   3.771   5.074   6.758
10583SOL     OW32647   3.800   0.950   0.196
10583SOL    HW132648   3.874   0.920   0.135
10583SOL    HW232649   3.717   0.964   0.142
10584SOL     OW32650   5.583   6.863   1.054
10584SOL    HW132651   5.594   6.930   0.981
10584SOL    HW232652   5.596   6.771   1.017
10585SOL     OW32653   0.582   3.158   6.538
10585SOL    HW132654   0.592   3.111   6.626
10585SOL    HW232655   0.485   3.160   6.513
10586SOL     OW32656   2.410   5.819   5.865
10586SOL    HW132657   2.400   5.763   5.783
10586SOL    HW232658   2.505   5.818   5.896
10587SOL     OW32659   6.211   3.295   0.886
10587SOL    HW132660   6.156   3.247   0.818
10587SOL    HW232661   6.308   3.274   0.871
10588SOL     OW32662   0.947   5.066   3.198
10588SOL    HW132663   0.992   5.057   3.287
10588SOL    HW232664   1.015   5.060   3.125
10589SOL     OW32665   5.614   1.936   4.103
10589SOL    HW132666   5.657   2.008   4.049
10589SOL    HW232667   5.546   1.976   4.164
10590SOL     OW32668   1.146   0.242   3.500
10590SOL    HW132669   1.223   0.256   3.563
10590SOL    HW232670   1.181   0.235   3.406
10591SOL     OW32671   0.850   1.832   6.534
10591SOL    HW132672   0.807   1.758   6.483
10591SOL    HW232673   0.877   1.799   6.624
10592SOL     OW32674   6.102   1.403   0.303
10592SOL    HW132675   6.174   1.467   0.276
10592SOL    HW232676   6.057   1.436   0.386
10593SOL     OW32677   1.977   5.537   1.563
10593SOL    HW132678   1.991   5.497   1.653
10593SOL    HW232679   2.061   5.582   1.533
10594SOL     OW32680   6.182   1.849   3.972
10594SOL    HW132681   6.231   1.764   3.989
10594SOL    HW232682   6.105   1.856   4.036
10595SOL     OW32683   3.782   6.494   6.401
10595SOL    HW132684   3.838   6.424   6.444
10595SOL    HW232685   3.782   6.576   6.458
10596SOL     OW32686   3.959   6.805   2.356
10596SOL    HW132687   4.002   6.792   2.266
10596SOL    HW232688   3.889   6.877   2.350
10597SOL     OW32689   1.681   1.073   4.627
10597SOL    HW132690   1.683   1.148   4.693
10597SOL    HW232691   1.601   1.082   4.567
10598SOL     OW32692   2.288   2.277   6.872
10598SOL    HW132693   2.306   2.286   6.774
10598SOL    HW232694   2.201   2.322   6.894
10599SOL     OW32695   6.096   1.262   6.684
10599SOL    HW132696   6.011   1.269   6.737
10599SOL    HW232697   6.173   1.286   6.743
10600SOL     OW32698   2.105   2.972   5.743
10600SOL    HW132699   2.077   3.067   5.755
10600SOL    HW232700   2.122   2.931   5.833
10601SOL     OW32701   2.945   6.586   6.220
10601SOL    HW132702   3.024   6.556   6.166
10601SOL    HW232703   2.864   6.535   6.190
10602SOL     OW32704   4.629   1.718   1.457
10602SOL    HW132705   4.609   1.653   1.384
10602SOL    HW232706   4.676   1.670   1.531
10603SOL     OW32707   1.928   5.494   3.846
10603SOL    HW132708   1.952   5.585   3.877
10603SOL    HW232709   2.001   5.456   3.790
10604SOL     OW32710   6.507   4.062   4.064
10604SOL    HW132711   6.423   4.104   4.096
10604SOL    HW232712   6.557   4.022   4.141
10605SOL     OW32713   0.975   5.082   6.411
10605SOL    HW132714   1.050   5.120   6.356
10605SOL    HW232715   0.934   5.005   6.363
10606SOL     OW32716   0.644   0.453   1.809
10606SOL    HW132717   0.731   0.480   1.769
10606SOL    HW232718   0.619   0.361   1.778
10607SOL     OW32719   5.060   4.465   6.916
10607SOL    HW132720   4.970   4.422   6.923
10607SOL    HW232721   5.108   4.429   6.836
10608SOL     OW32722   5.762   1.498   4.108
10608SOL    HW132723   5.795   1.413   4.149
10608SOL    HW232724   5.704   1.476   4.029
10609SOL     OW32725   3.982   6.575   0.903
10609SOL    HW132726   4.039   6.531   0.972
10609SOL    HW232727   3.914   6.510   0.870
10610SOL     OW32728   1.304   3.069   5.751
10610SOL    HW132729   1.328   3.025   5.664
10610SOL    HW232730   1.208   3.053   5.771
10611SOL     OW32731   5.739   2.709   6.111
10611SOL    HW132732   5.773   2.627   6.065
10611SOL    HW232733   5.816   2.755   6.157
10612SOL     OW32734   2.339   0.590   6.780
10612SOL    HW132735   2.356   0.666   6.717
10612SOL    HW232736   2.265   0.533   6.743
10613SOL     OW32737   0.435   6.283   5.906
10613SOL    HW132738   0.499   6.360   5.910
10613SOL    HW232739   0.485   6.198   5.922
10614SOL     OW32740   6.454   1.267   4.087
10614SOL    HW132741   6.541   1.287   4.043
10614SOL    HW232742   6.390   1.342   4.071
10615SOL     OW32743   5.204   5.489   4.927
10615SOL    HW132744   5.236   5.397   4.903
10615SOL    HW232745   5.252   5.521   5.009
10616SOL     OW32746   3.234   6.264   6.740
10616SOL    HW132747   3.143   6.289   6.773
10616SOL    HW232748   3.232   6.169   6.708
10617SOL     OW32749   2.356   2.110   0.508
10617SOL    HW132750   2.299   2.051   0.565
10617SOL    HW232751   2.340   2.206   0.534
10618SOL     OW32752   6.187   3.469   0.227
10618SOL    HW132753   6.104   3.506   0.268
10618SOL    HW232754   6.223   3.397   0.286
10619SOL     OW32755   1.129   4.275   4.295
10619SOL    HW132756   1.165   4.281   4.389
10619SOL    HW232757   1.037   4.314   4.292
10620SOL     OW32758   1.393   6.153   4.743
10620SOL    HW132759   1.311   6.210   4.735
10620SOL    HW232760   1.463   6.203   4.795
10621SOL     OW32761   1.812   6.312   0.238
10621SOL    HW132762   1.719   6.283   0.260
10621SOL    HW232763   1.878   6.255   0.287
10622SOL     OW32764   3.769   0.366   1.525
10622SOL    HW132765   3.747   0.336   1.617
10622SOL    HW232766   3.864   0.343   1.504
10623SOL     OW32767   5.717   2.369   3.792
10623SOL    HW132768   5.738   2.467   3.784
10623SOL    HW232769   5.688   2.334   3.703
10624SOL     OW32770   1.648   0.686   4.731
10624SOL    HW132771   1.737   0.685   4.685
10624SOL    HW232772   1.643   0.766   4.791
10625SOL     OW32773   0.763   3.132   0.127
10625SOL    HW132774   0.789   3.198   0.198
10625SOL    HW232775   0.663   3.131   0.118
10626SOL     OW32776   0.888   1.939   2.090
10626SOL    HW132777   0.850   1.849   2.111
10626SOL    HW232778   0.823   2.010   2.118
10627SOL     OW32779   6.627   6.458   3.291
10627SOL    HW132780   6.623   6.412   3.380
10627SOL    HW232781   6.579   6.402   3.223
10628SOL     OW32782   6.107   5.787   5.450
10628SOL    HW132783   6.130   5.882   5.472
10628SOL    HW232784   6.190   5.732   5.448
10629SOL     OW32785   2.494   5.227   5.633
10629SOL    HW132786   2.501   5.133   5.667
10629SOL    HW232787   2.408   5.266   5.665
10630SOL     OW32788   6.120   1.618   3.211
10630SOL    HW132789   6.036   1.635   3.160
10630SOL    HW232790   6.199   1.624   3.150
10631SOL     OW32791   0.858   6.952   3.974
10631SOL    HW132792   0.915   6.883   3.930
10631SOL    HW232793   0.855   6.935   4.073
10632SOL     OW32794   6.718   1.809   4.809
10632SOL    HW132795   6.665   1.734   4.847
10632SOL    HW232796   6.745   1.787   4.715
10633SOL     OW32797   2.687   5.691   1.776
10633SOL    HW132798   2.629   5.766   1.744
10633SOL    HW232799   2.778   5.698   1.735
10634SOL     OW32800   3.780   6.409   0.841
10634SOL    HW132801   3.739   6.379   0.755
10634SOL    HW232802   3.708   6.424   0.909
10635SOL     OW32803   2.475   0.768   1.225
10635SOL    HW132804   2.398   0.735   1.279
10635SOL    HW232805   2.443   0.831   1.155
10636SOL     OW32806   0.943   1.946   1.282
10636SOL    HW132807   0.998   1.959   1.364
10636SOL    HW232808   0.875   2.019   1.277
10637SOL     OW32809   3.193   4.050   4.599
10637SOL    HW132810   3.279   4.051   4.548
10637SOL    HW232811   3.118   4.024   4.537
10638SOL     OW32812   0.163   6.421   4.878
10638SOL    HW132813   0.151   6.453   4.784
10638SOL    HW232814   0.099   6.346   4.897
10639SOL     OW32815   1.709   1.100   5.120
10639SOL    HW132816   1.794   1.123   5.167
10639SOL    HW232817   1.633   1.103   5.184
10640SOL     OW32818   5.026   1.530   0.399
10640SOL    HW132819   5.078   1.490   0.474
10640SOL    HW232820   5.039   1.629   0.398
10641SOL     OW32821   5.715   1.609   0.031
10641SOL    HW132822   5.784   1.616   6.979
10641SOL    HW232823   5.701   1.698   0.072
10642SOL     OW32824   0.387   2.776   1.659
10642SOL    HW132825   0.434   2.862   1.642
10642SOL    HW232826   0.289   2.789   1.649
10643SOL     OW32827   2.729   3.613   5.442
10643SOL    HW132828   2.724   3.709   5.416
10643SOL    HW232829   2.813   3.572   5.405
10644SOL     OW32830   4.570   1.306   3.602
10644SOL    HW132831   4.601   1.322   3.696
10644SOL    HW232832   4.613   1.373   3.541
10645SOL     OW32833   2.414   6.937   5.143
10645SOL    HW132834   2.417   6.995   5.062
10645SOL    HW232835   2.320   6.912   5.164
10646SOL     OW32836   1.302   3.470   6.261
10646SOL    HW132837   1.397   3.459   6.291
10646SOL    HW232838   1.240   3.433   6.331
10647SOL     OW32839   6.777   5.165   0.588
10647SOL    HW132840   6.813   5.173   0.495
10647SOL    HW232841   6.764   5.069   0.611
10648SOL     OW32842   4.653   2.580   6.776
10648SOL    HW132843   4.692   2.623   6.694
10648SOL    HW232844   4.599   2.500   6.748
10649SOL     OW32845   6.937   5.013   5.857
10649SOL    HW132846   0.001   4.959   5.857
10649SOL    HW232847   6.875   4.978   5.927
10650SOL     OW32848   2.775   6.175   3.714
10650SOL    HW132849   2.681   6.177   3.747
10650SOL    HW232850   2.811   6.082   3.722
10651SOL     OW32851   4.720   6.222   6.405
10651SOL    HW132852   4.744   6.312   6.368
10651SOL    HW232853   4.647   6.182   6.349
10652SOL     OW32854   3.740   0.703   6.269
10652SOL    HW132855   3.765   0.649   6.188
10652SOL    HW232856   3.652   0.671   6.304
10653SOL     OW32857   5.279   3.957   4.106
10653SOL    HW132858   5.219   4.003   4.172
10653SOL    HW232859   5.255   3.860   4.102
10654SOL     OW32860   4.160   1.231   0.955
10654SOL    HW132861   4.103   1.194   1.028
10654SOL    HW232862   4.110   1.305   0.908
10655SOL     OW32863   2.886   5.991   1.170
10655SOL    HW132864   2.888   6.088   1.149
10655SOL    HW232865   2.871   5.938   1.087
10656SOL     OW32866   6.401   2.377   7.015
10656SOL    HW132867   6.402   2.424   0.083
10656SOL    HW232868   6.346   2.430   6.951
10657SOL     OW32869   6.057   0.880   1.147
10657SOL    HW132870   5.960   0.863   1.127
10657SOL    HW232871   6.113   0.808   1.105
10658SOL     OW32872   0.214   5.218   4.476
10658SOL    HW132873   0.179   5.134   4.435
10658SOL    HW232874   0.173   5.232   4.566
10659SOL     OW32875   5.907   0.273   0.358
10659SOL    HW132876   5.997   0.304   0.327
10659SOL    HW232877   5.844   0.350   0.362
10660SOL     OW32878   4.548   5.055   5.429
10660SOL    HW132879   4.622   5.114   5.460
10660SOL    HW232880   4.468   5.112   5.407
10661SOL     OW32881   0.470   6.574   2.773
10661SOL    HW132882   0.505   6.481   2.766
10661SOL    HW232883   0.380   6.573   2.816
10662SOL     OW32884   6.126   1.496   0.766
10662SOL    HW132885   6.085   1.434   0.834
10662SOL    HW232886   6.220   1.467   0.748
10663SOL     OW32887   6.846   0.475   0.029
10663SOL    HW132888   6.761   0.519   0.055
10663SOL    HW232889   6.910   0.477   0.106
10664SOL     OW32890   2.168   5.585   6.988
10664SOL    HW132891   2.236   5.533   6.936
10664SOL    HW232892   2.215   5.644   0.033
10665SOL     OW32893   6.469   1.532   0.677
10665SOL    HW132894   6.487   1.437   0.702
10665SOL    HW232895   6.527   1.593   0.731
10666SOL     OW32896   1.850   6.672   0.033
10666SOL    HW132897   1.893   6.736   0.097
10666SOL    HW232898   1.906   6.590   0.026
10667SOL     OW32899   3.192   1.999   5.573
10667SOL    HW132900   3.167   2.095   5.562
10667SOL    HW232901   3.111   1.941   5.566
10668SOL     OW32902   1.592   1.309   6.179
10668SOL    HW132903   1.590   1.327   6.081
10668SOL    HW232904   1.512   1.351   6.222
10669SOL     OW32905   1.286   6.969   6.924
10669SOL    HW132906   1.270   6.873   6.947
10669SOL    HW232907   1.228   0.007   6.982
10670SOL     OW32908   6.011   4.537   5.828
10670SOL    HW132909   6.031   4.593   5.747
10670SOL    HW232910   6.076   4.461   5.834
10671SOL     OW32911   2.175   1.236   3.612
10671SOL    HW132912   2.256   1.264   3.561
10671SOL    HW232913   2.195   1.237   3.710
10672SOL     OW32914   0.169   2.974   1.383
10672SOL    HW132915   0.114   3.038   1.437
10672SOL    HW232916   0.111   2.900   1.349
10673SOL     OW32917   2.776   2.964   5.307
10673SOL    HW132918   2.691   2.986   5.257
10673SOL    HW232919   2.753   2.916   5.391
10674SOL     OW32920   3.589   2.937   1.483
10674SOL    HW132921   3.521   2.958   1.553
10674SOL    HW232922   3.679   2.966   1.514
10675SOL     OW32923   0.196   0.333   5.643
10675SOL    HW132924   0.134   0.283   5.583
10675SOL    HW232925   0.190   0.431   5.624
10676SOL     OW32926   6.394   0.052   6.230
10676SOL    HW132927   6.400   0.081   6.326
10676SOL    HW232928   6.442   0.118   6.172
10677SOL     OW32929   0.310   0.249   1.022
10677SOL    HW132930   0.212   0.232   1.009
10677SOL    HW232931   0.330   0.345   1.005
10678SOL     OW32932   2.338   6.366   2.611
10678SOL    HW132933   2.274   6.358   2.687
10678SOL    HW232934   2.358   6.276   2.574
10679SOL     OW32935   5.455   5.000   4.543
10679SOL    HW132936   5.400   4.984   4.626
10679SOL    HW232937   5.516   5.078   4.558
10680SOL     OW32938   1.378   2.694   2.942
10680SOL    HW132939   1.370   2.794   2.942
10680SOL    HW232940   1.455   2.667   2.999
10681SOL     OW32941   6.999   1.832   6.100
10681SOL    HW132942   0.026   1.888   6.168
10681SOL    HW232943   6.988   1.739   6.135
10682SOL     OW32944   0.211   2.083   3.142
10682SOL    HW132945   0.244   2.168   3.100
10682SOL    HW232946   0.115   2.070   3.120
10683SOL     OW32947   2.011   1.208   4.635
10683SOL    HW132948   1.942   1.198   4.707
10683SOL    HW232949   1.975   1.172   4.549
10684SOL     OW32950   5.992   4.871   0.117
10684SOL    HW132951   6.029   4.782   0.091
10684SOL    HW232952   6.018   4.892   0.211
10685SOL     OW32953   0.123   3.008   2.993
10685SOL    HW132954   0.192   3.021   2.922
10685SOL    HW232955   0.129   2.914   3.028
10686SOL     OW32956   3.223   5.260   0.373
10686SOL    HW132957   3.173   5.342   0.400
10686SOL    HW232958   3.320   5.272   0.392
10687SOL     OW32959   0.290   4.836   2.953
10687SOL    HW132960   0.194   4.842   2.982
10687SOL    HW232961   0.299   4.872   2.861
10688SOL     OW32962   6.443   5.253   2.230
10688SOL    HW132963   6.422   5.175   2.171
10688SOL    HW232964   6.359   5.284   2.274
10689SOL     OW32965   0.861   1.195   2.888
10689SOL    HW132966   0.871   1.199   2.789
10689SOL    HW232967   0.912   1.117   2.924
10690SOL     OW32968   4.392   4.964   1.899
10690SOL    HW132969   4.312   4.941   1.844
10690SOL    HW232970   4.446   4.881   1.915
10691SOL     OW32971   0.006   1.381   1.713
10691SOL    HW132972   6.979   1.392   1.626
10691SOL    HW232973   7.013   1.288   1.747
10692SOL     OW32974   3.455   5.927   3.773
10692SOL    HW132975   3.478   5.847   3.829
10692SOL    HW232976   3.491   5.915   3.681
10693SOL     OW32977   6.631   1.805   1.762
10693SOL    HW132978   6.624   1.755   1.675
10693SOL    HW232979   6.727   1.820   1.783
10694SOL     OW32980   3.612   6.314   0.641
10694SOL    HW132981   3.540   6.374   0.608
10694SOL    HW232982   3.629   6.242   0.574
10695SOL     OW32983   0.057   3.016   4.021
10695SOL    HW132984   0.058   3.083   3.947
10695SOL    HW232985   6.987   3.014   4.064
10696SOL     OW32986   6.926   6.310   1.785
10696SOL    HW132987   6.886   6.220   1.767
10696SOL    HW232988   6.871   6.381   1.742
10697SOL     OW32989   2.499   5.506   3.290
10697SOL    HW132990   2.414   5.514   3.238
10697SOL    HW232991   2.502   5.576   3.361
10698SOL     OW32992   2.740   6.794   3.434
10698SOL    HW132993   2.663   6.844   3.475
10698SOL    HW232994   2.824   6.847   3.447
10699SOL     OW32995   2.510   2.236   2.759
10699SOL    HW132996   2.562   2.219   2.843
10699SOL    HW232997   2.533   2.327   2.723
10700SOL     OW32998   0.079   6.927   1.308
10700SOL    HW132999   0.114   6.922   1.214
10700SOL    HW233000   7.013   6.978   1.309
10701SOL     OW33001   3.051   6.122   0.845
10701SOL    HW133002   3.098   6.111   0.758
10701SOL    HW233003   3.030   6.219   0.860
10702SOL     OW33004   6.504   3.068   1.612
10702SOL    HW133005   6.589   3.030   1.648
10702SOL    HW233006   6.436   3.071   1.685
10703SOL     OW33007   4.013   3.767   3.708
10703SOL    HW133008   3.985   3.734   3.618
10703SOL    HW233009   4.070   3.699   3.753
10704SOL     OW33010   5.289   6.691   2.092
10704SOL    HW133011   5.300   6.624   2.166
10704SOL    HW233012   5.210   6.666   2.036
10705SOL     OW33013   0.242   2.654   6.471
10705SOL    HW133014   0.326   2.602   6.487
10705SOL    HW233015   0.256   2.749   6.498
10706SOL     OW33016   3.347   1.184   2.176
10706SOL    HW133017   3.426   1.235   2.212
10706SOL    HW233018   3.380   1.104   2.126
10707SOL     OW33019   5.781   0.403   6.152
10707SOL    HW133020   5.846   0.338   6.112
10707SOL    HW233021   5.760   0.375   6.246
10708SOL     OW33022   5.156   0.922   1.319
10708SOL    HW133023   5.241   0.959   1.283
10708SOL    HW233024   5.172   0.830   1.355
10709SOL     OW33025   6.794   5.803   6.093
10709SOL    HW133026   6.888   5.797   6.057
10709SOL    HW233027   6.781   5.732   6.162
10710SOL     OW33028   6.285   5.503   3.331
10710SOL    HW133029   6.235   5.426   3.289
10710SOL    HW233030   6.346   5.468   3.402
10711SOL     OW33031   1.492   6.471   3.869
10711SOL    HW133032   1.506   6.376   3.896
10711SOL    HW233033   1.488   6.477   3.769
10712SOL     OW33034   3.604   1.224   4.793
10712SOL    HW133035   3.586   1.322   4.795
10712SOL    HW233036   3.663   1.202   4.715
10713SOL     OW33037   0.803   6.101   1.331
10713SOL    HW133038   0.726   6.067   1.278
10713SOL    HW233039   0.888   6.074   1.287
10714SOL     OW33040   6.828   4.589   5.672
10714SOL    HW133041   6.916   4.592   5.626
10714SOL    HW233042   6.837   4.628   5.764
10715SOL     OW33043   5.795   1.341   4.404
10715SOL    HW133044   5.725   1.379   4.465
10715SOL    HW233045   5.753   1.277   4.340
10716SOL     OW33046   5.734   0.154   3.520
10716SOL    HW133047   5.676   0.105   3.586
10716SOL    HW233048   5.700   0.247   3.508
10717SOL     OW33049   0.181   6.686   1.370
10717SOL    HW133050   0.136   6.774   1.350
10717SOL    HW233051   0.279   6.695   1.357
10718SOL     OW33052   7.006   4.620   6.662
10718SOL    HW133053   7.018   4.717   6.685
10718SOL    HW233054   6.947   4.577   6.731
10719SOL     OW33055   5.086   0.539   2.303
10719SOL    HW133056   5.026   0.614   2.278
10719SOL    HW233057   5.032   0.458   2.326
10720SOL     OW33058   0.451   3.772   6.801
10720SOL    HW133059   0.420   3.859   6.762
10720SOL    HW233060   0.521   3.732   6.742
10721SOL     OW33061   4.567   2.616   4.175
10721SOL    HW133062   4.546   2.525   4.211
10721SOL    HW233063   4.548   2.619   4.077
10722SOL     OW33064   0.327   4.169   0.077
10722SOL    HW133065   0.365   4.078   0.093
10722SOL    HW233066   0.305   4.212   0.164
10723SOL     OW33067   6.471   4.138   0.315
10723SOL    HW133068   6.565   4.103   0.315
10723SOL    HW233069   6.470   4.230   0.276
10724SOL     OW33070   3.271   6.489   5.797
10724SOL    HW133071   3.366   6.513   5.775
10724SOL    HW233072   3.251   6.397   5.764
10725SOL     OW33073   6.719   6.213   4.733
10725SOL    HW133074   6.662   6.291   4.707
10725SOL    HW233075   6.702   6.137   4.670
10726SOL     OW33076   5.500   0.468   4.176
10726SOL    HW133077   5.500   0.566   4.197
10726SOL    HW233078   5.591   0.430   4.193
10727SOL     OW33079   2.414   5.664   6.713
10727SOL    HW133080   2.365   5.740   6.755
10727SOL    HW233081   2.457   5.609   6.785
10728SOL     OW33082   5.085   5.778   3.391
10728SOL    HW133083   5.057   5.869   3.419
10728SOL    HW233084   5.162   5.784   3.327
10729SOL     OW33085   6.030   3.175   3.931
10729SOL    HW133086   6.101   3.105   3.932
10729SOL    HW233087   6.055   3.249   3.992
10730SOL     OW33088   1.748   6.098   3.141
10730SOL    HW133089   1.759   6.129   3.047
10730SOL    HW233090   1.814   6.025   3.160
10731SOL     OW33091   4.797   6.480   6.703
10731SOL    HW133092   4.770   6.502   6.609
10731SOL    HW233093   4.718   6.448   6.754
10732SOL     OW33094   6.232   6.031   3.336
10732SOL    HW133095   6.145   6.054   3.380
10732SOL    HW233096   6.308   6.059   3.395
10733SOL     OW33097   0.446   1.019   6.211
10733SOL    HW133098   0.398   1.007   6.298
10733SOL    HW233099   0.404   0.961   6.141
10734SOL     OW33100   1.435   1.577   5.003
10734SOL    HW133101   1.429   1.514   4.925
10734SOL    HW233102   1.349   1.628   5.011
10735SOL     OW33103   0.650   5.560   2.241
10735SOL    HW133104   0.653   5.461   2.254
10735SOL    HW233105   0.648   5.581   2.144
10736SOL     OW33106   5.777   6.399   3.833
10736SOL    HW133107   5.684   6.364   3.824
10736SOL    HW233108   5.842   6.328   3.807
10737SOL     OW33109   6.269   1.092   2.220
10737SOL    HW133110   6.352   1.122   2.174
10737SOL    HW233111   6.258   0.993   2.209
10738SOL     OW33112   3.598   1.393   1.825
10738SOL    HW133113   3.628   1.340   1.904
10738SOL    HW233114   3.631   1.487   1.834
10739SOL     OW33115   5.751   2.740   3.569
10739SOL    HW133116   5.729   2.716   3.664
10739SOL    HW233117   5.830   2.802   3.568
10740SOL     OW33118   1.947   0.328   5.900
10740SOL    HW133119   2.046   0.331   5.883
10740SOL    HW233120   1.923   0.395   5.970
10741SOL     OW33121   2.385   2.209   3.214
10741SOL    HW133122   2.471   2.161   3.235
10741SOL    HW233123   2.350   2.253   3.297
10742SOL     OW33124   6.413   6.164   2.810
10742SOL    HW133125   6.356   6.133   2.734
10742SOL    HW233126   6.397   6.262   2.826
10743SOL     OW33127   2.935   1.123   5.785
10743SOL    HW133128   2.894   1.192   5.727
10743SOL    HW233129   2.868   1.092   5.853
10744SOL     OW33130   2.071   0.928   0.411
10744SOL    HW133131   2.016   0.863   0.464
10744SOL    HW233132   2.099   1.004   0.471
10745SOL     OW33133   1.341   4.688   2.143
10745SOL    HW133134   1.351   4.600   2.189
10745SOL    HW233135   1.425   4.741   2.154
10746SOL     OW33136   2.115   6.174   6.687
10746SOL    HW133137   2.173   6.251   6.714
10746SOL    HW233138   2.047   6.157   6.758
10747SOL     OW33139   6.269   1.280   4.535
10747SOL    HW133140   6.181   1.234   4.527
10747SOL    HW233141   6.277   1.321   4.625
10748SOL     OW33142   3.676   5.850   1.038
10748SOL    HW133143   3.612   5.858   0.962
10748SOL    HW233144   3.740   5.927   1.036
10749SOL     OW33145   5.634   5.091   1.848
10749SOL    HW133146   5.711   5.119   1.905
10749SOL    HW233147   5.662   5.091   1.752
10750SOL     OW33148   4.866   2.535   4.033
10750SOL    HW133149   4.782   2.559   3.983
10750SOL    HW233150   4.874   2.435   4.036
10751SOL     OW33151   0.237   4.687   5.239
10751SOL    HW133152   0.277   4.770   5.199
10751SOL    HW233153   0.144   4.674   5.204
10752SOL     OW33154   6.589   6.455   0.462
10752SOL    HW133155   6.543   6.456   0.373
10752SOL    HW233156   6.570   6.540   0.511
10753SOL     OW33157   4.902   6.879   3.999
10753SOL    HW133158   4.840   6.906   4.073
10753SOL    HW233159   4.996   6.881   4.032
10754SOL     OW33160   0.988   3.842   2.239
10754SOL    HW133161   0.955   3.749   2.257
10754SOL    HW233162   1.024   3.846   2.146
10755SOL     OW33163   6.727   2.721   1.295
10755SOL    HW133164   6.659   2.654   1.326
10755SOL    HW233165   6.757   2.700   1.202
10756SOL     OW33166   0.645   1.440   0.345
10756SOL    HW133167   0.705   1.446   0.266
10756SOL    HW233168   0.551   1.460   0.318
10757SOL     OW33169   7.016   4.163   2.099
10757SOL    HW133170   0.053   4.225   2.045
10757SOL    HW233171   0.052   4.088   2.134
10758SOL     OW33172   0.466   0.764   6.602
10758SOL    HW133173   0.538   0.695   6.619
10758SOL    HW233174   0.387   0.719   6.560
10759SOL     OW33175   2.687   2.023   5.977
10759SOL    HW133176   2.742   1.982   5.904
10759SOL    HW233177   2.715   2.118   5.989
10760SOL     OW33178   1.163   5.108   0.269
10760SOL    HW133179   1.146   5.037   0.336
10760SOL    HW233180   1.206   5.068   0.188
10761SOL     OW33181   0.401   1.224   5.933
10761SOL    HW133182   0.461   1.150   5.904
10761SOL    HW233183   0.453   1.292   5.984
10762SOL     OW33184   3.017   6.391   6.410
10762SOL    HW133185   2.989   6.453   6.336
10762SOL    HW233186   3.116   6.379   6.407
10763SOL     OW33187   5.037   0.175   3.807
10763SOL    HW133188   5.041   0.240   3.732
10763SOL    HW233189   5.022   0.083   3.771
10764SOL     OW33190   4.428   0.361   4.196
10764SOL    HW133191   4.494   0.369   4.271
10764SOL    HW233192   4.415   0.264   4.174
10765SOL     OW33193   0.115   2.313   2.115
10765SOL    HW133194   0.158   2.265   2.191
10765SOL    HW233195   0.057   2.250   2.064
10766SOL     OW33196   1.556   5.503   6.738
10766SOL    HW133197   1.567   5.404   6.741
10766SOL    HW233198   1.628   5.547   6.792
10767SOL     OW33199   1.543   5.224   0.467
10767SOL    HW133200   1.586   5.266   0.547
10767SOL    HW233201   1.443   5.235   0.473
10768SOL     OW33202   5.256   6.036   0.614
10768SOL    HW133203   5.196   5.968   0.571
10768SOL    HW233204   5.351   6.011   0.597
10769SOL     OW33205   3.760   2.937   4.659
10769SOL    HW133206   3.790   3.031   4.642
10769SOL    HW233207   3.662   2.936   4.678
10770SOL     OW33208   5.372   0.083   3.409
10770SOL    HW133209   5.356   0.066   3.506
10770SOL    HW233210   5.402   7.019   3.364
10771SOL     OW33211   4.665   6.215   5.636
10771SOL    HW133212   4.642   6.298   5.586
10771SOL    HW233213   4.582   6.175   5.675
10772SOL     OW33214   5.601   5.722   2.455
10772SOL    HW133215   5.503   5.702   2.456
10772SOL    HW233216   5.615   5.813   2.414
10773SOL     OW33217   0.095   3.521   1.666
10773SOL    HW133218   0.031   3.445   1.677
10773SOL    HW233219   0.161   3.500   1.595
10774SOL     OW33220   0.821   2.799   0.333
10774SOL    HW133221   0.747   2.757   0.385
10774SOL    HW233222   0.794   2.807   0.237
10775SOL     OW33223   1.299   4.058   0.216
10775SOL    HW133224   1.387   4.054   0.264
10775SOL    HW233225   1.314   4.090   0.122
10776SOL     OW33226   0.843   2.853   3.656
10776SOL    HW133227   0.772   2.804   3.606
10776SOL    HW233228   0.932   2.811   3.637
10777SOL     OW33229   3.364   1.494   2.066
10777SOL    HW133230   3.403   1.573   2.113
10777SOL    HW233231   3.346   1.421   2.132
10778SOL     OW33232   6.483   0.239   3.292
10778SOL    HW133233   6.501   0.318   3.233
10778SOL    HW233234   6.387   0.212   3.284
10779SOL     OW33235   5.283   3.852   4.816
10779SOL    HW133236   5.218   3.890   4.750
10779SOL    HW233237   5.270   3.753   4.822
10780SOL     OW33238   1.759   5.592   5.026
10780SOL    HW133239   1.685   5.656   5.005
10780SOL    HW233240   1.782   5.600   5.123
10781SOL     OW33241   6.266   2.291   5.297
10781SOL    HW133242   6.211   2.221   5.251
10781SOL    HW233243   6.295   2.360   5.231
10782SOL     OW33244   1.269   2.303   5.151
10782SOL    HW133245   1.234   2.320   5.059
10782SOL    HW233246   1.192   2.290   5.214
10783SOL     OW33247   1.046   2.595   3.593
10783SOL    HW133248   1.058   2.596   3.494
10783SOL    HW233249   1.100   2.669   3.634
10784SOL     OW33250   3.434   5.703   2.643
10784SOL    HW133251   3.462   5.747   2.557
10784SOL    HW233252   3.513   5.697   2.704
10785SOL     OW33253   1.750   5.675   2.381
10785SOL    HW133254   1.775   5.588   2.422
10785SOL    HW233255   1.725   5.661   2.285
10786SOL     OW33256   4.121   1.238   2.155
10786SOL    HW133257   4.220   1.243   2.161
10786SOL    HW233258   4.093   1.239   2.059
10787SOL     OW33259   4.174   0.539   2.961
10787SOL    HW133260   4.255   0.568   3.013
10787SOL    HW233261   4.204   0.496   2.875
10788SOL     OW33262   1.467   4.570   0.586
10788SOL    HW133263   1.542   4.532   0.640
10788SOL    HW233264   1.479   4.668   0.576
10789SOL     OW33265   6.405   1.152   1.709
10789SOL    HW133266   6.337   1.094   1.664
10789SOL    HW233267   6.360   1.219   1.767
10790SOL     OW33268   0.677   1.937   4.923
10790SOL    HW133269   0.651   1.841   4.927
10790SOL    HW233270   0.627   1.982   4.848
10791SOL     OW33271   1.039   1.719   3.981
10791SOL    HW133272   0.995   1.805   4.007
10791SOL    HW233273   0.978   1.643   4.005
10792SOL     OW33274   4.087   1.825   2.020
10792SOL    HW133275   4.059   1.921   2.012
10792SOL    HW233276   4.034   1.780   2.092
10793SOL     OW33277   4.316   1.983   4.870
10793SOL    HW133278   4.300   1.894   4.827
10793SOL    HW233279   4.409   2.012   4.851
10794SOL     OW33280   5.049   2.444   0.799
10794SOL    HW133281   4.969   2.490   0.760
10794SOL    HW233282   5.025   2.406   0.889
10795SOL     OW33283   0.201   3.915   3.320
10795SOL    HW133284   0.181   3.964   3.405
10795SOL    HW233285   0.278   3.959   3.274
10796SOL     OW33286   0.337   6.944   6.180
10796SOL    HW133287   0.278   6.867   6.204
10796SOL    HW233288   0.426   6.933   6.225
10797SOL     OW33289   4.175   4.166   7.017
10797SOL    HW133290   4.191   4.222   6.936
10797SOL    HW233291   4.172   4.225   0.077
10798SOL     OW33292   1.845   0.112   6.931
10798SOL    HW133293   1.911   0.089   6.859
10798SOL    HW233294   1.762   0.058   6.919
10799SOL     OW33295   3.043   0.891   2.736
10799SOL    HW133296   3.080   0.821   2.797
10799SOL    HW233297   3.043   0.979   2.783
10800SOL     OW33298   1.807   0.104   5.817
10800SOL    HW133299   1.854   0.066   5.737
10800SOL    HW233300   1.868   0.166   5.866
10801SOL     OW33301   2.576   6.744   5.915
10801SOL    HW133302   2.519   6.777   5.840
10801SOL    HW233303   2.665   6.790   5.911
10802SOL     OW33304   0.679   4.675   4.611
10802SOL    HW133305   0.721   4.760   4.642
10802SOL    HW233306   0.581   4.689   4.597
10803SOL     OW33307   0.356   4.182   4.789
10803SOL    HW133308   0.281   4.178   4.723
10803SOL    HW233309   0.441   4.151   4.746
10804SOL     OW33310   4.909   4.733   1.122
10804SOL    HW133311   4.888   4.829   1.143
10804SOL    HW233312   4.942   4.687   1.205
10805SOL     OW33313   4.048   6.292   0.233
10805SOL    HW133314   4.112   6.218   0.213
10805SOL    HW233315   3.991   6.267   0.311
10806SOL     OW33316   5.838   4.100   6.819
10806SOL    HW133317   5.763   4.052   6.865
10806SOL    HW233318   5.924   4.052   6.835
10807SOL     OW33319   4.812   0.385   3.430
10807SOL    HW133320   4.759   0.356   3.510
10807SOL    HW233321   4.907   0.358   3.442
10808SOL     OW33322   0.019   2.679   6.620
10808SOL    HW133323   0.096   2.670   6.556
10808SOL    HW233324   6.974   2.745   6.584
10809SOL     OW33325   3.408   0.864   2.939
10809SOL    HW133326   3.385   0.944   2.883
10809SOL    HW233327   3.424   0.785   2.881
10810SOL     OW33328   0.728   1.939   6.218
10810SOL    HW133329   0.639   1.910   6.183
10810SOL    HW233330   0.755   1.880   6.294
10811SOL     OW33331   5.072   4.630   5.532
10811SOL    HW133332   5.040   4.723   5.547
10811SOL    HW233333   5.084   4.584   5.620
10812SOL     OW33334   6.630   2.194   3.247
10812SOL    HW133335   6.606   2.174   3.342
10812SOL    HW233336   6.728   2.180   3.234
10813SOL     OW33337   2.235   6.000   2.685
10813SOL    HW133338   2.172   6.046   2.747
10813SOL    HW233339   2.201   5.908   2.665
10814SOL     OW33340   1.703   6.586   5.185
10814SOL    HW133341   1.686   6.598   5.282
10814SOL    HW233342   1.663   6.662   5.134
10815SOL     OW33343   4.852   2.429   2.894
10815SOL    HW133344   4.841   2.445   2.992
10815SOL    HW233345   4.845   2.332   2.875
10816SOL     OW33346   1.820   1.958   2.534
10816SOL    HW133347   1.894   1.937   2.471
10816SOL    HW233348   1.855   1.960   2.628
10817SOL     OW33349   4.969   6.507   2.103
10817SOL    HW133350   4.879   6.501   2.061
10817SOL    HW233351   4.973   6.588   2.163
10818SOL     OW33352   5.003   3.173   0.139
10818SOL    HW133353   4.904   3.178   0.153
10818SOL    HW233354   5.024   3.183   0.042
10819SOL     OW33355   0.540   3.635   6.083
10819SOL    HW133356   0.637   3.658   6.074
10819SOL    HW233357   0.523   3.603   6.177
10820SOL     OW33358   0.197   0.097   4.239
10820SOL    HW133359   0.272   0.149   4.281
10820SOL    HW233360   0.208   0.096   4.140
10821SOL     OW33361   0.087   6.909   0.307
10821SOL    HW133362   0.067   6.820   0.268
10821SOL    HW233363   0.073   6.906   0.406
10822SOL     OW33364   1.339   4.931   0.857
10822SOL    HW133365   1.310   4.928   0.761
10822SOL    HW233366   1.438   4.918   0.862
10823SOL     OW33367   1.477   1.265   1.949
10823SOL    HW133368   1.501   1.284   1.854
10823SOL    HW233369   1.531   1.323   2.010
10824SOL     OW33370   5.688   0.456   2.496
10824SOL    HW133371   5.683   0.356   2.504
10824SOL    HW233372   5.694   0.496   2.587
10825SOL     OW33373   3.436   1.924   1.099
10825SOL    HW133374   3.419   1.834   1.139
10825SOL    HW233375   3.352   1.977   1.099
10826SOL     OW33376   6.754   2.993   1.669
10826SOL    HW133377   6.716   2.907   1.637
10826SOL    HW233378   6.808   2.978   1.752
10827SOL     OW33379   0.723   2.253   4.395
10827SOL    HW133380   0.729   2.344   4.436
10827SOL    HW233381   0.759   2.185   4.459
10828SOL     OW33382   1.343   5.792   0.213
10828SOL    HW133383   1.325   5.719   0.279
10828SOL    HW233384   1.260   5.845   0.199
10829SOL     OW33385   2.525   3.690   1.521
10829SOL    HW133386   2.575   3.658   1.441
10829SOL    HW233387   2.475   3.614   1.562
10830SOL     OW33388   4.647   1.567   3.808
10830SOL    HW133389   4.574   1.563   3.740
10830SOL    HW233390   4.671   1.663   3.825
10831SOL     OW33391   5.309   2.862   3.367
10831SOL    HW133392   5.357   2.866   3.454
10831SOL    HW233393   5.356   2.798   3.306
10832SOL     OW33394   0.042   2.325   1.740
10832SOL    HW133395   0.028   2.280   1.828
10832SOL    HW233396   0.102   2.403   1.752
10833SOL     OW33397   2.959   6.666   4.190
10833SOL    HW133398   2.937   6.763   4.204
10833SOL    HW233399   2.880   6.620   4.150
10834SOL     OW33400   0.519   1.032   5.547
10834SOL    HW133401   0.507   1.126   5.516
10834SOL    HW233402   0.616   1.017   5.569
10835SOL     OW33403   6.955   2.121   1.999
10835SOL    HW133404   6.912   2.043   2.045
10835SOL    HW233405   6.999   2.091   1.915
10836SOL     OW33406   1.585   2.105   0.135
10836SOL    HW133407   1.486   2.110   0.130
10836SOL    HW233408   1.611   2.043   0.210
10837SOL     OW33409   0.543   5.931   1.551
10837SOL    HW133410   0.633   5.970   1.536
10837SOL    HW233411   0.518   5.874   1.473
10838SOL     OW33412   6.247   6.674   1.070
10838SOL    HW133413   6.228   6.771   1.055
10838SOL    HW233414   6.343   6.662   1.095
10839SOL     OW33415   2.231   2.053   0.787
10839SOL    HW133416   2.132   2.059   0.773
10839SOL    HW233417   2.252   1.966   0.832
10840SOL     OW33418   3.722   4.916   2.779
10840SOL    HW133419   3.692   4.918   2.874
10840SOL    HW233420   3.654   4.961   2.721
10841SOL     OW33421   4.428   4.420   5.920
10841SOL    HW133422   4.516   4.438   5.963
10841SOL    HW233423   4.386   4.339   5.962
10842SOL     OW33424   6.595   2.761   1.596
10842SOL    HW133425   6.566   2.738   1.689
10842SOL    HW233426   6.629   2.678   1.551
10843SOL     OW33427   0.341   0.886   1.679
10843SOL    HW133428   0.437   0.910   1.663
10843SOL    HW233429   0.327   0.789   1.657
10844SOL     OW33430   3.267   6.546   3.558
10844SOL    HW133431   3.235   6.452   3.571
10844SOL    HW233432   3.189   6.608   3.556
10845SOL     OW33433   1.632   2.863   0.938
10845SOL    HW133434   1.594   2.887   1.027
10845SOL    HW233435   1.634   2.945   0.880
10846SOL     OW33436   3.471   2.028   1.945
10846SOL    HW133437   3.553   2.072   1.982
10846SOL    HW233438   3.411   2.097   1.905
10847SOL     OW33439   3.922   2.569   5.692
10847SOL    HW133440   3.889   2.654   5.650
10847SOL    HW233441   4.019   2.557   5.671
10848SOL     OW33442   1.682   1.415   0.505
10848SOL    HW133443   1.759   1.394   0.566
10848SOL    HW233444   1.631   1.492   0.542
10849SOL     OW33445   2.429   4.776   4.647
10849SOL    HW133446   2.391   4.856   4.692
10849SOL    HW233447   2.429   4.699   4.710
10850SOL     OW33448   5.783   0.665   1.573
10850SOL    HW133449   5.774   0.764   1.566
10850SOL    HW233450   5.728   0.622   1.501
10851SOL     OW33451   4.343   2.264   6.267
10851SOL    HW133452   4.396   2.288   6.186
10851SOL    HW233453   4.314   2.347   6.315
10852SOL     OW33454   0.395   6.560   6.460
10852SOL    HW133455   0.375   6.531   6.366
10852SOL    HW233456   0.317   6.539   6.519
10853SOL     OW33457   2.181   1.427   4.730
10853SOL    HW133458   2.270   1.435   4.685
10853SOL    HW233459   2.126   1.359   4.683
10854SOL     OW33460   0.378   6.408   0.314
10854SOL    HW133461   0.351   6.312   0.304
10854SOL    HW233462   0.478   6.414   0.317
10855SOL     OW33463   1.428   6.089   1.859
10855SOL    HW133464   1.427   6.151   1.781
10855SOL    HW233465   1.519   6.048   1.868
10856SOL     OW33466   6.100   0.412   6.790
10856SOL    HW133467   6.082   0.352   6.712
10856SOL    HW233468   6.129   0.356   6.869
10857SOL     OW33469   6.198   0.353   4.943
10857SOL    HW133470   6.247   0.419   4.886
10857SOL    HW233471   6.253   0.269   4.951
10858SOL     OW33472   2.154   2.073   0.121
10858SOL    HW133473   2.106   2.110   0.041
10858SOL    HW233474   2.208   1.993   0.093
10859SOL     OW33475   0.844   5.116   2.047
10859SOL    HW133476   0.824   5.171   2.128
10859SOL    HW233477   0.767   5.056   2.028
10860SOL     OW33478   6.008   2.851   0.748
10860SOL    HW133479   5.947   2.927   0.772
10860SOL    HW233480   5.955   2.778   0.706
10861SOL     OW33481   3.316   2.825   2.079
10861SOL    HW133482   3.332   2.842   2.176
10861SOL    HW233483   3.380   2.755   2.047
10862SOL     OW33484   3.566   2.996   5.946
10862SOL    HW133485   3.480   3.016   5.899
10862SOL    HW233486   3.599   2.905   5.920
10863SOL     OW33487   2.485   1.257   3.257
10863SOL    HW133488   2.475   1.161   3.228
10863SOL    HW233489   2.482   1.316   3.176
10864SOL     OW33490   3.180   4.749   1.597
10864SOL    HW133491   3.235   4.807   1.538
10864SOL    HW233492   3.087   4.743   1.561
10865SOL     OW33493   3.755   1.359   2.614
10865SOL    HW133494   3.854   1.362   2.601
10865SOL    HW233495   3.713   1.302   2.544
10866SOL     OW33496   6.825   3.623   3.141
10866SOL    HW133497   6.902   3.686   3.129
10866SOL    HW233498   6.745   3.674   3.173
10867SOL     OW33499   4.291   3.356   0.676
10867SOL    HW133500   4.235   3.404   0.608
10867SOL    HW233501   4.231   3.318   0.747
10868SOL     OW33502   1.443   0.865   5.046
10868SOL    HW133503   1.354   0.904   5.021
10868SOL    HW233504   1.430   0.796   5.117
10869NA      NA33505   6.929   1.881   5.879
10870NA      NA33506   4.498   4.446   5.158
10871NA      NA33507   1.486   4.742   3.108
10872NA      NA33508   5.952   3.943   3.367
10873NA      NA33509   3.683   2.378   5.418
10874NA      NA33510   2.243   4.938   0.401
10875NA      NA33511   1.221   5.464   6.951
10876NA      NA33512   3.679   4.280   1.059
10877NA      NA33513   4.005   5.260   0.612
10878NA      NA33514   3.562   1.303   6.365
10879NA      NA33515   5.499   6.899   1.680
10880NA      NA33516   2.096   6.488   5.272
10881NA      NA33517   4.144   5.296   1.842
10882NA      NA33518   3.640   3.254   6.546
   7.02043   7.02043   7.02043
