Generated by trjconv : CNT in water t= 412.00000
33518
    1C        C    1   2.846   2.769   4.751
    1C        C    2   2.903   2.723   4.871
    1C        C    3   2.850   2.780   4.987
    1C        C    4   2.853   2.774   4.262
    1C        C    5   2.904   2.730   4.387
    1C        C    6   2.848   2.775   4.508
    1C        C    7   3.017   2.643   4.627
    1C        C    8   2.900   2.723   4.629
    1C        C    9   3.079   2.600   4.746
    1C        C   10   3.012   2.633   4.867
    1C        C   11   3.184   2.492   4.981
    1C        C   12   3.066   2.567   4.978
    1C        C   13   2.855   2.774   3.775
    1C        C   14   2.905   2.723   3.897
    1C        C   15   2.855   2.776   4.018
    1C        C   16   3.020   2.643   4.141
    1C        C   17   2.906   2.726   4.140
    1C        C   18   3.083   2.615   4.264
    1C        C   19   3.019   2.648   4.386
    1C        C   20   3.209   2.549   4.506
    1C        C   21   3.081   2.607   4.506
    1C        C   22   3.277   2.524   4.627
    1C        C   23   3.207   2.539   4.749
    1C        C   24   3.415   2.485   4.867
    1C        C   25   3.272   2.499   4.869
    1C        C   26   3.490   2.481   4.985
    1C        C   27   2.855   2.771   3.281
    1C        C   28   2.905   2.723   3.404
    1C        C   29   2.855   2.771   3.528
    1C        C   30   3.024   2.649   3.652
    1C        C   31   2.909   2.730   3.652
    1C        C   32   3.078   2.602   3.774
    1C        C   33   3.015   2.634   3.896
    1C        C   34   3.207   2.547   4.020
    1C        C   35   3.076   2.600   4.019
    1C        C   36   3.277   2.531   4.142
    1C        C   37   3.210   2.552   4.265
    1C        C   38   3.418   2.501   4.382
    1C        C   39   3.279   2.526   4.385
    1C        C   40   3.489   2.497   4.504
    1C        C   41   3.416   2.500   4.626
    1C        C   42   3.631   2.486   4.746
    1C        C   43   3.489   2.484   4.746
    1C        C   44   3.703   2.491   4.868
    1C        C   45   3.629   2.483   4.987
    1C        C   46   2.842   2.757   2.794
    1C        C   47   2.901   2.712   2.915
    1C        C   48   2.854   2.766   3.037
    1C        C   49   3.017   2.633   3.162
    1C        C   50   2.908   2.723   3.160
    1C        C   51   3.079   2.602   3.285
    1C        C   52   3.018   2.639   3.408
    1C        C   53   3.210   2.548   3.530
    1C        C   54   3.082   2.607   3.530
    1C        C   55   3.276   2.524   3.653
    1C        C   56   3.208   2.546   3.775
    1C        C   57   3.413   2.503   3.900
    1C        C   58   3.273   2.523   3.898
    1C        C   59   3.488   2.496   4.019
    1C        C   60   3.416   2.507   4.140
    1C        C   61   3.631   2.501   4.261
    1C        C   62   3.490   2.499   4.260
    1C        C   63   3.702   2.509   4.383
    1C        C   64   3.630   2.500   4.504
    1C        C   65   3.837   2.542   4.625
    1C        C   66   3.703   2.499   4.625
    1C        C   67   3.903   2.571   4.747
    1C        C   68   3.839   2.528   4.865
    1C        C   69   4.051   2.584   4.978
    1C        C   70   3.920   2.534   4.979
    1C        C   71   2.828   2.737   2.309
    1C        C   72   2.887   2.696   2.430
    1C        C   73   2.834   2.747   2.551
    1C        C   74   3.012   2.629   2.672
    1C        C   75   2.894   2.707   2.673
    1C        C   76   3.074   2.594   2.794
    1C        C   77   3.015   2.630   2.917
    1C        C   78   3.210   2.547   3.038
    1C        C   79   3.079   2.599   3.040
    1C        C   80   3.277   2.528   3.162
    1C        C   81   3.209   2.548   3.284
    1C        C   82   3.414   2.494   3.403
    1C        C   83   3.276   2.528   3.407
    1C        C   84   3.481   2.489   3.527
    1C        C   85   3.415   2.501   3.651
    1C        C   86   3.623   2.505   3.771
    1C        C   87   3.481   2.498   3.776
    1C        C   88   3.696   2.507   3.892
    1C        C   89   3.629   2.500   4.016
    1C        C   90   3.835   2.551   4.139
    1C        C   91   3.699   2.512   4.138
    1C        C   92   3.903   2.577   4.260
    1C        C   93   3.837   2.549   4.382
    1C        C   94   4.032   2.631   4.500
    1C        C   95   3.906   2.567   4.504
    1C        C   96   4.092   2.672   4.622
    1C        C   97   4.031   2.633   4.743
    1C        C   98   4.195   2.764   4.863
    1C        C   99   4.101   2.655   4.865
    1C        C  100   4.217   2.843   4.976
    1C        C  101   2.821   2.733   2.072
    1C        C  102   2.995   2.598   2.194
    1C        C  103   2.880   2.683   2.188
    1C        C  104   3.067   2.572   2.314
    1C        C  105   3.005   2.619   2.432
    1C        C  106   3.202   2.530   2.552
    1C        C  107   3.074   2.589   2.551
    1C        C  108   3.271   2.517   2.675
    1C        C  109   3.202   2.535   2.797
    1C        C  110   3.413   2.492   2.913
    1C        C  111   3.273   2.514   2.917
    1C        C  112   3.483   2.489   3.036
    1C        C  113   3.415   2.499   3.159
    1C        C  114   3.626   2.498   3.282
    1C        C  115   3.485   2.489   3.281
    1C        C  116   3.694   2.511   3.406
    1C        C  117   3.622   2.497   3.527
    1C        C  118   3.830   2.543   3.649
    1C        C  119   3.693   2.508   3.649
    1C        C  120   3.897   2.570   3.770
    1C        C  121   3.832   2.546   3.893
    1C        C  122   4.023   2.641   4.013
    1C        C  123   3.899   2.573   4.015
    1C        C  124   4.087   2.678   4.134
    1C        C  125   4.028   2.644   4.257
    1C        C  126   4.194   2.772   4.379
    1C        C  127   4.088   2.679   4.380
    1C        C  128   4.243   2.824   4.501
    1C        C  129   4.196   2.767   4.622
    1C        C  130   4.329   2.934   4.741
    1C        C  131   4.248   2.818   4.743
    1C        C  132   4.360   3.001   4.862
    1C        C  133   4.293   2.960   4.977
    1C        C  134   3.175   2.476   2.079
    1C        C  135   3.040   2.509   2.091
    1C        C  136   3.263   2.478   2.189
    1C        C  137   3.198   2.517   2.308
    1C        C  138   3.407   2.481   2.427
    1C        C  139   3.268   2.503   2.430
    1C        C  140   3.480   2.476   2.548
    1C        C  141   3.410   2.489   2.669
    1C        C  142   3.624   2.488   2.792
    1C        C  143   3.483   2.485   2.790
    1C        C  144   3.694   2.499   2.914
    1C        C  145   3.624   2.495   3.036
    1C        C  146   3.831   2.540   3.158
    1C        C  147   3.694   2.503   3.159
    1C        C  148   3.895   2.570   3.280
    1C        C  149   3.830   2.547   3.404
    1C        C  150   4.022   2.633   3.526
    1C        C  151   3.894   2.572   3.527
    1C        C  152   4.084   2.673   3.647
    1C        C  153   4.021   2.639   3.768
    1C        C  154   4.191   2.767   3.887
    1C        C  155   4.080   2.679   3.890
    1C        C  156   4.244   2.815   4.009
    1C        C  157   4.199   2.764   4.133
    1C        C  158   4.335   2.927   4.255
    1C        C  159   4.247   2.815   4.256
    1C        C  160   4.376   2.990   4.374
    1C        C  161   4.331   2.934   4.496
    1C        C  162   4.438   3.117   4.616
    1C        C  163   4.369   2.993   4.619
    1C        C  164   4.473   3.182   4.736
    1C        C  165   4.435   3.121   4.858
    1C        C  166   4.519   3.321   4.970
    1C        C  167   4.477   3.188   4.973
    1C        C  168   3.478   2.432   2.072
    1C        C  169   3.402   2.458   2.187
    1C        C  170   3.620   2.472   2.307
    1C        C  171   3.478   2.465   2.306
    1C        C  172   3.693   2.491   2.427
    1C        C  173   3.621   2.488   2.548
    1C        C  174   3.827   2.545   2.668
    1C        C  175   3.692   2.504   2.669
    1C        C  176   3.897   2.564   2.790
    1C        C  177   3.830   2.539   2.912
    1C        C  178   4.020   2.631   3.036
    1C        C  179   3.894   2.566   3.035
    1C        C  180   4.085   2.664   3.157
    1C        C  181   4.022   2.633   3.280
    1C        C  182   4.192   2.755   3.400
    1C        C  183   4.081   2.669   3.403
    1C        C  184   4.244   2.810   3.520
    1C        C  185   4.195   2.761   3.643
    1C        C  186   4.332   2.923   3.768
    1C        C  187   4.243   2.814   3.765
    1C        C  188   4.372   2.986   3.888
    1C        C  189   4.334   2.924   4.009
    1C        C  190   4.444   3.105   4.128
    1C        C  191   4.372   2.984   4.131
    1C        C  192   4.474   3.172   4.249
    1C        C  193   4.448   3.111   4.373
    1C        C  194   4.514   3.315   4.492
    1C        C  195   4.468   3.182   4.494
    1C        C  196   4.531   3.387   4.613
    1C        C  197   4.515   3.318   4.735
    1C        C  198   4.552   3.537   4.851
    1C        C  199   4.536   3.395   4.852
    1C        C  200   4.580   3.618   4.965
    1C        C  201   3.617   2.419   2.072
    1C        C  202   3.828   2.510   2.187
    1C        C  203   3.693   2.462   2.185
    1C        C  204   3.901   2.542   2.304
    1C        C  205   3.831   2.522   2.425
    1C        C  206   4.022   2.622   2.544
    1C        C  207   3.894   2.561   2.545
    1C        C  208   4.082   2.659   2.666
    1C        C  209   4.022   2.630   2.791
    1C        C  210   4.191   2.756   2.911
    1C        C  211   4.079   2.670   2.914
    1C        C  212   4.247   2.802   3.033
    1C        C  213   4.197   2.750   3.154
    1C        C  214   4.329   2.914   3.274
    1C        C  215   4.245   2.800   3.277
    1C        C  216   4.370   2.976   3.395
    1C        C  217   4.331   2.921   3.519
    1C        C  218   4.439   3.100   3.640
    1C        C  219   4.371   2.976   3.643
    1C        C  220   4.471   3.168   3.760
    1C        C  221   4.442   3.109   3.885
    1C        C  222   4.512   3.307   4.004
    1C        C  223   4.477   3.170   4.007
    1C        C  224   4.524   3.377   4.126
    1C        C  225   4.511   3.308   4.249
    1C        C  226   4.525   3.523   4.364
    1C        C  227   4.527   3.382   4.369
    1C        C  228   4.524   3.596   4.485
    1C        C  229   4.531   3.528   4.608
    1C        C  230   4.508   3.743   4.730
    1C        C  231   4.539   3.604   4.726
    1C        C  232   4.494   3.820   4.847
    1C        C  233   4.543   3.753   4.960
    1C        C  234   4.020   2.615   2.064
    1C        C  235   3.898   2.548   2.072
    1C        C  236   4.087   2.651   2.182
    1C        C  237   4.025   2.612   2.303
    1C        C  238   4.201   2.739   2.424
    1C        C  239   4.086   2.656   2.422
    1C        C  240   4.252   2.790   2.545
    1C        C  241   4.193   2.746   2.666
    1C        C  242   4.333   2.907   2.786
    1C        C  243   4.242   2.800   2.787
    1C        C  244   4.380   2.963   2.907
    1C        C  245   4.340   2.908   3.031
    1C        C  246   4.446   3.092   3.151
    1C        C  247   4.376   2.969   3.153
    1C        C  248   4.476   3.160   3.271
    1C        C  249   4.445   3.096   3.394
    1C        C  250   4.501   3.300   3.515
    1C        C  251   4.466   3.163   3.516
    1C        C  252   4.517   3.371   3.636
    1C        C  253   4.510   3.304   3.760
    1C        C  254   4.527   3.516   3.879
    1C        C  255   4.527   3.375   3.881
    1C        C  256   4.519   3.590   4.000
    1C        C  257   4.528   3.518   4.121
    1C        C  258   4.490   3.731   4.244
    1C        C  259   4.520   3.593   4.241
    1C        C  260   4.472   3.801   4.365
    1C        C  261   4.494   3.734   4.488
    1C        C  262   4.425   3.938   4.606
    1C        C  263   4.481   3.808   4.608
    1C        C  264   4.398   4.009   4.725
    1C        C  265   4.437   3.950   4.847
    1C        C  266   4.323   4.133   4.960
    1C        C  267   4.394   4.014   4.963
    1C        C  268   4.265   2.775   2.062
    1C        C  269   4.202   2.734   2.180
    1C        C  270   4.350   2.889   2.300
    1C        C  271   4.255   2.784   2.301
    1C        C  272   4.388   2.953   2.420
    1C        C  273   4.343   2.898   2.542
    1C        C  274   4.451   3.082   2.664
    1C        C  275   4.380   2.960   2.664
    1C        C  276   4.484   3.150   2.783
    1C        C  277   4.451   3.085   2.905
    1C        C  278   4.512   3.289   3.024
    1C        C  279   4.475   3.152   3.027
    1C        C  280   4.516   3.364   3.144
    1C        C  281   4.504   3.298   3.269
    1C        C  282   4.525   3.508   3.391
    1C        C  283   4.518   3.367   3.391
    1C        C  284   4.519   3.580   3.513
    1C        C  285   4.523   3.512   3.637
    1C        C  286   4.493   3.725   3.754
    1C        C  287   4.523   3.587   3.757
    1C        C  288   4.474   3.794   3.875
    1C        C  289   4.491   3.728   3.999
    1C        C  290   4.421   3.929   4.117
    1C        C  291   4.471   3.797   4.121
    1C        C  292   4.396   3.997   4.239
    1C        C  293   4.426   3.934   4.362
    1C        C  294   4.326   4.124   4.480
    1C        C  295   4.393   4.000   4.483
    1C        C  296   4.287   4.189   4.599
    1C        C  297   4.328   4.133   4.721
    1C        C  298   4.203   4.315   4.840
    1C        C  299   4.285   4.197   4.841
    1C        C  300   4.173   4.406   4.945
    1C        C  301   4.355   2.881   2.065
    1C        C  302   4.474   3.069   2.177
    1C        C  303   4.403   2.945   2.180
    1C        C  304   4.489   3.142   2.299
    1C        C  305   4.456   3.077   2.420
    1C        C  306   4.516   3.282   2.538
    1C        C  307   4.481   3.145   2.541
    1C        C  308   4.523   3.356   2.658
    1C        C  309   4.513   3.288   2.781
    1C        C  310   4.527   3.501   2.901
    1C        C  311   4.526   3.359   2.903
    1C        C  312   4.516   3.573   3.022
    1C        C  313   4.519   3.505   3.146
    1C        C  314   4.486   3.714   3.266
    1C        C  315   4.515   3.576   3.268
    1C        C  316   4.471   3.786   3.387
    1C        C  317   4.491   3.719   3.509
    1C        C  318   4.427   3.923   3.628
    1C        C  319   4.475   3.790   3.630
    1C        C  320   4.395   3.988   3.749
    1C        C  321   4.422   3.926   3.873
    1C        C  322   4.315   4.112   3.993
    1C        C  323   4.389   3.991   3.994
    1C        C  324   4.275   4.169   4.115
    1C        C  325   4.325   4.119   4.238
    1C        C  326   4.187   4.284   4.357
    1C        C  327   4.285   4.182   4.358
    1C        C  328   4.136   4.339   4.476
    1C        C  329   4.191   4.292   4.598
    1C        C  330   4.027   4.435   4.714
    1C        C  331   4.138   4.346   4.717
    1C        C  332   3.971   4.493   4.830
    1C        C  333   4.053   4.478   4.943
    1C        C  334   4.559   3.269   2.067
    1C        C  335   4.535   3.131   2.064
    1C        C  336   4.546   3.352   2.179
    1C        C  337   4.524   3.280   2.298
    1C        C  338   4.527   3.496   2.412
    1C        C  339   4.527   3.355   2.418
    1C        C  340   4.525   3.567   2.534
    1C        C  341   4.526   3.497   2.657
    1C        C  342   4.495   3.708   2.776
    1C        C  343   4.524   3.570   2.778
    1C        C  344   4.480   3.781   2.896
    1C        C  345   4.487   3.711   3.019
    1C        C  346   4.419   3.911   3.138
    1C        C  347   4.467   3.778   3.141
    1C        C  348   4.391   3.979   3.259
    1C        C  349   4.415   3.916   3.383
    1C        C  350   4.317   4.103   3.500
    1C        C  351   4.386   3.980   3.506
    1C        C  352   4.280   4.164   3.622
    1C        C  353   4.320   4.108   3.745
    1C        C  354   4.178   4.265   3.869
    1C        C  355   4.276   4.163   3.867
    1C        C  356   4.125   4.316   3.989
    1C        C  357   4.176   4.270   4.113
    1C        C  358   4.011   4.403   4.233
    1C        C  359   4.127   4.322   4.235
    1C        C  360   3.954   4.452   4.353
    1C        C  361   4.017   4.415   4.474
    1C        C  362   3.830   4.523   4.592
    1C        C  363   3.957   4.460   4.594
    1C        C  364   3.763   4.552   4.712
    1C        C  365   3.838   4.540   4.831
    1C        C  366   3.629   4.589   4.952
    1C        C  367   3.767   4.569   4.948
    1C        C  368   4.514   3.564   2.051
    1C        C  369   4.527   3.492   2.170
    1C        C  370   4.497   3.706   2.287
    1C        C  371   4.514   3.566   2.290
    1C        C  372   4.485   3.776   2.409
    1C        C  373   4.502   3.706   2.531
    1C        C  374   4.423   3.905   2.649
    1C        C  375   4.478   3.775   2.652
    1C        C  376   4.389   3.971   2.770
    1C        C  377   4.429   3.913   2.892
    1C        C  378   4.321   4.095   3.012
    1C        C  379   4.396   3.975   3.014
    1C        C  380   4.270   4.150   3.132
    1C        C  381   4.313   4.097   3.255
    1C        C  382   4.176   4.259   3.378
    1C        C  383   4.274   4.157   3.377
    1C        C  384   4.124   4.308   3.500
    1C        C  385   4.179   4.263   3.622
    1C        C  386   4.009   4.389   3.744
    1C        C  387   4.125   4.307   3.745
    1C        C  388   3.947   4.429   3.864
    1C        C  389   4.008   4.394   3.987
    1C        C  390   3.820   4.489   4.107
    1C        C  391   3.950   4.433   4.110
    1C        C  392   3.752   4.519   4.228
    1C        C  393   3.824   4.507   4.349
    1C        C  394   3.618   4.556   4.474
    1C        C  395   3.757   4.532   4.471
    1C        C  396   3.548   4.563   4.597
    1C        C  397   3.623   4.569   4.716
    1C        C  398   3.411   4.553   4.839
    1C        C  399   3.550   4.576   4.837
    1C        C  400   3.343   4.518   4.956
    1C        C  401   4.507   3.703   2.050
    1C        C  402   4.453   3.915   2.166
    1C        C  403   4.491   3.779   2.166
    1C        C  404   4.412   3.975   2.287
    1C        C  405   4.439   3.909   2.409
    1C        C  406   4.325   4.094   2.527
    1C        C  407   4.396   3.972   2.528
    1C        C  408   4.279   4.152   2.647
    1C        C  409   4.311   4.089   2.769
    1C        C  410   4.179   4.254   2.888
    1C        C  411   4.275   4.150   2.891
    1C        C  412   4.125   4.302   3.010
    1C        C  413   4.174   4.254   3.133
    1C        C  414   4.004   4.380   3.254
    1C        C  415   4.123   4.304   3.255
    1C        C  416   3.941   4.415   3.376
    1C        C  417   4.006   4.385   3.497
    1C        C  418   3.818   4.478   3.620
    1C        C  419   3.946   4.419   3.621
    1C        C  420   3.752   4.508   3.742
    1C        C  421   3.819   4.488   3.865
    1C        C  422   3.612   4.539   3.985
    1C        C  423   3.751   4.513   3.986
    1C        C  424   3.544   4.547   4.108
    1C        C  425   3.613   4.542   4.231
    1C        C  426   3.402   4.542   4.356
    1C        C  427   3.544   4.547   4.354
    1C        C  428   3.334   4.545   4.480
    1C        C  429   3.407   4.554   4.600
    1C        C  430   3.195   4.519   4.721
    1C        C  431   3.334   4.549   4.721
    1C        C  432   3.126   4.496   4.844
    1C        C  433   3.206   4.494   4.959
    1C        C  434   4.386   4.122   2.053
    1C        C  435   4.448   3.997   2.053
    1C        C  436   4.305   4.161   2.164
    1C        C  437   4.332   4.093   2.286
    1C        C  438   4.186   4.254   2.404
    1C        C  439   4.280   4.149   2.405
    1C        C  440   4.125   4.300   2.523
    1C        C  441   4.177   4.250   2.644
    1C        C  442   4.007   4.378   2.767
    1C        C  443   4.122   4.296   2.766
    1C        C  444   3.947   4.421   2.887
    1C        C  445   4.008   4.380   3.008
    1C        C  446   3.815   4.469   3.131
    1C        C  447   3.944   4.413   3.130
    1C        C  448   3.748   4.497   3.252
    1C        C  449   3.813   4.475   3.375
    1C        C  450   3.610   4.523   3.499
    1C        C  451   3.749   4.501   3.499
    1C        C  452   3.541   4.532   3.622
    1C        C  453   3.614   4.534   3.743
    1C        C  454   3.399   4.541   3.866
    1C        C  455   3.541   4.546   3.864
    1C        C  456   3.334   4.527   3.991
    1C        C  457   3.403   4.538   4.114
    1C        C  458   3.192   4.507   4.236
    1C        C  459   3.330   4.533   4.235
    1C        C  460   3.126   4.488   4.360
    1C        C  461   3.195   4.516   4.480
    1C        C  462   2.998   4.436   4.605
    1C        C  463   3.125   4.497   4.601
    1C        C  464   2.930   4.401   4.724
    1C        C  465   2.991   4.448   4.843
    1C        C  466   2.806   4.334   4.964
    1C        C  467   2.908   4.430   4.958
    1C        C  468   4.125   4.283   2.043
    1C        C  469   4.195   4.252   2.160
    1C        C  470   4.015   4.375   2.283
    1C        C  471   4.137   4.302   2.280
    1C        C  472   3.945   4.407   2.401
    1C        C  473   4.010   4.382   2.524
    1C        C  474   3.813   4.463   2.645
    1C        C  475   3.946   4.416   2.645
    1C        C  476   3.746   4.493   2.766
    1C        C  477   3.814   4.469   2.888
    1C        C  478   3.608   4.526   3.011
    1C        C  479   3.746   4.492   3.009
    1C        C  480   3.537   4.535   3.132
    1C        C  481   3.609   4.525   3.253
    1C        C  482   3.400   4.532   3.377
    1C        C  483   3.541   4.535   3.376
    1C        C  484   3.330   4.525   3.500
    1C        C  485   3.400   4.534   3.622
    1C        C  486   3.192   4.495   3.745
    1C        C  487   3.329   4.531   3.744
    1C        C  488   3.127   4.479   3.869
    1C        C  489   3.195   4.501   3.991
    1C        C  490   3.004   4.413   4.116
    1C        C  491   3.126   4.484   4.113
    1C        C  492   2.947   4.378   4.240
    1C        C  493   3.000   4.424   4.362
    1C        C  494   2.833   4.297   4.485
    1C        C  495   2.937   4.393   4.485
    1C        C  496   2.773   4.255   4.606
    1C        C  497   2.820   4.312   4.727
    1C        C  498   2.667   4.164   4.846
    1C        C  499   2.758   4.272   4.848
    1C        C  500   2.597   4.117   4.958
    1C        C  501   4.002   4.348   2.046
    1C        C  502   3.818   4.463   2.158
    1C        C  503   3.946   4.404   2.162
    1C        C  504   3.747   4.484   2.278
    1C        C  505   3.813   4.457   2.400
    1C        C  506   3.608   4.513   2.524
    1C        C  507   3.745   4.477   2.522
    1C        C  508   3.536   4.519   2.645
    1C        C  509   3.607   4.519   2.767
    1C        C  510   3.396   4.530   2.886
    1C        C  511   3.538   4.533   2.889
    1C        C  512   3.325   4.527   3.008
    1C        C  513   3.396   4.537   3.129
    1C        C  514   3.193   4.491   3.256
    1C        C  515   3.330   4.527   3.254
    1C        C  516   3.126   4.467   3.377
    1C        C  517   3.191   4.500   3.499
    1C        C  518   3.000   4.413   3.626
    1C        C  519   3.125   4.479   3.622
    1C        C  520   2.942   4.375   3.749
    1C        C  521   3.003   4.411   3.871
    1C        C  522   2.837   4.282   3.998
    1C        C  523   2.947   4.370   3.994
    1C        C  524   2.789   4.235   4.122
    1C        C  525   2.836   4.290   4.244
    1C        C  526   2.694   4.132   4.364
    1C        C  527   2.783   4.242   4.365
    1C        C  528   2.650   4.078   4.487
    1C        C  529   2.690   4.141   4.607
    1C        C  530   2.583   3.959   4.734
    1C        C  531   2.645   4.087   4.730
    1C        C  532   2.543   3.897   4.855
    1C        C  533   2.531   3.993   4.961
    1C        C  534   3.618   4.556   2.044
    1C        C  535   3.752   4.514   2.045
    1C        C  536   3.538   4.529   2.160
    1C        C  537   3.608   4.512   2.282
    1C        C  538   3.393   4.512   2.401
    1C        C  539   3.534   4.516   2.403
    1C        C  540   3.323   4.509   2.524
    1C        C  541   3.395   4.513   2.646
    1C        C  542   3.184   4.480   2.766
    1C        C  543   3.322   4.512   2.767
    1C        C  544   3.120   4.464   2.891
    1C        C  545   3.188   4.490   3.012
    1C        C  546   2.999   4.398   3.136
    1C        C  547   3.124   4.464   3.135
    1C        C  548   2.939   4.364   3.259
    1C        C  549   2.998   4.406   3.380
    1C        C  550   2.833   4.280   3.506
    1C        C  551   2.942   4.370   3.505
    1C        C  552   2.783   4.231   3.630
    1C        C  553   2.833   4.285   3.750
    1C        C  554   2.701   4.123   3.876
    1C        C  555   2.787   4.234   3.874
    1C        C  556   2.663   4.063   3.998
    1C        C  557   2.698   4.127   4.119
    1C        C  558   2.593   3.946   4.246
    1C        C  559   2.654   4.073   4.242
    1C        C  560   2.568   3.882   4.370
    1C        C  561   2.589   3.951   4.491
    1C        C  562   2.531   3.749   4.617
    1C        C  563   2.563   3.887   4.614
    1C        C  564   2.516   3.680   4.739
    1C        C  565   2.520   3.756   4.859
    1C        C  566   2.521   3.543   4.979
    1C        C  567   2.526   3.682   4.978
    1C        C  568   3.331   4.471   2.041
    1C        C  569   3.398   4.507   2.158
    1C        C  570   3.184   4.475   2.281
    1C        C  571   3.323   4.508   2.279
    1C        C  572   3.116   4.455   2.403
    1C        C  573   3.185   4.480   2.523
    1C        C  574   2.988   4.400   2.649
    1C        C  575   3.116   4.461   2.645
    1C        C  576   2.931   4.363   2.772
    1C        C  577   2.994   4.401   2.893
    1C        C  578   2.826   4.274   3.017
    1C        C  579   2.934   4.364   3.015
    1C        C  580   2.779   4.223   3.141
    1C        C  581   2.830   4.274   3.262
    1C        C  582   2.699   4.112   3.384
    1C        C  583   2.785   4.224   3.386
    1C        C  584   2.660   4.058   3.509
    1C        C  585   2.699   4.118   3.631
    1C        C  586   2.592   3.939   3.759
    1C        C  587   2.658   4.064   3.755
    1C        C  588   2.566   3.874   3.881
    1C        C  589   2.597   3.938   4.004
    1C        C  590   2.528   3.740   4.130
    1C        C  591   2.568   3.875   4.127
    1C        C  592   2.519   3.673   4.254
    1C        C  593   2.526   3.747   4.374
    1C        C  594   2.514   3.535   4.498
    1C        C  595   2.516   3.677   4.496
    1C        C  596   2.513   3.465   4.621
    1C        C  597   2.516   3.538   4.742
    1C        C  598   2.525   3.325   4.865
    1C        C  599   2.514   3.465   4.863
    1C        C  600   2.525   3.245   4.980
    1C        C  601   3.198   4.434   2.041
    1C        C  602   2.987   4.389   2.157
    1C        C  603   3.122   4.435   2.159
    1C        C  604   2.926   4.359   2.282
    1C        C  605   2.986   4.399   2.404
    1C        C  606   2.817   4.274   2.530
    1C        C  607   2.927   4.363   2.527
    1C        C  608   2.773   4.218   2.652
    1C        C  609   2.825   4.269   2.773
    1C        C  610   2.689   4.109   2.896
    1C        C  611   2.776   4.221   2.896
    1C        C  612   2.653   4.052   3.020
    1C        C  613   2.690   4.114   3.142
    1C        C  614   2.588   3.928   3.266
    1C        C  615   2.649   4.056   3.264
    1C        C  616   2.568   3.867   3.392
    1C        C  617   2.595   3.933   3.514
    1C        C  618   2.530   3.735   3.639
    1C        C  619   2.565   3.872   3.638
    1C        C  620   2.520   3.667   3.763
    1C        C  621   2.527   3.739   3.885
    1C        C  622   2.513   3.528   4.011
    1C        C  623   2.519   3.669   4.008
    1C        C  624   2.513   3.460   4.135
    1C        C  625   2.509   3.532   4.256
    1C        C  626   2.536   3.322   4.379
    1C        C  627   2.514   3.461   4.378
    1C        C  628   2.556   3.256   4.503
    1C        C  629   2.539   3.326   4.624
    1C        C  630   2.598   3.120   4.746
    1C        C  631   2.551   3.254   4.745
    1C        C  632   2.618   3.052   4.869
    1C        C  633   2.557   3.109   4.985
    1C        C  634   2.780   4.307   2.055
    1C        C  635   2.894   4.388   2.048
    1C        C  636   2.747   4.233   2.170
    1C        C  637   2.811   4.275   2.288
    1C        C  638   2.674   4.113   2.409
    1C        C  639   2.759   4.226   2.410
    1C        C  640   2.647   4.048   2.531
    1C        C  641   2.686   4.107   2.653
    1C        C  642   2.586   3.920   2.777
    1C        C  643   2.649   4.047   2.776
    1C        C  644   2.557   3.860   2.902
    1C        C  645   2.589   3.926   3.022
    1C        C  646   2.527   3.724   3.149
    1C        C  647   2.568   3.859   3.145
    1C        C  648   2.514   3.660   3.275
    1C        C  649   2.528   3.731   3.396
    1C        C  650   2.513   3.522   3.521
    1C        C  651   2.514   3.663   3.519
    1C        C  652   2.518   3.453   3.644
    1C        C  653   2.518   3.526   3.765
    1C        C  654   2.539   3.317   3.890
    1C        C  655   2.519   3.457   3.888
    1C        C  656   2.556   3.250   4.013
    1C        C  657   2.540   3.321   4.135
    1C        C  658   2.610   3.123   4.260
    1C        C  659   2.556   3.254   4.257
    1C        C  660   2.637   3.059   4.383
    1C        C  661   2.605   3.124   4.504
    1C        C  662   2.709   2.936   4.627
    1C        C  663   2.636   3.057   4.625
    1C        C  664   2.750   2.874   4.747
    1C        C  665   2.700   2.934   4.866
    1C        C  666   2.749   2.876   4.983
    1C        C  667   2.672   4.029   2.057
    1C        C  668   2.676   4.111   2.170
    1C        C  669   2.584   3.915   2.292
    1C        C  670   2.639   4.046   2.289
    1C        C  671   2.554   3.851   2.414
    1C        C  672   2.583   3.922   2.533
    1C        C  673   2.519   3.719   2.658
    1C        C  674   2.561   3.854   2.655
    1C        C  675   2.506   3.653   2.782
    1C        C  676   2.523   3.722   2.903
    1C        C  677   2.510   3.513   3.031
    1C        C  678   2.515   3.654   3.027
    1C        C  679   2.512   3.446   3.155
    1C        C  680   2.509   3.519   3.276
    1C        C  681   2.538   3.311   3.402
    1C        C  682   2.515   3.450   3.399
    1C        C  683   2.558   3.243   3.524
    1C        C  684   2.542   3.314   3.645
    1C        C  685   2.608   3.115   3.771
    1C        C  686   2.560   3.247   3.769
    1C        C  687   2.644   3.057   3.895
    1C        C  688   2.610   3.120   4.017
    1C        C  689   2.718   2.937   4.142
    1C        C  690   2.643   3.057   4.139
    1C        C  691   2.760   2.880   4.264
    1C        C  692   2.712   2.939   4.383
    1C        C  693   2.756   2.883   4.505
    1C        C  694   2.632   3.894   2.059
    1C        C  695   2.520   3.708   2.176
    1C        C  696   2.572   3.840   2.174
    1C        C  697   2.503   3.639   2.298
    1C        C  698   2.515   3.715   2.416
    1C        C  699   2.489   3.505   2.544
    1C        C  700   2.498   3.646   2.539
    1C        C  701   2.504   3.437   2.667
    1C        C  702   2.501   3.512   2.787
    1C        C  703   2.533   3.302   2.913
    1C        C  704   2.511   3.442   2.909
    1C        C  705   2.551   3.237   3.037
    1C        C  706   2.538   3.307   3.159
    1C        C  707   2.604   3.106   3.278
    1C        C  708   2.557   3.239   3.281
    1C        C  709   2.641   3.050   3.402
    1C        C  710   2.610   3.112   3.525
    1C        C  711   2.720   2.935   3.651
    1C        C  712   2.637   3.049   3.649
    1C        C  713   2.764   2.882   3.774
    1C        C  714   2.721   2.939   3.896
    1C        C  715   2.764   2.884   4.019
    1C        C  716   2.455   3.500   2.062
    1C        C  717   2.495   3.634   2.060
    1C        C  718   2.465   3.422   2.181
    1C        C  719   2.481   3.499   2.300
    1C        C  720   2.512   3.293   2.425
    1C        C  721   2.484   3.432   2.424
    1C        C  722   2.539   3.226   2.547
    1C        C  723   2.529   3.298   2.668
    1C        C  724   2.593   3.098   2.791
    1C        C  725   2.544   3.230   2.792
    1C        C  726   2.628   3.038   2.914
    1C        C  727   2.599   3.104   3.035
    1C        C  728   2.714   2.925   3.158
    1C        C  729   2.632   3.041   3.157
    1C        C  730   2.762   2.877   3.282
    1C        C  731   2.723   2.934   3.405
    1C        C  732   2.765   2.880   3.529
    1C        C  733   2.493   3.202   2.070
    1C        C  734   2.485   3.280   2.186
    1C        C  735   2.583   3.087   2.304
    1C        C  736   2.525   3.217   2.307
    1C        C  737   2.620   3.026   2.426
    1C        C  738   2.589   3.094   2.546
    1C        C  739   2.699   2.914   2.671
    1C        C  740   2.622   3.033   2.668
    1C        C  741   2.745   2.860   2.793
    1C        C  742   2.705   2.919   2.915
    1C        C  743   2.758   2.871   3.036
    1C        C  744   2.550   3.075   2.070
    1C        C  745   2.689   2.902   2.186
    1C        C  746   2.611   3.020   2.184
    1C        C  747   2.737   2.847   2.307
    1C        C  748   2.698   2.908   2.428
    1C        C  749   2.739   2.852   2.551
    1C        C  750   2.733   2.841   2.068
    1C        C  751   3.671   2.305   1.995
    1C        O  752   3.677   2.190   2.048
    1C        O  753   3.666   2.308   1.855
    1C        C  754   4.637   3.056   1.986
    1C        O  755   4.623   3.039   1.862
    1C        O  756   4.774   3.060   2.013
    1C        C  757   4.447   4.229   1.970
    1C        O  758   4.492   4.340   2.009
    1C        O  759   4.424   4.231   1.832
    1C        C  760   3.595   4.667   1.948
    1C        O  761   3.666   4.771   1.951
    1C        O  762   3.553   4.654   1.815
    1C        C  763   2.889   4.491   1.942
    1C        O  764   2.938   4.478   1.827
    1C        O  765   2.886   4.627   1.976
    1C        C  766   2.351   3.476   1.959
    1C        O  767   2.377   3.436   1.842
    1C        O  768   2.214   3.469   1.986
    1C        C  769   4.684   3.586   5.066
    1C        O  770   4.649   3.538   5.177
    1C        O  771   4.798   3.667   5.069
    1C        C  772   4.275   4.480   5.023
    1C        O  773   4.301   4.461   5.145
    1C        O  774   4.387   4.537   4.961
    1C        C  775   4.131   2.489   5.058
    1C        O  776   4.180   2.386   5.005
    1C        O  777   4.105   2.471   5.195
    1C        C  778   2.887   4.539   5.056
    1C        O  779   2.827   4.645   5.024
    1C        O  780   2.951   4.538   5.181
    1C        C  781   2.477   3.041   5.090
    1C        O  782   2.409   2.940   5.059
    1C        O  783   2.484   3.061   5.227
    1C        C  784   2.408   4.003   5.043
    1C        O  785   2.297   4.004   4.983
    1C        O  786   2.411   4.004   5.183
    1C        C  787   2.942   2.407   2.044
    1C        O  788   2.914   2.418   1.922
    1C        O  789   2.941   2.279   2.099
    1C        C  790   3.168   2.364   5.055
    1C        O  791   3.151   2.255   4.994
    1C        O  792   3.233   2.358   5.179
    1C        H  793   4.298   3.019   5.066
    1C        H  794   4.199   2.797   5.071
    1C        H  795   4.490   3.137   5.066
    1C        H  796   4.591   3.334   5.048
    1C        H  797   4.580   3.814   5.040
    1C        H  798   4.379   3.955   5.052
    1C        H  799   4.331   4.197   5.045
    1C        H  800   4.048   4.557   5.014
    1C        H  801   3.831   4.618   5.019
    1C        H  802   3.582   4.632   5.038
    1C        H  803   3.402   4.489   5.041
    1C        H  804   3.160   4.490   5.056
    1C        H  805   3.872   2.523   5.074
    1C        H  806   3.677   2.442   5.073
    1C        H  807   2.999   2.550   5.060
    1C        H  808   3.446   2.450   5.077
    1C        H  809   2.874   2.733   5.080
    1C        H  810   2.689   2.884   5.072
    1C        H  811   2.482   3.285   5.069
    1C        H  812   2.492   3.497   5.072
    1C        H  813   2.478   3.725   5.063
    1C        H  814   2.578   4.187   5.037
    1C        H  815   2.781   4.297   5.061
    1C        H  816   2.691   2.873   1.975
    1C        H  817   2.875   2.714   1.981
    1C        H  818   3.217   2.497   1.983
    1C        H  819   3.427   2.424   1.978
    1C        H  820   3.862   2.506   1.980
    1C        H  821   4.065   2.609   1.967
    1C        H  822   4.254   2.721   1.970
    1C        H  823   4.396   2.911   1.971
    1C        H  824   4.591   3.311   1.974
    1C        H  825   4.497   3.517   1.956
    1C        H  826   4.554   3.753   1.968
    1C        H  827   3.808   4.541   1.959
    1C        H  828   3.939   4.331   1.962
    1C        H  829   4.187   4.314   1.961
    1C        H  830   4.480   3.959   1.958
    1C        H  831   2.699   3.831   2.006
    1C        H  832   2.666   4.083   1.965
    1C        H  833   2.709   4.309   1.976
    1C        H  834   3.388   4.451   1.953
    1C        H  835   3.162   4.391   1.950
    1C        H  836   2.537   3.003   1.991
    1C        H  837   2.431   3.226   1.986
    1C        H  838   2.524   3.670   1.964
    2V3OU   H29  839   2.809   3.553   4.717
    2V3OU   C27  840   2.797   3.501   4.816
    2V3OU   H27  841   2.739   3.574   4.879
    2V3OU   H28  842   2.744   3.406   4.788
    2V3OU   O11  843   2.913   3.474   4.895
    2V3OU   C15  844   2.920   3.400   5.012
    2V3OU   C13  845   3.051   3.381   5.060
    2V3OU   C14  846   3.076   3.270   5.142
    2V3OU   C16  847   2.973   3.185   5.183
    2V3OU    H6  848   2.995   3.107   5.256
    2V3OU   C12  849   3.215   3.230   5.173
    2V3OU    O2  850   3.245   3.125   5.233
    2V3OU   C10  851   3.330   3.312   5.132
    2V3OU    C8  852   3.462   3.269   5.142
    2V3OU   O10  853   3.493   3.157   5.213
    2V3OU   H26  854   3.406   3.117   5.228
    2V3OU    C6  855   3.567   3.347   5.084
    2V3OU    C5  856   3.539   3.465   5.016
    2V3OU    C4  857   3.707   3.297   5.074
    2V3OU    H4  858   3.730   3.227   5.159
    2V3OU    H5  859   3.712   3.237   4.979
    2V3OU    C2  860   3.819   3.402   5.076
    2V3OU    O6  861   3.809   3.480   5.195
    2V3OU   H21  862   3.757   3.556   5.166
    2V3OU    C3  863   3.785   3.499   4.963
    2V3OU    H2  864   3.865   3.578   4.957
    2V3OU    H3  865   3.786   3.439   4.869
    2V3OU   C25  866   3.952   3.327   5.058
    2V3OU    O7  867   4.005   3.300   4.951
    2V3OU   C26  868   4.030   3.290   5.183
    2V3OU   H22  869   4.058   3.383   5.238
    2V3OU   H23  870   4.122   3.232   5.155
    2V3OU    O8  871   3.956   3.212   5.275
    2V3OU   H24  872   3.930   3.270   5.348
    2V3OU    C1  873   3.647   3.562   4.979
    2V3OU    H1  874   3.625   3.617   4.883
    2V3OU    O3  875   3.660   3.654   5.088
    2V3OU   C19  876   3.621   3.792   5.090
    2V3OU    H9  877   3.525   3.804   5.032
    2V3OU    O4  878   3.718   3.856   5.010
    2V3OU   C20  879   3.850   3.877   5.061
    2V3OU   H10  880   3.901   3.779   5.082
    2V3OU   C24  881   3.613   3.857   5.228
    2V3OU   H16  882   3.547   3.796   5.295
    2V3OU   H17  883   3.570   3.960   5.213
    2V3OU   C23  884   3.752   3.873   5.292
    2V3OU   H15  885   3.793   3.768   5.305
    2V3OU    N1  886   3.736   3.951   5.413
    2V3OU   H19  887   3.814   3.926   5.471
    2V3OU   H20  888   3.647   3.941   5.458
    2V3OU   C21  889   3.854   3.945   5.198
    2V3OU   H11  890   3.954   3.930   5.248
    2V3OU    O5  891   3.832   4.086   5.197
    2V3OU   H18  892   3.789   4.100   5.283
    2V3OU   C22  893   3.917   3.953   4.949
    2V3OU   H12  894   3.863   4.049   4.927
    2V3OU   H13  895   3.910   3.892   4.855
    2V3OU   H14  896   4.027   3.961   4.968
    2V3OU   C11  897   3.162   3.473   5.031
    2V3OU    O1  898   3.132   3.591   5.004
    2V3OU    C9  899   3.301   3.429   5.057
    2V3OU    C7  900   3.403   3.506   5.004
    2V3OU    O9  901   3.389   3.622   4.930
    2V3OU   H25  902   3.293   3.632   4.921
    2V3OU   C17  903   2.820   3.312   5.057
    2V3OU    H7  904   2.718   3.352   5.060
    2V3OU   C18  905   2.841   3.207   5.145
    2V3OU    H8  906   2.756   3.156   5.193
    3SOL     OW  907   3.630   4.174   4.761
    3SOL    HW1  908   3.668   4.166   4.669
    3SOL    HW2  909   3.700   4.207   4.824
    4SOL     OW  910   6.889   6.999   0.057
    4SOL    HW1  911   6.964   6.976   0.120
    4SOL    HW2  912   6.928   0.009   6.998
    5SOL     OW  913   3.715   1.378   1.411
    5SOL    HW1  914   3.676   1.367   1.319
    5SOL    HW2  915   3.703   1.294   1.463
    6SOL     OW  916   5.445   0.403   2.652
    6SOL    HW1  917   5.515   0.459   2.695
    6SOL    HW2  918   5.456   0.406   2.552
    7SOL     OW  919   1.769   4.579   4.081
    7SOL    HW1  920   1.771   4.482   4.056
    7SOL    HW2  921   1.676   4.614   4.072
    8SOL     OW  922   2.065   3.415   5.563
    8SOL    HW1  923   1.984   3.379   5.517
    8SOL    HW2  924   2.049   3.423   5.661
    9SOL     OW  925   6.519   1.127   6.428
    9SOL    HW1  926   6.420   1.123   6.441
    9SOL    HW2  927   6.563   1.059   6.486
   10SOL     OW  928   4.810   4.768   3.641
   10SOL    HW1  929   4.829   4.677   3.604
   10SOL    HW2  930   4.762   4.823   3.573
   11SOL     OW  931   2.101   1.211   0.803
   11SOL    HW1  932   2.168   1.137   0.805
   11SOL    HW2  933   2.033   1.197   0.875
   12SOL     OW  934   3.392   5.100   3.545
   12SOL    HW1  935   3.357   5.057   3.628
   12SOL    HW2  936   3.336   5.179   3.522
   13SOL     OW  937   4.583   5.929   2.247
   13SOL    HW1  938   4.550   6.002   2.307
   13SOL    HW2  939   4.671   5.896   2.281
   14SOL     OW  940   4.617   5.014   4.975
   14SOL    HW1  941   4.596   5.107   4.945
   14SOL    HW2  942   4.706   5.012   5.019
   15SOL     OW  943   0.282   5.978   6.094
   15SOL    HW1  944   0.358   6.003   6.153
   15SOL    HW2  945   0.264   6.053   6.030
   16SOL     OW  946   0.063   3.092   6.018
   16SOL    HW1  947   0.028   3.070   5.927
   16SOL    HW2  948   0.047   3.016   6.080
   17SOL     OW  949   6.085   0.931   5.248
   17SOL    HW1  950   6.095   0.998   5.175
   17SOL    HW2  951   6.096   0.839   5.211
   18SOL     OW  952   3.527   0.010   5.254
   18SOL    HW1  953   3.591   0.083   5.228
   18SOL    HW2  954   3.571   6.975   5.320
   19SOL     OW  955   0.813   1.249   2.939
   19SOL    HW1  956   0.858   1.328   2.898
   19SOL    HW2  957   0.714   1.254   2.924
   20SOL     OW  958   5.594   2.174   4.879
   20SOL    HW1  959   5.544   2.171   4.793
   20SOL    HW2  960   5.692   2.182   4.862
   21SOL     OW  961   3.348   5.940   2.257
   21SOL    HW1  962   3.443   5.972   2.261
   21SOL    HW2  963   3.345   5.843   2.281
   22SOL     OW  964   2.231   6.650   4.775
   22SOL    HW1  965   2.190   6.741   4.766
   22SOL    HW2  966   2.204   6.609   4.862
   23SOL     OW  967   5.365   4.350   2.107
   23SOL    HW1  968   5.347   4.447   2.122
   23SOL    HW2  969   5.445   4.323   2.160
   24SOL     OW  970   4.308   0.821   1.321
   24SOL    HW1  971   4.373   0.763   1.272
   24SOL    HW2  972   4.292   0.905   1.269
   25SOL     OW  973   2.463   0.026   3.536
   25SOL    HW1  974   2.441   0.075   3.621
   25SOL    HW2  975   2.383   0.026   3.476
   26SOL     OW  976   0.738   2.620   0.096
   26SOL    HW1  977   0.744   2.576   0.185
   26SOL    HW2  978   0.647   2.659   0.084
   27SOL     OW  979   6.181   1.416   1.568
   27SOL    HW1  980   6.112   1.477   1.606
   27SOL    HW2  981   6.209   1.450   1.478
   28SOL     OW  982   2.116   0.716   4.492
   28SOL    HW1  983   2.214   0.702   4.506
   28SOL    HW2  984   2.074   0.632   4.458
   29SOL     OW  985   0.042   0.627   0.647
   29SOL    HW1  986   6.976   0.635   0.608
   29SOL    HW2  987   0.105   0.686   0.596
   30SOL     OW  988   4.234   0.595   4.782
   30SOL    HW1  989   4.151   0.642   4.812
   30SOL    HW2  990   4.211   0.529   4.710
   31SOL     OW  991   1.249   3.302   5.642
   31SOL    HW1  992   1.170   3.245   5.663
   31SOL    HW2  993   1.221   3.398   5.641
   32SOL     OW  994   1.617   0.101   1.638
   32SOL    HW1  995   1.526   0.100   1.598
   32SOL    HW2  996   1.675   0.164   1.586
   33SOL     OW  997   0.695   4.440   6.005
   33SOL    HW1  998   0.642   4.456   5.921
   33SOL    HW2  999   0.771   4.379   5.984
   34SOL     OW 1000   1.799   5.030   5.498
   34SOL    HW1 1001   1.700   5.027   5.509
   34SOL    HW2 1002   1.822   5.014   5.403
   35SOL     OW 1003   3.876   2.710   0.185
   35SOL    HW1 1004   3.846   2.774   0.256
   35SOL    HW2 1005   3.907   2.625   0.229
   36SOL     OW 1006   4.843   0.661   3.833
   36SOL    HW1 1007   4.849   0.625   3.740
   36SOL    HW2 1008   4.767   0.726   3.839
   37SOL     OW 1009   2.184   1.317   3.625
   37SOL    HW1 1010   2.220   1.242   3.571
   37SOL    HW2 1011   2.145   1.387   3.565
   38SOL     OW 1012   1.317   4.620   1.932
   38SOL    HW1 1013   1.307   4.611   2.031
   38SOL    HW2 1014   1.283   4.709   1.903
   39SOL     OW 1015   6.506   5.468   6.621
   39SOL    HW1 1016   6.562   5.541   6.660
   39SOL    HW2 1017   6.520   5.384   6.673
   40SOL     OW 1018   3.609   0.897   6.203
   40SOL    HW1 1019   3.552   0.830   6.156
   40SOL    HW2 1020   3.656   0.854   6.280
   41SOL     OW 1021   5.969   4.071   2.108
   41SOL    HW1 1022   5.907   4.012   2.160
   41SOL    HW2 1023   6.002   4.144   2.168
   42SOL     OW 1024   2.313   5.739   5.213
   42SOL    HW1 1025   2.286   5.646   5.188
   42SOL    HW2 1026   2.261   5.769   5.293
   43SOL     OW 1027   5.205   6.697   5.002
   43SOL    HW1 1028   5.241   6.637   5.074
   43SOL    HW2 1029   5.105   6.690   5.001
   44SOL     OW 1030   6.007   2.358   5.559
   44SOL    HW1 1031   6.101   2.370   5.591
   44SOL    HW2 1032   5.992   2.263   5.532
   45SOL     OW 1033   4.082   5.085   6.992
   45SOL    HW1 1034   3.998   5.032   6.980
   45SOL    HW2 1035   4.151   5.028   0.009
   46SOL     OW 1036   0.790   3.301   4.746
   46SOL    HW1 1037   0.692   3.280   4.745
   46SOL    HW2 1038   0.822   3.312   4.652
   47SOL     OW 1039   5.752   2.912   1.801
   47SOL    HW1 1040   5.751   2.962   1.887
   47SOL    HW2 1041   5.719   2.819   1.816
   48SOL     OW 1042   6.622   3.896   6.823
   48SOL    HW1 1043   6.653   3.876   6.730
   48SOL    HW2 1044   6.634   3.814   6.879
   49SOL     OW 1045   4.729   3.298   6.880
   49SOL    HW1 1046   4.751   3.230   6.950
   49SOL    HW2 1047   4.660   3.361   6.916
   50SOL     OW 1048   6.112   2.860   6.241
   50SOL    HW1 1049   6.177   2.784   6.233
   50SOL    HW2 1050   6.052   2.860   6.161
   51SOL     OW 1051   2.231   4.891   3.378
   51SOL    HW1 1052   2.178   4.947   3.442
   51SOL    HW2 1053   2.299   4.948   3.332
   52SOL     OW 1054   5.667   2.844   1.420
   52SOL    HW1 1055   5.631   2.799   1.338
   52SOL    HW2 1056   5.650   2.943   1.414
   53SOL     OW 1057   4.044   0.265   2.584
   53SOL    HW1 1058   4.005   0.198   2.648
   53SOL    HW2 1059   3.976   0.288   2.514
   54SOL     OW 1060   5.003   6.422   6.659
   54SOL    HW1 1061   4.906   6.426   6.637
   54SOL    HW2 1062   5.057   6.432   6.576
   55SOL     OW 1063   1.715   3.004   6.384
   55SOL    HW1 1064   1.678   3.057   6.309
   55SOL    HW2 1065   1.643   2.986   6.451
   56SOL     OW 1066   1.723   2.375   6.754
   56SOL    HW1 1067   1.797   2.402   6.815
   56SOL    HW2 1068   1.641   2.353   6.807
   57SOL     OW 1069   4.256   0.850   0.289
   57SOL    HW1 1070   4.168   0.822   0.327
   57SOL    HW2 1071   4.312   0.769   0.271
   58SOL     OW 1072   0.966   0.972   6.424
   58SOL    HW1 1073   1.008   1.053   6.466
   58SOL    HW2 1074   0.920   0.919   6.495
   59SOL     OW 1075   5.496   3.462   6.278
   59SOL    HW1 1076   5.498   3.439   6.375
   59SOL    HW2 1077   5.567   3.410   6.230
   60SOL     OW 1078   5.594   0.855   2.876
   60SOL    HW1 1079   5.618   0.770   2.924
   60SOL    HW2 1080   5.520   0.901   2.923
   61SOL     OW 1081   0.359   0.210   5.137
   61SOL    HW1 1082   0.379   0.239   5.043
   61SOL    HW2 1083   0.437   0.159   5.174
   62SOL     OW 1084   0.292   2.331   2.087
   62SOL    HW1 1085   0.248   2.414   2.054
   62SOL    HW2 1086   0.314   2.341   2.184
   63SOL     OW 1087   4.148   6.213   4.619
   63SOL    HW1 1088   4.232   6.159   4.613
   63SOL    HW2 1089   4.098   6.207   4.533
   64SOL     OW 1090   1.177   4.828   6.930
   64SOL    HW1 1091   1.126   4.757   6.882
   64SOL    HW2 1092   1.245   4.868   6.868
   65SOL     OW 1093   0.714   0.378   5.149
   65SOL    HW1 1094   0.692   0.443   5.222
   65SOL    HW2 1095   0.799   0.406   5.105
   66SOL     OW 1096   4.290   0.449   1.777
   66SOL    HW1 1097   4.387   0.473   1.767
   66SOL    HW2 1098   4.268   0.440   1.874
   67SOL     OW 1099   0.636   2.924   1.247
   67SOL    HW1 1100   0.664   2.907   1.153
   67SOL    HW2 1101   0.635   2.837   1.297
   68SOL     OW 1102   6.711   2.397   5.461
   68SOL    HW1 1103   6.748   2.323   5.404
   68SOL    HW2 1104   6.633   2.362   5.514
   69SOL     OW 1105   0.914   5.513   5.754
   69SOL    HW1 1106   0.890   5.447   5.825
   69SOL    HW2 1107   0.872   5.601   5.774
   70SOL     OW 1108   5.119   3.167   4.645
   70SOL    HW1 1109   5.139   3.069   4.649
   70SOL    HW2 1110   5.055   3.191   4.718
   71SOL     OW 1111   4.400   1.894   4.316
   71SOL    HW1 1112   4.429   1.989   4.325
   71SOL    HW2 1113   4.332   1.873   4.387
   72SOL     OW 1114   6.660   0.720   3.570
   72SOL    HW1 1115   6.571   0.680   3.550
   72SOL    HW2 1116   6.652   0.819   3.578
   73SOL     OW 1117   2.938   0.627   0.661
   73SOL    HW1 1118   2.892   0.628   0.750
   73SOL    HW2 1119   2.933   0.536   0.621
   74SOL     OW 1120   1.950   1.828   0.096
   74SOL    HW1 1121   2.014   1.759   0.130
   74SOL    HW2 1122   1.965   1.914   0.145
   75SOL     OW 1123   4.394   1.799   0.667
   75SOL    HW1 1124   4.326   1.744   0.716
   75SOL    HW2 1125   4.360   1.820   0.575
   76SOL     OW 1126   3.103   4.316   5.278
   76SOL    HW1 1127   3.199   4.336   5.260
   76SOL    HW2 1128   3.045   4.380   5.228
   77SOL     OW 1129   1.504   4.566   4.009
   77SOL    HW1 1130   1.423   4.512   4.032
   77SOL    HW2 1131   1.488   4.614   3.923
   78SOL     OW 1132   4.291   1.483   1.120
   78SOL    HW1 1133   4.214   1.435   1.079
   78SOL    HW2 1134   4.356   1.509   1.049
   79SOL     OW 1135   1.764   5.315   1.853
   79SOL    HW1 1136   1.818   5.235   1.880
   79SOL    HW2 1137   1.746   5.371   1.933
   80SOL     OW 1138   4.975   1.712   5.218
   80SOL    HW1 1139   5.025   1.674   5.296
   80SOL    HW2 1140   4.914   1.643   5.180
   81SOL     OW 1141   3.158   6.085   1.372
   81SOL    HW1 1142   3.143   6.165   1.430
   81SOL    HW2 1143   3.091   6.084   1.298
   82SOL     OW 1144   1.024   6.257   1.356
   82SOL    HW1 1145   1.027   6.229   1.452
   82SOL    HW2 1146   1.090   6.204   1.303
   83SOL     OW 1147   5.710   1.759   5.100
   83SOL    HW1 1148   5.646   1.836   5.092
   83SOL    HW2 1149   5.756   1.762   5.188
   84SOL     OW 1150   6.338   2.930   3.150
   84SOL    HW1 1151   6.351   3.022   3.114
   84SOL    HW2 1152   6.286   2.875   3.084
   85SOL     OW 1153   2.178   0.403   4.074
   85SOL    HW1 1154   2.233   0.479   4.108
   85SOL    HW2 1155   2.084   0.414   4.105
   86SOL     OW 1156   5.949   1.119   6.478
   86SOL    HW1 1157   5.920   1.145   6.385
   86SOL    HW2 1158   5.869   1.111   6.537
   87SOL     OW 1159   3.374   3.863   6.308
   87SOL    HW1 1160   3.471   3.872   6.332
   87SOL    HW2 1161   3.339   3.775   6.340
   88SOL     OW 1162   3.230   3.638   6.653
   88SOL    HW1 1163   3.131   3.628   6.663
   88SOL    HW2 1164   3.256   3.621   6.558
   89SOL     OW 1165   3.159   3.649   3.041
   89SOL    HW1 1166   3.225   3.724   3.041
   89SOL    HW2 1167   3.067   3.685   3.060
   90SOL     OW 1168   4.805   4.292   3.188
   90SOL    HW1 1169   4.762   4.310   3.099
   90SOL    HW2 1170   4.842   4.377   3.225
   91SOL     OW 1171   5.814   5.044   6.139
   91SOL    HW1 1172   5.884   5.064   6.207
   91SOL    HW2 1173   5.735   5.103   6.154
   92SOL     OW 1174   5.644   4.288   6.801
   92SOL    HW1 1175   5.581   4.212   6.785
   92SOL    HW2 1176   5.733   4.267   6.762
   93SOL     OW 1177   2.651   3.108   1.402
   93SOL    HW1 1178   2.745   3.084   1.423
   93SOL    HW2 1179   2.592   3.029   1.417
   94SOL     OW 1180   3.311   0.923   5.919
   94SOL    HW1 1181   3.235   0.910   5.983
   94SOL    HW2 1182   3.286   0.882   5.830
   95SOL     OW 1183   6.834   0.526   4.001
   95SOL    HW1 1184   6.793   0.525   3.910
   95SOL    HW2 1185   6.931   0.502   3.995
   96SOL     OW 1186   4.789   4.912   0.246
   96SOL    HW1 1187   4.749   5.003   0.252
   96SOL    HW2 1188   4.721   4.848   0.211
   97SOL     OW 1189   2.084   5.260   5.575
   97SOL    HW1 1190   2.090   5.356   5.603
   97SOL    HW2 1191   2.008   5.216   5.624
   98SOL     OW 1192   1.303   3.053   2.981
   98SOL    HW1 1193   1.385   3.062   2.925
   98SOL    HW2 1194   1.300   2.961   3.021
   99SOL     OW 1195   3.930   3.059   3.847
   99SOL    HW1 1196   3.898   2.966   3.828
   99SOL    HW2 1197   3.989   3.090   3.772
  100SOL     OW 1198   6.917   0.110   3.687
  100SOL    HW1 1199   7.013   0.090   3.671
  100SOL    HW2 1200   6.908   0.158   3.774
  101SOL     OW 1201   0.170   3.557   2.577
  101SOL    HW1 1202   0.227   3.639   2.575
  101SOL    HW2 1203   0.224   3.480   2.611
  102SOL     OW 1204   2.461   6.396   0.917
  102SOL    HW1 1205   2.365   6.369   0.910
  102SOL    HW2 1206   2.516   6.319   0.949
  103SOL     OW 1207   1.752   1.156   2.071
  103SOL    HW1 1208   1.723   1.064   2.097
  103SOL    HW2 1209   1.831   1.183   2.126
  104SOL     OW 1210   1.520   4.544   1.755
  104SOL    HW1 1211   1.444   4.556   1.820
  104SOL    HW2 1212   1.504   4.602   1.675
  105SOL     OW 1213   4.790   1.867   6.474
  105SOL    HW1 1214   4.807   1.832   6.381
  105SOL    HW2 1215   4.694   1.894   6.482
  106SOL     OW 1216   5.533   4.937   2.538
  106SOL    HW1 1217   5.516   4.861   2.600
  106SOL    HW2 1218   5.446   4.967   2.498
  107SOL     OW 1219   6.351   0.810   0.566
  107SOL    HW1 1220   6.333   0.758   0.649
  107SOL    HW2 1221   6.264   0.827   0.518
  108SOL     OW 1222   1.743   0.385   5.869
  108SOL    HW1 1223   1.826   0.338   5.839
  108SOL    HW2 1224   1.744   0.392   5.969
  109SOL     OW 1225   2.541   1.099   3.364
  109SOL    HW1 1226   2.446   1.118   3.390
  109SOL    HW2 1227   2.573   1.017   3.411
  110SOL     OW 1228   2.541   4.533   5.538
  110SOL    HW1 1229   2.601   4.464   5.577
  110SOL    HW2 1230   2.571   4.554   5.445
  111SOL     OW 1231   6.229   2.058   2.118
  111SOL    HW1 1232   6.242   1.959   2.111
  111SOL    HW2 1233   6.131   2.080   2.110
  112SOL     OW 1234   4.534   0.041   6.687
  112SOL    HW1 1235   4.457   0.063   6.627
  112SOL    HW2 1236   4.524   0.092   6.773
  113SOL     OW 1237   6.627   6.401   2.690
  113SOL    HW1 1238   6.661   6.408   2.596
  113SOL    HW2 1239   6.684   6.457   2.750
  114SOL     OW 1240   1.457   4.230   3.539
  114SOL    HW1 1241   1.397   4.185   3.605
  114SOL    HW2 1242   1.477   4.166   3.464
  115SOL     OW 1243   5.598   1.315   3.504
  115SOL    HW1 1244   5.555   1.403   3.483
  115SOL    HW2 1245   5.558   1.278   3.588
  116SOL     OW 1246   1.494   5.078   0.748
  116SOL    HW1 1247   1.508   4.983   0.778
  116SOL    HW2 1248   1.407   5.084   0.699
  117SOL     OW 1249   2.280   1.401   6.957
  117SOL    HW1 1250   2.354   1.464   6.980
  117SOL    HW2 1251   2.196   1.452   6.943
  118SOL     OW 1252   1.472   1.375   4.626
  118SOL    HW1 1253   1.382   1.368   4.669
  118SOL    HW2 1254   1.481   1.304   4.556
  119SOL     OW 1255   0.080   6.480   6.259
  119SOL    HW1 1256   0.165   6.517   6.221
  119SOL    HW2 1257   0.002   6.533   6.225
  120SOL     OW 1258   4.670   1.621   4.690
  120SOL    HW1 1259   4.715   1.708   4.709
  120SOL    HW2 1260   4.728   1.546   4.721
  121SOL     OW 1261   1.090   3.884   6.556
  121SOL    HW1 1262   1.041   3.960   6.514
  121SOL    HW2 1263   1.087   3.894   6.656
  122SOL     OW 1264   1.120   4.235   0.239
  122SOL    HW1 1265   1.044   4.228   0.303
  122SOL    HW2 1266   1.182   4.308   0.268
  123SOL     OW 1267   1.057   1.534   1.966
  123SOL    HW1 1268   0.999   1.615   1.976
  123SOL    HW2 1269   1.122   1.548   1.892
  124SOL     OW 1270   2.744   2.496   0.412
  124SOL    HW1 1271   2.698   2.411   0.387
  124SOL    HW2 1272   2.684   2.551   0.469
  125SOL     OW 1273   3.533   2.839   0.151
  125SOL    HW1 1274   3.482   2.752   0.154
  125SOL    HW2 1275   3.631   2.820   0.151
  126SOL     OW 1276   3.822   3.075   4.095
  126SOL    HW1 1277   3.863   3.162   4.124
  126SOL    HW2 1278   3.862   3.047   4.008
  127SOL     OW 1279   0.637   6.128   5.791
  127SOL    HW1 1280   0.569   6.176   5.735
  127SOL    HW2 1281   0.630   6.160   5.886
  128SOL     OW 1282   4.563   3.277   0.863
  128SOL    HW1 1283   4.470   3.305   0.885
  128SOL    HW2 1284   4.620   3.283   0.945
  129SOL     OW 1285   2.446   5.953   0.566
  129SOL    HW1 1286   2.448   6.015   0.644
  129SOL    HW2 1287   2.419   5.862   0.597
  130SOL     OW 1288   5.251   2.393   4.612
  130SOL    HW1 1289   5.230   2.430   4.702
  130SOL    HW2 1290   5.167   2.363   4.567
  131SOL     OW 1291   6.996   2.473   3.526
  131SOL    HW1 1292   0.051   2.419   3.552
  131SOL    HW2 1293   6.923   2.411   3.496
  132SOL     OW 1294   3.335   3.805   1.832
  132SOL    HW1 1295   3.241   3.830   1.809
  132SOL    HW2 1296   3.396   3.881   1.810
  133SOL     OW 1297   5.451   6.653   5.647
  133SOL    HW1 1298   5.493   6.567   5.615
  133SOL    HW2 1299   5.462   6.723   5.576
  134SOL     OW 1300   5.479   0.990   1.740
  134SOL    HW1 1301   5.558   0.980   1.800
  134SOL    HW2 1302   5.422   1.067   1.771
  135SOL     OW 1303   4.954   3.712   4.437
  135SOL    HW1 1304   4.939   3.712   4.339
  135SOL    HW2 1305   4.899   3.784   4.480
  136SOL     OW 1306   3.296   6.984   5.424
  136SOL    HW1 1307   3.388   7.012   5.399
  136SOL    HW2 1308   3.265   6.911   5.363
  137SOL     OW 1309   2.881   2.202   5.067
  137SOL    HW1 1310   2.969   2.248   5.055
  137SOL    HW2 1311   2.886   2.110   5.029
  138SOL     OW 1312   1.025   5.574   5.151
  138SOL    HW1 1313   1.123   5.567   5.137
  138SOL    HW2 1314   0.988   5.484   5.173
  139SOL     OW 1315   2.494   5.979   6.512
  139SOL    HW1 1316   2.463   6.014   6.600
  139SOL    HW2 1317   2.522   6.055   6.453
  140SOL     OW 1318   2.260   0.867   2.636
  140SOL    HW1 1319   2.166   0.846   2.610
  140SOL    HW2 1320   2.291   0.948   2.586
  141SOL     OW 1321   6.876   4.611   0.272
  141SOL    HW1 1322   6.890   4.682   0.342
  141SOL    HW2 1323   6.851   4.654   0.185
  142SOL     OW 1324   1.333   3.954   1.983
  142SOL    HW1 1325   1.426   3.984   1.962
  142SOL    HW2 1326   1.301   3.891   1.912
  143SOL     OW 1327   4.793   6.820   1.807
  143SOL    HW1 1328   4.824   6.735   1.851
  143SOL    HW2 1329   4.808   6.897   1.869
  144SOL     OW 1330   2.892   4.837   2.911
  144SOL    HW1 1331   2.943   4.803   2.832
  144SOL    HW2 1332   2.913   4.779   2.991
  145SOL     OW 1333   6.975   4.441   2.798
  145SOL    HW1 1334   6.974   4.359   2.855
  145SOL    HW2 1335   0.023   4.501   2.828
  146SOL     OW 1336   6.275   1.550   6.277
  146SOL    HW1 1337   6.307   1.635   6.319
  146SOL    HW2 1338   6.219   1.572   6.197
  147SOL     OW 1339   4.710   1.381   5.841
  147SOL    HW1 1340   4.626   1.345   5.801
  147SOL    HW2 1341   4.789   1.349   5.790
  148SOL     OW 1342   1.240   4.585   1.314
  148SOL    HW1 1343   1.316   4.547   1.367
  148SOL    HW2 1344   1.259   4.576   1.217
  149SOL     OW 1345   1.911   2.613   5.568
  149SOL    HW1 1346   1.911   2.513   5.561
  149SOL    HW2 1347   2.003   2.645   5.590
  150SOL     OW 1348   4.484   1.602   4.505
  150SOL    HW1 1349   4.529   1.621   4.417
  150SOL    HW2 1350   4.552   1.603   4.578
  151SOL     OW 1351   4.243   2.271   0.765
  151SOL    HW1 1352   4.219   2.345   0.828
  151SOL    HW2 1353   4.339   2.245   0.779
  152SOL     OW 1354   0.720   0.999   0.087
  152SOL    HW1 1355   0.698   1.055   0.166
  152SOL    HW2 1356   0.810   0.956   0.099
  153SOL     OW 1357   2.621   1.006   3.758
  153SOL    HW1 1358   2.550   0.975   3.821
  153SOL    HW2 1359   2.650   1.098   3.782
  154SOL     OW 1360   5.788   2.282   1.264
  154SOL    HW1 1361   5.823   2.190   1.278
  154SOL    HW2 1362   5.779   2.328   1.353
  155SOL     OW 1363   1.168   6.765   1.794
  155SOL    HW1 1364   1.172   6.834   1.721
  155SOL    HW2 1365   1.248   6.705   1.788
  156SOL     OW 1366   5.164   2.280   0.462
  156SOL    HW1 1367   5.227   2.355   0.484
  156SOL    HW2 1368   5.088   2.316   0.408
  157SOL     OW 1369   4.925   4.628   0.511
  157SOL    HW1 1370   4.988   4.609   0.586
  157SOL    HW2 1371   4.934   4.724   0.484
  158SOL     OW 1372   0.572   3.096   3.060
  158SOL    HW1 1373   0.601   3.191   3.065
  158SOL    HW2 1374   0.495   3.081   3.122
  159SOL     OW 1375   5.534   5.616   0.561
  159SOL    HW1 1376   5.539   5.633   0.463
  159SOL    HW2 1377   5.446   5.647   0.597
  160SOL     OW 1378   6.347   6.883   1.292
  160SOL    HW1 1379   6.374   6.918   1.203
  160SOL    HW2 1380   6.321   6.959   1.352
  161SOL     OW 1381   0.489   0.323   0.385
  161SOL    HW1 1382   0.557   0.324   0.458
  161SOL    HW2 1383   0.525   0.270   0.307
  162SOL     OW 1384   3.859   6.817   0.328
  162SOL    HW1 1385   3.928   6.844   0.395
  162SOL    HW2 1386   3.900   6.815   0.237
  163SOL     OW 1387   0.304   3.812   3.760
  163SOL    HW1 1388   0.238   3.737   3.754
  163SOL    HW2 1389   0.390   3.778   3.797
  164SOL     OW 1390   1.610   1.776   3.214
  164SOL    HW1 1391   1.544   1.816   3.279
  164SOL    HW2 1392   1.679   1.844   3.190
  165SOL     OW 1393   0.923   5.479   2.843
  165SOL    HW1 1394   0.950   5.384   2.829
  165SOL    HW2 1395   0.885   5.516   2.759
  166SOL     OW 1396   6.849   4.107   2.835
  166SOL    HW1 1397   6.870   4.149   2.923
  166SOL    HW2 1398   6.913   4.032   2.818
  167SOL     OW 1399   4.727   2.192   0.150
  167SOL    HW1 1400   4.662   2.217   0.078
  167SOL    HW2 1401   4.790   2.123   0.116
  168SOL     OW 1402   4.885   3.941   2.032
  168SOL    HW1 1403   4.862   3.849   1.998
  168SOL    HW2 1404   4.811   4.004   2.010
  169SOL     OW 1405   6.032   2.520   0.988
  169SOL    HW1 1406   6.047   2.540   1.085
  169SOL    HW2 1407   6.043   2.422   0.972
  170SOL     OW 1408   0.904   5.131   1.946
  170SOL    HW1 1409   0.924   5.152   2.042
  170SOL    HW2 1410   0.962   5.187   1.887
  171SOL     OW 1411   2.874   3.610   0.319
  171SOL    HW1 1412   2.954   3.665   0.344
  171SOL    HW2 1413   2.816   3.597   0.399
  172SOL     OW 1414   5.933   2.239   1.728
  172SOL    HW1 1415   6.008   2.245   1.662
  172SOL    HW2 1416   5.918   2.143   1.752
  173SOL     OW 1417   6.528   1.661   5.955
  173SOL    HW1 1418   6.583   1.682   6.036
  173SOL    HW2 1419   6.499   1.746   5.911
  174SOL     OW 1420   5.891   5.469   5.430
  174SOL    HW1 1421   5.976   5.451   5.480
  174SOL    HW2 1422   5.912   5.491   5.334
  175SOL     OW 1423   1.056   0.734   0.533
  175SOL    HW1 1424   0.986   0.795   0.571
  175SOL    HW2 1425   1.140   0.742   0.586
  176SOL     OW 1426   5.125   4.529   2.948
  176SOL    HW1 1427   5.218   4.565   2.947
  176SOL    HW2 1428   5.101   4.496   2.857
  177SOL     OW 1429   5.832   2.197   4.280
  177SOL    HW1 1430   5.746   2.238   4.248
  177SOL    HW2 1431   5.886   2.267   4.328
  178SOL     OW 1432   2.092   6.543   5.592
  178SOL    HW1 1433   2.089   6.588   5.681
  178SOL    HW2 1434   2.071   6.609   5.520
  179SOL     OW 1435   4.404   5.458   1.003
  179SOL    HW1 1436   4.493   5.495   0.976
  179SOL    HW2 1437   4.394   5.464   1.102
  180SOL     OW 1438   4.256   1.075   1.190
  180SOL    HW1 1439   4.334   1.137   1.196
  180SOL    HW2 1440   4.232   1.063   1.094
  181SOL     OW 1441   3.477   2.452   5.440
  181SOL    HW1 1442   3.458   2.360   5.476
  181SOL    HW2 1443   3.411   2.474   5.369
  182SOL     OW 1444   4.888   2.103   6.568
  182SOL    HW1 1445   4.945   2.128   6.490
  182SOL    HW2 1446   4.842   2.016   6.550
  183SOL     OW 1447   3.222   1.569   3.664
  183SOL    HW1 1448   3.211   1.633   3.740
  183SOL    HW2 1449   3.317   1.568   3.634
  184SOL     OW 1450   6.634   6.700   2.592
  184SOL    HW1 1451   6.649   6.769   2.663
  184SOL    HW2 1452   6.716   6.644   2.582
  185SOL     OW 1453   0.309   1.133   4.070
  185SOL    HW1 1454   0.227   1.188   4.052
  185SOL    HW2 1455   0.303   1.047   4.020
  186SOL     OW 1456   4.250   5.731   3.557
  186SOL    HW1 1457   4.249   5.670   3.636
  186SOL    HW2 1458   4.306   5.690   3.484
  187SOL     OW 1459   4.189   6.198   2.232
  187SOL    HW1 1460   4.119   6.191   2.303
  187SOL    HW2 1461   4.149   6.234   2.148
  188SOL     OW 1462   2.608   2.475   2.970
  188SOL    HW1 1463   2.680   2.408   2.985
  188SOL    HW2 1464   2.581   2.474   2.873
  189SOL     OW 1465   6.188   5.433   6.249
  189SOL    HW1 1466   6.232   5.375   6.317
  189SOL    HW2 1467   6.180   5.526   6.285
  190SOL     OW 1468   5.625   6.739   0.346
  190SOL    HW1 1469   5.661   6.802   0.278
  190SOL    HW2 1470   5.683   6.741   0.427
  191SOL     OW 1471   6.191   0.966   5.717
  191SOL    HW1 1472   6.221   1.046   5.770
  191SOL    HW2 1473   6.156   0.996   5.628
  192SOL     OW 1474   0.489   5.111   0.418
  192SOL    HW1 1475   0.508   5.025   0.371
  192SOL    HW2 1476   0.454   5.178   0.352
  193SOL     OW 1477   2.923   5.100   6.090
  193SOL    HW1 1478   2.980   5.018   6.101
  193SOL    HW2 1479   2.827   5.074   6.092
  194SOL     OW 1480   3.633   7.009   2.353
  194SOL    HW1 1481   3.727   6.998   2.320
  194SOL    HW2 1482   3.634   7.022   2.452
  195SOL     OW 1483   2.917   0.782   1.626
  195SOL    HW1 1484   2.958   0.858   1.676
  195SOL    HW2 1485   2.817   0.787   1.635
  196SOL     OW 1486   2.020   0.658   6.865
  196SOL    HW1 1487   1.941   0.609   6.827
  196SOL    HW2 1488   2.103   0.629   6.817
  197SOL     OW 1489   2.367   5.426   0.437
  197SOL    HW1 1490   2.425   5.346   0.421
  197SOL    HW2 1491   2.297   5.403   0.504
  198SOL     OW 1492   3.971   6.439   6.869
  198SOL    HW1 1493   3.948   6.349   6.832
  198SOL    HW2 1494   3.887   6.484   6.900
  199SOL     OW 1495   6.019   6.706   2.852
  199SOL    HW1 1496   5.959   6.666   2.782
  199SOL    HW2 1497   6.025   6.805   2.838
  200SOL     OW 1498   0.470   3.997   3.066
  200SOL    HW1 1499   0.516   4.078   3.030
  200SOL    HW2 1500   0.472   3.924   2.998
  201SOL     OW 1501   3.055   0.684   6.953
  201SOL    HW1 1502   3.048   0.723   0.019
  201SOL    HW2 1503   2.965   0.689   6.908
  202SOL     OW 1504   3.846   6.931   3.569
  202SOL    HW1 1505   3.749   6.949   3.554
  202SOL    HW2 1506   3.873   6.963   3.659
  203SOL     OW 1507   5.547   3.712   6.400
  203SOL    HW1 1508   5.520   3.619   6.375
  203SOL    HW2 1509   5.537   3.724   6.499
  204SOL     OW 1510   2.027   6.923   0.741
  204SOL    HW1 1511   2.005   7.017   0.714
  204SOL    HW2 1512   2.089   6.883   0.675
  205SOL     OW 1513   5.750   2.010   1.107
  205SOL    HW1 1514   5.755   1.990   1.204
  205SOL    HW2 1515   5.655   2.028   1.081
  206SOL     OW 1516   0.435   4.762   1.590
  206SOL    HW1 1517   0.532   4.767   1.615
  206SOL    HW2 1518   0.383   4.829   1.642
  207SOL     OW 1519   4.603   0.622   5.792
  207SOL    HW1 1520   4.554   0.648   5.875
  207SOL    HW2 1521   4.614   0.702   5.733
  208SOL     OW 1522   5.004   5.364   5.997
  208SOL    HW1 1523   4.999   5.304   5.918
  208SOL    HW2 1524   4.979   5.314   6.080
  209SOL     OW 1525   6.663   5.643   6.050
  209SOL    HW1 1526   6.746   5.651   5.996
  209SOL    HW2 1527   6.625   5.734   6.067
  210SOL     OW 1528   3.950   1.889   1.253
  210SOL    HW1 1529   3.959   1.975   1.203
  210SOL    HW2 1530   4.039   1.862   1.290
  211SOL     OW 1531   0.792   1.469   1.035
  211SOL    HW1 1532   0.868   1.515   1.081
  211SOL    HW2 1533   0.753   1.401   1.097
  212SOL     OW 1534   1.229   5.301   3.608
  212SOL    HW1 1535   1.180   5.218   3.635
  212SOL    HW2 1536   1.323   5.297   3.643
  213SOL     OW 1537   5.140   1.897   0.155
  213SOL    HW1 1538   5.085   1.848   0.224
  213SOL    HW2 1539   5.171   1.984   0.193
  214SOL     OW 1540   0.975   6.536   2.243
  214SOL    HW1 1541   0.938   6.532   2.150
  214SOL    HW2 1542   1.026   6.622   2.255
  215SOL     OW 1543   3.522   3.149   2.299
  215SOL    HW1 1544   3.535   3.091   2.379
  215SOL    HW2 1545   3.433   3.195   2.304
  216SOL     OW 1546   1.089   0.246   4.976
  216SOL    HW1 1547   1.187   0.231   4.973
  216SOL    HW2 1548   1.044   0.184   4.911
  217SOL     OW 1549   1.302   3.163   3.930
  217SOL    HW1 1550   1.238   3.086   3.936
  217SOL    HW2 1551   1.395   3.130   3.946
  218SOL     OW 1552   1.035   3.139   5.608
  218SOL    HW1 1553   0.945   3.181   5.607
  218SOL    HW2 1554   1.062   3.113   5.515
  219SOL     OW 1555   4.558   4.763   0.179
  219SOL    HW1 1556   4.584   4.666   0.177
  219SOL    HW2 1557   4.467   4.772   0.219
  220SOL     OW 1558   2.721   4.894   0.126
  220SOL    HW1 1559   2.643   4.941   0.085
  220SOL    HW2 1560   2.769   4.842   0.056
  221SOL     OW 1561   5.425   3.244   4.341
  221SOL    HW1 1562   5.334   3.203   4.352
  221SOL    HW2 1563   5.480   3.227   4.422
  222SOL     OW 1564   0.991   5.929   5.544
  222SOL    HW1 1565   0.999   5.848   5.486
  222SOL    HW2 1566   0.898   5.936   5.580
  223SOL     OW 1567   0.291   3.414   2.212
  223SOL    HW1 1568   0.319   3.319   2.219
  223SOL    HW2 1569   0.195   3.423   2.240
  224SOL     OW 1570   2.735   2.131   2.185
  224SOL    HW1 1571   2.801   2.194   2.145
  224SOL    HW2 1572   2.651   2.181   2.208
  225SOL     OW 1573   5.763   0.589   0.189
  225SOL    HW1 1574   5.770   0.630   0.098
  225SOL    HW2 1575   5.667   0.582   0.216
  226SOL     OW 1576   0.963   5.955   0.369
  226SOL    HW1 1577   0.948   5.933   0.465
  226SOL    HW2 1578   0.965   6.054   0.357
  227SOL     OW 1579   1.911   3.587   3.853
  227SOL    HW1 1580   1.920   3.678   3.894
  227SOL    HW2 1581   1.839   3.589   3.784
  228SOL     OW 1582   4.226   6.160   3.840
  228SOL    HW1 1583   4.265   6.174   3.749
  228SOL    HW2 1584   4.252   6.070   3.874
  229SOL     OW 1585   5.931   5.990   1.840
  229SOL    HW1 1586   5.998   5.934   1.887
  229SOL    HW2 1587   5.936   5.973   1.742
  230SOL     OW 1588   2.243   4.255   4.909
  230SOL    HW1 1589   2.256   4.232   4.813
  230SOL    HW2 1590   2.289   4.187   4.967
  231SOL     OW 1591   0.224   3.517   6.125
  231SOL    HW1 1592   0.147   3.564   6.084
  231SOL    HW2 1593   0.192   3.460   6.201
  232SOL     OW 1594   1.348   3.610   0.031
  232SOL    HW1 1595   1.342   3.603   6.958
  232SOL    HW2 1596   1.393   3.528   0.068
  233SOL     OW 1597   1.984   1.549   5.662
  233SOL    HW1 1598   1.956   1.502   5.578
  233SOL    HW2 1599   1.904   1.591   5.705
  234SOL     OW 1600   2.727   4.517   0.204
  234SOL    HW1 1601   2.755   4.422   0.189
  234SOL    HW2 1602   2.678   4.550   0.123
  235SOL     OW 1603   2.913   3.361   4.148
  235SOL    HW1 1604   2.826   3.314   4.162
  235SOL    HW2 1605   2.900   3.460   4.160
  236SOL     OW 1606   6.512   2.660   5.413
  236SOL    HW1 1607   6.460   2.708   5.484
  236SOL    HW2 1608   6.474   2.568   5.401
  237SOL     OW 1609   0.353   0.280   1.392
  237SOL    HW1 1610   0.397   0.235   1.470
  237SOL    HW2 1611   0.274   0.227   1.363
  238SOL     OW 1612   5.603   3.453   2.511
  238SOL    HW1 1613   5.626   3.384   2.443
  238SOL    HW2 1614   5.539   3.519   2.472
  239SOL     OW 1615   6.701   6.101   6.877
  239SOL    HW1 1616   6.681   6.021   6.934
  239SOL    HW2 1617   6.629   6.112   6.809
  240SOL     OW 1618   0.406   4.303   5.910
  240SOL    HW1 1619   0.362   4.240   5.846
  240SOL    HW2 1620   0.408   4.262   6.001
  241SOL     OW 1621   0.494   0.723   3.355
  241SOL    HW1 1622   0.480   0.811   3.401
  241SOL    HW2 1623   0.420   0.660   3.380
  242SOL     OW 1624   1.308   3.722   4.749
  242SOL    HW1 1625   1.297   3.724   4.649
  242SOL    HW2 1626   1.404   3.734   4.772
  243SOL     OW 1627   5.971   6.897   5.216
  243SOL    HW1 1628   5.941   6.860   5.128
  243SOL    HW2 1629   6.058   6.855   5.243
  244SOL     OW 1630   5.276   2.006   4.828
  244SOL    HW1 1631   5.337   2.055   4.766
  244SOL    HW2 1632   5.317   1.919   4.853
  245SOL     OW 1633   6.578   2.827   4.323
  245SOL    HW1 1634   6.591   2.745   4.267
  245SOL    HW2 1635   6.620   2.906   4.277
  246SOL     OW 1636   4.960   3.663   3.544
  246SOL    HW1 1637   4.909   3.738   3.503
  246SOL    HW2 1638   5.047   3.697   3.580
  247SOL     OW 1639   1.895   1.626   3.826
  247SOL    HW1 1640   1.945   1.588   3.903
  247SOL    HW2 1641   1.814   1.570   3.809
  248SOL     OW 1642   5.139   1.917   3.856
  248SOL    HW1 1643   5.163   1.854   3.783
  248SOL    HW2 1644   5.160   1.875   3.944
  249SOL     OW 1645   3.349   6.668   4.329
  249SOL    HW1 1646   3.387   6.661   4.237
  249SOL    HW2 1647   3.358   6.761   4.362
  250SOL     OW 1648   5.220   3.439   5.631
  250SOL    HW1 1649   5.128   3.456   5.594
  250SOL    HW2 1650   5.230   3.342   5.652
  251SOL     OW 1651   4.311   2.918   6.661
  251SOL    HW1 1652   4.407   2.907   6.634
  251SOL    HW2 1653   4.266   2.829   6.661
  252SOL     OW 1654   6.652   0.613   6.004
  252SOL    HW1 1655   6.592   0.683   5.964
  252SOL    HW2 1656   6.596   0.538   6.040
  253SOL     OW 1657   3.011   3.152   0.312
  253SOL    HW1 1658   3.108   3.145   0.289
  253SOL    HW2 1659   2.971   3.231   0.266
  254SOL     OW 1660   6.172   3.313   4.765
  254SOL    HW1 1661   6.125   3.401   4.767
  254SOL    HW2 1662   6.112   3.245   4.721
  255SOL     OW 1663   2.944   2.253   3.532
  255SOL    HW1 1664   2.864   2.312   3.541
  255SOL    HW2 1665   2.979   2.230   3.623
  256SOL     OW 1666   5.965   5.297   6.853
  256SOL    HW1 1667   5.990   5.351   6.773
  256SOL    HW2 1668   5.926   5.209   6.824
  257SOL     OW 1669   3.115   5.827   6.313
  257SOL    HW1 1670   3.044   5.846   6.381
  257SOL    HW2 1671   3.090   5.745   6.261
  258SOL     OW 1672   5.805   4.343   4.184
  258SOL    HW1 1673   5.762   4.339   4.275
  258SOL    HW2 1674   5.734   4.347   4.114
  259SOL     OW 1675   1.314   2.448   2.831
  259SOL    HW1 1676   1.231   2.463   2.777
  259SOL    HW2 1677   1.394   2.481   2.780
  260SOL     OW 1678   5.980   0.434   5.990
  260SOL    HW1 1679   5.905   0.423   6.055
  260SOL    HW2 1680   6.049   0.364   6.006
  261SOL     OW 1681   1.021   3.883   2.277
  261SOL    HW1 1682   0.937   3.870   2.328
  261SOL    HW2 1683   0.999   3.903   2.181
  262SOL     OW 1684   0.661   3.733   1.913
  262SOL    HW1 1685   0.633   3.823   1.948
  262SOL    HW2 1686   0.690   3.675   1.990
  263SOL     OW 1687   0.648   1.732   5.298
  263SOL    HW1 1688   0.647   1.731   5.198
  263SOL    HW2 1689   0.555   1.720   5.332
  264SOL     OW 1690   1.835   4.621   6.514
  264SOL    HW1 1691   1.770   4.660   6.448
  264SOL    HW2 1692   1.797   4.629   6.606
  265SOL     OW 1693   5.376   4.372   4.286
  265SOL    HW1 1694   5.359   4.374   4.187
  265SOL    HW2 1695   5.371   4.277   4.318
  266SOL     OW 1696   4.604   1.519   0.682
  266SOL    HW1 1697   4.513   1.499   0.645
  266SOL    HW2 1698   4.633   1.610   0.651
  267SOL     OW 1699   1.568   2.032   6.191
  267SOL    HW1 1700   1.655   2.026   6.240
  267SOL    HW2 1701   1.584   2.068   6.100
  268SOL     OW 1702   4.108   4.883   4.436
  268SOL    HW1 1703   4.177   4.925   4.495
  268SOL    HW2 1704   4.026   4.863   4.490
  269SOL     OW 1705   1.004   2.329   6.294
  269SOL    HW1 1706   1.044   2.327   6.386
  269SOL    HW2 1707   0.942   2.407   6.287
  270SOL     OW 1708   5.131   1.107   2.090
  270SOL    HW1 1709   5.071   1.173   2.044
  270SOL    HW2 1710   5.225   1.140   2.088
  271SOL     OW 1711   1.789   0.506   0.209
  271SOL    HW1 1712   1.741   0.442   0.271
  271SOL    HW2 1713   1.723   0.572   0.173
  272SOL     OW 1714   3.440   5.657   3.433
  272SOL    HW1 1715   3.518   5.626   3.377
  272SOL    HW2 1716   3.475   5.708   3.512
  273SOL     OW 1717   2.481   6.300   5.491
  273SOL    HW1 1718   2.567   6.310   5.441
  273SOL    HW2 1719   2.455   6.387   5.532
  274SOL     OW 1720   6.368   2.802   2.795
  274SOL    HW1 1721   6.330   2.748   2.870
  274SOL    HW2 1722   6.328   2.894   2.796
  275SOL     OW 1723   6.622   6.069   5.432
  275SOL    HW1 1724   6.641   5.971   5.431
  275SOL    HW2 1725   6.706   6.120   5.416
  276SOL     OW 1726   6.580   6.076   3.833
  276SOL    HW1 1727   6.524   6.009   3.883
  276SOL    HW2 1728   6.641   6.028   3.770
  277SOL     OW 1729   4.125   1.606   5.529
  277SOL    HW1 1730   4.103   1.623   5.625
  277SOL    HW2 1731   4.169   1.687   5.490
  278SOL     OW 1732   5.536   3.771   2.853
  278SOL    HW1 1733   5.443   3.800   2.876
  278SOL    HW2 1734   5.535   3.674   2.828
  279SOL     OW 1735   0.251   2.902   3.608
  279SOL    HW1 1736   0.239   2.803   3.600
  279SOL    HW2 1737   0.268   2.941   3.517
  280SOL     OW 1738   4.023   0.205   4.465
  280SOL    HW1 1739   4.074   0.122   4.445
  280SOL    HW2 1740   3.928   0.193   4.438
  281SOL     OW 1741   5.188   6.252   3.768
  281SOL    HW1 1742   5.149   6.188   3.703
  281SOL    HW2 1743   5.131   6.334   3.773
  282SOL     OW 1744   4.337   1.961   6.952
  282SOL    HW1 1745   4.285   1.939   6.870
  282SOL    HW2 1746   4.358   2.059   6.953
  283SOL     OW 1747   6.192   1.116   5.079
  283SOL    HW1 1748   6.177   1.214   5.063
  283SOL    HW2 1749   6.240   1.076   5.001
  284SOL     OW 1750   6.244   5.301   4.370
  284SOL    HW1 1751   6.180   5.375   4.348
  284SOL    HW2 1752   6.203   5.213   4.347
  285SOL     OW 1753   4.307   0.518   6.575
  285SOL    HW1 1754   4.369   0.572   6.633
  285SOL    HW2 1755   4.355   0.436   6.543
  286SOL     OW 1756   3.911   4.873   4.655
  286SOL    HW1 1757   3.909   4.790   4.710
  286SOL    HW2 1758   3.831   4.929   4.675
  287SOL     OW 1759   2.697   6.293   5.326
  287SOL    HW1 1760   2.667   6.350   5.249
  287SOL    HW2 1761   2.778   6.334   5.368
  288SOL     OW 1762   3.410   1.270   0.275
  288SOL    HW1 1763   3.462   1.214   0.211
  288SOL    HW2 1764   3.456   1.359   0.286
  289SOL     OW 1765   0.534   6.443   4.149
  289SOL    HW1 1766   0.545   6.538   4.120
  289SOL    HW2 1767   0.503   6.440   4.244
  290SOL     OW 1768   3.779   0.787   4.351
  290SOL    HW1 1769   3.853   0.727   4.379
  290SOL    HW2 1770   3.800   0.829   4.263
  291SOL     OW 1771   4.189   0.396   4.593
  291SOL    HW1 1772   4.273   0.341   4.595
  291SOL    HW2 1773   4.118   0.346   4.543
  292SOL     OW 1774   3.588   6.976   3.462
  292SOL    HW1 1775   3.497   6.936   3.473
  292SOL    HW2 1776   3.582   0.031   3.403
  293SOL     OW 1777   5.708   6.787   3.481
  293SOL    HW1 1778   5.699   6.886   3.495
  293SOL    HW2 1779   5.755   6.770   3.394
  294SOL     OW 1780   5.792   1.242   6.013
  294SOL    HW1 1781   5.833   1.268   5.925
  294SOL    HW2 1782   5.731   1.316   6.044
  295SOL     OW 1783   1.065   1.887   5.357
  295SOL    HW1 1784   1.159   1.918   5.346
  295SOL    HW2 1785   1.031   1.848   5.271
  296SOL     OW 1786   6.634   1.420   1.493
  296SOL    HW1 1787   6.618   1.412   1.591
  296SOL    HW2 1788   6.731   1.409   1.473
  297SOL     OW 1789   5.585   4.072   3.845
  297SOL    HW1 1790   5.680   4.068   3.815
  297SOL    HW2 1791   5.537   3.988   3.817
  298SOL     OW 1792   3.937   0.820   0.132
  298SOL    HW1 1793   3.900   0.892   0.191
  298SOL    HW2 1794   3.949   0.736   0.186
  299SOL     OW 1795   2.547   1.469   6.678
  299SOL    HW1 1796   2.545   1.371   6.697
  299SOL    HW2 1797   2.455   1.500   6.653
  300SOL     OW 1798   3.814   1.112   3.084
  300SOL    HW1 1799   3.868   1.165   3.150
  300SOL    HW2 1800   3.721   1.101   3.118
  301SOL     OW 1801   6.225   6.071   1.652
  301SOL    HW1 1802   6.152   6.005   1.664
  301SOL    HW2 1803   6.282   6.075   1.734
  302SOL     OW 1804   6.330   6.188   0.879
  302SOL    HW1 1805   6.353   6.272   0.830
  302SOL    HW2 1806   6.414   6.135   0.894
  303SOL     OW 1807   6.188   5.601   2.520
  303SOL    HW1 1808   6.198   5.621   2.617
  303SOL    HW2 1809   6.277   5.604   2.475
  304SOL     OW 1810   1.617   0.295   5.155
  304SOL    HW1 1811   1.589   0.294   5.059
  304SOL    HW2 1812   1.717   0.292   5.160
  305SOL     OW 1813   1.798   2.454   2.159
  305SOL    HW1 1814   1.892   2.488   2.169
  305SOL    HW2 1815   1.797   2.355   2.173
  306SOL     OW 1816   6.225   0.810   3.170
  306SOL    HW1 1817   6.187   0.830   3.079
  306SOL    HW2 1818   6.225   0.893   3.225
  307SOL     OW 1819   3.272   3.279   2.258
  307SOL    HW1 1820   3.209   3.299   2.182
  307SOL    HW2 1821   3.239   3.323   2.341
  308SOL     OW 1822   5.384   1.530   4.048
  308SOL    HW1 1823   5.405   1.614   4.098
  308SOL    HW2 1824   5.388   1.453   4.112
  309SOL     OW 1825   1.024   6.252   6.480
  309SOL    HW1 1826   0.974   6.233   6.564
  309SOL    HW2 1827   1.072   6.170   6.450
  310SOL     OW 1828   5.239   5.425   4.945
  310SOL    HW1 1829   5.167   5.431   5.015
  310SOL    HW2 1830   5.268   5.518   4.920
  311SOL     OW 1831   1.858   5.444   2.797
  311SOL    HW1 1832   1.948   5.488   2.805
  311SOL    HW2 1833   1.868   5.345   2.809
  312SOL     OW 1834   4.617   2.456   3.431
  312SOL    HW1 1835   4.711   2.456   3.396
  312SOL    HW2 1836   4.590   2.363   3.453
  313SOL     OW 1837   3.805   3.275   3.120
  313SOL    HW1 1838   3.853   3.194   3.152
  313SOL    HW2 1839   3.755   3.254   3.036
  314SOL     OW 1840   1.975   6.754   5.154
  314SOL    HW1 1841   1.979   6.849   5.126
  314SOL    HW2 1842   1.966   6.749   5.254
  315SOL     OW 1843   6.474   1.318   3.708
  315SOL    HW1 1844   6.478   1.253   3.784
  315SOL    HW2 1845   6.531   1.398   3.730
  316SOL     OW 1846   3.830   1.551   5.145
  316SOL    HW1 1847   3.741   1.580   5.179
  316SOL    HW2 1848   3.819   1.479   5.076
  317SOL     OW 1849   1.203   1.622   1.760
  317SOL    HW1 1850   1.203   1.713   1.719
  317SOL    HW2 1851   1.244   1.556   1.696
  318SOL     OW 1852   0.101   0.750   5.479
  318SOL    HW1 1853   0.193   0.720   5.452
  318SOL    HW2 1854   0.046   0.670   5.505
  319SOL     OW 1855   1.175   1.966   2.327
  319SOL    HW1 1856   1.153   2.061   2.303
  319SOL    HW2 1857   1.166   1.955   2.426
  320SOL     OW 1858   6.018   2.379   6.865
  320SOL    HW1 1859   6.092   2.357   6.928
  320SOL    HW2 1860   5.939   2.322   6.885
  321SOL     OW 1861   4.054   3.315   0.615
  321SOL    HW1 1862   4.148   3.285   0.601
  321SOL    HW2 1863   3.993   3.258   0.560
  322SOL     OW 1864   4.514   3.274   6.689
  322SOL    HW1 1865   4.590   3.322   6.733
  322SOL    HW2 1866   4.487   3.196   6.746
  323SOL     OW 1867   0.550   3.341   3.738
  323SOL    HW1 1868   0.575   3.258   3.787
  323SOL    HW2 1869   0.614   3.355   3.662
  324SOL     OW 1870   1.325   0.253   2.997
  324SOL    HW1 1871   1.239   0.304   2.992
  324SOL    HW2 1872   1.308   0.163   3.036
  325SOL     OW 1873   1.025   3.499   2.573
  325SOL    HW1 1874   0.943   3.451   2.605
  325SOL    HW2 1875   1.026   3.592   2.609
  326SOL     OW 1876   2.153   6.075   6.339
  326SOL    HW1 1877   2.192   6.066   6.431
  326SOL    HW2 1878   2.084   6.147   6.339
  327SOL     OW 1879   4.061   5.360   3.444
  327SOL    HW1 1880   4.059   5.383   3.541
  327SOL    HW2 1881   4.016   5.432   3.391
  328SOL     OW 1882   2.431   4.517   2.105
  328SOL    HW1 1883   2.392   4.440   2.155
  328SOL    HW2 1884   2.357   4.573   2.068
  329SOL     OW 1885   3.070   3.905   1.783
  329SOL    HW1 1886   3.085   4.004   1.792
  329SOL    HW2 1887   3.007   3.888   1.707
  330SOL     OW 1888   4.128   4.880   0.124
  330SOL    HW1 1889   4.085   4.810   0.067
  330SOL    HW2 1890   4.181   4.835   0.196
  331SOL     OW 1891   4.705   5.465   0.567
  331SOL    HW1 1892   4.784   5.422   0.523
  331SOL    HW2 1893   4.684   5.551   0.520
  332SOL     OW 1894   5.433   2.116   2.812
  332SOL    HW1 1895   5.438   2.073   2.722
  332SOL    HW2 1896   5.478   2.205   2.809
  333SOL     OW 1897   3.673   1.029   5.471
  333SOL    HW1 1898   3.691   0.931   5.462
  333SOL    HW2 1899   3.592   1.053   5.417
  334SOL     OW 1900   4.095   3.738   3.069
  334SOL    HW1 1901   4.184   3.705   3.037
  334SOL    HW2 1902   4.031   3.661   3.076
  335SOL     OW 1903   3.863   0.137   6.540
  335SOL    HW1 1904   3.802   0.095   6.473
  335SOL    HW2 1905   3.950   0.088   6.541
  336SOL     OW 1906   2.305   1.836   3.344
  336SOL    HW1 1907   2.233   1.892   3.387
  336SOL    HW2 1908   2.324   1.871   3.253
  337SOL     OW 1909   1.770   1.796   6.063
  337SOL    HW1 1910   1.810   1.844   6.140
  337SOL    HW2 1911   1.689   1.845   6.031
  338SOL     OW 1912   4.416   2.651   1.205
  338SOL    HW1 1913   4.410   2.565   1.256
  338SOL    HW2 1914   4.330   2.701   1.212
  339SOL     OW 1915   4.036   5.138   4.649
  339SOL    HW1 1916   4.020   5.043   4.673
  339SOL    HW2 1917   3.982   5.197   4.709
  340SOL     OW 1918   4.507   2.163   4.617
  340SOL    HW1 1919   4.414   2.174   4.582
  340SOL    HW2 1920   4.560   2.107   4.554
  341SOL     OW 1921   5.811   6.403   3.655
  341SOL    HW1 1922   5.825   6.339   3.731
  341SOL    HW2 1923   5.788   6.352   3.572
  342SOL     OW 1924   4.887   3.136   0.788
  342SOL    HW1 1925   4.971   3.190   0.799
  342SOL    HW2 1926   4.808   3.197   0.791
  343SOL     OW 1927   1.319   5.530   3.061
  343SOL    HW1 1928   1.285   5.573   3.144
  343SOL    HW2 1929   1.412   5.562   3.042
  344SOL     OW 1930   1.843   1.294   1.340
  344SOL    HW1 1931   1.921   1.328   1.393
  344SOL    HW2 1932   1.825   1.355   1.263
  345SOL     OW 1933   6.441   2.235   4.374
  345SOL    HW1 1934   6.525   2.268   4.331
  345SOL    HW2 1935   6.380   2.198   4.304
  346SOL     OW 1936   1.550   0.526   2.727
  346SOL    HW1 1937   1.584   0.592   2.660
  346SOL    HW2 1938   1.496   0.456   2.681
  347SOL     OW 1939   2.781   5.380   0.546
  347SOL    HW1 1940   2.835   5.370   0.629
  347SOL    HW2 1941   2.842   5.401   0.469
  348SOL     OW 1942   5.119   5.434   2.135
  348SOL    HW1 1943   5.109   5.389   2.224
  348SOL    HW2 1944   5.033   5.477   2.110
  349SOL     OW 1945   6.946   3.964   1.206
  349SOL    HW1 1946   6.950   4.008   1.295
  349SOL    HW2 1947   6.884   4.016   1.146
  350SOL     OW 1948   3.821   3.030   0.016
  350SOL    HW1 1949   3.849   3.115   0.062
  350SOL    HW2 1950   3.750   3.051   6.975
  351SOL     OW 1951   3.644   4.372   0.479
  351SOL    HW1 1952   3.713   4.377   0.408
  351SOL    HW2 1953   3.626   4.463   0.516
  352SOL     OW 1954   4.425   5.648   3.351
  352SOL    HW1 1955   4.508   5.700   3.330
  352SOL    HW2 1956   4.379   5.624   3.266
  353SOL     OW 1957   2.517   7.013   6.098
  353SOL    HW1 1958   2.482   6.979   6.185
  353SOL    HW2 1959   2.485   6.955   6.024
  354SOL     OW 1960   5.831   2.701   0.861
  354SOL    HW1 1961   5.875   2.786   0.830
  354SOL    HW2 1962   5.894   2.650   0.919
  355SOL     OW 1963   1.728   2.796   2.460
  355SOL    HW1 1964   1.708   2.698   2.463
  355SOL    HW2 1965   1.653   2.844   2.414
  356SOL     OW 1966   1.695   0.495   5.541
  356SOL    HW1 1967   1.703   0.587   5.503
  356SOL    HW2 1968   1.608   0.487   5.589
  357SOL     OW 1969   5.778   6.996   4.684
  357SOL    HW1 1970   5.820   7.016   4.596
  357SOL    HW2 1971   5.723   6.913   4.676
  358SOL     OW 1972   5.088   5.882   0.478
  358SOL    HW1 1973   5.122   5.976   0.487
  358SOL    HW2 1974   5.085   5.857   0.381
  359SOL     OW 1975   3.271   1.812   2.131
  359SOL    HW1 1976   3.317   1.898   2.111
  359SOL    HW2 1977   3.299   1.780   2.222
  360SOL     OW 1978   0.756   5.283   4.295
  360SOL    HW1 1979   0.738   5.218   4.221
  360SOL    HW2 1980   0.715   5.249   4.380
  361SOL     OW 1981   6.569   5.888   3.350
  361SOL    HW1 1982   6.572   5.884   3.450
  361SOL    HW2 1983   6.498   5.952   3.321
  362SOL     OW 1984   4.183   4.405   0.611
  362SOL    HW1 1985   4.100   4.454   0.640
  362SOL    HW2 1986   4.157   4.315   0.576
  363SOL     OW 1987   6.312   4.957   2.578
  363SOL    HW1 1988   6.255   4.898   2.521
  363SOL    HW2 1989   6.281   4.951   2.673
  364SOL     OW 1990   0.689   5.563   6.483
  364SOL    HW1 1991   0.755   5.488   6.479
  364SOL    HW2 1992   0.603   5.533   6.442
  365SOL     OW 1993   3.383   1.012   2.352
  365SOL    HW1 1994   3.407   0.934   2.295
  365SOL    HW2 1995   3.343   0.979   2.438
  366SOL     OW 1996   5.962   3.655   0.342
  366SOL    HW1 1997   5.953   3.659   0.442
  366SOL    HW2 1998   5.926   3.568   0.309
  367SOL     OW 1999   5.093   1.759   5.572
  367SOL    HW1 2000   5.113   1.854   5.549
  367SOL    HW2 2001   5.090   1.749   5.672
  368SOL     OW 2002   6.645   2.301   6.031
  368SOL    HW1 2003   6.674   2.230   6.095
  368SOL    HW2 2004   6.606   2.378   6.082
  369SOL     OW 2005   6.008   4.086   3.018
  369SOL    HW1 2006   5.925   4.122   2.977
  369SOL    HW2 2007   5.986   4.004   3.072
  370SOL     OW 2008   1.848   2.708   3.977
  370SOL    HW1 2009   1.796   2.635   4.022
  370SOL    HW2 2010   1.787   2.762   3.920
  371SOL     OW 2011   1.649   4.057   6.892
  371SOL    HW1 2012   1.649   3.957   6.901
  371SOL    HW2 2013   1.691   4.082   6.805
  372SOL     OW 2014   2.161   7.016   4.949
  372SOL    HW1 2015   2.116   6.956   4.883
  372SOL    HW2 2016   2.106   7.021   5.033
  373SOL     OW 2017   5.932   6.765   4.931
  373SOL    HW1 2018   5.839   6.732   4.914
  373SOL    HW2 2019   5.941   6.857   4.895
  374SOL     OW 2020   2.435   1.908   2.421
  374SOL    HW1 2021   2.430   2.008   2.413
  374SOL    HW2 2022   2.444   1.867   2.330
  375SOL     OW 2023   0.646   5.505   5.246
  375SOL    HW1 2024   0.710   5.476   5.175
  375SOL    HW2 2025   0.616   5.425   5.299
  376SOL     OW 2026   2.978   1.194   4.100
  376SOL    HW1 2027   2.928   1.254   4.162
  376SOL    HW2 2028   2.918   1.119   4.071
  377SOL     OW 2029   1.566   2.203   0.051
  377SOL    HW1 2030   1.519   2.286   0.019
  377SOL    HW2 2031   1.542   2.186   0.147
  378SOL     OW 2032   2.810   1.572   6.955
  378SOL    HW1 2033   2.802   1.584   6.856
  378SOL    HW2 2034   2.815   1.474   6.976
  379SOL     OW 2035   5.656   2.283   6.370
  379SOL    HW1 2036   5.569   2.234   6.378
  379SOL    HW2 2037   5.640   2.381   6.383
  380SOL     OW 2038   3.198   1.184   1.314
  380SOL    HW1 2039   3.221   1.105   1.371
  380SOL    HW2 2040   3.100   1.182   1.293
  381SOL     OW 2041   1.067   5.054   4.368
  381SOL    HW1 2042   0.975   5.015   4.358
  381SOL    HW2 2043   1.128   4.985   4.406
  382SOL     OW 2044   5.959   0.528   0.384
  382SOL    HW1 2045   6.039   0.484   0.345
  382SOL    HW2 2046   5.894   0.550   0.312
  383SOL     OW 2047   3.776   2.976   0.969
  383SOL    HW1 2048   3.758   3.048   0.902
  383SOL    HW2 2049   3.722   2.993   1.052
  384SOL     OW 2050   6.944   3.934   4.320
  384SOL    HW1 2051   6.913   3.925   4.414
  384SOL    HW2 2052   6.916   4.022   4.283
  385SOL     OW 2053   3.983   5.413   6.108
  385SOL    HW1 2054   3.998   5.406   6.009
  385SOL    HW2 2055   4.042   5.348   6.155
  386SOL     OW 2056   4.615   0.238   4.032
  386SOL    HW1 2057   4.660   0.326   4.045
  386SOL    HW2 2058   4.518   0.246   4.056
  387SOL     OW 2059   2.132   5.049   3.042
  387SOL    HW1 2060   2.218   5.062   3.093
  387SOL    HW2 2061   2.057   5.035   3.107
  388SOL     OW 2062   2.377   2.282   6.562
  388SOL    HW1 2063   2.413   2.342   6.633
  388SOL    HW2 2064   2.419   2.306   6.474
  389SOL     OW 2065   3.684   4.028   2.684
  389SOL    HW1 2066   3.596   3.983   2.697
  389SOL    HW2 2067   3.742   4.013   2.764
  390SOL     OW 2068   2.431   0.721   3.753
  390SOL    HW1 2069   2.503   0.690   3.691
  390SOL    HW2 2070   2.471   0.737   3.844
  391SOL     OW 2071   1.749   3.017   0.279
  391SOL    HW1 2072   1.695   2.950   0.329
  391SOL    HW2 2073   1.699   3.104   0.274
  392SOL     OW 2074   2.288   5.224   1.543
  392SOL    HW1 2075   2.346   5.301   1.519
  392SOL    HW2 2076   2.272   5.167   1.462
  393SOL     OW 2077   6.149   4.685   5.459
  393SOL    HW1 2078   6.113   4.778   5.464
  393SOL    HW2 2079   6.248   4.686   5.477
  394SOL     OW 2080   0.557   6.971   0.384
  394SOL    HW1 2081   0.528   6.980   0.479
  394SOL    HW2 2082   0.486   7.008   0.324
  395SOL     OW 2083   4.839   3.746   2.248
  395SOL    HW1 2084   4.751   3.783   2.216
  395SOL    HW2 2085   4.864   3.667   2.192
  396SOL     OW 2086   3.647   3.483   2.784
  396SOL    HW1 2087   3.556   3.489   2.824
  396SOL    HW2 2088   3.663   3.562   2.725
  397SOL     OW 2089   4.083   2.784   5.621
  397SOL    HW1 2090   3.989   2.819   5.625
  397SOL    HW2 2091   4.133   2.833   5.550
  398SOL     OW 2092   0.885   5.742   2.238
  398SOL    HW1 2093   0.839   5.803   2.303
  398SOL    HW2 2094   0.928   5.666   2.288
  399SOL     OW 2095   4.922   5.738   2.380
  399SOL    HW1 2096   4.907   5.818   2.438
  399SOL    HW2 2097   4.998   5.684   2.416
  400SOL     OW 2098   6.980   0.490   5.489
  400SOL    HW1 2099   6.903   0.487   5.425
  400SOL    HW2 2100   6.993   0.400   5.530
  401SOL     OW 2101   5.047   0.835   6.499
  401SOL    HW1 2102   5.083   0.857   6.408
  401SOL    HW2 2103   5.083   0.746   6.529
  402SOL     OW 2104   6.248   6.480   3.249
  402SOL    HW1 2105   6.297   6.467   3.162
  402SOL    HW2 2106   6.302   6.541   3.308
  403SOL     OW 2107   4.721   2.372   5.845
  403SOL    HW1 2108   4.721   2.391   5.943
  403SOL    HW2 2109   4.720   2.273   5.831
  404SOL     OW 2110   1.615   6.983   3.469
  404SOL    HW1 2111   1.588   6.968   3.374
  404SOL    HW2 2112   1.605   0.054   3.491
  405SOL     OW 2113   1.739   2.134   1.278
  405SOL    HW1 2114   1.819   2.097   1.325
  405SOL    HW2 2115   1.769   2.184   1.197
  406SOL     OW 2116   1.306   2.804   4.213
  406SOL    HW1 2117   1.245   2.836   4.285
  406SOL    HW2 2118   1.401   2.815   4.241
  407SOL     OW 2119   2.549   0.035   4.294
  407SOL    HW1 2120   2.592   0.039   4.204
  407SOL    HW2 2121   2.584   0.110   4.350
  408SOL     OW 2122   1.499   0.732   3.483
  408SOL    HW1 2123   1.463   0.769   3.397
  408SOL    HW2 2124   1.589   0.692   3.466
  409SOL     OW 2125   5.803   3.427   2.988
  409SOL    HW1 2126   5.751   3.474   3.059
  409SOL    HW2 2127   5.833   3.338   3.022
  410SOL     OW 2128   2.448   0.203   0.334
  410SOL    HW1 2129   2.486   0.291   0.304
  410SOL    HW2 2130   2.469   0.189   0.431
  411SOL     OW 2131   5.976   5.915   6.600
  411SOL    HW1 2132   5.958   5.843   6.532
  411SOL    HW2 2133   5.997   5.873   6.688
  412SOL     OW 2134   4.066   6.765   2.436
  412SOL    HW1 2135   4.161   6.750   2.409
  412SOL    HW2 2136   4.027   6.680   2.470
  413SOL     OW 2137   3.975   4.702   1.112
  413SOL    HW1 2138   3.899   4.739   1.060
  413SOL    HW2 2139   4.011   4.621   1.065
  414SOL     OW 2140   4.550   5.178   2.353
  414SOL    HW1 2141   4.503   5.222   2.430
  414SOL    HW2 2142   4.632   5.231   2.330
  415SOL     OW 2143   1.940   5.661   0.256
  415SOL    HW1 2144   1.922   5.567   0.224
  415SOL    HW2 2145   1.854   5.710   0.266
  416SOL     OW 2146   4.561   5.683   4.756
  416SOL    HW1 2147   4.478   5.735   4.737
  416SOL    HW2 2148   4.547   5.587   4.729
  417SOL     OW 2149   3.041   6.495   1.209
  417SOL    HW1 2150   3.114   6.563   1.208
  417SOL    HW2 2151   2.977   6.516   1.283
  418SOL     OW 2152   4.816   6.168   0.187
  418SOL    HW1 2153   4.844   6.179   0.091
  418SOL    HW2 2154   4.861   6.237   0.243
  419SOL     OW 2155   0.945   0.415   1.226
  419SOL    HW1 2156   0.989   0.327   1.243
  419SOL    HW2 2157   0.993   0.487   1.277
  420SOL     OW 2158   6.155   3.601   0.959
  420SOL    HW1 2159   6.188   3.580   1.051
  420SOL    HW2 2160   6.152   3.518   0.904
  421SOL     OW 2161   0.730   5.153   6.114
  421SOL    HW1 2162   0.695   5.063   6.088
  421SOL    HW2 2163   0.699   5.176   6.206
  422SOL     OW 2164   6.558   5.755   0.836
  422SOL    HW1 2165   6.494   5.750   0.913
  422SOL    HW2 2166   6.650   5.776   0.870
  423SOL     OW 2167   6.235   3.465   6.903
  423SOL    HW1 2168   6.263   3.457   6.807
  423SOL    HW2 2169   6.314   3.448   6.962
  424SOL     OW 2170   3.119   3.412   0.621
  424SOL    HW1 2171   3.052   3.338   0.612
  424SOL    HW2 2172   3.161   3.430   0.532
  425SOL     OW 2173   5.348   1.200   1.835
  425SOL    HW1 2174   5.353   1.214   1.934
  425SOL    HW2 2175   5.252   1.189   1.808
  426SOL     OW 2176   5.727   2.407   5.427
  426SOL    HW1 2177   5.707   2.497   5.465
  426SOL    HW2 2178   5.793   2.416   5.352
  427SOL     OW 2179   5.627   4.997   2.812
  427SOL    HW1 2180   5.570   5.040   2.882
  427SOL    HW2 2181   5.591   4.907   2.790
  428SOL     OW 2182   4.360   0.083   5.251
  428SOL    HW1 2183   4.337   0.177   5.278
  428SOL    HW2 2184   4.398   0.083   5.159
  429SOL     OW 2185   2.919   5.352   0.803
  429SOL    HW1 2186   2.986   5.425   0.792
  429SOL    HW2 2187   2.967   5.267   0.827
  430SOL     OW 2188   0.895   6.711   4.027
  430SOL    HW1 2189   0.915   6.647   3.953
  430SOL    HW2 2190   0.947   6.684   4.109
  431SOL     OW 2191   2.940   1.118   0.077
  431SOL    HW1 2192   3.035   1.090   0.090
  431SOL    HW2 2193   2.886   1.091   0.157
  432SOL     OW 2194   6.492   2.699   0.930
  432SOL    HW1 2195   6.521   2.727   0.838
  432SOL    HW2 2196   6.570   2.662   0.980
  433SOL     OW 2197   2.382   0.180   3.770
  433SOL    HW1 2198   2.292   0.144   3.794
  433SOL    HW2 2199   2.377   0.280   3.763
  434SOL     OW 2200   4.987   4.954   1.730
  434SOL    HW1 2201   4.954   4.861   1.711
  434SOL    HW2 2202   5.024   4.994   1.646
  435SOL     OW 2203   3.746   2.708   5.438
  435SOL    HW1 2204   3.791   2.700   5.527
  435SOL    HW2 2205   3.807   2.676   5.366
  436SOL     OW 2206   1.942   6.654   0.991
  436SOL    HW1 2207   1.930   6.743   1.034
  436SOL    HW2 2208   2.018   6.658   0.927
  437SOL     OW 2209   0.405   0.060   6.202
  437SOL    HW1 2210   0.460   0.137   6.236
  437SOL    HW2 2211   0.399   0.064   6.103
  438SOL     OW 2212   1.572   2.908   2.257
  438SOL    HW1 2213   1.637   2.965   2.207
  438SOL    HW2 2214   1.480   2.947   2.250
  439SOL     OW 2215   5.795   4.128   3.603
  439SOL    HW1 2216   5.805   4.041   3.651
  439SOL    HW2 2217   5.851   4.197   3.648
  440SOL     OW 2218   1.068   2.037   4.750
  440SOL    HW1 2219   1.102   2.056   4.842
  440SOL    HW2 2220   1.142   2.046   4.684
  441SOL     OW 2221   0.388   1.583   3.097
  441SOL    HW1 2222   0.424   1.671   3.064
  441SOL    HW2 2223   0.463   1.528   3.133
  442SOL     OW 2224   1.753   4.616   0.091
  442SOL    HW1 2225   1.736   4.563   0.008
  442SOL    HW2 2226   1.682   4.597   0.158
  443SOL     OW 2227   1.142   4.004   4.880
  443SOL    HW1 2228   1.068   4.005   4.947
  443SOL    HW2 2229   1.226   3.974   4.924
  444SOL     OW 2230   5.069   2.114   5.933
  444SOL    HW1 2231   5.046   2.065   5.848
  444SOL    HW2 2232   5.081   2.048   6.007
  445SOL     OW 2233   1.805   5.770   3.086
  445SOL    HW1 2234   1.817   5.753   2.988
  445SOL    HW2 2235   1.831   5.688   3.137
  446SOL     OW 2236   4.051   4.753   3.464
  446SOL    HW1 2237   4.097   4.831   3.507
  446SOL    HW2 2238   4.115   4.678   3.453
  447SOL     OW 2239   0.363   3.687   6.802
  447SOL    HW1 2240   0.343   3.785   6.790
  447SOL    HW2 2241   0.302   3.633   6.744
  448SOL     OW 2242   3.499   0.436   4.783
  448SOL    HW1 2243   3.495   0.422   4.882
  448SOL    HW2 2244   3.411   0.469   4.751
  449SOL     OW 2245   4.645   0.955   5.455
  449SOL    HW1 2246   4.674   0.859   5.452
  449SOL    HW2 2247   4.700   1.008   5.390
  450SOL     OW 2248   1.131   5.957   2.967
  450SOL    HW1 2249   1.228   5.942   2.982
  450SOL    HW2 2250   1.092   5.880   2.916
  451SOL     OW 2251   1.137   2.174   2.690
  451SOL    HW1 2252   1.100   2.265   2.671
  451SOL    HW2 2253   1.069   2.105   2.666
  452SOL     OW 2254   6.208   5.720   0.643
  452SOL    HW1 2255   6.283   5.773   0.604
  452SOL    HW2 2256   6.175   5.653   0.575
  453SOL     OW 2257   3.025   0.090   5.333
  453SOL    HW1 2258   3.119   0.124   5.332
  453SOL    HW2 2259   3.008   0.041   5.418
  454SOL     OW 2260   0.209   5.177   5.903
  454SOL    HW1 2261   0.241   5.190   5.997
  454SOL    HW2 2262   0.286   5.148   5.846
  455SOL     OW 2263   6.506   0.656   4.202
  455SOL    HW1 2264   6.433   0.594   4.174
  455SOL    HW2 2265   6.537   0.710   4.123
  456SOL     OW 2266   4.464   6.091   4.954
  456SOL    HW1 2267   4.559   6.105   4.928
  456SOL    HW2 2268   4.459   6.018   5.022
  457SOL     OW 2269   2.069   3.358   3.551
  457SOL    HW1 2270   2.107   3.400   3.468
  457SOL    HW2 2271   2.100   3.409   3.631
  458SOL     OW 2272   4.866   5.718   4.777
  458SOL    HW1 2273   4.891   5.649   4.708
  458SOL    HW2 2274   4.769   5.738   4.770
  459SOL     OW 2275   1.264   0.164   3.946
  459SOL    HW1 2276   1.213   0.194   4.028
  459SOL    HW2 2277   1.276   0.065   3.948
  460SOL     OW 2278   0.634   0.865   2.352
  460SOL    HW1 2279   0.610   0.808   2.274
  460SOL    HW2 2280   0.673   0.951   2.320
  461SOL     OW 2281   6.077   6.545   4.580
  461SOL    HW1 2282   6.016   6.588   4.514
  461SOL    HW2 2283   6.061   6.584   4.671
  462SOL     OW 2284   4.184   2.171   5.734
  462SOL    HW1 2285   4.089   2.200   5.745
  462SOL    HW2 2286   4.189   2.071   5.742
  463SOL     OW 2287   6.395   6.425   3.005
  463SOL    HW1 2288   6.370   6.331   2.980
  463SOL    HW2 2289   6.419   6.476   2.923
  464SOL     OW 2290   2.715   1.987   6.126
  464SOL    HW1 2291   2.781   1.922   6.089
  464SOL    HW2 2292   2.749   2.080   6.112
  465SOL     OW 2293   1.209   2.043   4.521
  465SOL    HW1 2294   1.245   1.951   4.538
  465SOL    HW2 2295   1.285   2.107   4.510
  466SOL     OW 2296   0.988   5.750   2.848
  466SOL    HW1 2297   0.994   5.653   2.869
  466SOL    HW2 2298   0.939   5.762   2.761
  467SOL     OW 2299   1.159   0.410   6.194
  467SOL    HW1 2300   1.144   0.436   6.099
  467SOL    HW2 2301   1.163   0.311   6.202
  468SOL     OW 2302   3.058   6.261   0.194
  468SOL    HW1 2303   3.059   6.354   0.156
  468SOL    HW2 2304   2.969   6.244   0.235
  469SOL     OW 2305   2.546   4.392   0.987
  469SOL    HW1 2306   2.624   4.420   1.044
  469SOL    HW2 2307   2.461   4.410   1.036
  470SOL     OW 2308   3.432   0.480   2.550
  470SOL    HW1 2309   3.399   0.494   2.643
  470SOL    HW2 2310   3.530   0.497   2.547
  471SOL     OW 2311   1.647   2.372   4.575
  471SOL    HW1 2312   1.663   2.470   4.566
  471SOL    HW2 2313   1.635   2.349   4.671
  472SOL     OW 2314   4.989   3.916   6.892
  472SOL    HW1 2315   5.066   3.852   6.898
  472SOL    HW2 2316   4.905   3.866   6.874
  473SOL     OW 2317   0.461   3.239   1.520
  473SOL    HW1 2318   0.455   3.208   1.614
  473SOL    HW2 2319   0.506   3.329   1.517
  474SOL     OW 2320   4.411   4.942   3.836
  474SOL    HW1 2321   4.340   5.009   3.858
  474SOL    HW2 2322   4.482   4.985   3.780
  475SOL     OW 2323   6.199   0.919   6.678
  475SOL    HW1 2324   6.169   0.830   6.642
  475SOL    HW2 2325   6.210   0.983   6.602
  476SOL     OW 2326   0.565   4.407   2.354
  476SOL    HW1 2327   0.606   4.360   2.276
  476SOL    HW2 2328   0.627   4.401   2.433
  477SOL     OW 2329   2.049   4.669   5.126
  477SOL    HW1 2330   2.074   4.573   5.143
  477SOL    HW2 2331   2.077   4.725   5.203
  478SOL     OW 2332   3.148   6.672   2.516
  478SOL    HW1 2333   3.107   6.601   2.574
  478SOL    HW2 2334   3.100   6.675   2.428
  479SOL     OW 2335   4.501   2.247   6.987
  479SOL    HW1 2336   4.470   2.333   6.945
  479SOL    HW2 2337   4.552   2.194   6.919
  480SOL     OW 2338   2.482   0.817   0.508
  480SOL    HW1 2339   2.390   0.843   0.476
  480SOL    HW2 2340   2.539   0.796   0.429
  481SOL     OW 2341   1.715   6.815   0.103
  481SOL    HW1 2342   1.640   6.818   0.037
  481SOL    HW2 2343   1.727   6.905   0.144
  482SOL     OW 2344   4.232   4.969   2.818
  482SOL    HW1 2345   4.266   5.058   2.848
  482SOL    HW2 2346   4.238   4.963   2.719
  483SOL     OW 2347   6.390   2.301   1.724
  483SOL    HW1 2348   6.369   2.333   1.632
  483SOL    HW2 2349   6.487   2.278   1.730
  484SOL     OW 2350   0.870   3.087   5.270
  484SOL    HW1 2351   0.877   3.121   5.176
  484SOL    HW2 2352   0.848   2.989   5.268
  485SOL     OW 2353   4.242   5.883   1.776
  485SOL    HW1 2354   4.312   5.822   1.813
  485SOL    HW2 2355   4.284   5.970   1.750
  486SOL     OW 2356   0.076   1.636   1.132
  486SOL    HW1 2357   0.059   1.545   1.092
  486SOL    HW2 2358   0.144   1.628   1.204
  487SOL     OW 2359   0.686   2.185   0.720
  487SOL    HW1 2360   0.636   2.166   0.805
  487SOL    HW2 2361   0.755   2.115   0.706
  488SOL     OW 2362   0.463   1.459   1.729
  488SOL    HW1 2363   0.491   1.455   1.825
  488SOL    HW2 2364   0.437   1.553   1.706
  489SOL     OW 2365   3.664   6.256   6.403
  489SOL    HW1 2366   3.566   6.275   6.403
  489SOL    HW2 2367   3.711   6.328   6.454
  490SOL     OW 2368   6.693   6.436   3.552
  490SOL    HW1 2369   6.655   6.505   3.491
  490SOL    HW2 2370   6.701   6.349   3.504
  491SOL     OW 2371   0.327   2.927   2.718
  491SOL    HW1 2372   0.408   2.927   2.777
  491SOL    HW2 2373   0.245   2.921   2.774
  492SOL     OW 2374   2.851   0.402   4.978
  492SOL    HW1 2375   2.853   0.353   4.891
  492SOL    HW2 2376   2.777   0.366   5.035
  493SOL     OW 2377   5.367   6.139   5.472
  493SOL    HW1 2378   5.442   6.147   5.539
  493SOL    HW2 2379   5.340   6.230   5.442
  494SOL     OW 2380   0.728   0.102   6.620
  494SOL    HW1 2381   0.663   0.057   6.681
  494SOL    HW2 2382   0.747   0.195   6.654
  495SOL     OW 2383   5.339   5.943   2.905
  495SOL    HW1 2384   5.276   5.873   2.870
  495SOL    HW2 2385   5.308   5.974   2.995
  496SOL     OW 2386   5.248   3.636   2.790
  496SOL    HW1 2387   5.288   3.549   2.760
  496SOL    HW2 2388   5.172   3.661   2.730
  497SOL     OW 2389   3.138   1.452   5.676
  497SOL    HW1 2390   3.221   1.397   5.678
  497SOL    HW2 2391   3.149   1.533   5.734
  498SOL     OW 2392   1.234   3.819   1.774
  498SOL    HW1 2393   1.195   3.730   1.795
  498SOL    HW2 2394   1.315   3.808   1.716
  499SOL     OW 2395   2.912   0.234   4.422
  499SOL    HW1 2396   2.999   0.283   4.408
  499SOL    HW2 2397   2.928   0.136   4.418
  500SOL     OW 2398   1.221   3.325   2.665
  500SOL    HW1 2399   1.156   3.393   2.630
  500SOL    HW2 2400   1.251   3.352   2.756
  501SOL     OW 2401   3.115   0.100   0.364
  501SOL    HW1 2402   3.086   0.066   0.453
  501SOL    HW2 2403   3.063   0.183   0.342
  502SOL     OW 2404   6.678   4.706   6.282
  502SOL    HW1 2405   6.770   4.672   6.299
  502SOL    HW2 2406   6.665   4.723   6.185
  503SOL     OW 2407   5.678   5.867   5.903
  503SOL    HW1 2408   5.611   5.942   5.909
  503SOL    HW2 2409   5.769   5.905   5.885
  504SOL     OW 2410   2.433   5.645   3.047
  504SOL    HW1 2411   2.367   5.702   3.096
  504SOL    HW2 2412   2.522   5.691   3.046
  505SOL     OW 2413   3.683   6.551   5.779
  505SOL    HW1 2414   3.769   6.501   5.769
  505SOL    HW2 2415   3.622   6.526   5.703
  506SOL     OW 2416   1.225   5.438   4.620
  506SOL    HW1 2417   1.171   5.521   4.609
  506SOL    HW2 2418   1.317   5.453   4.584
  507SOL     OW 2419   3.578   0.844   4.140
  507SOL    HW1 2420   3.584   0.748   4.168
  507SOL    HW2 2421   3.665   0.890   4.159
  508SOL     OW 2422   6.442   3.555   2.904
  508SOL    HW1 2423   6.467   3.604   2.987
  508SOL    HW2 2424   6.373   3.486   2.926
  509SOL     OW 2425   3.095   1.079   0.767
  509SOL    HW1 2426   3.112   1.077   0.865
  509SOL    HW2 2427   3.009   1.033   0.747
  510SOL     OW 2428   6.268   5.040   5.647
  510SOL    HW1 2429   6.325   5.081   5.718
  510SOL    HW2 2430   6.193   5.102   5.624
  511SOL     OW 2431   0.386   6.850   6.615
  511SOL    HW1 2432   0.293   6.811   6.615
  511SOL    HW2 2433   0.448   6.786   6.662
  512SOL     OW 2434   7.004   3.032   0.430
  512SOL    HW1 2435   7.025   3.085   0.513
  512SOL    HW2 2436   0.057   3.033   0.370
  513SOL     OW 2437   5.709   6.194   3.056
  513SOL    HW1 2438   5.739   6.265   2.993
  513SOL    HW2 2439   5.784   6.171   3.119
  514SOL     OW 2440   6.939   2.594   3.790
  514SOL    HW1 2441   6.947   2.549   3.702
  514SOL    HW2 2442   0.002   2.630   3.818
  515SOL     OW 2443   1.565   0.537   6.903
  515SOL    HW1 2444   1.500   0.462   6.908
  515SOL    HW2 2445   1.537   0.600   6.830
  516SOL     OW 2446   3.168   4.565   1.725
  516SOL    HW1 2447   3.075   4.550   1.759
  516SOL    HW2 2448   3.201   4.653   1.759
  517SOL     OW 2449   4.962   6.171   2.173
  517SOL    HW1 2450   5.057   6.201   2.173
  517SOL    HW2 2451   4.945   6.115   2.092
  518SOL     OW 2452   3.041   2.102   2.260
  518SOL    HW1 2453   3.050   2.158   2.178
  518SOL    HW2 2454   2.951   2.058   2.261
  519SOL     OW 2455   0.360   0.534   4.637
  519SOL    HW1 2456   0.413   0.613   4.607
  519SOL    HW2 2457   0.367   0.461   4.568
  520SOL     OW 2458   6.164   4.758   6.745
  520SOL    HW1 2459   6.114   4.694   6.802
  520SOL    HW2 2460   6.258   4.726   6.732
  521SOL     OW 2461   6.326   2.698   6.194
  521SOL    HW1 2462   6.396   2.680   6.263
  521SOL    HW2 2463   6.291   2.611   6.158
  522SOL     OW 2464   3.733   2.969   5.330
  522SOL    HW1 2465   3.696   2.877   5.343
  522SOL    HW2 2466   3.658   3.033   5.313
  523SOL     OW 2467   0.357   4.870   2.491
  523SOL    HW1 2468   0.395   4.865   2.583
  523SOL    HW2 2469   0.430   4.892   2.426
  524SOL     OW 2470   1.995   1.117   6.900
  524SOL    HW1 2471   2.013   1.215   6.906
  524SOL    HW2 2472   2.036   1.081   6.817
  525SOL     OW 2473   2.839   3.661   6.429
  525SOL    HW1 2474   2.902   3.737   6.414
  525SOL    HW2 2475   2.746   3.690   6.407
  526SOL     OW 2476   2.601   0.250   4.706
  526SOL    HW1 2477   2.575   0.162   4.746
  526SOL    HW2 2478   2.539   0.321   4.737
  527SOL     OW 2479   6.001   3.175   6.162
  527SOL    HW1 2480   5.904   3.197   6.169
  527SOL    HW2 2481   6.012   3.094   6.104
  528SOL     OW 2482   0.809   1.945   4.462
  528SOL    HW1 2483   0.789   1.872   4.398
  528SOL    HW2 2484   0.727   2.001   4.475
  529SOL     OW 2485   0.439   5.823   4.487
  529SOL    HW1 2486   0.525   5.785   4.454
  529SOL    HW2 2487   0.415   5.903   4.432
  530SOL     OW 2488   2.659   2.868   5.345
  530SOL    HW1 2489   2.606   2.934   5.292
  530SOL    HW2 2490   2.690   2.911   5.430
  531SOL     OW 2491   0.194   0.734   1.973
  531SOL    HW1 2492   0.181   0.769   2.066
  531SOL    HW2 2493   0.205   0.635   1.976
  532SOL     OW 2494   1.095   2.465   6.715
  532SOL    HW1 2495   1.139   2.378   6.735
  532SOL    HW2 2496   1.022   2.481   6.783
  533SOL     OW 2497   4.033   5.993   4.175
  533SOL    HW1 2498   3.941   5.996   4.136
  533SOL    HW2 2499   4.058   5.899   4.196
  534SOL     OW 2500   5.218   5.256   3.698
  534SOL    HW1 2501   5.175   5.230   3.611
  534SOL    HW2 2502   5.240   5.354   3.695
  535SOL     OW 2503   1.045   3.861   4.634
  535SOL    HW1 2504   0.968   3.809   4.672
  535SOL    HW2 2505   1.114   3.875   4.705
  536SOL     OW 2506   6.941   5.051   1.972
  536SOL    HW1 2507   6.994   5.131   1.999
  536SOL    HW2 2508   6.977   5.014   1.886
  537SOL     OW 2509   2.086   6.294   3.648
  537SOL    HW1 2510   2.096   6.317   3.552
  537SOL    HW2 2511   1.993   6.314   3.678
  538SOL     OW 2512   1.845   5.973   3.789
  538SOL    HW1 2513   1.901   5.894   3.764
  538SOL    HW2 2514   1.878   6.010   3.876
  539SOL     OW 2515   0.506   6.050   0.147
  539SOL    HW1 2516   0.579   6.019   0.206
  539SOL    HW2 2517   0.487   5.982   0.077
  540SOL     OW 2518   0.003   1.258   1.814
  540SOL    HW1 2519   0.006   1.243   1.913
  540SOL    HW2 2520   0.073   1.203   1.770
  541SOL     OW 2521   2.978   6.986   4.424
  541SOL    HW1 2522   2.899   6.969   4.482
  541SOL    HW2 2523   3.020   6.899   4.397
  542SOL     OW 2524   6.923   0.153   0.568
  542SOL    HW1 2525   6.985   0.220   0.610
  542SOL    HW2 2526   6.829   0.188   0.572
  543SOL     OW 2527   0.109   5.288   5.417
  543SOL    HW1 2528   0.154   5.210   5.461
  543SOL    HW2 2529   0.147   5.301   5.325
  544SOL     OW 2530   1.998   4.102   1.374
  544SOL    HW1 2531   1.920   4.123   1.315
  544SOL    HW2 2532   2.071   4.168   1.358
  545SOL     OW 2533   3.630   1.442   3.344
  545SOL    HW1 2534   3.627   1.350   3.306
  545SOL    HW2 2535   3.631   1.510   3.270
  546SOL     OW 2536   1.565   3.144   1.203
  546SOL    HW1 2537   1.523   3.160   1.114
  546SOL    HW2 2538   1.574   3.232   1.251
  547SOL     OW 2539   2.712   1.080   6.576
  547SOL    HW1 2540   2.654   1.091   6.657
  547SOL    HW2 2541   2.729   0.982   6.560
  548SOL     OW 2542   4.015   3.105   2.634
  548SOL    HW1 2543   4.051   3.088   2.542
  548SOL    HW2 2544   3.924   3.064   2.642
  549SOL     OW 2545   4.303   3.799   1.488
  549SOL    HW1 2546   4.276   3.770   1.580
  549SOL    HW2 2547   4.373   3.738   1.452
  550SOL     OW 2548   0.124   3.636   3.671
  550SOL    HW1 2549   0.199   3.579   3.637
  550SOL    HW2 2550   0.096   3.605   3.762
  551SOL     OW 2551   0.019   0.805   1.161
  551SOL    HW1 2552   6.978   0.878   1.175
  551SOL    HW2 2553   0.027   0.786   1.063
  552SOL     OW 2554   4.565   5.138   0.812
  552SOL    HW1 2555   4.601   5.108   0.900
  552SOL    HW2 2556   4.466   5.126   0.810
  553SOL     OW 2557   1.882   0.032   2.303
  553SOL    HW1 2558   1.812   0.090   2.262
  553SOL    HW2 2559   1.898   0.061   2.398
  554SOL     OW 2560   4.939   6.696   6.440
  554SOL    HW1 2561   4.904   6.701   6.534
  554SOL    HW2 2562   5.038   6.680   6.443
  555SOL     OW 2563   2.595   5.304   4.336
  555SOL    HW1 2564   2.609   5.359   4.418
  555SOL    HW2 2565   2.562   5.363   4.261
  556SOL     OW 2566   6.270   1.855   4.318
  556SOL    HW1 2567   6.245   1.804   4.235
  556SOL    HW2 2568   6.341   1.922   4.296
  557SOL     OW 2569   0.005   5.612   6.563
  557SOL    HW1 2570   0.025   5.708   6.581
  557SOL    HW2 2571   0.059   5.580   6.486
  558SOL     OW 2572   3.908   3.909   4.531
  558SOL    HW1 2573   3.916   3.851   4.450
  558SOL    HW2 2574   3.828   3.882   4.584
  559SOL     OW 2575   6.303   6.205   6.765
  559SOL    HW1 2576   6.375   6.137   6.747
  559SOL    HW2 2577   6.297   6.220   6.864
  560SOL     OW 2578   3.903   6.410   0.824
  560SOL    HW1 2579   3.862   6.379   0.910
  560SOL    HW2 2580   3.863   6.358   0.748
  561SOL     OW 2581   6.500   0.045   6.815
  561SOL    HW1 2582   6.558   0.012   6.889
  561SOL    HW2 2583   6.540   0.128   6.776
  562SOL     OW 2584   4.847   0.243   6.368
  562SOL    HW1 2585   4.873   0.309   6.297
  562SOL    HW2 2586   4.824   0.292   6.452
  563SOL     OW 2587   2.844   0.144   3.193
  563SOL    HW1 2588   2.807   0.103   3.276
  563SOL    HW2 2589   2.850   0.243   3.205
  564SOL     OW 2590   2.508   2.066   5.911
  564SOL    HW1 2591   2.411   2.053   5.933
  564SOL    HW2 2592   2.563   2.042   5.991
  565SOL     OW 2593   4.304   3.208   5.379
  565SOL    HW1 2594   4.260   3.187   5.466
  565SOL    HW2 2595   4.398   3.238   5.395
  566SOL     OW 2596   4.539   4.451   3.457
  566SOL    HW1 2597   4.549   4.470   3.555
  566SOL    HW2 2598   4.622   4.407   3.423
  567SOL     OW 2599   3.416   3.732   3.874
  567SOL    HW1 2600   3.434   3.646   3.921
  567SOL    HW2 2601   3.383   3.714   3.782
  568SOL     OW 2602   3.595   2.492   1.119
  568SOL    HW1 2603   3.671   2.435   1.151
  568SOL    HW2 2604   3.569   2.463   1.026
  569SOL     OW 2605   1.435   3.084   0.579
  569SOL    HW1 2606   1.441   3.161   0.515
  569SOL    HW2 2607   1.525   3.044   0.592
  570SOL     OW 2608   1.612   6.930   6.342
  570SOL    HW1 2609   1.688   6.986   6.309
  570SOL    HW2 2610   1.627   6.835   6.316
  571SOL     OW 2611   3.388   6.307   2.536
  571SOL    HW1 2612   3.393   6.242   2.612
  571SOL    HW2 2613   3.304   6.292   2.485
  572SOL     OW 2614   2.669   4.983   5.845
  572SOL    HW1 2615   2.610   5.062   5.827
  572SOL    HW2 2616   2.661   4.918   5.769
  573SOL     OW 2617   3.641   1.875   5.043
  573SOL    HW1 2618   3.735   1.898   5.020
  573SOL    HW2 2619   3.603   1.814   4.973
  574SOL     OW 2620   2.263   2.319   4.368
  574SOL    HW1 2621   2.239   2.240   4.424
  574SOL    HW2 2622   2.291   2.395   4.426
  575SOL     OW 2623   6.248   4.376   6.505
  575SOL    HW1 2624   6.162   4.350   6.461
  575SOL    HW2 2625   6.296   4.442   6.447
  576SOL     OW 2626   1.601   2.023   1.795
  576SOL    HW1 2627   1.625   2.109   1.841
  576SOL    HW2 2628   1.625   1.946   1.853
  577SOL     OW 2629   2.070   1.482   3.440
  577SOL    HW1 2630   2.152   1.522   3.399
  577SOL    HW2 2631   1.998   1.475   3.372
  578SOL     OW 2632   0.006   3.378   3.515
  578SOL    HW1 2633   6.967   3.331   3.576
  578SOL    HW2 2634   0.096   3.380   3.558
  579SOL     OW 2635   3.357   2.317   1.220
  579SOL    HW1 2636   3.362   2.277   1.128
  579SOL    HW2 2637   3.422   2.392   1.227
  580SOL     OW 2638   0.738   4.702   6.048
  580SOL    HW1 2639   0.723   4.605   6.029
  580SOL    HW2 2640   0.832   4.726   6.024
  581SOL     OW 2641   3.063   3.080   3.027
  581SOL    HW1 2642   3.062   3.176   2.999
  581SOL    HW2 2643   3.037   3.023   2.949
  582SOL     OW 2644   5.658   4.685   2.799
  582SOL    HW1 2645   5.580   4.683   2.736
  582SOL    HW2 2646   5.740   4.715   2.749
  583SOL     OW 2647   2.760   4.590   6.495
  583SOL    HW1 2648   2.670   4.584   6.452
  583SOL    HW2 2649   2.752   4.636   6.583
  584SOL     OW 2650   0.622   4.897   5.881
  584SOL    HW1 2651   0.688   4.876   5.809
  584SOL    HW2 2652   0.627   4.828   5.953
  585SOL     OW 2653   6.471   2.575   5.923
  585SOL    HW1 2654   6.399   2.604   5.859
  585SOL    HW2 2655   6.556   2.621   5.900
  586SOL     OW 2656   3.221   6.782   0.531
  586SOL    HW1 2657   3.230   6.704   0.469
  586SOL    HW2 2658   3.128   6.784   0.568
  587SOL     OW 2659   1.898   1.959   4.988
  587SOL    HW1 2660   1.802   1.982   5.001
  587SOL    HW2 2661   1.943   1.950   5.077
  588SOL     OW 2662   3.634   6.754   1.295
  588SOL    HW1 2663   3.615   6.657   1.278
  588SOL    HW2 2664   3.625   6.805   1.209
  589SOL     OW 2665   3.833   5.095   1.985
  589SOL    HW1 2666   3.901   5.109   1.913
  589SOL    HW2 2667   3.865   5.026   2.049
  590SOL     OW 2668   6.855   2.978   2.557
  590SOL    HW1 2669   6.784   3.014   2.617
  590SOL    HW2 2670   6.846   3.019   2.466
  591SOL     OW 2671   3.951   7.012   3.803
  591SOL    HW1 2672   3.987   0.070   3.760
  591SOL    HW2 2673   4.023   6.971   3.859
  592SOL     OW 2674   4.311   1.081   0.429
  592SOL    HW1 2675   4.333   1.001   0.373
  592SOL    HW2 2676   4.229   1.126   0.393
  593SOL     OW 2677   4.613   1.826   3.644
  593SOL    HW1 2678   4.607   1.765   3.723
  593SOL    HW2 2679   4.640   1.774   3.563
  594SOL     OW 2680   4.075   2.726   6.154
  594SOL    HW1 2681   4.055   2.655   6.086
  594SOL    HW2 2682   4.081   2.686   6.245
  595SOL     OW 2683   4.746   6.914   3.934
  595SOL    HW1 2684   4.807   6.991   3.951
  595SOL    HW2 2685   4.744   6.893   3.836
  596SOL     OW 2686   1.238   3.948   1.323
  596SOL    HW1 2687   1.294   3.866   1.313
  596SOL    HW2 2688   1.142   3.925   1.315
  597SOL     OW 2689   4.116   6.751   6.036
  597SOL    HW1 2690   4.068   6.716   6.117
  597SOL    HW2 2691   4.113   6.683   5.963
  598SOL     OW 2692   3.514   4.273   0.717
  598SOL    HW1 2693   3.553   4.291   0.807
  598SOL    HW2 2694   3.545   4.342   0.652
  599SOL     OW 2695   0.220   0.673   2.984
  599SOL    HW1 2696   0.190   0.641   2.894
  599SOL    HW2 2697   0.141   0.707   3.035
  600SOL     OW 2698   0.378   0.070   0.844
  600SOL    HW1 2699   0.439   7.016   0.845
  600SOL    HW2 2700   0.378   0.110   0.752
  601SOL     OW 2701   3.156   5.572   3.200
  601SOL    HW1 2702   3.201   5.542   3.284
  601SOL    HW2 2703   3.070   5.522   3.188
  602SOL     OW 2704   0.947   0.989   0.636
  602SOL    HW1 2705   0.881   1.045   0.685
  602SOL    HW2 2706   0.949   1.015   0.540
  603SOL     OW 2707   3.886   1.889   3.843
  603SOL    HW1 2708   3.914   1.830   3.768
  603SOL    HW2 2709   3.808   1.945   3.815
  604SOL     OW 2710   0.813   3.064   0.318
  604SOL    HW1 2711   0.808   3.150   0.369
  604SOL    HW2 2712   0.863   3.079   0.232
  605SOL     OW 2713   6.831   5.825   3.331
  605SOL    HW1 2714   6.733   5.830   3.347
  605SOL    HW2 2715   6.854   5.871   3.245
  606SOL     OW 2716   4.963   0.870   5.278
  606SOL    HW1 2717   4.969   0.908   5.370
  606SOL    HW2 2718   5.009   0.931   5.213
  607SOL     OW 2719   5.530   1.384   4.413
  607SOL    HW1 2720   5.560   1.355   4.503
  607SOL    HW2 2721   5.523   1.305   4.352
  608SOL     OW 2722   3.185   0.118   0.820
  608SOL    HW1 2723   3.220   0.208   0.793
  608SOL    HW2 2724   3.127   0.082   0.747
  609SOL     OW 2725   3.423   3.031   4.916
  609SOL    HW1 2726   3.507   3.063   4.959
  609SOL    HW2 2727   3.373   2.972   4.980
  610SOL     OW 2728   5.443   2.541   3.119
  610SOL    HW1 2729   5.404   2.565   3.207
  610SOL    HW2 2730   5.526   2.487   3.133
  611SOL     OW 2731   0.450   0.783   6.836
  611SOL    HW1 2732   0.439   0.882   6.849
  611SOL    HW2 2733   0.387   0.733   6.895
  612SOL     OW 2734   3.417   5.729   5.913
  612SOL    HW1 2735   3.444   5.688   5.826
  612SOL    HW2 2736   3.433   5.665   5.987
  613SOL     OW 2737   4.166   1.064   5.440
  613SOL    HW1 2738   4.087   1.004   5.453
  613SOL    HW2 2739   4.169   1.095   5.345
  614SOL     OW 2740   5.870   5.204   1.075
  614SOL    HW1 2741   5.888   5.215   0.978
  614SOL    HW2 2742   5.929   5.132   1.112
  615SOL     OW 2743   0.751   0.499   6.506
  615SOL    HW1 2744   0.688   0.566   6.546
  615SOL    HW2 2745   0.833   0.546   6.472
  616SOL     OW 2746   5.888   2.003   3.724
  616SOL    HW1 2747   5.791   2.007   3.746
  616SOL    HW2 2748   5.902   2.017   3.626
  617SOL     OW 2749   0.357   4.770   6.206
  617SOL    HW1 2750   0.403   4.682   6.190
  617SOL    HW2 2751   0.413   4.844   6.169
  618SOL     OW 2752   6.128   3.336   1.498
  618SOL    HW1 2753   6.089   3.407   1.556
  618SOL    HW2 2754   6.133   3.250   1.549
  619SOL     OW 2755   3.452   6.714   6.785
  619SOL    HW1 2756   3.419   6.711   6.880
  619SOL    HW2 2757   3.495   6.802   6.768
  620SOL     OW 2758   6.030   3.483   2.263
  620SOL    HW1 2759   5.972   3.557   2.229
  620SOL    HW2 2760   5.988   3.395   2.241
  621SOL     OW 2761   2.475   6.992   5.215
  621SOL    HW1 2762   2.543   7.013   5.286
  621SOL    HW2 2763   2.508   0.002   5.127
  622SOL     OW 2764   0.816   2.673   5.688
  622SOL    HW1 2765   0.903   2.722   5.693
  622SOL    HW2 2766   0.741   2.739   5.692
  623SOL     OW 2767   6.058   6.218   5.107
  623SOL    HW1 2768   6.017   6.278   5.038
  623SOL    HW2 2769   6.117   6.151   5.062
  624SOL     OW 2770   6.328   1.069   6.875
  624SOL    HW1 2771   6.395   1.017   6.928
  624SOL    HW2 2772   6.295   1.014   6.799
  625SOL     OW 2773   2.241   0.929   0.437
  625SOL    HW1 2774   2.256   0.871   0.356
  625SOL    HW2 2775   2.221   1.022   0.408
  626SOL     OW 2776   1.559   6.057   3.361
  626SOL    HW1 2777   1.625   6.131   3.351
  626SOL    HW2 2778   1.483   6.070   3.297
  627SOL     OW 2779   6.434   6.405   0.716
  627SOL    HW1 2780   6.513   6.344   0.726
  627SOL    HW2 2781   6.440   6.452   0.628
  628SOL     OW 2782   5.403   3.732   5.376
  628SOL    HW1 2783   5.422   3.685   5.290
  628SOL    HW2 2784   5.393   3.830   5.360
  629SOL     OW 2785   0.124   1.014   0.230
  629SOL    HW1 2786   0.219   1.004   0.260
  629SOL    HW2 2787   0.123   1.034   0.132
  630SOL     OW 2788   6.599   0.661   1.210
  630SOL    HW1 2789   6.592   0.717   1.292
  630SOL    HW2 2790   6.534   0.694   1.141
  631SOL     OW 2791   2.714   2.291   4.760
  631SOL    HW1 2792   2.666   2.316   4.844
  631SOL    HW2 2793   2.668   2.213   4.718
  632SOL     OW 2794   4.753   3.224   0.522
  632SOL    HW1 2795   4.819   3.279   0.471
  632SOL    HW2 2796   4.793   3.136   0.547
  633SOL     OW 2797   2.166   5.044   1.280
  633SOL    HW1 2798   2.240   5.001   1.332
  633SOL    HW2 2799   2.176   5.023   1.183
  634SOL     OW 2800   3.836   3.430   3.443
  634SOL    HW1 2801   3.752   3.404   3.394
  634SOL    HW2 2802   3.831   3.397   3.537
  635SOL     OW 2803   4.653   0.858   0.196
  635SOL    HW1 2804   4.622   0.886   0.105
  635SOL    HW2 2805   4.594   0.786   0.231
  636SOL     OW 2806   3.062   0.387   5.133
  636SOL    HW1 2807   2.989   0.399   5.065
  636SOL    HW2 2808   3.121   0.311   5.105
  637SOL     OW 2809   6.262   1.810   2.485
  637SOL    HW1 2810   6.180   1.866   2.491
  637SOL    HW2 2811   6.248   1.725   2.536
  638SOL     OW 2812   5.888   3.523   4.390
  638SOL    HW1 2813   5.871   3.610   4.345
  638SOL    HW2 2814   5.963   3.475   4.343
  639SOL     OW 2815   5.588   4.914   3.191
  639SOL    HW1 2816   5.563   4.937   3.285
  639SOL    HW2 2817   5.641   4.988   3.151
  640SOL     OW 2818   0.374   3.523   3.325
  640SOL    HW1 2819   0.371   3.613   3.281
  640SOL    HW2 2820   0.294   3.470   3.298
  641SOL     OW 2821   1.493   4.524   5.330
  641SOL    HW1 2822   1.504   4.502   5.233
  641SOL    HW2 2823   1.573   4.574   5.363
  642SOL     OW 2824   1.259   3.667   4.424
  642SOL    HW1 2825   1.265   3.759   4.385
  642SOL    HW2 2826   1.299   3.602   4.360
  643SOL     OW 2827   6.754   6.423   0.036
  643SOL    HW1 2828   6.808   6.507   0.026
  643SOL    HW2 2829   6.662   6.438   7.025
  644SOL     OW 2830   0.100   0.417   4.459
  644SOL    HW1 2831   0.106   0.504   4.409
  644SOL    HW2 2832   0.189   0.371   4.455
  645SOL     OW 2833   3.255   4.936   2.748
  645SOL    HW1 2834   3.293   5.019   2.708
  645SOL    HW2 2835   3.201   4.960   2.829
  646SOL     OW 2836   3.841   0.747   4.808
  646SOL    HW1 2837   3.838   0.654   4.770
  646SOL    HW2 2838   3.779   0.806   4.757
  647SOL     OW 2839   4.853   2.140   4.963
  647SOL    HW1 2840   4.787   2.194   4.911
  647SOL    HW2 2841   4.812   2.052   4.986
  648SOL     OW 2842   6.544   2.527   3.462
  648SOL    HW1 2843   6.512   2.451   3.405
  648SOL    HW2 2844   6.642   2.541   3.447
  649SOL     OW 2845   2.364   4.356   0.615
  649SOL    HW1 2846   2.392   4.430   0.676
  649SOL    HW2 2847   2.378   4.384   0.520
  650SOL     OW 2848   6.598   5.477   0.546
  650SOL    HW1 2849   6.676   5.523   0.588
  650SOL    HW2 2850   6.526   5.467   0.614
  651SOL     OW 2851   1.637   0.761   6.060
  651SOL    HW1 2852   1.699   0.746   5.984
  651SOL    HW2 2853   1.558   0.813   6.029
  652SOL     OW 2854   3.957   0.218   2.069
  652SOL    HW1 2855   3.897   0.159   2.123
  652SOL    HW2 2856   3.914   0.238   1.981
  653SOL     OW 2857   0.626   6.587   0.431
  653SOL    HW1 2858   0.665   6.537   0.509
  653SOL    HW2 2859   0.542   6.634   0.460
  654SOL     OW 2860   0.071   5.991   5.811
  654SOL    HW1 2861   0.061   6.044   5.727
  654SOL    HW2 2862   0.143   5.922   5.799
  655SOL     OW 2863   0.048   5.552   1.978
  655SOL    HW1 2864   0.073   5.597   1.891
  655SOL    HW2 2865   0.100   5.593   2.052
  656SOL     OW 2866   2.979   6.409   0.678
  656SOL    HW1 2867   2.915   6.332   0.688
  656SOL    HW2 2868   2.955   6.480   0.743
  657SOL     OW 2869   3.030   3.351   1.487
  657SOL    HW1 2870   3.077   3.347   1.576
  657SOL    HW2 2871   2.943   3.399   1.497
  658SOL     OW 2872   1.809   4.442   4.494
  658SOL    HW1 2873   1.837   4.417   4.587
  658SOL    HW2 2874   1.760   4.529   4.496
  659SOL     OW 2875   3.410   5.743   5.074
  659SOL    HW1 2876   3.324   5.707   5.109
  659SOL    HW2 2877   3.429   5.831   5.117
  660SOL     OW 2878   4.920   5.148   2.526
  660SOL    HW1 2879   4.866   5.064   2.520
  660SOL    HW2 2880   4.884   5.215   2.461
  661SOL     OW 2881   5.072   4.320   4.268
  661SOL    HW1 2882   5.135   4.306   4.191
  661SOL    HW2 2883   5.081   4.413   4.302
  662SOL     OW 2884   4.665   2.061   6.838
  662SOL    HW1 2885   4.740   2.127   6.839
  662SOL    HW2 2886   4.647   2.032   6.744
  663SOL     OW 2887   0.342   5.184   6.741
  663SOL    HW1 2888   0.426   5.131   6.752
  663SOL    HW2 2889   0.266   5.123   6.722
  664SOL     OW 2890   1.923   5.295   6.656
  664SOL    HW1 2891   1.852   5.344   6.606
  664SOL    HW2 2892   1.951   5.214   6.605
  665SOL     OW 2893   4.139   5.368   1.578
  665SOL    HW1 2894   4.193   5.445   1.544
  665SOL    HW2 2895   4.095   5.322   1.500
  666SOL     OW 2896   3.571   2.151   0.333
  666SOL    HW1 2897   3.542   2.245   0.351
  666SOL    HW2 2898   3.668   2.150   0.308
  667SOL     OW 2899   6.957   2.426   4.430
  667SOL    HW1 2900   6.940   2.335   4.468
  667SOL    HW2 2901   6.896   2.492   4.473
  668SOL     OW 2902   4.187   6.055   6.736
  668SOL    HW1 2903   4.137   6.131   6.778
  668SOL    HW2 2904   4.181   6.062   6.637
  669SOL     OW 2905   1.538   6.930   3.213
  669SOL    HW1 2906   1.493   6.882   3.138
  669SOL    HW2 2907   1.604   6.995   3.175
  670SOL     OW 2908   2.886   3.719   3.104
  670SOL    HW1 2909   2.868   3.625   3.131
  670SOL    HW2 2910   2.800   3.771   3.102
  671SOL     OW 2911   2.198   5.536   6.109
  671SOL    HW1 2912   2.285   5.495   6.082
  671SOL    HW2 2913   2.195   5.631   6.078
  672SOL     OW 2914   0.897   3.333   3.784
  672SOL    HW1 2915   0.871   3.242   3.752
  672SOL    HW2 2916   0.995   3.348   3.767
  673SOL     OW 2917   4.521   0.152   6.958
  673SOL    HW1 2918   4.445   0.126   7.017
  673SOL    HW2 2919   4.602   0.168   7.014
  674SOL     OW 2920   0.668   2.769   4.445
  674SOL    HW1 2921   0.601   2.741   4.514
  674SOL    HW2 2922   0.698   2.689   4.393
  675SOL     OW 2923   1.108   2.137   5.000
  675SOL    HW1 2924   1.019   2.140   5.046
  675SOL    HW2 2925   1.171   2.201   5.045
  676SOL     OW 2926   2.872   4.847   4.078
  676SOL    HW1 2927   2.855   4.754   4.111
  676SOL    HW2 2928   2.798   4.907   4.109
  677SOL     OW 2929   5.758   0.300   0.207
  677SOL    HW1 2930   5.851   0.282   0.239
  677SOL    HW2 2931   5.755   0.391   0.166
  678SOL     OW 2932   2.283   1.805   5.229
  678SOL    HW1 2933   2.196   1.835   5.192
  678SOL    HW2 2934   2.269   1.766   5.320
  679SOL     OW 2935   3.837   0.984   3.690
  679SOL    HW1 2936   3.876   0.892   3.701
  679SOL    HW2 2937   3.768   0.999   3.761
  680SOL     OW 2938   6.073   4.292   6.276
  680SOL    HW1 2939   6.160   4.263   6.235
  680SOL    HW2 2940   6.030   4.214   6.322
  681SOL     OW 2941   6.850   6.548   0.598
  681SOL    HW1 2942   6.928   6.604   0.572
  681SOL    HW2 2943   6.798   6.523   0.517
  682SOL     OW 2944   2.230   6.752   6.516
  682SOL    HW1 2945   2.194   6.674   6.466
  682SOL    HW2 2946   2.238   6.831   6.454
  683SOL     OW 2947   4.083   0.705   5.790
  683SOL    HW1 2948   4.085   0.633   5.721
  683SOL    HW2 2949   4.144   0.779   5.764
  684SOL     OW 2950   6.834   0.523   6.428
  684SOL    HW1 2951   6.918   0.470   6.434
  684SOL    HW2 2952   6.760   0.466   6.392
  685SOL     OW 2953   5.175   0.360   5.923
  685SOL    HW1 2954   5.240   0.334   5.995
  685SOL    HW2 2955   5.082   0.341   5.953
  686SOL     OW 2956   5.417   3.203   3.514
  686SOL    HW1 2957   5.505   3.215   3.469
  686SOL    HW2 2958   5.383   3.291   3.546
  687SOL     OW 2959   7.012   3.149   6.423
  687SOL    HW1 2960   0.079   3.114   6.435
  687SOL    HW2 2961   6.947   3.073   6.429
  688SOL     OW 2962   2.161   3.200   0.301
  688SOL    HW1 2963   2.218   3.176   0.380
  688SOL    HW2 2964   2.170   3.297   0.281
  689SOL     OW 2965   1.193   4.690   5.683
  689SOL    HW1 2966   1.126   4.628   5.724
  689SOL    HW2 2967   1.204   4.669   5.586
  690SOL     OW 2968   1.246   2.706   3.553
  690SOL    HW1 2969   1.172   2.720   3.619
  690SOL    HW2 2970   1.240   2.614   3.515
  691SOL     OW 2971   1.704   2.430   6.233
  691SOL    HW1 2972   1.765   2.506   6.214
  691SOL    HW2 2973   1.609   2.458   6.216
  692SOL     OW 2974   3.049   6.752   3.107
  692SOL    HW1 2975   3.013   6.814   3.177
  692SOL    HW2 2976   3.087   6.806   3.031
  693SOL     OW 2977   6.566   1.604   3.355
  693SOL    HW1 2978   6.570   1.510   3.322
  693SOL    HW2 2979   6.481   1.646   3.325
  694SOL     OW 2980   3.824   5.691   1.203
  694SOL    HW1 2981   3.790   5.750   1.275
  694SOL    HW2 2982   3.749   5.668   1.140
  695SOL     OW 2983   4.836   5.049   4.695
  695SOL    HW1 2984   4.882   5.074   4.780
  695SOL    HW2 2985   4.760   4.987   4.716
  696SOL     OW 2986   3.040   5.333   2.532
  696SOL    HW1 2987   3.071   5.420   2.570
  696SOL    HW2 2988   3.010   5.273   2.606
  697SOL     OW 2989   1.029   3.491   5.514
  697SOL    HW1 2990   1.064   3.417   5.456
  697SOL    HW2 2991   1.033   3.577   5.463
  698SOL     OW 2992   5.192   0.017   4.048
  698SOL    HW1 2993   5.269   0.055   4.100
  698SOL    HW2 2994   5.215   6.951   4.016
  699SOL     OW 2995   1.842   4.427   1.093
  699SOL    HW1 2996   1.749   4.417   1.059
  699SOL    HW2 2997   1.844   4.495   1.166
  700SOL     OW 2998   3.000   1.889   3.517
  700SOL    HW1 2999   2.903   1.914   3.515
  700SOL    HW2 3000   3.051   1.947   3.454
  701SOL     OW 3001   1.617   4.842   7.023
  701SOL    HW1 3002   1.680   4.777   0.042
  701SOL    HW2 3003   1.659   4.933   7.021
  702SOL     OW 3004   4.976   6.181   5.848
  702SOL    HW1 3005   4.956   6.117   5.774
  702SOL    HW2 3006   4.948   6.273   5.822
  703SOL     OW 3007   4.550   3.533   6.935
  703SOL    HW1 3008   4.585   3.593   7.008
  703SOL    HW2 3009   4.491   3.586   6.874
  704SOL     OW 3010   0.940   1.214   5.958
  704SOL    HW1 3011   0.898   1.223   5.868
  704SOL    HW2 3012   1.039   1.226   5.951
  705SOL     OW 3013   4.886   0.594   3.555
  705SOL    HW1 3014   4.881   0.583   3.456
  705SOL    HW2 3015   4.981   0.582   3.585
  706SOL     OW 3016   3.962   1.719   3.648
  706SOL    HW1 3017   3.923   1.679   3.565
  706SOL    HW2 3018   3.979   1.647   3.715
  707SOL     OW 3019   4.360   0.022   1.772
  707SOL    HW1 3020   4.271   7.024   1.810
  707SOL    HW2 3021   4.395   6.973   1.717
  708SOL     OW 3022   4.912   0.432   0.675
  708SOL    HW1 3023   4.934   0.345   0.630
  708SOL    HW2 3024   4.916   0.506   0.609
  709SOL     OW 3025   1.712   5.260   1.450
  709SOL    HW1 3026   1.760   5.263   1.363
  709SOL    HW2 3027   1.760   5.315   1.517
  710SOL     OW 3028   3.374   4.136   2.825
  710SOL    HW1 3029   3.279   4.168   2.826
  710SOL    HW2 3030   3.389   4.077   2.745
  711SOL     OW 3031   6.766   2.658   5.368
  711SOL    HW1 3032   6.668   2.672   5.376
  711SOL    HW2 3033   6.788   2.562   5.388
  712SOL     OW 3034   1.238   3.589   1.162
  712SOL    HW1 3035   1.308   3.607   1.231
  712SOL    HW2 3036   1.175   3.518   1.195
  713SOL     OW 3037   3.388   3.554   1.717
  713SOL    HW1 3038   3.350   3.639   1.753
  713SOL    HW2 3039   3.481   3.541   1.753
  714SOL     OW 3040   5.224   4.215   5.626
  714SOL    HW1 3041   5.155   4.148   5.599
  714SOL    HW2 3042   5.295   4.220   5.556
  715SOL     OW 3043   4.684   5.835   6.841
  715SOL    HW1 3044   4.763   5.784   6.808
  715SOL    HW2 3045   4.627   5.862   6.763
  716SOL     OW 3046   0.792   5.112   1.072
  716SOL    HW1 3047   0.859   5.185   1.060
  716SOL    HW2 3048   0.796   5.049   0.995
  717SOL     OW 3049   6.253   4.811   6.398
  717SOL    HW1 3050   6.215   4.886   6.345
  717SOL    HW2 3051   6.178   4.755   6.434
  718SOL     OW 3052   4.317   2.389   6.055
  718SOL    HW1 3053   4.317   2.351   6.147
  718SOL    HW2 3054   4.410   2.414   6.029
  719SOL     OW 3055   6.660   2.548   1.444
  719SOL    HW1 3056   6.656   2.536   1.543
  719SOL    HW2 3057   6.648   2.645   1.421
  720SOL     OW 3058   2.312   1.691   5.472
  720SOL    HW1 3059   2.395   1.657   5.516
  720SOL    HW2 3060   2.251   1.730   5.541
  721SOL     OW 3061   1.390   0.945   5.437
  721SOL    HW1 3062   1.300   0.906   5.453
  721SOL    HW2 3063   1.444   0.882   5.381
  722SOL     OW 3064   4.214   6.633   4.894
  722SOL    HW1 3065   4.143   6.687   4.939
  722SOL    HW2 3066   4.178   6.594   4.809
  723SOL     OW 3067   2.295   2.597   2.277
  723SOL    HW1 3068   2.295   2.665   2.351
  723SOL    HW2 3069   2.365   2.528   2.296
  724SOL     OW 3070   1.194   1.755   5.808
  724SOL    HW1 3071   1.269   1.778   5.869
  724SOL    HW2 3072   1.143   1.676   5.845
  725SOL     OW 3073   2.804   5.043   2.144
  725SOL    HW1 3074   2.816   5.111   2.072
  725SOL    HW2 3075   2.862   5.067   2.222
  726SOL     OW 3076   3.671   4.712   6.973
  726SOL    HW1 3077   3.582   4.749   6.996
  726SOL    HW2 3078   3.742   4.779   6.994
  727SOL     OW 3079   3.870   6.374   4.275
  727SOL    HW1 3080   3.886   6.307   4.202
  727SOL    HW2 3081   3.824   6.329   4.351
  728SOL     OW 3082   6.858   3.607   5.491
  728SOL    HW1 3083   6.811   3.638   5.409
  728SOL    HW2 3084   6.948   3.650   5.496
  729SOL     OW 3085   2.166   0.521   0.754
  729SOL    HW1 3086   2.260   0.537   0.725
  729SOL    HW2 3087   2.109   0.505   0.674
  730SOL     OW 3088   5.371   0.770   3.247
  730SOL    HW1 3089   5.359   0.703   3.173
  730SOL    HW2 3090   5.313   0.746   3.324
  731SOL     OW 3091   5.432   3.055   5.334
  731SOL    HW1 3092   5.432   3.138   5.390
  731SOL    HW2 3093   5.374   3.068   5.254
  732SOL     OW 3094   0.840   3.231   1.522
  732SOL    HW1 3095   0.821   3.240   1.424
  732SOL    HW2 3096   0.809   3.142   1.554
  733SOL     OW 3097   5.306   4.104   4.294
  733SOL    HW1 3098   5.319   4.089   4.196
  733SOL    HW2 3099   5.214   4.075   4.320
  734SOL     OW 3100   0.102   5.289   2.005
  734SOL    HW1 3101   0.178   5.291   1.940
  734SOL    HW2 3102   0.066   5.382   2.017
  735SOL     OW 3103   2.236   3.048   0.896
  735SOL    HW1 3104   2.310   3.111   0.921
  735SOL    HW2 3105   2.273   2.973   0.841
  736SOL     OW 3106   6.338   6.748   2.508
  736SOL    HW1 3107   6.394   6.742   2.426
  736SOL    HW2 3108   6.395   6.778   2.585
  737SOL     OW 3109   4.743   3.311   1.047
  737SOL    HW1 3110   4.802   3.258   1.108
  737SOL    HW2 3111   4.797   3.378   0.998
  738SOL     OW 3112   1.070   5.046   3.963
  738SOL    HW1 3113   1.107   4.954   3.958
  738SOL    HW2 3114   1.121   5.098   4.032
  739SOL     OW 3115   4.617   6.721   5.678
  739SOL    HW1 3116   4.596   6.753   5.770
  739SOL    HW2 3117   4.704   6.760   5.648
  740SOL     OW 3118   5.067   0.203   0.794
  740SOL    HW1 3119   4.994   0.182   0.859
  740SOL    HW2 3120   5.148   0.150   0.817
  741SOL     OW 3121   1.758   6.703   3.344
  741SOL    HW1 3122   1.775   6.760   3.264
  741SOL    HW2 3123   1.659   6.702   3.364
  742SOL     OW 3124   2.126   6.983   2.658
  742SOL    HW1 3125   2.118   6.927   2.575
  742SOL    HW2 3126   2.222   7.003   2.675
  743SOL     OW 3127   1.822   4.298   3.858
  743SOL    HW1 3128   1.785   4.341   3.940
  743SOL    HW2 3129   1.766   4.219   3.834
  744SOL     OW 3130   0.156   6.673   6.569
  744SOL    HW1 3131   0.092   6.685   6.494
  744SOL    HW2 3132   0.241   6.632   6.536
  745SOL     OW 3133   0.844   6.043   4.059
  745SOL    HW1 3134   0.901   6.067   4.137
  745SOL    HW2 3135   0.748   6.059   4.083
  746SOL     OW 3136   7.019   6.383   5.415
  746SOL    HW1 3137   0.049   6.395   5.333
  746SOL    HW2 3138   7.016   6.469   5.466
  747SOL     OW 3139   4.215   5.155   4.131
  747SOL    HW1 3140   4.174   5.187   4.216
  747SOL    HW2 3141   4.247   5.061   4.143
  748SOL     OW 3142   4.543   5.170   1.960
  748SOL    HW1 3143   4.479   5.192   1.886
  748SOL    HW2 3144   4.492   5.136   2.039
  749SOL     OW 3145   6.853   3.064   5.326
  749SOL    HW1 3146   6.933   3.023   5.283
  749SOL    HW2 3147   6.857   3.163   5.317
  750SOL     OW 3148   2.441   2.945   0.418
  750SOL    HW1 3149   2.407   2.867   0.366
  750SOL    HW2 3150   2.364   2.993   0.460
  751SOL     OW 3151   4.262   2.273   6.288
  751SOL    HW1 3152   4.261   2.330   6.370
  751SOL    HW2 3153   4.229   2.181   6.312
  752SOL     OW 3154   4.623   2.544   1.765
  752SOL    HW1 3155   4.572   2.495   1.835
  752SOL    HW2 3156   4.586   2.636   1.754
  753SOL     OW 3157   2.191   3.099   4.708
  753SOL    HW1 3158   2.094   3.080   4.693
  753SOL    HW2 3159   2.201   3.195   4.737
  754SOL     OW 3160   5.781   3.630   6.670
  754SOL    HW1 3161   5.827   3.646   6.758
  754SOL    HW2 3162   5.701   3.689   6.663
  755SOL     OW 3163   0.974   5.699   0.041
  755SOL    HW1 3164   1.043   5.627   0.038
  755SOL    HW2 3165   1.003   5.771   0.104
  756SOL     OW 3166   4.977   0.258   1.727
  756SOL    HW1 3167   4.955   0.325   1.798
  756SOL    HW2 3168   4.909   0.184   1.730
  757SOL     OW 3169   1.075   6.223   3.004
  757SOL    HW1 3170   1.103   6.128   2.995
  757SOL    HW2 3171   1.013   6.233   3.082
  758SOL     OW 3172   3.302   1.296   1.728
  758SOL    HW1 3173   3.266   1.373   1.675
  758SOL    HW2 3174   3.229   1.229   1.744
  759SOL     OW 3175   0.181   1.022   0.869
  759SOL    HW1 3176   0.161   0.924   0.872
  759SOL    HW2 3177   0.217   1.051   0.958
  760SOL     OW 3178   4.936   1.507   6.262
  760SOL    HW1 3179   4.996   1.457   6.324
  760SOL    HW2 3180   4.842   1.476   6.274
  761SOL     OW 3181   5.543   3.760   7.016
  761SOL    HW1 3182   5.503   3.709   0.066
  761SOL    HW2 3183   5.628   3.716   6.988
  762SOL     OW 3184   1.889   6.141   3.423
  762SOL    HW1 3185   1.962   6.205   3.398
  762SOL    HW2 3186   1.857   6.093   3.341
  763SOL     OW 3187   4.063   5.593   6.527
  763SOL    HW1 3188   4.163   5.590   6.530
  763SOL    HW2 3189   4.030   5.653   6.600
  764SOL     OW 3190   4.310   0.046   4.034
  764SOL    HW1 3191   4.235   0.023   3.971
  764SOL    HW2 3192   4.330   6.993   4.092
  765SOL     OW 3193   1.341   6.163   0.871
  765SOL    HW1 3194   1.431   6.173   0.828
  765SOL    HW2 3195   1.333   6.072   0.911
  766SOL     OW 3196   6.605   1.232   0.094
  766SOL    HW1 3197   6.610   1.300   0.021
  766SOL    HW2 3198   6.538   1.261   0.162
  767SOL     OW 3199   0.689   6.276   1.985
  767SOL    HW1 3200   0.779   6.235   1.975
  767SOL    HW2 3201   0.664   6.278   2.081
  768SOL     OW 3202   2.301   1.123   2.530
  768SOL    HW1 3203   2.263   1.206   2.572
  768SOL    HW2 3204   2.397   1.138   2.507
  769SOL     OW 3205   3.138   6.501   4.216
  769SOL    HW1 3206   3.208   6.572   4.222
  769SOL    HW2 3207   3.170   6.419   4.263
  770SOL     OW 3208   2.293   4.855   2.715
  770SOL    HW1 3209   2.230   4.926   2.747
  770SOL    HW2 3210   2.344   4.889   2.636
  771SOL     OW 3211   1.710   5.569   2.412
  771SOL    HW1 3212   1.690   5.549   2.508
  771SOL    HW2 3213   1.694   5.487   2.357
  772SOL     OW 3214   6.622   5.059   0.754
  772SOL    HW1 3215   6.709   5.010   0.754
  772SOL    HW2 3216   6.606   5.099   0.845
  773SOL     OW 3217   0.512   3.006   3.708
  773SOL    HW1 3218   0.423   2.973   3.676
  773SOL    HW2 3219   0.561   3.048   3.632
  774SOL     OW 3220   1.397   1.882   1.631
  774SOL    HW1 3221   1.469   1.909   1.696
  774SOL    HW2 3222   1.425   1.800   1.582
  775SOL     OW 3223   1.338   2.218   4.184
  775SOL    HW1 3224   1.365   2.286   4.116
  775SOL    HW2 3225   1.369   2.127   4.155
  776SOL     OW 3226   0.392   0.490   6.050
  776SOL    HW1 3227   0.299   0.483   6.087
  776SOL    HW2 3228   0.456   0.507   6.124
  777SOL     OW 3229   3.595   0.563   0.946
  777SOL    HW1 3230   3.677   0.552   1.002
  777SOL    HW2 3231   3.552   0.651   0.966
  778SOL     OW 3232   3.824   1.324   3.816
  778SOL    HW1 3233   3.736   1.318   3.768
  778SOL    HW2 3234   3.848   1.234   3.852
  779SOL     OW 3235   0.420   1.731   2.180
  779SOL    HW1 3236   0.348   1.668   2.211
  779SOL    HW2 3237   0.379   1.820   2.162
  780SOL     OW 3238   5.508   3.462   4.627
  780SOL    HW1 3239   5.541   3.534   4.566
  780SOL    HW2 3240   5.408   3.461   4.628
  781SOL     OW 3241   6.131   1.328   5.763
  781SOL    HW1 3242   6.192   1.271   5.818
  781SOL    HW2 3243   6.181   1.407   5.729
  782SOL     OW 3244   1.711   4.173   0.849
  782SOL    HW1 3245   1.740   4.089   0.893
  782SOL    HW2 3246   1.791   4.225   0.820
  783SOL     OW 3247   3.849   4.657   0.577
  783SOL    HW1 3248   3.887   4.590   0.514
  783SOL    HW2 3249   3.883   4.748   0.554
  784SOL     OW 3250   4.703   0.245   5.380
  784SOL    HW1 3251   4.659   0.194   5.454
  784SOL    HW2 3252   4.643   0.247   5.301
  785SOL     OW 3253   6.603   2.131   2.773
  785SOL    HW1 3254   6.575   2.058   2.712
  785SOL    HW2 3255   6.703   2.136   2.776
  786SOL     OW 3256   0.526   0.721   0.344
  786SOL    HW1 3257   0.447   0.705   0.285
  786SOL    HW2 3258   0.494   0.738   0.438
  787SOL     OW 3259   2.822   0.942   5.934
  787SOL    HW1 3260   2.886   0.959   5.858
  787SOL    HW2 3261   2.741   0.999   5.922
  788SOL     OW 3262   2.168   2.773   4.594
  788SOL    HW1 3263   2.234   2.698   4.595
  788SOL    HW2 3264   2.183   2.831   4.675
  789SOL     OW 3265   6.006   4.114   1.779
  789SOL    HW1 3266   5.973   4.203   1.748
  789SOL    HW2 3267   5.975   4.097   1.872
  790SOL     OW 3268   2.379   1.740   3.954
  790SOL    HW1 3269   2.457   1.789   3.993
  790SOL    HW2 3270   2.333   1.797   3.886
  791SOL     OW 3271   3.705   6.965   3.891
  791SOL    HW1 3272   3.680   0.034   3.872
  791SOL    HW2 3273   3.803   6.953   3.876
  792SOL     OW 3274   6.481   6.927   1.580
  792SOL    HW1 3275   6.564   6.980   1.597
  792SOL    HW2 3276   6.455   6.937   1.484
  793SOL     OW 3277   4.783   6.363   1.994
  793SOL    HW1 3278   4.852   6.300   2.027
  793SOL    HW2 3279   4.724   6.391   2.071
  794SOL     OW 3280   2.282   4.376   5.624
  794SOL    HW1 3281   2.318   4.338   5.709
  794SOL    HW2 3282   2.354   4.431   5.580
  795SOL     OW 3283   3.086   4.946   5.495
  795SOL    HW1 3284   3.044   4.865   5.455
  795SOL    HW2 3285   3.170   4.968   5.445
  796SOL     OW 3286   0.214   2.196   6.643
  796SOL    HW1 3287   0.155   2.248   6.581
  796SOL    HW2 3288   0.264   2.259   6.702
  797SOL     OW 3289   5.209   2.631   2.464
  797SOL    HW1 3290   5.152   2.710   2.482
  797SOL    HW2 3291   5.297   2.641   2.510
  798SOL     OW 3292   4.836   0.519   0.972
  798SOL    HW1 3293   4.845   0.463   1.053
  798SOL    HW2 3294   4.869   0.469   0.892
  799SOL     OW 3295   6.551   1.623   3.648
  799SOL    HW1 3296   6.624   1.609   3.714
  799SOL    HW2 3297   6.588   1.667   3.566
  800SOL     OW 3298   5.601   0.711   2.518
  800SOL    HW1 3299   5.669   0.655   2.565
  800SOL    HW2 3300   5.644   0.756   2.439
  801SOL     OW 3301   1.505   3.287   3.157
  801SOL    HW1 3302   1.414   3.292   3.199
  801SOL    HW2 3303   1.495   3.285   3.058
  802SOL     OW 3304   4.904   1.339   0.518
  802SOL    HW1 3305   4.835   1.349   0.447
  802SOL    HW2 3306   4.861   1.339   0.608
  803SOL     OW 3307   6.575   6.077   5.136
  803SOL    HW1 3308   6.490   6.057   5.185
  803SOL    HW2 3309   6.644   6.009   5.158
  804SOL     OW 3310   6.659   6.166   0.146
  804SOL    HW1 3311   6.681   6.075   0.112
  804SOL    HW2 3312   6.709   6.235   0.094
  805SOL     OW 3313   4.521   2.564   5.804
  805SOL    HW1 3314   4.551   2.655   5.830
  805SOL    HW2 3315   4.577   2.496   5.851
  806SOL     OW 3316   3.541   2.097   5.146
  806SOL    HW1 3317   3.480   2.117   5.070
  806SOL    HW2 3318   3.574   2.003   5.140
  807SOL     OW 3319   0.870   1.657   3.851
  807SOL    HW1 3320   0.797   1.666   3.919
  807SOL    HW2 3321   0.893   1.560   3.840
  808SOL     OW 3322   5.278   3.210   6.447
  808SOL    HW1 3323   5.183   3.208   6.480
  808SOL    HW2 3324   5.280   3.240   6.352
  809SOL     OW 3325   1.714   4.789   1.597
  809SOL    HW1 3326   1.753   4.844   1.523
  809SOL    HW2 3327   1.624   4.756   1.570
  810SOL     OW 3328   4.192   2.982   0.783
  810SOL    HW1 3329   4.184   3.028   0.694
  810SOL    HW2 3330   4.288   2.962   0.802
  811SOL     OW 3331   4.652   5.004   3.718
  811SOL    HW1 3332   4.714   5.076   3.688
  811SOL    HW2 3333   4.704   4.927   3.754
  812SOL     OW 3334   0.128   0.830   1.730
  812SOL    HW1 3335   0.030   0.849   1.739
  812SOL    HW2 3336   0.166   0.807   1.819
  813SOL     OW 3337   4.163   5.805   3.044
  813SOL    HW1 3338   4.121   5.832   3.131
  813SOL    HW2 3339   4.110   5.730   3.004
  814SOL     OW 3340   5.185   6.745   3.226
  814SOL    HW1 3341   5.249   6.820   3.240
  814SOL    HW2 3342   5.215   6.689   3.149
  815SOL     OW 3343   6.269   2.880   2.423
  815SOL    HW1 3344   6.297   2.849   2.332
  815SOL    HW2 3345   6.304   2.817   2.492
  816SOL     OW 3346   0.521   6.906   0.007
  816SOL    HW1 3347   0.569   6.850   0.074
  816SOL    HW2 3348   0.428   6.869   7.020
  817SOL     OW 3349   1.998   4.104   2.069
  817SOL    HW1 3350   1.902   4.096   2.045
  817SOL    HW2 3351   2.053   4.106   1.986
  818SOL     OW 3352   6.564   2.749   0.648
  818SOL    HW1 3353   6.573   2.837   0.602
  818SOL    HW2 3354   6.648   2.729   0.699
  819SOL     OW 3355   6.367   3.042   4.326
  819SOL    HW1 3356   6.362   3.051   4.426
  819SOL    HW2 3357   6.428   3.112   4.289
  820SOL     OW 3358   1.397   2.995   5.891
  820SOL    HW1 3359   1.453   2.989   5.974
  820SOL    HW2 3360   1.454   3.022   5.814
  821SOL     OW 3361   2.722   4.504   0.522
  821SOL    HW1 3362   2.699   4.556   0.440
  821SOL    HW2 3363   2.804   4.449   0.505
  822SOL     OW 3364   0.560   5.477   4.182
  822SOL    HW1 3365   0.577   5.564   4.134
  822SOL    HW2 3366   0.647   5.439   4.213
  823SOL     OW 3367   4.553   4.155   6.614
  823SOL    HW1 3368   4.647   4.175   6.643
  823SOL    HW2 3369   4.508   4.240   6.588
  824SOL     OW 3370   5.397   1.159   5.217
  824SOL    HW1 3371   5.450   1.219   5.157
  824SOL    HW2 3372   5.371   1.077   5.167
  825SOL     OW 3373   2.181   2.961   2.250
  825SOL    HW1 3374   2.135   3.043   2.216
  825SOL    HW2 3375   2.134   2.928   2.331
  826SOL     OW 3376   6.201   4.129   0.650
  826SOL    HW1 3377   6.141   4.086   0.583
  826SOL    HW2 3378   6.166   4.113   0.742
  827SOL     OW 3379   3.161   5.528   5.635
  827SOL    HW1 3380   3.238   5.514   5.574
  827SOL    HW2 3381   3.076   5.508   5.586
  828SOL     OW 3382   6.137   0.473   5.074
  828SOL    HW1 3383   6.209   0.405   5.074
  828SOL    HW2 3384   6.097   0.480   5.166
  829SOL     OW 3385   2.918   3.332   4.467
  829SOL    HW1 3386   2.959   3.422   4.457
  829SOL    HW2 3387   2.880   3.302   4.380
  830SOL     OW 3388   5.160   4.530   6.019
  830SOL    HW1 3389   5.174   4.577   5.932
  830SOL    HW2 3390   5.249   4.515   6.063
  831SOL     OW 3391   0.017   6.803   4.477
  831SOL    HW1 3392   0.081   6.740   4.432
  831SOL    HW2 3393   6.951   6.787   4.444
  832SOL     OW 3394   2.187   1.205   0.397
  832SOL    HW1 3395   2.098   1.248   0.409
  832SOL    HW2 3396   2.222   1.224   0.305
  833SOL     OW 3397   6.873   5.855   6.210
  833SOL    HW1 3398   6.862   5.825   6.115
  833SOL    HW2 3399   6.969   5.846   6.237
  834SOL     OW 3400   3.671   3.869   2.321
  834SOL    HW1 3401   3.657   3.810   2.400
  834SOL    HW2 3402   3.677   3.965   2.351
  835SOL     OW 3403   4.181   6.562   3.910
  835SOL    HW1 3404   4.188   6.473   3.955
  835SOL    HW2 3405   4.266   6.583   3.863
  836SOL     OW 3406   3.258   6.130   6.604
  836SOL    HW1 3407   3.158   6.126   6.597
  836SOL    HW2 3408   3.292   6.040   6.632
  837SOL     OW 3409   4.879   0.501   7.006
  837SOL    HW1 3410   4.842   0.563   6.936
  837SOL    HW2 3411   4.977   0.514   7.013
  838SOL     OW 3412   0.907   0.036   4.844
  838SOL    HW1 3413   0.915   7.017   4.755
  838SOL    HW2 3414   0.812   0.036   4.873
  839SOL     OW 3415   2.859   1.539   2.831
  839SOL    HW1 3416   2.893   1.632   2.847
  839SOL    HW2 3417   2.778   1.523   2.888
  840SOL     OW 3418   6.664   1.325   5.642
  840SOL    HW1 3419   6.659   1.289   5.735
  840SOL    HW2 3420   6.760   1.331   5.615
  841SOL     OW 3421   5.802   4.249   0.392
  841SOL    HW1 3422   5.703   4.260   0.383
  841SOL    HW2 3423   5.831   4.164   0.347
  842SOL     OW 3424   4.319   5.442   3.125
  842SOL    HW1 3425   4.292   5.377   3.197
  842SOL    HW2 3426   4.281   5.411   3.038
  843SOL     OW 3427   5.575   2.039   0.144
  843SOL    HW1 3428   5.637   1.961   0.143
  843SOL    HW2 3429   5.584   2.088   0.231
  844SOL     OW 3430   4.610   6.268   0.444
  844SOL    HW1 3431   4.625   6.243   0.348
  844SOL    HW2 3432   4.583   6.187   0.496
  845SOL     OW 3433   6.025   2.827   5.004
  845SOL    HW1 3434   6.112   2.874   5.017
  845SOL    HW2 3435   5.965   2.845   5.082
  846SOL     OW 3436   5.612   1.512   6.627
  846SOL    HW1 3437   5.617   1.603   6.586
  846SOL    HW2 3438   5.525   1.469   6.603
  847SOL     OW 3439   6.105   3.133   0.739
  847SOL    HW1 3440   6.131   3.056   0.797
  847SOL    HW2 3441   6.018   3.171   0.771
  848SOL     OW 3442   5.908   0.855   6.389
  848SOL    HW1 3443   5.939   0.875   6.296
  848SOL    HW2 3444   5.912   0.938   6.444
  849SOL     OW 3445   6.900   5.521   5.209
  849SOL    HW1 3446   6.850   5.586   5.151
  849SOL    HW2 3447   6.998   5.525   5.186
  850SOL     OW 3448   4.445   0.402   3.397
  850SOL    HW1 3449   4.529   0.424   3.447
  850SOL    HW2 3450   4.461   0.320   3.341
  851SOL     OW 3451   0.335   1.517   0.730
  851SOL    HW1 3452   0.250   1.571   0.727
  851SOL    HW2 3453   0.378   1.527   0.819
  852SOL     OW 3454   2.548   2.487   6.715
  852SOL    HW1 3455   2.572   2.550   6.789
  852SOL    HW2 3456   2.620   2.418   6.706
  853SOL     OW 3457   0.787   3.886   3.085
  853SOL    HW1 3458   0.698   3.844   3.067
  853SOL    HW2 3459   0.777   3.985   3.090
  854SOL     OW 3460   5.250   6.522   2.203
  854SOL    HW1 3461   5.326   6.478   2.154
  854SOL    HW2 3462   5.286   6.598   2.258
  855SOL     OW 3463   6.167   0.188   1.597
  855SOL    HW1 3464   6.203   0.177   1.690
  855SOL    HW2 3465   6.099   0.117   1.579
  856SOL     OW 3466   1.928   0.954   5.298
  856SOL    HW1 3467   1.936   0.858   5.323
  856SOL    HW2 3468   2.002   0.979   5.237
  857SOL     OW 3469   5.622   4.902   1.413
  857SOL    HW1 3470   5.711   4.878   1.376
  857SOL    HW2 3471   5.615   4.867   1.507
  858SOL     OW 3472   2.887   4.822   1.796
  858SOL    HW1 3473   2.841   4.870   1.871
  858SOL    HW2 3474   2.895   4.725   1.820
  859SOL     OW 3475   5.648   5.309   6.856
  859SOL    HW1 3476   5.722   5.376   6.862
  859SOL    HW2 3477   5.686   5.217   6.853
  860SOL     OW 3478   4.449   3.845   0.220
  860SOL    HW1 3479   4.473   3.911   0.291
  860SOL    HW2 3480   4.530   3.822   0.167
  861SOL     OW 3481   2.365   6.942   4.441
  861SOL    HW1 3482   2.410   6.892   4.514
  861SOL    HW2 3483   2.432   6.999   4.394
  862SOL     OW 3484   5.643   4.650   5.136
  862SOL    HW1 3485   5.669   4.569   5.188
  862SOL    HW2 3486   5.701   4.727   5.164
  863SOL     OW 3487   1.184   0.111   0.763
  863SOL    HW1 3488   1.255   0.137   0.697
  863SOL    HW2 3489   1.186   0.175   0.840
  864SOL     OW 3490   5.088   4.552   3.749
  864SOL    HW1 3491   5.005   4.564   3.695
  864SOL    HW2 3492   5.111   4.639   3.793
  865SOL     OW 3493   0.799   6.898   4.335
  865SOL    HW1 3494   0.751   6.812   4.351
  865SOL    HW2 3495   0.733   6.969   4.312
  866SOL     OW 3496   2.708   1.534   1.966
  866SOL    HW1 3497   2.694   1.524   2.064
  866SOL    HW2 3498   2.729   1.630   1.945
  867SOL     OW 3499   3.387   2.611   0.161
  867SOL    HW1 3500   3.410   2.566   0.075
  867SOL    HW2 3501   3.332   2.550   0.217
  868SOL     OW 3502   6.028   0.332   1.847
  868SOL    HW1 3503   5.969   0.310   1.770
  868SOL    HW2 3504   5.972   0.350   1.928
  869SOL     OW 3505   6.783   5.499   2.958
  869SOL    HW1 3506   6.874   5.540   2.958
  869SOL    HW2 3507   6.721   5.556   3.012
  870SOL     OW 3508   6.375   2.962   1.639
  870SOL    HW1 3509   6.350   3.033   1.574
  870SOL    HW2 3510   6.294   2.909   1.664
  871SOL     OW 3511   6.930   3.056   1.607
  871SOL    HW1 3512   6.883   2.976   1.572
  871SOL    HW2 3513   7.015   3.070   1.555
  872SOL     OW 3514   6.382   3.067   4.649
  872SOL    HW1 3515   6.389   2.976   4.689
  872SOL    HW2 3516   6.393   3.136   4.721
  873SOL     OW 3517   3.972   0.090   3.040
  873SOL    HW1 3518   4.015   0.073   3.129
  873SOL    HW2 3519   3.927   0.179   3.041
  874SOL     OW 3520   1.892   4.235   5.058
  874SOL    HW1 3521   1.950   4.314   5.075
  874SOL    HW2 3522   1.935   4.153   5.097
  875SOL     OW 3523   5.162   4.645   0.695
  875SOL    HW1 3524   5.234   4.614   0.633
  875SOL    HW2 3525   5.163   4.588   0.777
  876SOL     OW 3526   6.729   3.984   3.290
  876SOL    HW1 3527   6.758   3.904   3.239
  876SOL    HW2 3528   6.791   3.998   3.368
  877SOL     OW 3529   4.843   4.767   6.964
  877SOL    HW1 3530   4.919   4.744   7.025
  877SOL    HW2 3531   4.795   4.683   6.938
  878SOL     OW 3532   3.404   5.221   6.843
  878SOL    HW1 3533   3.434   5.217   6.938
  878SOL    HW2 3534   3.418   5.314   6.807
  879SOL     OW 3535   4.525   1.746   2.625
  879SOL    HW1 3536   4.486   1.779   2.711
  879SOL    HW2 3537   4.480   1.660   2.599
  880SOL     OW 3538   3.595   4.102   6.855
  880SOL    HW1 3539   3.531   4.049   6.800
  880SOL    HW2 3540   3.563   4.107   6.950
  881SOL     OW 3541   4.283   4.741   4.794
  881SOL    HW1 3542   4.191   4.776   4.812
  881SOL    HW2 3543   4.301   4.663   4.853
  882SOL     OW 3544   1.866   1.070   4.676
  882SOL    HW1 3545   1.877   1.123   4.591
  882SOL    HW2 3546   1.869   0.972   4.655
  883SOL     OW 3547   3.916   5.088   5.282
  883SOL    HW1 3548   3.878   5.172   5.242
  883SOL    HW2 3549   4.014   5.083   5.262
  884SOL     OW 3550   6.400   3.221   1.743
  884SOL    HW1 3551   6.352   3.263   1.821
  884SOL    HW2 3552   6.382   3.123   1.743
  885SOL     OW 3553   5.747   6.299   7.022
  885SOL    HW1 3554   5.829   6.281   6.969
  885SOL    HW2 3555   5.772   6.320   0.091
  886SOL     OW 3556   4.067   1.305   6.627
  886SOL    HW1 3557   3.981   1.354   6.616
  886SOL    HW2 3558   4.061   1.245   6.706
  887SOL     OW 3559   4.304   6.847   6.195
  887SOL    HW1 3560   4.228   6.806   6.145
  887SOL    HW2 3561   4.268   6.911   6.263
  888SOL     OW 3562   6.893   6.100   3.754
  888SOL    HW1 3563   6.817   6.150   3.712
  888SOL    HW2 3564   6.958   6.073   3.683
  889SOL     OW 3565   0.119   6.164   5.611
  889SOL    HW1 3566   0.198   6.138   5.556
  889SOL    HW2 3567   0.071   6.241   5.568
  890SOL     OW 3568   2.808   4.756   2.206
  890SOL    HW1 3569   2.789   4.848   2.172
  890SOL    HW2 3570   2.833   4.697   2.130
  891SOL     OW 3571   5.622   3.616   1.484
  891SOL    HW1 3572   5.623   3.644   1.580
  891SOL    HW2 3573   5.629   3.697   1.426
  892SOL     OW 3574   2.924   4.069   0.993
  892SOL    HW1 3575   2.904   4.114   1.080
  892SOL    HW2 3576   2.981   3.989   1.009
  893SOL     OW 3577   1.671   0.345   0.377
  893SOL    HW1 3578   1.679   0.367   0.474
  893SOL    HW2 3579   1.673   0.245   0.365
  894SOL     OW 3580   1.156   5.226   4.148
  894SOL    HW1 3581   1.112   5.165   4.214
  894SOL    HW2 3582   1.240   5.263   4.187
  895SOL     OW 3583   2.058   0.026   4.137
  895SOL    HW1 3584   2.024   0.090   4.205
  895SOL    HW2 3585   2.143   0.060   4.098
  896SOL     OW 3586   5.873   6.198   3.914
  896SOL    HW1 3587   5.779   6.208   3.947
  896SOL    HW2 3588   5.930   6.269   3.956
  897SOL     OW 3589   5.073   1.878   0.530
  897SOL    HW1 3590   5.009   1.825   0.474
  897SOL    HW2 3591   5.033   1.967   0.551
  898SOL     OW 3592   5.436   6.381   3.859
  898SOL    HW1 3593   5.486   6.374   3.772
  898SOL    HW2 3594   5.358   6.319   3.857
  899SOL     OW 3595   0.580   5.052   6.768
  899SOL    HW1 3596   0.669   5.019   6.800
  899SOL    HW2 3597   0.532   4.978   6.721
  900SOL     OW 3598   6.540   5.967   2.049
  900SOL    HW1 3599   6.468   5.898   2.044
  900SOL    HW2 3600   6.607   5.951   1.976
  901SOL     OW 3601   0.017   1.460   4.275
  901SOL    HW1 3602   7.007   1.553   4.268
  901SOL    HW2 3603   0.022   1.434   4.372
  902SOL     OW 3604   6.535   0.515   6.703
  902SOL    HW1 3605   6.440   0.508   6.672
  902SOL    HW2 3606   6.537   0.564   6.790
  903SOL     OW 3607   6.594   4.616   0.861
  903SOL    HW1 3608   6.635   4.552   0.926
  903SOL    HW2 3609   6.553   4.564   0.786
  904SOL     OW 3610   1.369   1.401   3.363
  904SOL    HW1 3611   1.288   1.391   3.305
  904SOL    HW2 3612   1.348   1.369   3.455
  905SOL     OW 3613   5.054   1.987   6.213
  905SOL    HW1 3614   4.988   1.913   6.224
  905SOL    HW2 3615   5.144   1.949   6.193
  906SOL     OW 3616   0.302   4.274   6.969
  906SOL    HW1 3617   0.241   4.354   6.977
  906SOL    HW2 3618   0.286   4.213   0.020
  907SOL     OW 3619   6.113   2.199   2.568
  907SOL    HW1 3620   6.158   2.182   2.656
  907SOL    HW2 3621   6.091   2.111   2.525
  908SOL     OW 3622   1.336   6.804   4.226
  908SOL    HW1 3623   1.362   6.710   4.203
  908SOL    HW2 3624   1.303   6.850   4.143
  909SOL     OW 3625   2.629   0.721   0.301
  909SOL    HW1 3626   2.645   0.805   0.250
  909SOL    HW2 3627   2.716   0.676   0.321
  910SOL     OW 3628   1.379   0.413   0.373
  910SOL    HW1 3629   1.476   0.429   0.354
  910SOL    HW2 3630   1.334   0.500   0.393
  911SOL     OW 3631   0.213   4.865   1.430
  911SOL    HW1 3632   0.154   4.894   1.506
  911SOL    HW2 3633   0.306   4.850   1.464
  912SOL     OW 3634   0.182   1.617   5.711
  912SOL    HW1 3635   0.103   1.676   5.695
  912SOL    HW2 3636   0.266   1.671   5.705
  913SOL     OW 3637   2.032   0.512   3.853
  913SOL    HW1 3638   2.116   0.484   3.807
  913SOL    HW2 3639   2.042   0.606   3.885
  914SOL     OW 3640   2.558   6.089   4.222
  914SOL    HW1 3641   2.480   6.057   4.276
  914SOL    HW2 3642   2.627   6.017   4.215
  915SOL     OW 3643   0.755   3.724   0.074
  915SOL    HW1 3644   0.783   3.790   0.143
  915SOL    HW2 3645   0.659   3.740   0.050
  916SOL     OW 3646   2.298   1.863   2.658
  916SOL    HW1 3647   2.323   1.869   2.561
  916SOL    HW2 3648   2.373   1.898   2.714
  917SOL     OW 3649   3.541   0.838   1.010
  917SOL    HW1 3650   3.480   0.912   0.981
  917SOL    HW2 3651   3.602   0.871   1.082
  918SOL     OW 3652   2.745   6.013   6.123
  918SOL    HW1 3653   2.656   6.057   6.116
  918SOL    HW2 3654   2.735   5.914   6.113
  919SOL     OW 3655   1.454   5.051   2.122
  919SOL    HW1 3656   1.552   5.058   2.109
  919SOL    HW2 3657   1.406   5.098   2.047
  920SOL     OW 3658   2.915   0.448   2.747
  920SOL    HW1 3659   3.006   0.406   2.747
  920SOL    HW2 3660   2.892   0.478   2.654
  921SOL     OW 3661   6.364   4.675   4.424
  921SOL    HW1 3662   6.368   4.642   4.329
  921SOL    HW2 3663   6.358   4.774   4.425
  922SOL     OW 3664   2.800   3.690   6.927
  922SOL    HW1 3665   2.706   3.723   6.915
  922SOL    HW2 3666   2.798   3.602   6.974
  923SOL     OW 3667   2.567   5.697   0.026
  923SOL    HW1 3668   2.623   5.778   0.043
  923SOL    HW2 3669   2.546   5.690   6.955
  924SOL     OW 3670   5.382   3.547   3.099
  924SOL    HW1 3671   5.407   3.456   3.066
  924SOL    HW2 3672   5.388   3.613   3.024
  925SOL     OW 3673   0.492   1.951   5.913
  925SOL    HW1 3674   0.505   2.026   5.848
  925SOL    HW2 3675   0.521   1.865   5.870
  926SOL     OW 3676   5.905   6.293   0.574
  926SOL    HW1 3677   5.825   6.351   0.555
  926SOL    HW2 3678   5.936   6.251   0.489
  927SOL     OW 3679   4.768   4.094   4.268
  927SOL    HW1 3680   4.735   4.188   4.279
  927SOL    HW2 3681   4.693   4.030   4.287
  928SOL     OW 3682   1.574   6.971   0.589
  928SOL    HW1 3683   1.517   6.898   0.552
  928SOL    HW2 3684   1.658   6.931   0.626
  929SOL     OW 3685   0.521   2.798   2.187
  929SOL    HW1 3686   0.505   2.776   2.091
  929SOL    HW2 3687   0.436   2.784   2.239
  930SOL     OW 3688   5.121   4.587   4.356
  930SOL    HW1 3689   5.213   4.573   4.393
  930SOL    HW2 3690   5.116   4.677   4.312
  931SOL     OW 3691   0.797   2.775   2.790
  931SOL    HW1 3692   0.861   2.800   2.717
  931SOL    HW2 3693   0.793   2.675   2.798
  932SOL     OW 3694   4.092   5.975   1.235
  932SOL    HW1 3695   4.087   5.990   1.333
  932SOL    HW2 3696   4.182   5.939   1.212
  933SOL     OW 3697   1.350   4.500   2.929
  933SOL    HW1 3698   1.362   4.520   3.026
  933SOL    HW2 3699   1.363   4.583   2.875
  934SOL     OW 3700   3.444   0.625   5.020
  934SOL    HW1 3701   3.370   0.645   5.084
  934SOL    HW2 3702   3.420   0.659   4.929
  935SOL     OW 3703   4.796   3.483   6.389
  935SOL    HW1 3704   4.824   3.562   6.442
  935SOL    HW2 3705   4.705   3.454   6.418
  936SOL     OW 3706   0.735   0.191   1.117
  936SOL    HW1 3707   0.746   0.094   1.138
  936SOL    HW2 3708   0.650   0.224   1.158
  937SOL     OW 3709   4.620   1.679   4.287
  937SOL    HW1 3710   4.720   1.682   4.291
  937SOL    HW2 3711   4.585   1.761   4.243
  938SOL     OW 3712   6.852   3.921   5.810
  938SOL    HW1 3713   6.760   3.954   5.832
  938SOL    HW2 3714   6.883   3.860   5.883
  939SOL     OW 3715   5.174   0.869   6.260
  939SOL    HW1 3716   5.146   0.936   6.192
  939SOL    HW2 3717   5.263   0.831   6.235
  940SOL     OW 3718   6.875   0.850   2.946
  940SOL    HW1 3719   6.783   0.879   2.973
  940SOL    HW2 3720   6.881   0.750   2.952
  941SOL     OW 3721   5.229   1.621   3.823
  941SOL    HW1 3722   5.298   1.590   3.889
  941SOL    HW2 3723   5.242   1.575   3.736
  942SOL     OW 3724   5.359   6.709   5.377
  942SOL    HW1 3725   5.345   6.650   5.298
  942SOL    HW2 3726   5.429   6.777   5.357
  943SOL     OW 3727   6.415   3.159   2.579
  943SOL    HW1 3728   6.397   3.245   2.532
  943SOL    HW2 3729   6.429   3.086   2.512
  944SOL     OW 3730   6.055   3.234   4.392
  944SOL    HW1 3731   6.047   3.145   4.347
  944SOL    HW2 3732   6.040   3.224   4.490
  945SOL     OW 3733   4.627   4.285   3.980
  945SOL    HW1 3734   4.599   4.213   4.043
  945SOL    HW2 3735   4.590   4.372   4.011
  946SOL     OW 3736   5.618   2.708   5.865
  946SOL    HW1 3737   5.537   2.749   5.907
  946SOL    HW2 3738   5.637   2.620   5.907
  947SOL     OW 3739   3.174   3.279   6.260
  947SOL    HW1 3740   3.109   3.274   6.336
  947SOL    HW2 3741   3.159   3.203   6.197
  948SOL     OW 3742   3.219   1.155   0.439
  948SOL    HW1 3743   3.285   1.217   0.395
  948SOL    HW2 3744   3.196   1.191   0.529
  949SOL     OW 3745   6.230   5.230   6.447
  949SOL    HW1 3746   6.293   5.157   6.472
  949SOL    HW2 3747   6.177   5.258   6.527
  950SOL     OW 3748   4.089   4.942   1.719
  950SOL    HW1 3749   4.071   5.036   1.750
  950SOL    HW2 3750   4.183   4.934   1.688
  951SOL     OW 3751   0.822   0.676   1.703
  951SOL    HW1 3752   0.860   0.731   1.628
  951SOL    HW2 3753   0.835   0.724   1.789
  952SOL     OW 3754   4.962   1.100   2.816
  952SOL    HW1 3755   4.939   1.178   2.758
  952SOL    HW2 3756   4.898   1.095   2.893
  953SOL     OW 3757   4.397   6.384   5.535
  953SOL    HW1 3758   4.419   6.296   5.493
  953SOL    HW2 3759   4.470   6.449   5.515
  954SOL     OW 3760   6.344   0.110   1.413
  954SOL    HW1 3761   6.374   0.174   1.342
  954SOL    HW2 3762   6.296   0.160   1.485
  955SOL     OW 3763   0.796   4.967   3.663
  955SOL    HW1 3764   0.804   5.067   3.654
  955SOL    HW2 3765   0.723   4.945   3.727
  956SOL     OW 3766   1.338   1.415   1.623
  956SOL    HW1 3767   1.283   1.339   1.589
  956SOL    HW2 3768   1.423   1.420   1.571
  957SOL     OW 3769   1.283   5.067   5.615
  957SOL    HW1 3770   1.307   5.005   5.690
  957SOL    HW2 3771   1.288   5.161   5.648
  958SOL     OW 3772   4.842   2.248   1.047
  958SOL    HW1 3773   4.939   2.225   1.058
  958SOL    HW2 3774   4.801   2.263   1.137
  959SOL     OW 3775   2.677   4.928   2.670
  959SOL    HW1 3776   2.737   4.889   2.740
  959SOL    HW2 3777   2.662   5.025   2.689
  960SOL     OW 3778   2.183   6.292   4.192
  960SOL    HW1 3779   2.238   6.257   4.268
  960SOL    HW2 3780   2.088   6.301   4.221
  961SOL     OW 3781   3.898   0.000   2.261
  961SOL    HW1 3782   3.975   0.059   2.286
  961SOL    HW2 3783   3.932   6.935   2.238
  962SOL     OW 3784   1.810   1.014   3.406
  962SOL    HW1 3785   1.795   0.955   3.326
  962SOL    HW2 3786   1.731   1.073   3.419
  963SOL     OW 3787   6.129   0.062   1.099
  963SOL    HW1 3788   6.097   0.111   1.180
  963SOL    HW2 3789   6.063   0.075   1.024
  964SOL     OW 3790   5.347   3.051   0.815
  964SOL    HW1 3791   5.424   2.987   0.824
  964SOL    HW2 3792   5.285   3.019   0.744
  965SOL     OW 3793   6.448   1.374   1.011
  965SOL    HW1 3794   6.352   1.399   1.030
  965SOL    HW2 3795   6.488   1.333   1.092
  966SOL     OW 3796   6.266   1.641   3.272
  966SOL    HW1 3797   6.226   1.619   3.361
  966SOL    HW2 3798   6.251   1.738   3.251
  967SOL     OW 3799   1.564   5.547   0.441
  967SOL    HW1 3800   1.639   5.483   0.424
  967SOL    HW2 3801   1.517   5.568   0.356
  968SOL     OW 3802   4.669   2.708   2.649
  968SOL    HW1 3803   4.649   2.674   2.558
  968SOL    HW2 3804   4.696   2.805   2.644
  969SOL     OW 3805   3.972   6.621   6.256
  969SOL    HW1 3806   4.033   6.566   6.313
  969SOL    HW2 3807   3.878   6.585   6.263
  970SOL     OW 3808   4.291   1.801   5.265
  970SOL    HW1 3809   4.368   1.752   5.223
  970SOL    HW2 3810   4.207   1.777   5.216
  971SOL     OW 3811   6.698   1.282   2.404
  971SOL    HW1 3812   6.613   1.241   2.436
  971SOL    HW2 3813   6.690   1.381   2.408
  972SOL     OW 3814   6.233   4.726   0.929
  972SOL    HW1 3815   6.280   4.727   0.841
  972SOL    HW2 3816   6.289   4.677   0.996
  973SOL     OW 3817   0.059   4.526   6.594
  973SOL    HW1 3818   0.129   4.586   6.556
  973SOL    HW2 3819   0.015   4.474   6.521
  974SOL     OW 3820   3.345   0.588   2.782
  974SOL    HW1 3821   3.291   0.670   2.800
  974SOL    HW2 3822   3.288   0.507   2.798
  975SOL     OW 3823   2.983   5.952   5.987
  975SOL    HW1 3824   3.071   5.982   6.022
  975SOL    HW2 3825   2.915   5.958   6.060
  976SOL     OW 3826   0.065   3.170   2.446
  976SOL    HW1 3827   7.025   3.224   2.498
  976SOL    HW2 3828   0.030   3.151   2.355
  977SOL     OW 3829   1.460   1.311   3.859
  977SOL    HW1 3830   1.545   1.284   3.904
  977SOL    HW2 3831   1.411   1.377   3.916
  978SOL     OW 3832   5.962   4.359   4.495
  978SOL    HW1 3833   5.886   4.305   4.459
  978SOL    HW2 3834   5.928   4.447   4.528
  979SOL     OW 3835   6.041   1.608   3.481
  979SOL    HW1 3836   6.122   1.559   3.514
  979SOL    HW2 3837   5.960   1.577   3.532
  980SOL     OW 3838   5.666   2.594   3.438
  980SOL    HW1 3839   5.577   2.577   3.480
  980SOL    HW2 3840   5.729   2.630   3.506
  981SOL     OW 3841   1.180   1.582   5.048
  981SOL    HW1 3842   1.239   1.659   5.025
  981SOL    HW2 3843   1.234   1.498   5.055
  982SOL     OW 3844   1.645   2.669   2.136
  982SOL    HW1 3845   1.709   2.594   2.151
  982SOL    HW2 3846   1.580   2.644   2.065
  983SOL     OW 3847   6.061   2.420   3.330
  983SOL    HW1 3848   6.110   2.498   3.371
  983SOL    HW2 3849   6.118   2.338   3.335
  984SOL     OW 3850   4.397   1.043   5.555
  984SOL    HW1 3851   4.481   1.024   5.505
  984SOL    HW2 3852   4.321   1.052   5.490
  985SOL     OW 3853   4.291   5.419   0.169
  985SOL    HW1 3854   4.305   5.377   0.079
  985SOL    HW2 3855   4.222   5.367   0.220
  986SOL     OW 3856   5.348   5.437   6.146
  986SOL    HW1 3857   5.405   5.428   6.227
  986SOL    HW2 3858   5.405   5.434   6.064
  987SOL     OW 3859   3.432   6.694   1.699
  987SOL    HW1 3860   3.386   6.747   1.770
  987SOL    HW2 3861   3.409   6.597   1.711
  988SOL     OW 3862   3.654   2.628   0.762
  988SOL    HW1 3863   3.730   2.624   0.826
  988SOL    HW2 3864   3.582   2.565   0.790
  989SOL     OW 3865   0.662   0.785   6.231
  989SOL    HW1 3866   0.626   0.692   6.226
  989SOL    HW2 3867   0.650   0.820   6.323
  990SOL     OW 3868   4.927   0.090   3.945
  990SOL    HW1 3869   4.948   0.103   3.848
  990SOL    HW2 3870   5.005   0.048   3.991
  991SOL     OW 3871   1.343   2.204   4.802
  991SOL    HW1 3872   1.301   2.274   4.745
  991SOL    HW2 3873   1.286   2.187   4.882
  992SOL     OW 3874   0.331   2.884   6.810
  992SOL    HW1 3875   0.235   2.911   6.807
  992SOL    HW2 3876   0.387   2.955   6.768
  993SOL     OW 3877   2.848   5.449   2.322
  993SOL    HW1 3878   2.849   5.525   2.257
  993SOL    HW2 3879   2.779   5.381   2.294
  994SOL     OW 3880   3.424   4.146   2.270
  994SOL    HW1 3881   3.386   4.113   2.356
  994SOL    HW2 3882   3.509   4.195   2.287
  995SOL     OW 3883   1.700   2.805   5.912
  995SOL    HW1 3884   1.700   2.812   5.812
  995SOL    HW2 3885   1.616   2.761   5.943
  996SOL     OW 3886   1.625   3.549   3.761
  996SOL    HW1 3887   1.608   3.503   3.848
  996SOL    HW2 3888   1.599   3.488   3.686
  997SOL     OW 3889   0.648   0.447   1.352
  997SOL    HW1 3890   0.590   0.367   1.362
  997SOL    HW2 3891   0.679   0.454   1.257
  998SOL     OW 3892   4.229   0.111   2.894
  998SOL    HW1 3893   4.280   0.190   2.928
  998SOL    HW2 3894   4.131   0.125   2.912
  999SOL     OW 3895   5.540   5.595   1.235
  999SOL    HW1 3896   5.605   5.531   1.196
  999SOL    HW2 3897   5.460   5.603   1.176
 1000SOL     OW 3898   2.153   1.559   2.396
 1000SOL    HW1 3899   2.083   1.571   2.325
 1000SOL    HW2 3900   2.108   1.538   2.483
 1001SOL     OW 3901   3.999   6.591   6.647
 1001SOL    HW1 3902   4.081   6.633   6.609
 1001SOL    HW2 3903   4.006   6.588   6.746
 1002SOL     OW 3904   5.581   1.430   6.914
 1002SOL    HW1 3905   5.675   1.402   6.933
 1002SOL    HW2 3906   5.572   1.452   6.817
 1003SOL     OW 3907   2.153   6.829   2.414
 1003SOL    HW1 3908   2.213   6.752   2.393
 1003SOL    HW2 3909   2.063   6.813   2.375
 1004SOL     OW 3910   6.656   0.439   0.046
 1004SOL    HW1 3911   6.668   0.340   0.041
 1004SOL    HW2 3912   6.579   0.461   0.106
 1005SOL     OW 3913   0.194   0.546   2.740
 1005SOL    HW1 3914   0.110   0.584   2.701
 1005SOL    HW2 3915   0.266   0.548   2.672
 1006SOL     OW 3916   2.650   5.500   1.713
 1006SOL    HW1 3917   2.747   5.504   1.737
 1006SOL    HW2 3918   2.597   5.472   1.793
 1007SOL     OW 3919   6.015   0.880   3.435
 1007SOL    HW1 3920   6.054   0.953   3.380
 1007SOL    HW2 3921   6.087   0.836   3.488
 1008SOL     OW 3922   0.811   2.527   4.095
 1008SOL    HW1 3923   0.840   2.431   4.101
 1008SOL    HW2 3924   0.740   2.536   4.025
 1009SOL     OW 3925   6.745   5.495   3.808
 1009SOL    HW1 3926   6.730   5.567   3.740
 1009SOL    HW2 3927   6.686   5.511   3.887
 1010SOL     OW 3928   3.978   1.789   6.986
 1010SOL    HW1 3929   3.892   1.777   0.009
 1010SOL    HW2 3930   4.034   1.858   0.005
 1011SOL     OW 3931   3.047   5.711   3.584
 1011SOL    HW1 3932   2.952   5.680   3.586
 1011SOL    HW2 3933   3.107   5.634   3.562
 1012SOL     OW 3934   6.418   5.260   0.225
 1012SOL    HW1 3935   6.414   5.312   0.140
 1012SOL    HW2 3936   6.325   5.250   0.261
 1013SOL     OW 3937   0.393   1.038   6.869
 1013SOL    HW1 3938   0.414   1.123   6.822
 1013SOL    HW2 3939   0.414   1.046   6.966
 1014SOL     OW 3940   5.471   5.356   6.409
 1014SOL    HW1 3941   5.458   5.300   6.491
 1014SOL    HW2 3942   5.451   5.451   6.430
 1015SOL     OW 3943   3.705   6.618   4.781
 1015SOL    HW1 3944   3.716   6.554   4.857
 1015SOL    HW2 3945   3.608   6.635   4.765
 1016SOL     OW 3946   2.658   2.749   0.890
 1016SOL    HW1 3947   2.621   2.689   0.961
 1016SOL    HW2 3948   2.583   2.798   0.846
 1017SOL     OW 3949   5.362   2.369   1.061
 1017SOL    HW1 3950   5.418   2.404   1.136
 1017SOL    HW2 3951   5.420   2.349   0.982
 1018SOL     OW 3952   1.718   3.071   4.251
 1018SOL    HW1 3953   1.717   3.161   4.207
 1018SOL    HW2 3954   1.783   3.012   4.204
 1019SOL     OW 3955   0.286   1.278   0.581
 1019SOL    HW1 3956   0.305   1.362   0.631
 1019SOL    HW2 3957   0.224   1.297   0.505
 1020SOL     OW 3958   1.283   6.605   0.601
 1020SOL    HW1 3959   1.359   6.588   0.663
 1020SOL    HW2 3960   1.311   6.668   0.529
 1021SOL     OW 3961   5.750   1.427   1.843
 1021SOL    HW1 3962   5.836   1.478   1.830
 1021SOL    HW2 3963   5.754   1.342   1.791
 1022SOL     OW 3964   4.194   4.753   5.989
 1022SOL    HW1 3965   4.194   4.689   6.065
 1022SOL    HW2 3966   4.221   4.705   5.905
 1023SOL     OW 3967   6.353   7.011   1.825
 1023SOL    HW1 3968   6.394   6.962   1.748
 1023SOL    HW2 3969   6.253   7.001   1.821
 1024SOL     OW 3970   6.639   2.371   4.232
 1024SOL    HW1 3971   6.612   2.442   4.168
 1024SOL    HW2 3972   6.739   2.365   4.236
 1025SOL     OW 3973   3.957   4.608   0.302
 1025SOL    HW1 3974   3.973   4.604   0.203
 1025SOL    HW2 3975   3.882   4.672   0.321
 1026SOL     OW 3976   1.168   1.426   1.018
 1026SOL    HW1 3977   1.252   1.479   1.025
 1026SOL    HW2 3978   1.189   1.333   0.987
 1027SOL     OW 3979   3.249   5.692   1.057
 1027SOL    HW1 3980   3.316   5.711   1.129
 1027SOL    HW2 3981   3.179   5.630   1.092
 1028SOL     OW 3982   2.885   5.761   0.477
 1028SOL    HW1 3983   2.926   5.705   0.405
 1028SOL    HW2 3984   2.819   5.825   0.435
 1029SOL     OW 3985   2.005   0.434   0.507
 1029SOL    HW1 3986   1.910   0.460   0.523
 1029SOL    HW2 3987   2.048   0.502   0.447
 1030SOL     OW 3988   3.301   2.926   3.800
 1030SOL    HW1 3989   3.388   2.889   3.766
 1030SOL    HW2 3990   3.314   2.959   3.894
 1031SOL     OW 3991   3.681   5.306   1.646
 1031SOL    HW1 3992   3.754   5.320   1.579
 1031SOL    HW2 3993   3.666   5.390   1.697
 1032SOL     OW 3994   2.165   1.336   5.576
 1032SOL    HW1 3995   2.070   1.362   5.589
 1032SOL    HW2 3996   2.200   1.377   5.492
 1033SOL     OW 3997   2.090   5.722   1.251
 1033SOL    HW1 3998   2.115   5.799   1.310
 1033SOL    HW2 3999   2.037   5.756   1.173
 1034SOL     OW 4000   1.930   6.280   4.285
 1034SOL    HW1 4001   1.863   6.212   4.314
 1034SOL    HW2 4002   1.888   6.342   4.219
 1035SOL     OW 4003   2.875   2.085   3.783
 1035SOL    HW1 4004   2.895   1.988   3.795
 1035SOL    HW2 4005   2.929   2.138   3.849
 1036SOL     OW 4006   3.752   0.936   0.841
 1036SOL    HW1 4007   3.674   0.883   0.875
 1036SOL    HW2 4008   3.736   1.033   0.858
 1037SOL     OW 4009   0.717   1.266   1.182
 1037SOL    HW1 4010   0.770   1.253   1.266
 1037SOL    HW2 4011   0.620   1.272   1.204
 1038SOL     OW 4012   0.601   1.361   5.868
 1038SOL    HW1 4013   0.667   1.349   5.942
 1038SOL    HW2 4014   0.615   1.450   5.825
 1039SOL     OW 4015   4.507   1.722   5.121
 1039SOL    HW1 4016   4.552   1.806   5.151
 1039SOL    HW2 4017   4.506   1.719   5.021
 1040SOL     OW 4018   5.692   3.486   3.673
 1040SOL    HW1 4019   5.739   3.421   3.732
 1040SOL    HW2 4020   5.693   3.577   3.715
 1041SOL     OW 4021   6.337   6.963   4.030
 1041SOL    HW1 4022   6.242   6.989   4.016
 1041SOL    HW2 4023   6.374   7.013   4.108
 1042SOL     OW 4024   4.282   4.822   2.340
 1042SOL    HW1 4025   4.338   4.740   2.354
 1042SOL    HW2 4026   4.186   4.796   2.337
 1043SOL     OW 4027   4.050   1.389   6.040
 1043SOL    HW1 4028   4.049   1.318   6.111
 1043SOL    HW2 4029   3.957   1.407   6.010
 1044SOL     OW 4030   3.323   2.341   1.474
 1044SOL    HW1 4031   3.345   2.311   1.382
 1044SOL    HW2 4032   3.223   2.352   1.483
 1045SOL     OW 4033   3.465   0.778   1.559
 1045SOL    HW1 4034   3.401   0.852   1.539
 1045SOL    HW2 4035   3.435   0.729   1.640
 1046SOL     OW 4036   2.449   6.761   6.686
 1046SOL    HW1 4037   2.383   6.752   6.612
 1046SOL    HW2 4038   2.407   6.809   6.763
 1047SOL     OW 4039   1.692   5.390   3.044
 1047SOL    HW1 4040   1.751   5.398   2.964
 1047SOL    HW2 4041   1.640   5.475   3.055
 1048SOL     OW 4042   4.917   5.796   5.319
 1048SOL    HW1 4043   4.963   5.745   5.246
 1048SOL    HW2 4044   4.950   5.891   5.319
 1049SOL     OW 4045   6.783   3.704   5.238
 1049SOL    HW1 4046   6.742   3.663   5.157
 1049SOL    HW2 4047   6.882   3.712   5.225
 1050SOL     OW 4048   3.892   6.644   0.646
 1050SOL    HW1 4049   3.798   6.628   0.615
 1050SOL    HW2 4050   3.923   6.567   0.701
 1051SOL     OW 4051   4.029   4.631   0.037
 1051SOL    HW1 4052   3.989   4.664   6.977
 1051SOL    HW2 4053   4.057   4.536   0.027
 1052SOL     OW 4054   3.675   0.895   4.602
 1052SOL    HW1 4055   3.700   0.835   4.525
 1052SOL    HW2 4056   3.600   0.955   4.575
 1053SOL     OW 4057   5.911   6.099   3.528
 1053SOL    HW1 4058   5.855   6.134   3.453
 1053SOL    HW2 4059   5.988   6.161   3.543
 1054SOL     OW 4060   2.320   5.115   5.588
 1054SOL    HW1 4061   2.367   5.100   5.501
 1054SOL    HW2 4062   2.239   5.172   5.573
 1055SOL     OW 4063   5.854   5.716   4.323
 1055SOL    HW1 4064   5.844   5.630   4.273
 1055SOL    HW2 4065   5.863   5.792   4.258
 1056SOL     OW 4066   1.818   6.455   5.457
 1056SOL    HW1 4067   1.904   6.407   5.477
 1056SOL    HW2 4068   1.751   6.390   5.423
 1057SOL     OW 4069   3.408   3.890   3.456
 1057SOL    HW1 4070   3.498   3.919   3.486
 1057SOL    HW2 4071   3.389   3.798   3.489
 1058SOL     OW 4072   4.385   1.558   1.937
 1058SOL    HW1 4073   4.434   1.641   1.909
 1058SOL    HW2 4074   4.354   1.569   2.032
 1059SOL     OW 4075   3.841   0.514   1.476
 1059SOL    HW1 4076   3.814   0.605   1.509
 1059SOL    HW2 4077   3.938   0.515   1.452
 1060SOL     OW 4078   0.167   3.752   5.840
 1060SOL    HW1 4079   0.097   3.783   5.905
 1060SOL    HW2 4080   0.138   3.666   5.799
 1061SOL     OW 4081   3.681   4.315   0.985
 1061SOL    HW1 4082   3.724   4.382   1.046
 1061SOL    HW2 4083   3.723   4.226   0.999
 1062SOL     OW 4084   6.614   5.815   5.324
 1062SOL    HW1 4085   6.569   5.732   5.291
 1062SOL    HW2 4086   6.710   5.795   5.346
 1063SOL     OW 4087   1.086   3.733   0.984
 1063SOL    HW1 4088   1.121   3.689   1.067
 1063SOL    HW2 4089   1.163   3.767   0.929
 1064SOL     OW 4090   1.472   3.306   2.124
 1064SOL    HW1 4091   1.420   3.369   2.066
 1064SOL    HW2 4092   1.552   3.272   2.075
 1065SOL     OW 4093   5.004   0.335   4.141
 1065SOL    HW1 4094   4.987   0.244   4.103
 1065SOL    HW2 4095   5.040   0.395   4.070
 1066SOL     OW 4096   5.173   0.413   4.363
 1066SOL    HW1 4097   5.269   0.396   4.341
 1066SOL    HW2 4098   5.116   0.385   4.286
 1067SOL     OW 4099   1.689   2.552   1.045
 1067SOL    HW1 4100   1.679   2.452   1.045
 1067SOL    HW2 4101   1.659   2.589   1.133
 1068SOL     OW 4102   0.053   3.985   2.058
 1068SOL    HW1 4103   0.030   3.962   1.964
 1068SOL    HW2 4104   0.047   4.084   2.070
 1069SOL     OW 4105   4.397   4.701   0.740
 1069SOL    HW1 4106   4.382   4.614   0.787
 1069SOL    HW2 4107   4.322   4.717   0.675
 1070SOL     OW 4108   2.059   0.866   0.013
 1070SOL    HW1 4109   2.042   0.806   6.961
 1070SOL    HW2 4110   2.067   0.960   7.007
 1071SOL     OW 4111   3.826   7.007   3.276
 1071SOL    HW1 4112   3.811   6.993   3.374
 1071SOL    HW2 4113   3.754   6.961   3.225
 1072SOL     OW 4114   2.627   5.787   1.967
 1072SOL    HW1 4115   2.637   5.847   2.046
 1072SOL    HW2 4116   2.530   5.763   1.956
 1073SOL     OW 4117   3.651   5.721   2.105
 1073SOL    HW1 4118   3.607   5.793   2.052
 1073SOL    HW2 4119   3.611   5.632   2.082
 1074SOL     OW 4120   1.519   5.207   1.715
 1074SOL    HW1 4121   1.572   5.167   1.640
 1074SOL    HW2 4122   1.577   5.219   1.795
 1075SOL     OW 4123   5.038   4.931   3.342
 1075SOL    HW1 4124   4.956   4.922   3.398
 1075SOL    HW2 4125   5.012   4.958   3.249
 1076SOL     OW 4126   1.142   4.368   5.045
 1076SOL    HW1 4127   1.221   4.324   5.002
 1076SOL    HW2 4128   1.170   4.453   5.089
 1077SOL     OW 4129   5.792   6.777   0.542
 1077SOL    HW1 4130   5.842   6.698   0.577
 1077SOL    HW2 4131   5.856   6.851   0.521
 1078SOL     OW 4132   1.805   1.252   2.506
 1078SOL    HW1 4133   1.732   1.284   2.446
 1078SOL    HW2 4134   1.774   1.173   2.559
 1079SOL     OW 4135   2.488   5.241   3.388
 1079SOL    HW1 4136   2.573   5.260   3.436
 1079SOL    HW2 4137   2.467   5.317   3.326
 1080SOL     OW 4138   2.800   5.577   3.093
 1080SOL    HW1 4139   2.796   5.653   3.158
 1080SOL    HW2 4140   2.842   5.498   3.137
 1081SOL     OW 4141   1.208   1.216   5.910
 1081SOL    HW1 4142   1.230   1.137   5.853
 1081SOL    HW2 4143   1.286   1.277   5.915
 1082SOL     OW 4144   1.317   7.003   5.487
 1082SOL    HW1 4145   1.218   7.014   5.471
 1082SOL    HW2 4146   1.356   6.948   5.413
 1083SOL     OW 4147   3.692   3.371   2.378
 1083SOL    HW1 4148   3.641   3.295   2.336
 1083SOL    HW2 4149   3.728   3.430   2.306
 1084SOL     OW 4150   6.326   5.560   1.184
 1084SOL    HW1 4151   6.321   5.626   1.109
 1084SOL    HW2 4152   6.234   5.530   1.208
 1085SOL     OW 4153   2.161   4.439   3.816
 1085SOL    HW1 4154   2.117   4.434   3.905
 1085SOL    HW2 4155   2.255   4.406   3.822
 1086SOL     OW 4156   6.209   5.426   3.575
 1086SOL    HW1 4157   6.181   5.466   3.488
 1086SOL    HW2 4158   6.292   5.372   3.563
 1087SOL     OW 4159   4.813   3.082   4.800
 1087SOL    HW1 4160   4.879   3.130   4.858
 1087SOL    HW2 4161   4.749   3.032   4.858
 1088SOL     OW 4162   5.190   4.457   3.382
 1088SOL    HW1 4163   5.147   4.410   3.305
 1088SOL    HW2 4164   5.214   4.550   3.355
 1089SOL     OW 4165   6.993   0.185   4.482
 1089SOL    HW1 4166   7.021   0.129   4.404
 1089SOL    HW2 4167   0.012   0.274   4.476
 1090SOL     OW 4168   2.771   1.145   4.766
 1090SOL    HW1 4169   2.818   1.154   4.678
 1090SOL    HW2 4170   2.801   1.062   4.813
 1091SOL     OW 4171   1.469   1.985   4.117
 1091SOL    HW1 4172   1.476   1.929   4.199
 1091SOL    HW2 4173   1.561   2.004   4.082
 1092SOL     OW 4174   2.372   3.351   0.783
 1092SOL    HW1 4175   2.403   3.314   0.870
 1092SOL    HW2 4176   2.450   3.387   0.732
 1093SOL     OW 4177   1.496   1.927   2.508
 1093SOL    HW1 4178   1.482   2.021   2.475
 1093SOL    HW2 4179   1.573   1.886   2.459
 1094SOL     OW 4180   0.227   6.824   1.705
 1094SOL    HW1 4181   0.300   6.770   1.747
 1094SOL    HW2 4182   0.145   6.819   1.762
 1095SOL     OW 4183   6.089   2.508   6.608
 1095SOL    HW1 4184   6.045   2.459   6.683
 1095SOL    HW2 4185   6.074   2.458   6.523
 1096SOL     OW 4186   3.784   5.197   1.130
 1096SOL    HW1 4187   3.758   5.115   1.078
 1096SOL    HW2 4188   3.882   5.214   1.119
 1097SOL     OW 4189   1.734   5.467   4.745
 1097SOL    HW1 4190   1.709   5.513   4.830
 1097SOL    HW2 4191   1.758   5.535   4.676
 1098SOL     OW 4192   5.155   2.606   0.706
 1098SOL    HW1 4193   5.059   2.632   0.699
 1098SOL    HW2 4194   5.199   2.660   0.778
 1099SOL     OW 4195   3.926   2.166   4.573
 1099SOL    HW1 4196   3.902   2.157   4.670
 1099SOL    HW2 4197   4.018   2.203   4.565
 1100SOL     OW 4198   0.646   1.186   6.419
 1100SOL    HW1 4199   0.563   1.238   6.400
 1100SOL    HW2 4200   0.692   1.163   6.333
 1101SOL     OW 4201   5.703   3.397   1.358
 1101SOL    HW1 4202   5.778   3.437   1.303
 1101SOL    HW2 4203   5.677   3.462   1.429
 1102SOL     OW 4204   0.765   4.735   4.160
 1102SOL    HW1 4205   0.735   4.642   4.144
 1102SOL    HW2 4206   0.865   4.737   4.165
 1103SOL     OW 4207   1.954   1.506   2.189
 1103SOL    HW1 4208   2.000   1.418   2.188
 1103SOL    HW2 4209   1.897   1.513   2.272
 1104SOL     OW 4210   2.099   4.501   6.099
 1104SOL    HW1 4211   2.025   4.456   6.049
 1104SOL    HW2 4212   2.085   4.600   6.099
 1105SOL     OW 4213   5.031   4.142   6.636
 1105SOL    HW1 4214   4.978   4.082   6.696
 1105SOL    HW2 4215   5.074   4.087   6.564
 1106SOL     OW 4216   0.661   2.177   6.600
 1106SOL    HW1 4217   0.650   2.094   6.655
 1106SOL    HW2 4218   0.695   2.153   6.510
 1107SOL     OW 4219   0.808   0.350   6.741
 1107SOL    HW1 4220   0.900   0.381   6.761
 1107SOL    HW2 4221   0.775   0.394   6.657
 1108SOL     OW 4222   2.335   0.840   5.158
 1108SOL    HW1 4223   2.311   0.852   5.254
 1108SOL    HW2 4224   2.334   0.743   5.135
 1109SOL     OW 4225   4.099   5.818   4.425
 1109SOL    HW1 4226   4.031   5.842   4.494
 1109SOL    HW2 4227   4.110   5.719   4.423
 1110SOL     OW 4228   2.661   2.512   1.153
 1110SOL    HW1 4229   2.687   2.570   1.230
 1110SOL    HW2 4230   2.741   2.460   1.123
 1111SOL     OW 4231   5.118   6.942   6.820
 1111SOL    HW1 4232   5.191   6.988   6.870
 1111SOL    HW2 4233   5.074   7.006   6.758
 1112SOL     OW 4234   5.999   0.927   2.633
 1112SOL    HW1 4235   6.070   0.906   2.700
 1112SOL    HW2 4236   5.915   0.956   2.681
 1113SOL     OW 4237   6.349   3.449   2.518
 1113SOL    HW1 4238   6.390   3.538   2.541
 1113SOL    HW2 4239   6.250   3.453   2.536
 1114SOL     OW 4240   5.129   0.472   6.468
 1114SOL    HW1 4241   5.199   0.498   6.535
 1114SOL    HW2 4242   5.139   0.527   6.386
 1115SOL     OW 4243   3.885   2.244   0.688
 1115SOL    HW1 4244   3.893   2.324   0.747
 1115SOL    HW2 4245   3.975   2.200   0.679
 1116SOL     OW 4246   5.153   5.795   3.979
 1116SOL    HW1 4247   5.114   5.812   4.069
 1116SOL    HW2 4248   5.252   5.809   3.982
 1117SOL     OW 4249   2.242   2.712   1.355
 1117SOL    HW1 4250   2.201   2.793   1.312
 1117SOL    HW2 4251   2.194   2.692   1.440
 1118SOL     OW 4252   1.845   5.055   3.200
 1118SOL    HW1 4253   1.762   5.091   3.157
 1118SOL    HW2 4254   1.870   4.969   3.156
 1119SOL     OW 4255   4.189   4.136   1.718
 1119SOL    HW1 4256   4.278   4.163   1.755
 1119SOL    HW2 4257   4.130   4.217   1.711
 1120SOL     OW 4258   5.547   6.738   6.162
 1120SOL    HW1 4259   5.547   6.655   6.218
 1120SOL    HW2 4260   5.516   6.716   6.070
 1121SOL     OW 4261   5.021   2.702   2.185
 1121SOL    HW1 4262   5.006   2.604   2.202
 1121SOL    HW2 4263   4.934   2.751   2.193
 1122SOL     OW 4264   5.784   2.671   6.611
 1122SOL    HW1 4265   5.797   2.733   6.688
 1122SOL    HW2 4266   5.840   2.703   6.533
 1123SOL     OW 4267   4.764   1.525   1.931
 1123SOL    HW1 4268   4.749   1.472   1.848
 1123SOL    HW2 4269   4.766   1.464   2.010
 1124SOL     OW 4270   6.628   3.530   5.057
 1124SOL    HW1 4271   6.539   3.528   5.011
 1124SOL    HW2 4272   6.694   3.475   5.006
 1125SOL     OW 4273   2.723   2.534   5.341
 1125SOL    HW1 4274   2.740   2.564   5.435
 1125SOL    HW2 4275   2.637   2.573   5.308
 1126SOL     OW 4276   4.325   6.904   0.320
 1126SOL    HW1 4277   4.349   6.884   0.415
 1126SOL    HW2 4278   4.230   6.878   0.304
 1127SOL     OW 4279   2.443   4.156   6.782
 1127SOL    HW1 4280   2.492   4.075   6.749
 1127SOL    HW2 4281   2.360   4.168   6.728
 1128SOL     OW 4282   4.315   2.240   4.032
 1128SOL    HW1 4283   4.261   2.302   3.975
 1128SOL    HW2 4284   4.406   2.229   3.991
 1129SOL     OW 4285   4.230   0.425   0.559
 1129SOL    HW1 4286   4.154   0.402   0.498
 1129SOL    HW2 4287   4.217   0.518   0.595
 1130SOL     OW 4288   1.428   3.673   1.377
 1130SOL    HW1 4289   1.423   3.725   1.462
 1130SOL    HW2 4290   1.513   3.695   1.329
 1131SOL     OW 4291   0.263   6.242   5.887
 1131SOL    HW1 4292   0.167   6.216   5.901
 1131SOL    HW2 4293   0.285   6.239   5.790
 1132SOL     OW 4294   5.051   6.630   5.863
 1132SOL    HW1 4295   5.035   6.633   5.961
 1132SOL    HW2 4296   5.088   6.718   5.832
 1133SOL     OW 4297   0.422   2.353   1.446
 1133SOL    HW1 4298   0.332   2.369   1.405
 1133SOL    HW2 4299   0.478   2.298   1.383
 1134SOL     OW 4300   5.655   2.399   6.651
 1134SOL    HW1 4301   5.746   2.435   6.671
 1134SOL    HW2 4302   5.596   2.473   6.620
 1135SOL     OW 4303   3.124   2.085   3.383
 1135SOL    HW1 4304   3.064   2.143   3.438
 1135SOL    HW2 4305   3.134   2.125   3.292
 1136SOL     OW 4306   2.236   5.802   3.660
 1136SOL    HW1 4307   2.330   5.833   3.676
 1136SOL    HW2 4308   2.176   5.880   3.646
 1137SOL     OW 4309   1.018   1.687   6.945
 1137SOL    HW1 4310   0.953   1.624   6.987
 1137SOL    HW2 4311   1.109   1.647   6.944
 1138SOL     OW 4312   2.214   3.528   6.307
 1138SOL    HW1 4313   2.262   3.528   6.395
 1138SOL    HW2 4314   2.170   3.617   6.294
 1139SOL     OW 4315   1.299   6.068   3.250
 1139SOL    HW1 4316   1.254   5.982   3.274
 1139SOL    HW2 4317   1.237   6.144   3.265
 1140SOL     OW 4318   3.612   1.833   3.367
 1140SOL    HW1 4319   3.624   1.910   3.430
 1140SOL    HW2 4320   3.517   1.830   3.336
 1141SOL     OW 4321   5.253   5.816   5.871
 1141SOL    HW1 4322   5.314   5.815   5.949
 1141SOL    HW2 4323   5.223   5.723   5.850
 1142SOL     OW 4324   4.820   0.322   4.537
 1142SOL    HW1 4325   4.775   0.259   4.600
 1142SOL    HW2 4326   4.919   0.307   4.540
 1143SOL     OW 4327   3.933   2.167   2.611
 1143SOL    HW1 4328   3.924   2.109   2.691
 1143SOL    HW2 4329   3.861   2.147   2.546
 1144SOL     OW 4330   0.100   4.232   4.146
 1144SOL    HW1 4331   0.180   4.289   4.132
 1144SOL    HW2 4332   0.128   4.141   4.178
 1145SOL     OW 4333   7.003   5.684   3.996
 1145SOL    HW1 4334   6.959   5.668   4.085
 1145SOL    HW2 4335   6.963   5.765   3.953
 1146SOL     OW 4336   5.769   2.051   0.811
 1146SOL    HW1 4337   5.790   2.067   0.907
 1146SOL    HW2 4338   5.831   2.104   0.754
 1147SOL     OW 4339   0.851   3.639   1.454
 1147SOL    HW1 4340   0.807   3.715   1.501
 1147SOL    HW2 4341   0.884   3.572   1.521
 1148SOL     OW 4342   3.459   5.983   6.003
 1148SOL    HW1 4343   3.456   5.885   5.985
 1148SOL    HW2 4344   3.545   6.021   5.968
 1149SOL     OW 4345   6.554   3.490   3.315
 1149SOL    HW1 4346   6.642   3.511   3.273
 1149SOL    HW2 4347   6.527   3.396   3.293
 1150SOL     OW 4348   2.670   4.664   1.239
 1150SOL    HW1 4349   2.665   4.667   1.339
 1150SOL    HW2 4350   2.725   4.585   1.211
 1151SOL     OW 4351   5.901   5.753   6.392
 1151SOL    HW1 4352   5.914   5.774   6.296
 1151SOL    HW2 4353   5.826   5.688   6.403
 1152SOL     OW 4354   1.350   0.460   4.773
 1152SOL    HW1 4355   1.327   0.557   4.763
 1152SOL    HW2 4356   1.270   0.404   4.750
 1153SOL     OW 4357   2.623   6.317   3.120
 1153SOL    HW1 4358   2.713   6.335   3.158
 1153SOL    HW2 4359   2.628   6.315   3.021
 1154SOL     OW 4360   0.743   3.853   2.383
 1154SOL    HW1 4361   0.656   3.900   2.396
 1154SOL    HW2 4362   0.729   3.773   2.324
 1155SOL     OW 4363   3.315   6.102   0.494
 1155SOL    HW1 4364   3.375   6.044   0.548
 1155SOL    HW2 4365   3.322   6.077   0.397
 1156SOL     OW 4366   2.293   0.459   3.710
 1156SOL    HW1 4367   2.379   0.506   3.727
 1156SOL    HW2 4368   2.279   0.449   3.611
 1157SOL     OW 4369   6.869   2.235   4.925
 1157SOL    HW1 4370   6.795   2.254   4.860
 1157SOL    HW2 4371   6.930   2.314   4.930
 1158SOL     OW 4372   5.474   4.635   5.807
 1158SOL    HW1 4373   5.444   4.684   5.725
 1158SOL    HW2 4374   5.513   4.547   5.781
 1159SOL     OW 4375   3.424   6.579   2.574
 1159SOL    HW1 4376   3.332   6.607   2.546
 1159SOL    HW2 4377   3.435   6.481   2.560
 1160SOL     OW 4378   3.628   3.816   2.049
 1160SOL    HW1 4379   3.689   3.865   1.987
 1160SOL    HW2 4380   3.641   3.852   2.142
 1161SOL     OW 4381   5.512   0.453   4.578
 1161SOL    HW1 4382   5.439   0.384   4.577
 1161SOL    HW2 4383   5.566   0.446   4.495
 1162SOL     OW 4384   3.075   3.043   1.194
 1162SOL    HW1 4385   3.136   3.016   1.119
 1162SOL    HW2 4386   2.981   3.017   1.172
 1163SOL     OW 4387   5.004   2.585   1.748
 1163SOL    HW1 4388   4.980   2.619   1.839
 1163SOL    HW2 4389   4.966   2.646   1.679
 1164SOL     OW 4390   5.465   3.278   2.944
 1164SOL    HW1 4391   5.509   3.216   2.879
 1164SOL    HW2 4392   5.495   3.256   3.037
 1165SOL     OW 4393   1.324   3.555   3.536
 1165SOL    HW1 4394   1.416   3.525   3.559
 1165SOL    HW2 4395   1.284   3.495   3.467
 1166SOL     OW 4396   4.174   2.023   6.357
 1166SOL    HW1 4397   4.234   1.980   6.424
 1166SOL    HW2 4398   4.099   1.961   6.335
 1167SOL     OW 4399   3.660   0.690   5.173
 1167SOL    HW1 4400   3.752   0.656   5.156
 1167SOL    HW2 4401   3.598   0.654   5.104
 1168SOL     OW 4402   6.219   6.817   3.050
 1168SOL    HW1 4403   6.177   6.887   3.107
 1168SOL    HW2 4404   6.148   6.764   3.003
 1169SOL     OW 4405   0.359   3.639   0.650
 1169SOL    HW1 4406   0.400   3.724   0.618
 1169SOL    HW2 4407   0.259   3.646   0.645
 1170SOL     OW 4408   3.566   1.049   2.727
 1170SOL    HW1 4409   3.485   1.107   2.733
 1170SOL    HW2 4410   3.648   1.105   2.740
 1171SOL     OW 4411   3.266   6.372   1.127
 1171SOL    HW1 4412   3.283   6.408   1.035
 1171SOL    HW2 4413   3.176   6.403   1.159
 1172SOL     OW 4414   4.020   3.724   4.169
 1172SOL    HW1 4415   3.980   3.803   4.123
 1172SOL    HW2 4416   4.065   3.666   4.101
 1173SOL     OW 4417   3.456   0.281   5.528
 1173SOL    HW1 4418   3.537   0.225   5.514
 1173SOL    HW2 4419   3.471   0.372   5.488
 1174SOL     OW 4420   2.715   5.716   0.689
 1174SOL    HW1 4421   2.771   5.731   0.608
 1174SOL    HW2 4422   2.729   5.623   0.723
 1175SOL     OW 4423   6.045   4.597   6.932
 1175SOL    HW1 4424   6.119   4.562   6.988
 1175SOL    HW2 4425   5.975   4.637   6.991
 1176SOL     OW 4426   5.625   5.028   0.972
 1176SOL    HW1 4427   5.582   5.115   0.996
 1176SOL    HW2 4428   5.707   5.014   1.028
 1177SOL     OW 4429   0.074   2.583   5.476
 1177SOL    HW1 4430   0.134   2.653   5.514
 1177SOL    HW2 4431   7.009   2.590   5.518
 1178SOL     OW 4432   4.900   3.973   2.424
 1178SOL    HW1 4433   4.933   4.046   2.365
 1178SOL    HW2 4434   4.897   3.887   2.372
 1179SOL     OW 4435   1.930   3.852   0.836
 1179SOL    HW1 4436   1.837   3.817   0.846
 1179SOL    HW2 4437   1.994   3.776   0.831
 1180SOL     OW 4438   2.064   1.083   3.296
 1180SOL    HW1 4439   2.045   1.059   3.201
 1180SOL    HW2 4440   1.978   1.079   3.348
 1181SOL     OW 4441   0.649   5.143   4.534
 1181SOL    HW1 4442   0.713   5.187   4.598
 1181SOL    HW2 4443   0.580   5.092   4.586
 1182SOL     OW 4444   2.378   4.304   3.556
 1182SOL    HW1 4445   2.412   4.338   3.468
 1182SOL    HW2 4446   2.279   4.297   3.553
 1183SOL     OW 4447   4.563   5.386   1.530
 1183SOL    HW1 4448   4.481   5.389   1.587
 1183SOL    HW2 4449   4.625   5.458   1.558
 1184SOL     OW 4450   3.359   2.967   5.436
 1184SOL    HW1 4451   3.283   2.979   5.373
 1184SOL    HW2 4452   3.401   2.877   5.421
 1185SOL     OW 4453   2.498   0.485   0.263
 1185SOL    HW1 4454   2.406   0.492   0.302
 1185SOL    HW2 4455   2.543   0.575   0.268
 1186SOL     OW 4456   6.043   0.191   4.999
 1186SOL    HW1 4457   5.952   0.202   5.038
 1186SOL    HW2 4458   6.110   0.180   5.072
 1187SOL     OW 4459   5.720   6.364   4.709
 1187SOL    HW1 4460   5.734   6.383   4.612
 1187SOL    HW2 4461   5.807   6.374   4.758
 1188SOL     OW 4462   2.434   6.765   5.960
 1188SOL    HW1 4463   2.361   6.824   5.926
 1188SOL    HW2 4464   2.405   6.669   5.955
 1189SOL     OW 4465   5.329   1.538   2.047
 1189SOL    HW1 4466   5.349   1.631   2.019
 1189SOL    HW2 4467   5.233   1.532   2.076
 1190SOL     OW 4468   3.869   5.136   3.388
 1190SOL    HW1 4469   3.942   5.203   3.394
 1190SOL    HW2 4470   3.793   5.174   3.335
 1191SOL     OW 4471   3.343   5.075   6.187
 1191SOL    HW1 4472   3.271   5.094   6.254
 1191SOL    HW2 4473   3.336   4.979   6.157
 1192SOL     OW 4474   6.163   4.659   3.443
 1192SOL    HW1 4475   6.253   4.616   3.442
 1192SOL    HW2 4476   6.094   4.592   3.416
 1193SOL     OW 4477   5.244   0.011   4.616
 1193SOL    HW1 4478   5.264   6.939   4.623
 1193SOL    HW2 4479   5.146   0.025   4.623
 1194SOL     OW 4480   6.687   0.650   0.853
 1194SOL    HW1 4481   6.603   0.702   0.870
 1194SOL    HW2 4482   6.680   0.561   0.898
 1195SOL     OW 4483   6.575   1.086   6.153
 1195SOL    HW1 4484   6.488   1.049   6.119
 1195SOL    HW2 4485   6.567   1.104   6.251
 1196SOL     OW 4486   0.581   5.010   2.287
 1196SOL    HW1 4487   0.643   4.932   2.296
 1196SOL    HW2 4488   0.577   5.038   2.191
 1197SOL     OW 4489   3.823   5.865   5.569
 1197SOL    HW1 4490   3.910   5.914   5.564
 1197SOL    HW2 4491   3.750   5.922   5.532
 1198SOL     OW 4492   2.902   2.250   2.550
 1198SOL    HW1 4493   2.979   2.186   2.551
 1198SOL    HW2 4494   2.851   2.240   2.465
 1199SOL     OW 4495   2.980   3.946   2.294
 1199SOL    HW1 4496   3.062   3.973   2.243
 1199SOL    HW2 4497   2.900   3.952   2.234
 1200SOL     OW 4498   4.211   3.903   5.276
 1200SOL    HW1 4499   4.289   3.913   5.338
 1200SOL    HW2 4500   4.179   3.993   5.249
 1201SOL     OW 4501   1.353   1.379   5.009
 1201SOL    HW1 4502   1.329   1.313   4.937
 1201SOL    HW2 4503   1.447   1.408   4.997
 1202SOL     OW 4504   5.643   6.889   5.744
 1202SOL    HW1 4505   5.646   6.793   5.773
 1202SOL    HW2 4506   5.563   6.933   5.785
 1203SOL     OW 4507   5.150   0.235   1.118
 1203SOL    HW1 4508   5.060   0.274   1.134
 1203SOL    HW2 4509   5.205   0.299   1.064
 1204SOL     OW 4510   3.661   1.408   0.484
 1204SOL    HW1 4511   3.725   1.335   0.458
 1204SOL    HW2 4512   3.633   1.459   0.403
 1205SOL     OW 4513   5.584   2.599   6.136
 1205SOL    HW1 4514   5.600   2.556   6.225
 1205SOL    HW2 4515   5.493   2.639   6.135
 1206SOL     OW 4516   1.928   1.583   4.692
 1206SOL    HW1 4517   1.935   1.579   4.592
 1206SOL    HW2 4518   1.831   1.585   4.718
 1207SOL     OW 4519   6.201   6.543   0.370
 1207SOL    HW1 4520   6.283   6.517   0.421
 1207SOL    HW2 4521   6.148   6.462   0.348
 1208SOL     OW 4522   3.372   3.859   2.970
 1208SOL    HW1 4523   3.370   3.824   2.876
 1208SOL    HW2 4524   3.365   3.959   2.969
 1209SOL     OW 4525   6.090   5.713   5.343
 1209SOL    HW1 4526   6.150   5.792   5.353
 1209SOL    HW2 4527   6.027   5.709   5.421
 1210SOL     OW 4528   3.858   0.072   2.748
 1210SOL    HW1 4529   3.852   0.018   2.832
 1210SOL    HW2 4530   3.885   0.012   2.672
 1211SOL     OW 4531   1.065   3.191   4.146
 1211SOL    HW1 4532   1.017   3.107   4.118
 1211SOL    HW2 4533   1.145   3.204   4.088
 1212SOL     OW 4534   1.399   3.477   6.042
 1212SOL    HW1 4535   1.357   3.429   6.119
 1212SOL    HW2 4536   1.409   3.413   5.966
 1213SOL     OW 4537   6.541   2.681   5.120
 1213SOL    HW1 4538   6.474   2.608   5.134
 1213SOL    HW2 4539   6.567   2.720   5.209
 1214SOL     OW 4540   1.749   3.549   4.732
 1214SOL    HW1 4541   1.740   3.503   4.643
 1214SOL    HW2 4542   1.842   3.538   4.766
 1215SOL     OW 4543   2.154   4.591   2.594
 1215SOL    HW1 4544   2.179   4.495   2.580
 1215SOL    HW2 4545   2.235   4.642   2.623
 1216SOL     OW 4546   1.315   6.632   1.439
 1216SOL    HW1 4547   1.335   6.581   1.355
 1216SOL    HW2 4548   1.319   6.570   1.517
 1217SOL     OW 4549   1.209   6.375   6.865
 1217SOL    HW1 4550   1.301   6.338   6.881
 1217SOL    HW2 4551   1.212   6.475   6.873
 1218SOL     OW 4552   1.288   3.549   5.217
 1218SOL    HW1 4553   1.223   3.583   5.149
 1218SOL    HW2 4554   1.257   3.460   5.251
 1219SOL     OW 4555   4.713   5.160   0.284
 1219SOL    HW1 4556   4.651   5.179   0.360
 1219SOL    HW2 4557   4.790   5.224   0.287
 1220SOL     OW 4558   5.861   3.403   2.690
 1220SOL    HW1 4559   5.825   3.422   2.781
 1220SOL    HW2 4560   5.786   3.405   2.623
 1221SOL     OW 4561   5.819   4.089   0.045
 1221SOL    HW1 4562   5.878   4.033   7.012
 1221SOL    HW2 4563   5.830   4.185   0.020
 1222SOL     OW 4564   6.699   6.736   0.773
 1222SOL    HW1 4565   6.690   6.708   0.868
 1222SOL    HW2 4566   6.751   6.667   0.722
 1223SOL     OW 4567   6.233   6.750   6.571
 1223SOL    HW1 4568   6.246   6.747   6.472
 1223SOL    HW2 4569   6.221   6.845   6.600
 1224SOL     OW 4570   4.092   5.912   0.013
 1224SOL    HW1 4571   4.164   5.971   0.049
 1224SOL    HW2 4572   4.132   5.845   6.977
 1225SOL     OW 4573   4.136   1.692   0.833
 1225SOL    HW1 4574   4.115   1.627   0.906
 1225SOL    HW2 4575   4.099   1.782   0.857
 1226SOL     OW 4576   5.947   6.329   1.063
 1226SOL    HW1 4577   6.011   6.401   1.090
 1226SOL    HW2 4578   5.984   6.240   1.090
 1227SOL     OW 4579   5.802   4.459   5.809
 1227SOL    HW1 4580   5.734   4.485   5.740
 1227SOL    HW2 4581   5.768   4.381   5.862
 1228SOL     OW 4582   3.803   2.984   1.995
 1228SOL    HW1 4583   3.776   2.910   1.934
 1228SOL    HW2 4584   3.732   3.055   1.995
 1229SOL     OW 4585   1.667   6.501   2.048
 1229SOL    HW1 4586   1.730   6.468   2.118
 1229SOL    HW2 4587   1.589   6.439   2.042
 1230SOL     OW 4588   5.574   5.366   2.817
 1230SOL    HW1 4589   5.487   5.417   2.815
 1230SOL    HW2 4590   5.588   5.321   2.729
 1231SOL     OW 4591   1.852   2.784   6.451
 1231SOL    HW1 4592   1.809   2.758   6.537
 1231SOL    HW2 4593   1.807   2.865   6.415
 1232SOL     OW 4594   3.821   1.071   4.805
 1232SOL    HW1 4595   3.749   1.058   4.737
 1232SOL    HW2 4596   3.910   1.055   4.762
 1233SOL     OW 4597   1.171   4.442   3.664
 1233SOL    HW1 4598   1.246   4.471   3.604
 1233SOL    HW2 4599   1.083   4.460   3.620
 1234SOL     OW 4600   6.877   3.279   6.729
 1234SOL    HW1 4601   6.974   3.271   6.748
 1234SOL    HW2 4602   6.833   3.190   6.737
 1235SOL     OW 4603   6.096   4.776   0.192
 1235SOL    HW1 4604   6.175   4.724   0.163
 1235SOL    HW2 4605   6.066   4.836   0.118
 1236SOL     OW 4606   3.067   1.354   6.902
 1236SOL    HW1 4607   2.969   1.342   6.913
 1236SOL    HW2 4608   3.113   1.265   6.910
 1237SOL     OW 4609   1.498   0.847   4.731
 1237SOL    HW1 4610   1.510   0.945   4.746
 1237SOL    HW2 4611   1.487   0.800   4.819
 1238SOL     OW 4612   0.457   0.138   3.108
 1238SOL    HW1 4613   0.437   0.196   3.029
 1238SOL    HW2 4614   0.483   0.195   3.186
 1239SOL     OW 4615   7.002   5.097   4.424
 1239SOL    HW1 4616   6.995   5.174   4.486
 1239SOL    HW2 4617   6.914   5.048   4.422
 1240SOL     OW 4618   6.154   5.527   3.244
 1240SOL    HW1 4619   6.089   5.603   3.240
 1240SOL    HW2 4620   6.107   5.442   3.219
 1241SOL     OW 4621   6.781   5.496   4.419
 1241SOL    HW1 4622   6.733   5.414   4.387
 1241SOL    HW2 4623   6.719   5.549   4.478
 1242SOL     OW 4624   1.263   3.296   7.005
 1242SOL    HW1 4625   1.229   3.261   0.066
 1242SOL    HW2 4626   1.362   3.303   7.008
 1243SOL     OW 4627   1.055   3.794   5.694
 1243SOL    HW1 4628   1.079   3.818   5.788
 1243SOL    HW2 4629   1.078   3.870   5.633
 1244SOL     OW 4630   5.871   6.520   5.151
 1244SOL    HW1 4631   5.958   6.527   5.102
 1244SOL    HW2 4632   5.824   6.608   5.148
 1245SOL     OW 4633   5.298   5.669   1.135
 1245SOL    HW1 4634   5.248   5.659   1.050
 1245SOL    HW2 4635   5.332   5.763   1.143
 1246SOL     OW 4636   4.931   1.362   0.993
 1246SOL    HW1 4637   4.913   1.389   0.899
 1246SOL    HW2 4638   4.862   1.296   1.023
 1247SOL     OW 4639   6.578   6.758   3.728
 1247SOL    HW1 4640   6.622   6.684   3.779
 1247SOL    HW2 4641   6.645   6.799   3.665
 1248SOL     OW 4642   7.015   6.813   4.750
 1248SOL    HW1 4643   0.004   6.802   4.652
 1248SOL    HW2 4644   6.921   6.842   4.767
 1249SOL     OW 4645   0.428   4.696   1.178
 1249SOL    HW1 4646   0.361   4.715   1.249
 1249SOL    HW2 4647   0.422   4.599   1.152
 1250SOL     OW 4648   5.603   3.993   5.139
 1250SOL    HW1 4649   5.606   4.088   5.108
 1250SOL    HW2 4650   5.669   3.939   5.086
 1251SOL     OW 4651   2.059   1.164   2.888
 1251SOL    HW1 4652   2.133   1.100   2.910
 1251SOL    HW2 4653   2.093   1.235   2.826
 1252SOL     OW 4654   3.067   5.209   7.017
 1252SOL    HW1 4655   2.981   5.258   6.997
 1252SOL    HW2 4656   3.087   5.146   6.943
 1253SOL     OW 4657   3.249   0.385   0.758
 1253SOL    HW1 4658   3.349   0.387   0.753
 1253SOL    HW2 4659   3.211   0.432   0.679
 1254SOL     OW 4660   6.287   1.812   2.975
 1254SOL    HW1 4661   6.306   1.715   2.962
 1254SOL    HW2 4662   6.371   1.864   2.958
 1255SOL     OW 4663   5.667   2.464   4.913
 1255SOL    HW1 4664   5.599   2.525   4.954
 1255SOL    HW2 4665   5.630   2.372   4.906
 1256SOL     OW 4666   7.007   6.061   4.123
 1256SOL    HW1 4667   6.957   6.141   4.090
 1256SOL    HW2 4668   0.058   6.041   4.062
 1257SOL     OW 4669   0.712   4.397   3.698
 1257SOL    HW1 4670   0.632   4.443   3.736
 1257SOL    HW2 4671   0.776   4.376   3.772
 1258SOL     OW 4672   2.316   6.140   3.668
 1258SOL    HW1 4673   2.378   6.080   3.718
 1258SOL    HW2 4674   2.267   6.199   3.733
 1259SOL     OW 4675   4.396   0.483   5.026
 1259SOL    HW1 4676   4.461   0.551   5.059
 1259SOL    HW2 4677   4.354   0.515   4.941
 1260SOL     OW 4678   2.243   0.597   2.088
 1260SOL    HW1 4679   2.329   0.645   2.105
 1260SOL    HW2 4680   2.263   0.500   2.072
 1261SOL     OW 4681   0.146   3.607   6.646
 1261SOL    HW1 4682   0.062   3.616   6.701
 1261SOL    HW2 4683   0.124   3.619   6.550
 1262SOL     OW 4684   4.901   5.103   1.064
 1262SOL    HW1 4685   4.811   5.078   1.030
 1262SOL    HW2 4686   4.945   5.166   1.000
 1263SOL     OW 4687   6.579   2.191   0.998
 1263SOL    HW1 4688   6.596   2.112   0.939
 1263SOL    HW2 4689   6.666   2.238   1.017
 1264SOL     OW 4690   0.823   4.465   3.220
 1264SOL    HW1 4691   0.827   4.563   3.240
 1264SOL    HW2 4692   0.850   4.414   3.302
 1265SOL     OW 4693   0.450   3.602   4.633
 1265SOL    HW1 4694   0.364   3.551   4.621
 1265SOL    HW2 4695   0.518   3.568   4.569
 1266SOL     OW 4696   3.010   1.041   5.415
 1266SOL    HW1 4697   2.963   1.078   5.335
 1266SOL    HW2 4698   3.094   1.094   5.432
 1267SOL     OW 4699   0.092   5.273   2.755
 1267SOL    HW1 4700   0.186   5.242   2.738
 1267SOL    HW2 4701   0.061   5.239   2.843
 1268SOL     OW 4702   5.512   2.167   6.669
 1268SOL    HW1 4703   5.559   2.253   6.651
 1268SOL    HW2 4704   5.414   2.183   6.676
 1269SOL     OW 4705   6.644   6.670   4.887
 1269SOL    HW1 4706   6.698   6.754   4.883
 1269SOL    HW2 4707   6.570   6.675   4.820
 1270SOL     OW 4708   1.908   3.992   4.230
 1270SOL    HW1 4709   1.895   4.008   4.328
 1270SOL    HW2 4710   1.830   4.028   4.179
 1271SOL     OW 4711   3.364   1.817   3.018
 1271SOL    HW1 4712   3.355   1.838   3.116
 1271SOL    HW2 4713   3.275   1.829   2.974
 1272SOL     OW 4714   0.590   5.609   0.825
 1272SOL    HW1 4715   0.598   5.510   0.824
 1272SOL    HW2 4716   0.673   5.650   0.863
 1273SOL     OW 4717   2.540   4.547   0.734
 1273SOL    HW1 4718   2.563   4.510   0.824
 1273SOL    HW2 4719   2.593   4.499   0.664
 1274SOL     OW 4720   0.205   2.949   1.629
 1274SOL    HW1 4721   0.215   2.911   1.721
 1274SOL    HW2 4722   0.214   3.048   1.633
 1275SOL     OW 4723   4.523   0.563   3.854
 1275SOL    HW1 4724   4.584   0.531   3.926
 1275SOL    HW2 4725   4.559   0.536   3.764
 1276SOL     OW 4726   6.933   0.583   2.964
 1276SOL    HW1 4727   6.914   0.532   2.880
 1276SOL    HW2 4728   6.854   0.576   3.025
 1277SOL     OW 4729   0.317   1.042   4.799
 1277SOL    HW1 4730   0.308   0.964   4.861
 1277SOL    HW2 4731   0.371   1.015   4.719
 1278SOL     OW 4732   1.931   1.970   5.695
 1278SOL    HW1 4733   1.947   2.012   5.784
 1278SOL    HW2 4734   1.834   1.948   5.685
 1279SOL     OW 4735   2.698   6.746   0.352
 1279SOL    HW1 4736   2.725   6.780   0.442
 1279SOL    HW2 4737   2.699   6.646   0.353
 1280SOL     OW 4738   2.001   0.811   2.571
 1280SOL    HW1 4739   1.976   0.732   2.627
 1280SOL    HW2 4740   1.970   0.796   2.477
 1281SOL     OW 4741   1.423   5.986   3.029
 1281SOL    HW1 4742   1.489   6.055   3.001
 1281SOL    HW2 4743   1.365   6.021   3.102
 1282SOL     OW 4744   0.446   1.397   1.005
 1282SOL    HW1 4745   0.442   1.339   0.924
 1282SOL    HW2 4746   0.437   1.340   1.087
 1283SOL     OW 4747   5.581   3.677   5.767
 1283SOL    HW1 4748   5.549   3.643   5.679
 1283SOL    HW2 4749   5.512   3.735   5.808
 1284SOL     OW 4750   3.133   2.422   1.757
 1284SOL    HW1 4751   3.064   2.420   1.830
 1284SOL    HW2 4752   3.198   2.347   1.772
 1285SOL     OW 4753   5.660   3.142   6.461
 1285SOL    HW1 4754   5.704   3.120   6.548
 1285SOL    HW2 4755   5.596   3.069   6.436
 1286SOL     OW 4756   4.860   4.514   2.417
 1286SOL    HW1 4757   4.838   4.518   2.514
 1286SOL    HW2 4758   4.811   4.437   2.375
 1287SOL     OW 4759   6.101   4.834   6.104
 1287SOL    HW1 4760   6.089   4.749   6.154
 1287SOL    HW2 4761   6.067   4.911   6.159
 1288SOL     OW 4762   0.342   3.267   0.344
 1288SOL    HW1 4763   0.420   3.300   0.291
 1288SOL    HW2 4764   0.300   3.343   0.392
 1289SOL     OW 4765   0.307   6.287   1.707
 1289SOL    HW1 4766   0.402   6.300   1.736
 1289SOL    HW2 4767   0.249   6.275   1.787
 1290SOL     OW 4768   0.224   0.333   6.706
 1290SOL    HW1 4769   0.262   0.281   6.782
 1290SOL    HW2 4770   0.299   0.366   6.648
 1291SOL     OW 4771   2.061   4.769   6.493
 1291SOL    HW1 4772   2.120   4.760   6.573
 1291SOL    HW2 4773   1.977   4.717   6.508
 1292SOL     OW 4774   6.851   4.545   1.797
 1292SOL    HW1 4775   6.854   4.644   1.788
 1292SOL    HW2 4776   6.925   4.514   1.857
 1293SOL     OW 4777   2.582   1.007   6.174
 1293SOL    HW1 4778   2.569   1.058   6.089
 1293SOL    HW2 4779   2.619   1.067   6.244
 1294SOL     OW 4780   0.000   3.132   1.889
 1294SOL    HW1 4781   7.012   3.079   1.806
 1294SOL    HW2 4782   0.082   3.189   1.879
 1295SOL     OW 4783   6.288   3.994   2.846
 1295SOL    HW1 4784   6.352   4.063   2.880
 1295SOL    HW2 4785   6.196   4.014   2.881
 1296SOL     OW 4786   3.347   1.452   6.294
 1296SOL    HW1 4787   3.400   1.420   6.215
 1296SOL    HW2 4788   3.402   1.445   6.377
 1297SOL     OW 4789   5.871   1.812   5.690
 1297SOL    HW1 4790   5.806   1.846   5.757
 1297SOL    HW2 4791   5.829   1.738   5.637
 1298SOL     OW 4792   6.249   3.252   4.014
 1298SOL    HW1 4793   6.214   3.277   3.923
 1298SOL    HW2 4794   6.181   3.196   4.062
 1299SOL     OW 4795   2.111   4.223   3.186
 1299SOL    HW1 4796   2.145   4.311   3.220
 1299SOL    HW2 4797   2.129   4.152   3.255
 1300SOL     OW 4798   2.997   3.715   2.030
 1300SOL    HW1 4799   3.020   3.795   1.974
 1300SOL    HW2 4800   2.941   3.652   1.976
 1301SOL     OW 4801   1.499   6.505   2.864
 1301SOL    HW1 4802   1.572   6.440   2.885
 1301SOL    HW2 4803   1.522   6.554   2.780
 1302SOL     OW 4804   2.114   6.961   4.514
 1302SOL    HW1 4805   2.205   6.956   4.473
 1302SOL    HW2 4806   2.078   0.028   4.505
 1303SOL     OW 4807   3.758   1.224   0.853
 1303SOL    HW1 4808   3.763   1.282   0.934
 1303SOL    HW2 4809   3.690   1.261   0.789
 1304SOL     OW 4810   1.252   0.886   6.282
 1304SOL    HW1 4811   1.164   0.903   6.326
 1304SOL    HW2 4812   1.280   0.968   6.231
 1305SOL     OW 4813   5.281   5.751   4.893
 1305SOL    HW1 4814   5.222   5.821   4.854
 1305SOL    HW2 4815   5.363   5.741   4.837
 1306SOL     OW 4816   1.538   3.579   5.089
 1306SOL    HW1 4817   1.528   3.532   5.002
 1306SOL    HW2 4818   1.456   3.567   5.144
 1307SOL     OW 4819   1.713   3.247   5.017
 1307SOL    HW1 4820   1.686   3.302   5.097
 1307SOL    HW2 4821   1.787   3.185   5.042
 1308SOL     OW 4822   4.012   6.110   4.426
 1308SOL    HW1 4823   4.068   6.089   4.346
 1308SOL    HW2 4824   3.916   6.088   4.406
 1309SOL     OW 4825   5.893   3.223   5.435
 1309SOL    HW1 4826   5.864   3.172   5.516
 1309SOL    HW2 4827   5.846   3.312   5.433
 1310SOL     OW 4828   5.579   3.641   4.913
 1310SOL    HW1 4829   5.590   3.599   4.823
 1310SOL    HW2 4830   5.650   3.607   4.974
 1311SOL     OW 4831   5.732   6.873   4.043
 1311SOL    HW1 4832   5.636   6.873   4.018
 1311SOL    HW2 4833   5.755   6.959   4.088
 1312SOL     OW 4834   0.780   0.899   6.605
 1312SOL    HW1 4835   0.804   0.961   6.679
 1312SOL    HW2 4836   0.741   0.815   6.642
 1313SOL     OW 4837   2.893   5.514   5.227
 1313SOL    HW1 4838   2.941   5.521   5.140
 1313SOL    HW2 4839   2.954   5.477   5.297
 1314SOL     OW 4840   1.820   1.470   6.011
 1314SOL    HW1 4841   1.798   1.518   5.926
 1314SOL    HW2 4842   1.886   1.523   6.064
 1315SOL     OW 4843   1.077   1.551   0.804
 1315SOL    HW1 4844   0.981   1.523   0.804
 1315SOL    HW2 4845   1.126   1.505   0.877
 1316SOL     OW 4846   2.010   6.815   3.117
 1316SOL    HW1 4847   2.005   6.889   3.050
 1316SOL    HW2 4848   2.001   6.852   3.209
 1317SOL     OW 4849   0.661   4.419   4.781
 1317SOL    HW1 4850   0.655   4.412   4.682
 1317SOL    HW2 4851   0.593   4.360   4.823
 1318SOL     OW 4852   0.646   0.975   0.531
 1318SOL    HW1 4853   0.702   0.907   0.484
 1318SOL    HW2 4854   0.553   0.941   0.540
 1319SOL     OW 4855   6.289   0.994   0.286
 1319SOL    HW1 4856   6.211   0.955   0.238
 1319SOL    HW2 4857   6.373   0.951   0.252
 1320SOL     OW 4858   5.557   4.309   0.278
 1320SOL    HW1 4859   5.521   4.379   0.340
 1320SOL    HW2 4860   5.624   4.350   0.217
 1321SOL     OW 4861   4.400   3.203   0.084
 1321SOL    HW1 4862   4.313   3.249   0.066
 1321SOL    HW2 4863   4.442   3.176   7.024
 1322SOL     OW 4864   5.674   0.893   3.201
 1322SOL    HW1 4865   5.737   0.951   3.252
 1322SOL    HW2 4866   5.672   0.922   3.106
 1323SOL     OW 4867   5.834   1.791   5.337
 1323SOL    HW1 4868   5.909   1.732   5.368
 1323SOL    HW2 4869   5.867   1.885   5.330
 1324SOL     OW 4870   1.750   2.164   2.185
 1324SOL    HW1 4871   1.774   2.178   2.281
 1324SOL    HW2 4872   1.779   2.073   2.156
 1325SOL     OW 4873   1.706   0.065   3.051
 1325SOL    HW1 4874   1.802   0.042   3.038
 1325SOL    HW2 4875   1.661   0.069   2.961
 1326SOL     OW 4876   4.884   2.462   4.680
 1326SOL    HW1 4877   4.819   2.535   4.661
 1326SOL    HW2 4878   4.959   2.498   4.735
 1327SOL     OW 4879   2.171   5.130   2.781
 1327SOL    HW1 4880   2.226   5.208   2.750
 1327SOL    HW2 4881   2.185   5.118   2.880
 1328SOL     OW 4882   1.244   2.229   6.744
 1328SOL    HW1 4883   1.185   2.162   6.790
 1328SOL    HW2 4884   1.322   2.183   6.702
 1329SOL     OW 4885   6.999   1.336   0.723
 1329SOL    HW1 4886   6.953   1.249   0.741
 1329SOL    HW2 4887   6.933   1.401   0.686
 1330SOL     OW 4888   6.446   6.975   0.810
 1330SOL    HW1 4889   6.466   6.881   0.837
 1330SOL    HW2 4890   6.459   0.010   0.888
 1331SOL     OW 4891   5.200   1.379   2.836
 1331SOL    HW1 4892   5.203   1.468   2.881
 1331SOL    HW2 4893   5.209   1.391   2.737
 1332SOL     OW 4894   3.954   0.927   1.040
 1332SOL    HW1 4895   4.051   0.923   1.018
 1332SOL    HW2 4896   3.900   0.925   0.956
 1333SOL     OW 4897   3.605   4.182   5.117
 1333SOL    HW1 4898   3.695   4.151   5.146
 1333SOL    HW2 4899   3.569   4.120   5.047
 1334SOL     OW 4900   1.510   2.737   5.342
 1334SOL    HW1 4901   1.575   2.724   5.418
 1334SOL    HW2 4902   1.432   2.790   5.374
 1335SOL     OW 4903   2.456   6.349   2.455
 1335SOL    HW1 4904   2.546   6.313   2.429
 1335SOL    HW2 4905   2.444   6.440   2.418
 1336SOL     OW 4906   1.358   1.471   0.142
 1336SOL    HW1 4907   1.455   1.490   0.124
 1336SOL    HW2 4908   1.306   1.482   0.057
 1337SOL     OW 4909   1.675   2.746   5.633
 1337SOL    HW1 4910   1.741   2.675   5.610
 1337SOL    HW2 4911   1.709   2.835   5.600
 1338SOL     OW 4912   4.618   3.911   6.475
 1338SOL    HW1 4913   4.608   3.841   6.545
 1338SOL    HW2 4914   4.596   4.001   6.513
 1339SOL     OW 4915   0.126   4.886   6.707
 1339SOL    HW1 4916   0.031   4.860   6.717
 1339SOL    HW2 4917   0.133   4.963   6.643
 1340SOL     OW 4918   0.797   1.983   1.030
 1340SOL    HW1 4919   0.835   1.965   0.940
 1340SOL    HW2 4920   0.769   1.897   1.073
 1341SOL     OW 4921   4.133   1.152   5.193
 1341SOL    HW1 4922   4.047   1.121   5.152
 1341SOL    HW2 4923   4.165   1.233   5.144
 1342SOL     OW 4924   1.752   5.740   6.022
 1342SOL    HW1 4925   1.731   5.646   5.994
 1342SOL    HW2 4926   1.850   5.757   6.012
 1343SOL     OW 4927   3.537   6.528   2.209
 1343SOL    HW1 4928   3.454   6.584   2.208
 1343SOL    HW2 4929   3.604   6.570   2.270
 1344SOL     OW 4930   6.524   1.975   2.987
 1344SOL    HW1 4931   6.603   1.981   3.047
 1344SOL    HW2 4932   6.529   2.047   2.917
 1345SOL     OW 4933   0.627   1.458   3.667
 1345SOL    HW1 4934   0.684   1.397   3.612
 1345SOL    HW2 4935   0.665   1.464   3.759
 1346SOL     OW 4936   0.734   6.543   3.261
 1346SOL    HW1 4937   0.773   6.582   3.345
 1346SOL    HW2 4938   0.697   6.617   3.205
 1347SOL     OW 4939   6.486   6.312   3.698
 1347SOL    HW1 4940   6.579   6.341   3.674
 1347SOL    HW2 4941   6.490   6.221   3.740
 1348SOL     OW 4942   6.093   5.037   4.288
 1348SOL    HW1 4943   6.115   4.957   4.344
 1348SOL    HW2 4944   6.100   5.013   4.191
 1349SOL     OW 4945   4.570   2.597   6.793
 1349SOL    HW1 4946   4.491   2.540   6.771
 1349SOL    HW2 4947   4.650   2.539   6.807
 1350SOL     OW 4948   3.773   4.724   6.566
 1350SOL    HW1 4949   3.810   4.645   6.516
 1350SOL    HW2 4950   3.674   4.714   6.575
 1351SOL     OW 4951   1.372   0.474   3.204
 1351SOL    HW1 4952   1.457   0.494   3.253
 1351SOL    HW2 4953   1.325   0.559   3.182
 1352SOL     OW 4954   6.823   0.492   3.694
 1352SOL    HW1 4955   6.758   0.554   3.650
 1352SOL    HW2 4956   6.815   0.401   3.654
 1353SOL     OW 4957   6.435   4.631   5.516
 1353SOL    HW1 4958   6.486   4.602   5.597
 1353SOL    HW2 4959   6.491   4.614   5.434
 1354SOL     OW 4960   6.487   1.012   1.175
 1354SOL    HW1 4961   6.521   1.069   1.099
 1354SOL    HW2 4962   6.388   1.023   1.183
 1355SOL     OW 4963   5.114   4.206   0.791
 1355SOL    HW1 4964   5.188   4.253   0.744
 1355SOL    HW2 4965   5.032   4.206   0.733
 1356SOL     OW 4966   3.578   4.130   2.991
 1356SOL    HW1 4967   3.659   4.096   2.944
 1356SOL    HW2 4968   3.505   4.146   2.925
 1357SOL     OW 4969   2.671   3.164   6.105
 1357SOL    HW1 4970   2.579   3.128   6.119
 1357SOL    HW2 4971   2.718   3.108   6.037
 1358SOL     OW 4972   2.275   2.882   6.512
 1358SOL    HW1 4973   2.214   2.827   6.455
 1358SOL    HW2 4974   2.223   2.956   6.555
 1359SOL     OW 4975   6.338   3.571   1.631
 1359SOL    HW1 4976   6.350   3.645   1.565
 1359SOL    HW2 4977   6.375   3.486   1.594
 1360SOL     OW 4978   3.934   3.567   2.475
 1360SOL    HW1 4979   3.847   3.591   2.433
 1360SOL    HW2 4980   4.002   3.553   2.403
 1361SOL     OW 4981   0.972   0.280   5.804
 1361SOL    HW1 4982   0.952   0.314   5.713
 1361SOL    HW2 4983   1.003   0.185   5.799
 1362SOL     OW 4984   2.965   3.437   5.394
 1362SOL    HW1 4985   2.911   3.368   5.443
 1362SOL    HW2 4986   3.062   3.422   5.413
 1363SOL     OW 4987   6.713   6.160   3.490
 1363SOL    HW1 4988   6.627   6.110   3.482
 1363SOL    HW2 4989   6.789   6.097   3.476
 1364SOL     OW 4990   6.973   3.190   0.657
 1364SOL    HW1 4991   6.955   3.147   0.746
 1364SOL    HW2 4992   0.009   3.267   0.669
 1365SOL     OW 4993   1.411   3.729   5.568
 1365SOL    HW1 4994   1.360   3.658   5.617
 1365SOL    HW2 4995   1.358   3.758   5.488
 1366SOL     OW 4996   0.152   3.147   1.212
 1366SOL    HW1 4997   0.249   3.169   1.221
 1366SOL    HW2 4998   0.139   3.082   1.138
 1367SOL     OW 4999   1.419   4.918   3.809
 1367SOL    HW1 5000   1.486   4.970   3.755
 1367SOL    HW2 5001   1.408   4.962   3.898
 1368SOL     OW 5002   6.458   6.548   4.414
 1368SOL    HW1 5003   6.530   6.558   4.346
 1368SOL    HW2 5004   6.371   6.529   4.369
 1369SOL     OW 5005   2.168   5.927   1.403
 1369SOL    HW1 5006   2.141   5.907   1.497
 1369SOL    HW2 5007   2.175   6.026   1.390
 1370SOL     OW 5008   0.595   2.186   3.653
 1370SOL    HW1 5009   0.496   2.177   3.641
 1370SOL    HW2 5010   0.630   2.110   3.708
 1371SOL     OW 5011   5.386   1.005   4.724
 1371SOL    HW1 5012   5.442   0.999   4.806
 1371SOL    HW2 5013   5.294   0.973   4.744
 1372SOL     OW 5014   6.323   2.599   0.635
 1372SOL    HW1 5015   6.403   2.642   0.677
 1372SOL    HW2 5016   6.239   2.642   0.670
 1373SOL     OW 5017   4.692   2.445   0.918
 1373SOL    HW1 5018   4.689   2.527   0.976
 1373SOL    HW2 5019   4.765   2.384   0.949
 1374SOL     OW 5020   5.483   4.123   0.636
 1374SOL    HW1 5021   5.499   4.100   0.540
 1374SOL    HW2 5022   5.514   4.047   0.694
 1375SOL     OW 5023   6.607   5.893   6.220
 1375SOL    HW1 5024   6.563   5.977   6.252
 1375SOL    HW2 5025   6.706   5.905   6.219
 1376SOL     OW 5026   3.078   4.379   5.919
 1376SOL    HW1 5027   3.082   4.342   6.012
 1376SOL    HW2 5028   2.988   4.421   5.904
 1377SOL     OW 5029   1.161   2.418   4.269
 1377SOL    HW1 5030   1.206   2.344   4.219
 1377SOL    HW2 5031   1.151   2.392   4.365
 1378SOL     OW 5032   4.178   2.179   4.853
 1378SOL    HW1 5033   4.168   2.249   4.923
 1378SOL    HW2 5034   4.231   2.102   4.890
 1379SOL     OW 5035   4.920   5.782   2.104
 1379SOL    HW1 5036   4.921   5.698   2.051
 1379SOL    HW2 5037   4.905   5.761   2.201
 1380SOL     OW 5038   6.707   6.360   2.422
 1380SOL    HW1 5039   6.609   6.362   2.403
 1380SOL    HW2 5040   6.755   6.423   2.360
 1381SOL     OW 5041   5.732   2.221   6.122
 1381SOL    HW1 5042   5.830   2.223   6.101
 1381SOL    HW2 5043   5.719   2.239   6.219
 1382SOL     OW 5044   4.481   3.210   1.414
 1382SOL    HW1 5045   4.506   3.225   1.319
 1382SOL    HW2 5046   4.403   3.268   1.438
 1383SOL     OW 5047   1.471   6.295   1.563
 1383SOL    HW1 5048   1.434   6.282   1.471
 1383SOL    HW2 5049   1.552   6.238   1.575
 1384SOL     OW 5050   4.445   0.195   0.870
 1384SOL    HW1 5051   4.508   0.160   0.940
 1384SOL    HW2 5052   4.449   0.136   0.790
 1385SOL     OW 5053   2.125   5.185   3.891
 1385SOL    HW1 5054   2.106   5.120   3.965
 1385SOL    HW2 5055   2.219   5.170   3.858
 1386SOL     OW 5056   2.921   6.431   3.797
 1386SOL    HW1 5057   2.934   6.526   3.768
 1386SOL    HW2 5058   2.921   6.426   3.897
 1387SOL     OW 5059   3.760   5.812   1.481
 1387SOL    HW1 5060   3.834   5.747   1.501
 1387SOL    HW2 5061   3.786   5.869   1.403
 1388SOL     OW 5062   6.119   6.485   1.156
 1388SOL    HW1 5063   6.206   6.471   1.204
 1388SOL    HW2 5064   6.134   6.545   1.077
 1389SOL     OW 5065   5.490   1.530   3.105
 1389SOL    HW1 5066   5.573   1.582   3.084
 1389SOL    HW2 5067   5.486   1.449   3.047
 1390SOL     OW 5068   0.553   3.905   0.008
 1390SOL    HW1 5069   0.631   3.963   7.012
 1390SOL    HW2 5070   0.479   3.923   6.968
 1391SOL     OW 5071   6.593   0.817   3.991
 1391SOL    HW1 5072   6.593   0.894   3.927
 1391SOL    HW2 5073   6.679   0.815   4.041
 1392SOL     OW 5074   5.062   5.898   6.196
 1392SOL    HW1 5075   4.974   5.858   6.173
 1392SOL    HW2 5076   5.135   5.832   6.178
 1393SOL     OW 5077   6.118   5.267   5.100
 1393SOL    HW1 5078   6.046   5.289   5.034
 1393SOL    HW2 5079   6.079   5.215   5.176
 1394SOL     OW 5080   3.255   6.149   5.020
 1394SOL    HW1 5081   3.225   6.245   5.017
 1394SOL    HW2 5082   3.194   6.097   5.079
 1395SOL     OW 5083   2.310   4.549   6.239
 1395SOL    HW1 5084   2.226   4.508   6.206
 1395SOL    HW2 5085   2.354   4.600   6.165
 1396SOL     OW 5086   2.007   0.959   4.196
 1396SOL    HW1 5087   2.091   0.933   4.242
 1396SOL    HW2 5088   1.928   0.930   4.251
 1397SOL     OW 5089   0.079   0.378   3.979
 1397SOL    HW1 5090   0.013   0.319   4.026
 1397SOL    HW2 5091   0.086   0.352   3.883
 1398SOL     OW 5092   1.993   1.015   5.997
 1398SOL    HW1 5093   2.037   1.070   6.068
 1398SOL    HW2 5094   1.913   1.064   5.962
 1399SOL     OW 5095   4.159   6.907   0.946
 1399SOL    HW1 5096   4.152   6.997   0.988
 1399SOL    HW2 5097   4.072   6.858   0.957
 1400SOL     OW 5098   6.828   1.804   2.927
 1400SOL    HW1 5099   6.809   1.828   2.832
 1400SOL    HW2 5100   6.910   1.853   2.958
 1401SOL     OW 5101   6.887   1.699   4.665
 1401SOL    HW1 5102   6.934   1.639   4.730
 1401SOL    HW2 5103   6.839   1.772   4.714
 1402SOL     OW 5104   0.841   4.192   0.635
 1402SOL    HW1 5105   0.913   4.245   0.680
 1402SOL    HW2 5106   0.756   4.245   0.635
 1403SOL     OW 5107   3.039   1.779   1.772
 1403SOL    HW1 5108   3.108   1.740   1.711
 1403SOL    HW2 5109   2.949   1.744   1.746
 1404SOL     OW 5110   5.293   6.690   0.050
 1404SOL    HW1 5111   5.362   6.649   0.110
 1404SOL    HW2 5112   5.234   6.750   0.104
 1405SOL     OW 5113   2.008   3.377   1.287
 1405SOL    HW1 5114   1.926   3.341   1.331
 1405SOL    HW2 5115   2.086   3.365   1.348
 1406SOL     OW 5116   1.441   5.374   1.392
 1406SOL    HW1 5117   1.378   5.306   1.429
 1406SOL    HW2 5118   1.535   5.346   1.411
 1407SOL     OW 5119   0.827   2.072   2.329
 1407SOL    HW1 5120   0.798   2.025   2.246
 1407SOL    HW2 5121   0.921   2.044   2.352
 1408SOL     OW 5122   4.943   0.791   6.057
 1408SOL    HW1 5123   4.933   0.831   5.965
 1408SOL    HW2 5124   4.878   0.716   6.068
 1409SOL     OW 5125   0.703   6.986   5.161
 1409SOL    HW1 5126   0.680   7.009   5.067
 1409SOL    HW2 5127   0.660   0.026   5.223
 1410SOL     OW 5128   2.150   3.821   6.791
 1410SOL    HW1 5129   2.175   3.861   6.703
 1410SOL    HW2 5130   2.211   3.856   6.862
 1411SOL     OW 5131   2.834   6.756   2.561
 1411SOL    HW1 5132   2.866   6.812   2.485
 1411SOL    HW2 5133   2.866   6.662   2.548
 1412SOL     OW 5134   0.501   2.363   1.120
 1412SOL    HW1 5135   0.409   2.369   1.081
 1412SOL    HW2 5136   0.554   2.444   1.093
 1413SOL     OW 5137   2.222   1.322   4.899
 1413SOL    HW1 5138   2.272   1.237   4.894
 1413SOL    HW2 5139   2.268   1.392   4.844
 1414SOL     OW 5140   2.408   0.599   1.100
 1414SOL    HW1 5141   2.337   0.670   1.094
 1414SOL    HW2 5142   2.483   0.631   1.157
 1415SOL     OW 5143   2.604   0.843   4.769
 1415SOL    HW1 5144   2.620   0.930   4.723
 1415SOL    HW2 5145   2.508   0.837   4.796
 1416SOL     OW 5146   4.354   4.672   4.249
 1416SOL    HW1 5147   4.367   4.636   4.341
 1416SOL    HW2 5148   4.256   4.676   4.229
 1417SOL     OW 5149   2.492   1.552   7.004
 1417SOL    HW1 5150   2.552   1.490   6.953
 1417SOL    HW2 5151   2.547   1.621   0.024
 1418SOL     OW 5152   2.975   3.725   3.397
 1418SOL    HW1 5153   2.987   3.825   3.397
 1418SOL    HW2 5154   3.041   3.684   3.334
 1419SOL     OW 5155   2.825   6.500   4.406
 1419SOL    HW1 5156   2.906   6.532   4.455
 1419SOL    HW2 5157   2.817   6.401   4.418
 1420SOL     OW 5158   2.059   6.818   1.513
 1420SOL    HW1 5159   2.063   6.899   1.455
 1420SOL    HW2 5160   2.020   6.742   1.461
 1421SOL     OW 5161   2.033   3.088   3.471
 1421SOL    HW1 5162   2.089   3.030   3.529
 1421SOL    HW2 5163   2.056   3.184   3.487
 1422SOL     OW 5164   2.289   4.026   1.524
 1422SOL    HW1 5165   2.247   3.946   1.481
 1422SOL    HW2 5166   2.231   4.058   1.599
 1423SOL     OW 5167   5.222   6.588   3.023
 1423SOL    HW1 5168   5.305   6.542   2.990
 1423SOL    HW2 5169   5.146   6.523   3.025
 1424SOL     OW 5170   6.632   4.021   4.593
 1424SOL    HW1 5171   6.637   4.083   4.515
 1424SOL    HW2 5172   6.538   4.017   4.626
 1425SOL     OW 5173   1.100   6.272   4.643
 1425SOL    HW1 5174   1.144   6.245   4.729
 1425SOL    HW2 5175   1.160   6.332   4.592
 1426SOL     OW 5176   1.094   2.272   5.707
 1426SOL    HW1 5177   1.015   2.225   5.745
 1426SOL    HW2 5178   1.177   2.220   5.726
 1427SOL     OW 5179   0.072   6.650   3.155
 1427SOL    HW1 5180   0.094   6.632   3.251
 1427SOL    HW2 5181   0.137   6.601   3.097
 1428SOL     OW 5182   5.428   2.799   0.600
 1428SOL    HW1 5183   5.500   2.839   0.543
 1428SOL    HW2 5184   5.341   2.801   0.550
 1429SOL     OW 5185   5.551   2.096   0.425
 1429SOL    HW1 5186   5.563   1.999   0.448
 1429SOL    HW2 5187   5.639   2.142   0.430
 1430SOL     OW 5188   1.733   4.865   4.331
 1430SOL    HW1 5189   1.760   4.961   4.328
 1430SOL    HW2 5190   1.652   4.851   4.273
 1431SOL     OW 5191   1.895   1.960   1.032
 1431SOL    HW1 5192   1.828   1.895   1.067
 1431SOL    HW2 5193   1.975   1.962   1.091
 1432SOL     OW 5194   3.442   1.442   2.963
 1432SOL    HW1 5195   3.493   1.470   3.045
 1432SOL    HW2 5196   3.344   1.456   2.979
 1433SOL     OW 5197   4.187   1.477   4.081
 1433SOL    HW1 5198   4.213   1.491   4.177
 1433SOL    HW2 5199   4.249   1.412   4.038
 1434SOL     OW 5200   6.796   1.019   5.746
 1434SOL    HW1 5201   6.884   1.050   5.783
 1434SOL    HW2 5202   6.811   0.979   5.656
 1435SOL     OW 5203   5.755   0.734   2.237
 1435SOL    HW1 5204   5.715   0.825   2.247
 1435SOL    HW2 5205   5.852   0.742   2.215
 1436SOL     OW 5206   6.041   3.797   0.613
 1436SOL    HW1 5207   6.059   3.860   0.537
 1436SOL    HW2 5208   6.127   3.776   0.660
 1437SOL     OW 5209   2.353   2.606   3.736
 1437SOL    HW1 5210   2.401   2.545   3.799
 1437SOL    HW2 5211   2.255   2.602   3.756
 1438SOL     OW 5212   3.020   6.906   1.403
 1438SOL    HW1 5213   3.079   6.850   1.344
 1438SOL    HW2 5214   2.988   6.851   1.480
 1439SOL     OW 5215   6.997   5.634   1.036
 1439SOL    HW1 5216   0.055   5.621   1.090
 1439SOL    HW2 5217   7.013   5.604   0.943
 1440SOL     OW 5218   3.090   4.012   0.667
 1440SOL    HW1 5219   3.130   3.963   0.744
 1440SOL    HW2 5220   2.991   4.001   0.669
 1441SOL     OW 5221   5.915   0.353   2.738
 1441SOL    HW1 5222   5.874   0.263   2.724
 1441SOL    HW2 5223   6.004   0.356   2.694
 1442SOL     OW 5224   6.702   5.666   6.865
 1442SOL    HW1 5225   6.748   5.638   6.781
 1442SOL    HW2 5226   6.769   5.710   6.925
 1443SOL     OW 5227   0.682   2.594   2.303
 1443SOL    HW1 5228   0.644   2.501   2.307
 1443SOL    HW2 5229   0.617   2.654   2.255
 1444SOL     OW 5230   5.460   6.275   0.533
 1444SOL    HW1 5231   5.409   6.258   0.617
 1444SOL    HW2 5232   5.438   6.204   0.466
 1445SOL     OW 5233   1.065   2.984   2.143
 1445SOL    HW1 5234   1.019   2.962   2.057
 1445SOL    HW2 5235   1.009   3.047   2.196
 1446SOL     OW 5236   6.080   0.685   6.606
 1446SOL    HW1 5237   6.003   0.712   6.548
 1446SOL    HW2 5238   6.115   0.596   6.575
 1447SOL     OW 5239   5.884   5.529   4.124
 1447SOL    HW1 5240   5.968   5.571   4.089
 1447SOL    HW2 5241   5.895   5.430   4.129
 1448SOL     OW 5242   6.630   2.988   5.173
 1448SOL    HW1 5243   6.649   2.914   5.109
 1448SOL    HW2 5244   6.702   2.992   5.243
 1449SOL     OW 5245   1.581   4.134   5.632
 1449SOL    HW1 5246   1.529   4.162   5.552
 1449SOL    HW2 5247   1.523   4.080   5.693
 1450SOL     OW 5248   1.137   1.950   0.075
 1450SOL    HW1 5249   1.092   1.995   7.024
 1450SOL    HW2 5250   1.071   1.898   0.128
 1451SOL     OW 5251   1.609   6.413   2.471
 1451SOL    HW1 5252   1.522   6.462   2.464
 1451SOL    HW2 5253   1.684   6.478   2.462
 1452SOL     OW 5254   4.365   2.490   5.291
 1452SOL    HW1 5255   4.290   2.519   5.231
 1452SOL    HW2 5256   4.353   2.531   5.381
 1453SOL     OW 5257   0.156   4.358   5.652
 1453SOL    HW1 5258   0.191   4.441   5.697
 1453SOL    HW2 5259   0.063   4.340   5.684
 1454SOL     OW 5260   1.766   1.832   2.441
 1454SOL    HW1 5261   1.786   1.836   2.539
 1454SOL    HW2 5262   1.835   1.885   2.391
 1455SOL     OW 5263   1.590   6.982   2.232
 1455SOL    HW1 5264   1.609   6.899   2.179
 1455SOL    HW2 5265   1.651   0.029   2.202
 1456SOL     OW 5266   6.208   6.785   5.846
 1456SOL    HW1 5267   6.163   6.856   5.791
 1456SOL    HW2 5268   6.179   6.793   5.941
 1457SOL     OW 5269   1.684   5.113   0.026
 1457SOL    HW1 5270   1.778   5.137   0.001
 1457SOL    HW2 5271   1.662   5.155   0.114
 1458SOL     OW 5272   5.353   4.715   5.132
 1458SOL    HW1 5273   5.447   4.711   5.098
 1458SOL    HW2 5274   5.320   4.809   5.130
 1459SOL     OW 5275   3.993   6.992   5.913
 1459SOL    HW1 5276   3.943   6.911   5.884
 1459SOL    HW2 5277   4.090   6.970   5.923
 1460SOL     OW 5278   1.948   0.022   5.124
 1460SOL    HW1 5279   1.872   0.056   5.070
 1460SOL    HW2 5280   1.953   0.070   5.211
 1461SOL     OW 5281   0.340   4.005   3.554
 1461SOL    HW1 5282   0.326   3.926   3.614
 1461SOL    HW2 5283   0.408   4.066   3.596
 1462SOL     OW 5284   1.468   0.972   6.784
 1462SOL    HW1 5285   1.460   0.935   6.692
 1462SOL    HW2 5286   1.553   0.940   6.825
 1463SOL     OW 5287   1.025   4.910   5.764
 1463SOL    HW1 5288   1.051   5.007   5.761
 1463SOL    HW2 5289   1.076   4.860   5.694
 1464SOL     OW 5290   6.688   5.115   2.127
 1464SOL    HW1 5291   6.778   5.098   2.089
 1464SOL    HW2 5292   6.626   5.146   2.055
 1465SOL     OW 5293   1.653   1.520   3.895
 1465SOL    HW1 5294   1.684   1.574   3.973
 1465SOL    HW2 5295   1.676   1.423   3.910
 1466SOL     OW 5296   3.745   1.560   2.122
 1466SOL    HW1 5297   3.660   1.518   2.090
 1466SOL    HW2 5298   3.725   1.645   2.171
 1467SOL     OW 5299   2.025   1.470   4.070
 1467SOL    HW1 5300   2.085   1.462   3.990
 1467SOL    HW2 5301   1.979   1.383   4.085
 1468SOL     OW 5302   2.354   5.652   1.955
 1468SOL    HW1 5303   2.279   5.663   1.890
 1468SOL    HW2 5304   2.398   5.563   1.941
 1469SOL     OW 5305   6.888   6.586   2.563
 1469SOL    HW1 5306   6.932   6.541   2.486
 1469SOL    HW2 5307   6.935   6.560   2.648
 1470SOL     OW 5308   6.996   1.976   2.195
 1470SOL    HW1 5309   7.021   1.959   2.099
 1470SOL    HW2 5310   6.916   2.035   2.198
 1471SOL     OW 5311   1.041   0.367   0.411
 1471SOL    HW1 5312   1.016   0.460   0.383
 1471SOL    HW2 5313   1.041   0.362   0.511
 1472SOL     OW 5314   3.244   5.652   0.178
 1472SOL    HW1 5315   3.262   5.681   0.272
 1472SOL    HW2 5316   3.238   5.552   0.175
 1473SOL     OW 5317   2.654   5.995   5.047
 1473SOL    HW1 5318   2.636   5.897   5.046
 1473SOL    HW2 5319   2.571   6.044   5.019
 1474SOL     OW 5320   4.354   4.472   1.283
 1474SOL    HW1 5321   4.365   4.433   1.375
 1474SOL    HW2 5322   4.333   4.398   1.218
 1475SOL     OW 5323   5.483   0.935   0.290
 1475SOL    HW1 5324   5.401   0.894   0.249
 1475SOL    HW2 5325   5.496   1.028   0.253
 1476SOL     OW 5326   2.505   0.950   1.084
 1476SOL    HW1 5327   2.543   0.890   1.154
 1476SOL    HW2 5328   2.495   1.043   1.121
 1477SOL     OW 5329   3.387   6.662   0.016
 1477SOL    HW1 5330   3.363   6.733   0.081
 1477SOL    HW2 5331   3.303   6.624   7.003
 1478SOL     OW 5332   5.741   5.865   5.373
 1478SOL    HW1 5333   5.796   5.936   5.329
 1478SOL    HW2 5334   5.793   5.823   5.447
 1479SOL     OW 5335   3.276   2.934   1.718
 1479SOL    HW1 5336   3.334   2.908   1.641
 1479SOL    HW2 5337   3.239   2.852   1.761
 1480SOL     OW 5338   2.585   0.067   4.976
 1480SOL    HW1 5339   2.551   0.153   5.014
 1480SOL    HW2 5340   2.670   0.042   5.022
 1481SOL     OW 5341   5.816   3.490   5.309
 1481SOL    HW1 5342   5.718   3.480   5.322
 1481SOL    HW2 5343   5.834   3.540   5.224
 1482SOL     OW 5344   4.505   0.651   1.195
 1482SOL    HW1 5345   4.459   0.617   1.113
 1482SOL    HW2 5346   4.568   0.581   1.229
 1483SOL     OW 5347   5.897   2.397   5.216
 1483SOL    HW1 5348   5.940   2.458   5.149
 1483SOL    HW2 5349   5.874   2.310   5.174
 1484SOL     OW 5350   4.804   4.979   4.132
 1484SOL    HW1 5351   4.808   4.995   4.033
 1484SOL    HW2 5352   4.845   4.890   4.152
 1485SOL     OW 5353   5.323   0.656   4.088
 1485SOL    HW1 5354   5.336   0.592   4.012
 1485SOL    HW2 5355   5.242   0.712   4.070
 1486SOL     OW 5356   5.102   0.633   3.193
 1486SOL    HW1 5357   5.111   0.668   3.100
 1486SOL    HW2 5358   5.177   0.570   3.213
 1487SOL     OW 5359   6.973   1.491   0.253
 1487SOL    HW1 5360   7.010   1.577   0.289
 1487SOL    HW2 5361   6.953   1.501   0.156
 1488SOL     OW 5362   4.850   0.257   3.371
 1488SOL    HW1 5363   4.821   0.223   3.282
 1488SOL    HW2 5364   4.861   0.357   3.366
 1489SOL     OW 5365   3.833   4.520   5.875
 1489SOL    HW1 5366   3.880   4.590   5.820
 1489SOL    HW2 5367   3.776   4.464   5.814
 1490SOL     OW 5368   0.108   3.407   0.723
 1490SOL    HW1 5369   0.179   3.356   0.772
 1490SOL    HW2 5370   0.049   3.453   0.790
 1491SOL     OW 5371   6.759   3.682   2.857
 1491SOL    HW1 5372   6.837   3.677   2.795
 1491SOL    HW2 5373   6.678   3.709   2.806
 1492SOL     OW 5374   6.140   0.378   2.590
 1492SOL    HW1 5375   6.132   0.284   2.558
 1492SOL    HW2 5376   6.209   0.426   2.537
 1493SOL     OW 5377   3.742   0.758   6.413
 1493SOL    HW1 5378   3.735   0.658   6.419
 1493SOL    HW2 5379   3.838   0.783   6.401
 1494SOL     OW 5380   5.829   2.878   6.835
 1494SOL    HW1 5381   5.852   2.939   6.759
 1494SOL    HW2 5382   5.851   2.923   6.922
 1495SOL     OW 5383   6.757   4.357   4.954
 1495SOL    HW1 5384   6.814   4.276   4.942
 1495SOL    HW2 5385   6.730   4.393   4.865
 1496SOL     OW 5386   1.264   0.673   0.345
 1496SOL    HW1 5387   1.181   0.717   0.382
 1496SOL    HW2 5388   1.265   0.684   0.246
 1497SOL     OW 5389   5.217   3.085   2.109
 1497SOL    HW1 5390   5.231   2.986   2.104
 1497SOL    HW2 5391   5.127   3.104   2.149
 1498SOL     OW 5392   2.998   4.294   0.799
 1498SOL    HW1 5393   2.932   4.321   0.730
 1498SOL    HW2 5394   2.962   4.215   0.850
 1499SOL     OW 5395   0.484   3.223   6.250
 1499SOL    HW1 5396   0.447   3.132   6.234
 1499SOL    HW2 5397   0.490   3.272   6.163
 1500SOL     OW 5398   0.599   6.713   6.774
 1500SOL    HW1 5399   0.670   6.768   6.819
 1500SOL    HW2 5400   0.641   6.654   6.706
 1501SOL     OW 5401   6.047   1.801   6.193
 1501SOL    HW1 5402   6.137   1.815   6.234
 1501SOL    HW2 5403   6.030   1.874   6.127
 1502SOL     OW 5404   5.225   1.274   6.737
 1502SOL    HW1 5405   5.187   1.359   6.701
 1502SOL    HW2 5406   5.160   1.200   6.721
 1503SOL     OW 5407   0.733   3.093   2.579
 1503SOL    HW1 5408   0.702   3.067   2.670
 1503SOL    HW2 5409   0.655   3.118   2.522
 1504SOL     OW 5410   0.929   0.301   3.006
 1504SOL    HW1 5411   0.922   0.239   3.085
 1504SOL    HW2 5412   0.919   0.396   3.037
 1505SOL     OW 5413   5.211   0.042   5.681
 1505SOL    HW1 5414   5.238   0.132   5.646
 1505SOL    HW2 5415   5.272   0.016   5.756
 1506SOL     OW 5416   1.317   0.002   6.967
 1506SOL    HW1 5417   1.221   0.029   6.976
 1506SOL    HW2 5418   1.364   0.066   6.906
 1507SOL     OW 5419   0.031   1.945   5.356
 1507SOL    HW1 5420   0.048   2.038   5.322
 1507SOL    HW2 5421   0.098   1.922   5.426
 1508SOL     OW 5422   6.605   1.657   1.279
 1508SOL    HW1 5423   6.541   1.710   1.334
 1508SOL    HW2 5424   6.692   1.649   1.329
 1509SOL     OW 5425   4.787   1.867   4.704
 1509SOL    HW1 5426   4.880   1.892   4.733
 1509SOL    HW2 5427   4.757   1.928   4.631
 1510SOL     OW 5428   5.586   6.801   4.697
 1510SOL    HW1 5429   5.488   6.819   4.695
 1510SOL    HW2 5430   5.613   6.771   4.788
 1511SOL     OW 5431   3.894   3.331   4.130
 1511SOL    HW1 5432   3.949   3.366   4.055
 1511SOL    HW2 5433   3.896   3.396   4.207
 1512SOL     OW 5434   6.299   5.350   1.665
 1512SOL    HW1 5435   6.284   5.283   1.738
 1512SOL    HW2 5436   6.246   5.325   1.584
 1513SOL     OW 5437   3.239   0.289   4.902
 1513SOL    HW1 5438   3.176   0.221   4.865
 1513SOL    HW2 5439   3.234   0.372   4.848
 1514SOL     OW 5440   4.250   2.944   5.773
 1514SOL    HW1 5441   4.233   2.853   5.735
 1514SOL    HW2 5442   4.217   3.014   5.710
 1515SOL     OW 5443   6.185   1.289   2.688
 1515SOL    HW1 5444   6.162   1.242   2.603
 1515SOL    HW2 5445   6.267   1.249   2.728
 1516SOL     OW 5446   5.340   5.165   5.361
 1516SOL    HW1 5447   5.437   5.183   5.379
 1516SOL    HW2 5448   5.292   5.251   5.348
 1517SOL     OW 5449   4.349   6.223   2.658
 1517SOL    HW1 5450   4.265   6.167   2.656
 1517SOL    HW2 5451   4.389   6.218   2.749
 1518SOL     OW 5452   6.706   3.219   0.595
 1518SOL    HW1 5453   6.800   3.214   0.627
 1518SOL    HW2 5454   6.648   3.256   0.668
 1519SOL     OW 5455   6.632   4.574   1.209
 1519SOL    HW1 5456   6.658   4.574   1.306
 1519SOL    HW2 5457   6.715   4.579   1.153
 1520SOL     OW 5458   0.700   4.768   1.624
 1520SOL    HW1 5459   0.714   4.669   1.622
 1520SOL    HW2 5460   0.747   4.807   1.703
 1521SOL     OW 5461   1.864   4.948   6.703
 1521SOL    HW1 5462   1.960   4.969   6.687
 1521SOL    HW2 5463   1.832   4.999   6.783
 1522SOL     OW 5464   6.072   5.438   4.651
 1522SOL    HW1 5465   6.012   5.379   4.705
 1522SOL    HW2 5466   6.074   5.529   4.691
 1523SOL     OW 5467   3.520   6.634   6.455
 1523SOL    HW1 5468   3.424   6.663   6.458
 1523SOL    HW2 5469   3.555   6.624   6.548
 1524SOL     OW 5470   2.480   1.866   2.836
 1524SOL    HW1 5471   2.568   1.910   2.858
 1524SOL    HW2 5472   2.449   1.812   2.914
 1525SOL     OW 5473   5.630   2.895   0.449
 1525SOL    HW1 5474   5.677   2.826   0.394
 1525SOL    HW2 5475   5.590   2.964   0.389
 1526SOL     OW 5476   6.904   0.669   6.690
 1526SOL    HW1 5477   6.956   0.645   6.772
 1526SOL    HW2 5478   6.896   0.589   6.631
 1527SOL     OW 5479   3.456   1.079   4.503
 1527SOL    HW1 5480   3.402   1.024   4.440
 1527SOL    HW2 5481   3.510   1.145   4.451
 1528SOL     OW 5482   4.174   4.763   1.950
 1528SOL    HW1 5483   4.265   4.744   1.988
 1528SOL    HW2 5484   4.183   4.821   1.869
 1529SOL     OW 5485   4.893   1.099   6.907
 1529SOL    HW1 5486   4.911   1.191   6.940
 1529SOL    HW2 5487   4.946   1.033   6.961
 1530SOL     OW 5488   3.097   1.540   1.182
 1530SOL    HW1 5489   3.182   1.540   1.235
 1530SOL    HW2 5490   3.076   1.446   1.153
 1531SOL     OW 5491   4.493   0.681   4.789
 1531SOL    HW1 5492   4.540   0.643   4.709
 1531SOL    HW2 5493   4.402   0.640   4.798
 1532SOL     OW 5494   3.527   4.309   6.111
 1532SOL    HW1 5495   3.470   4.330   6.032
 1532SOL    HW2 5496   3.587   4.231   6.090
 1533SOL     OW 5497   5.576   5.460   0.216
 1533SOL    HW1 5498   5.491   5.407   0.219
 1533SOL    HW2 5499   5.650   5.401   0.183
 1534SOL     OW 5500   3.208   6.022   6.126
 1534SOL    HW1 5501   3.291   6.022   6.069
 1534SOL    HW2 5502   3.209   5.943   6.186
 1535SOL     OW 5503   5.503   5.778   4.713
 1535SOL    HW1 5504   5.549   5.830   4.786
 1535SOL    HW2 5505   5.552   5.692   4.699
 1536SOL     OW 5506   4.003   4.883   6.284
 1536SOL    HW1 5507   4.026   4.871   6.187
 1536SOL    HW2 5508   3.957   4.801   6.318
 1537SOL     OW 5509   4.330   5.914   3.895
 1537SOL    HW1 5510   4.383   5.918   3.980
 1537SOL    HW2 5511   4.393   5.906   3.818
 1538SOL     OW 5512   3.596   6.952   6.719
 1538SOL    HW1 5513   3.691   6.961   6.750
 1538SOL    HW2 5514   3.588   6.991   6.627
 1539SOL     OW 5515   4.941   3.504   2.139
 1539SOL    HW1 5516   4.963   3.477   2.233
 1539SOL    HW2 5517   4.935   3.423   2.082
 1540SOL     OW 5518   0.227   6.723   5.442
 1540SOL    HW1 5519   0.262   6.801   5.492
 1540SOL    HW2 5520   0.303   6.674   5.399
 1541SOL     OW 5521   3.527   3.177   3.872
 1541SOL    HW1 5522   3.555   3.251   3.934
 1541SOL    HW2 5523   3.461   3.213   3.806
 1542SOL     OW 5524   6.698   0.396   1.997
 1542SOL    HW1 5525   6.669   0.334   1.924
 1542SOL    HW2 5526   6.769   0.458   1.963
 1543SOL     OW 5527   3.640   5.197   4.928
 1543SOL    HW1 5528   3.617   5.250   5.009
 1543SOL    HW2 5529   3.712   5.131   4.951
 1544SOL     OW 5530   3.962   3.934   3.725
 1544SOL    HW1 5531   4.028   3.973   3.661
 1544SOL    HW2 5532   3.961   3.834   3.714
 1545SOL     OW 5533   4.577   0.766   2.636
 1545SOL    HW1 5534   4.527   0.831   2.693
 1545SOL    HW2 5535   4.512   0.705   2.590
 1546SOL     OW 5536   5.371   6.401   5.877
 1546SOL    HW1 5537   5.349   6.449   5.792
 1546SOL    HW2 5538   5.424   6.319   5.856
 1547SOL     OW 5539   1.254   3.418   0.955
 1547SOL    HW1 5540   1.196   3.354   1.006
 1547SOL    HW2 5541   1.261   3.504   1.006
 1548SOL     OW 5542   4.996   4.181   6.988
 1548SOL    HW1 5543   4.992   4.090   6.948
 1548SOL    HW2 5544   5.038   4.176   0.053
 1549SOL     OW 5545   3.829   1.013   2.176
 1549SOL    HW1 5546   3.819   0.978   2.082
 1549SOL    HW2 5547   3.889   1.092   2.176
 1550SOL     OW 5548   3.361   3.600   1.430
 1550SOL    HW1 5549   3.383   3.570   1.523
 1550SOL    HW2 5550   3.390   3.529   1.365
 1551SOL     OW 5551   1.709   4.686   6.739
 1551SOL    HW1 5552   1.610   4.683   6.756
 1551SOL    HW2 5553   1.739   4.781   6.735
 1552SOL     OW 5554   1.740   5.570   0.830
 1552SOL    HW1 5555   1.665   5.620   0.786
 1552SOL    HW2 5556   1.762   5.488   0.777
 1553SOL     OW 5557   6.952   1.754   6.662
 1553SOL    HW1 5558   6.857   1.780   6.672
 1553SOL    HW2 5559   7.001   1.823   6.610
 1554SOL     OW 5560   3.436   2.108   3.585
 1554SOL    HW1 5561   3.532   2.084   3.599
 1554SOL    HW2 5562   3.427   2.208   3.579
 1555SOL     OW 5563   5.618   3.476   6.851
 1555SOL    HW1 5564   5.659   3.438   6.769
 1555SOL    HW2 5565   5.523   3.502   6.832
 1556SOL     OW 5566   1.692   1.544   6.286
 1556SOL    HW1 5567   1.711   1.603   6.364
 1556SOL    HW2 5568   1.711   1.595   6.201
 1557SOL     OW 5569   2.364   3.159   5.619
 1557SOL    HW1 5570   2.299   3.146   5.545
 1557SOL    HW2 5571   2.373   3.257   5.639
 1558SOL     OW 5572   5.909   0.747   4.844
 1558SOL    HW1 5573   5.842   0.684   4.804
 1558SOL    HW2 5574   5.952   0.800   4.771
 1559SOL     OW 5575   1.799   2.998   6.712
 1559SOL    HW1 5576   1.826   2.902   6.720
 1559SOL    HW2 5577   1.707   3.004   6.673
 1560SOL     OW 5578   0.070   0.627   5.801
 1560SOL    HW1 5579   0.002   0.554   5.797
 1560SOL    HW2 5580   0.031   0.712   5.765
 1561SOL     OW 5581   4.842   6.203   3.653
 1561SOL    HW1 5582   4.857   6.293   3.612
 1561SOL    HW2 5583   4.924   6.147   3.642
 1562SOL     OW 5584   4.953   6.274   2.444
 1562SOL    HW1 5585   4.916   6.228   2.363
 1562SOL    HW2 5586   5.052   6.261   2.448
 1563SOL     OW 5587   2.930   0.801   5.315
 1563SOL    HW1 5588   2.843   0.811   5.265
 1563SOL    HW2 5589   2.952   0.888   5.359
 1564SOL     OW 5590   1.280   0.743   3.636
 1564SOL    HW1 5591   1.199   0.714   3.585
 1564SOL    HW2 5592   1.361   0.729   3.580
 1565SOL     OW 5593   4.781   4.577   3.281
 1565SOL    HW1 5594   4.689   4.568   3.243
 1565SOL    HW2 5595   4.841   4.618   3.213
 1566SOL     OW 5596   5.901   4.358   2.807
 1566SOL    HW1 5597   5.884   4.357   2.905
 1566SOL    HW2 5598   5.882   4.267   2.769
 1567SOL     OW 5599   6.698   6.056   0.936
 1567SOL    HW1 5600   6.725   6.120   0.864
 1567SOL    HW2 5601   6.757   5.976   0.934
 1568SOL     OW 5602   1.389   7.018   0.213
 1568SOL    HW1 5603   1.327   0.043   0.272
 1568SOL    HW2 5604   1.359   0.001   0.118
 1569SOL     OW 5605   4.543   6.082   3.168
 1569SOL    HW1 5606   4.492   6.053   3.087
 1569SOL    HW2 5607   4.524   6.178   3.187
 1570SOL     OW 5608   1.788   6.823   0.720
 1570SOL    HW1 5609   1.871   6.858   0.764
 1570SOL    HW2 5610   1.809   6.737   0.673
 1571SOL     OW 5611   5.567   2.903   0.863
 1571SOL    HW1 5612   5.581   2.814   0.906
 1571SOL    HW2 5613   5.655   2.944   0.842
 1572SOL     OW 5614   0.525   0.272   1.628
 1572SOL    HW1 5615   0.496   0.196   1.686
 1572SOL    HW2 5616   0.617   0.301   1.656
 1573SOL     OW 5617   5.005   2.114   1.809
 1573SOL    HW1 5618   5.065   2.192   1.792
 1573SOL    HW2 5619   5.051   2.030   1.778
 1574SOL     OW 5620   6.450   1.593   1.736
 1574SOL    HW1 5621   6.537   1.556   1.768
 1574SOL    HW2 5622   6.426   1.673   1.790
 1575SOL     OW 5623   2.730   1.533   0.352
 1575SOL    HW1 5624   2.820   1.502   0.382
 1575SOL    HW2 5625   2.665   1.524   0.428
 1576SOL     OW 5626   6.225   6.448   4.283
 1576SOL    HW1 5627   6.152   6.516   4.280
 1576SOL    HW2 5628   6.214   6.390   4.365
 1577SOL     OW 5629   3.012   1.862   4.321
 1577SOL    HW1 5630   2.982   1.900   4.408
 1577SOL    HW2 5631   3.106   1.831   4.328
 1578SOL     OW 5632   6.149   3.518   5.583
 1578SOL    HW1 5633   6.162   3.419   5.573
 1578SOL    HW2 5634   6.235   3.565   5.565
 1579SOL     OW 5635   7.012   1.466   3.501
 1579SOL    HW1 5636   0.077   1.507   3.496
 1579SOL    HW2 5637   6.961   1.507   3.577
 1580SOL     OW 5638   2.851   3.839   5.152
 1580SOL    HW1 5639   2.896   3.923   5.119
 1580SOL    HW2 5640   2.775   3.864   5.213
 1581SOL     OW 5641   0.317   4.508   4.708
 1581SOL    HW1 5642   0.344   4.425   4.758
 1581SOL    HW2 5643   0.264   4.567   4.769
 1582SOL     OW 5644   1.476   6.585   4.728
 1582SOL    HW1 5645   1.543   6.511   4.731
 1582SOL    HW2 5646   1.408   6.565   4.658
 1583SOL     OW 5647   1.080   2.891   4.370
 1583SOL    HW1 5648   1.039   2.973   4.331
 1583SOL    HW2 5649   1.035   2.810   4.333
 1584SOL     OW 5650   1.759   6.838   4.709
 1584SOL    HW1 5651   1.698   6.778   4.760
 1584SOL    HW2 5652   1.709   6.881   4.634
 1585SOL     OW 5653   5.670   1.904   3.255
 1585SOL    HW1 5654   5.630   1.887   3.165
 1585SOL    HW2 5655   5.712   1.820   3.289
 1586SOL     OW 5656   3.612   4.180   1.937
 1586SOL    HW1 5657   3.621   4.279   1.945
 1586SOL    HW2 5658   3.689   4.136   1.984
 1587SOL     OW 5659   2.939   4.764   6.977
 1587SOL    HW1 5660   2.934   4.668   7.002
 1587SOL    HW2 5661   3.034   4.789   6.958
 1588SOL     OW 5662   4.498   1.467   3.331
 1588SOL    HW1 5663   4.501   1.537   3.402
 1588SOL    HW2 5664   4.434   1.395   3.358
 1589SOL     OW 5665   5.533   4.159   3.536
 1589SOL    HW1 5666   5.625   4.187   3.567
 1589SOL    HW2 5667   5.470   4.236   3.545
 1590SOL     OW 5668   2.218   6.916   5.924
 1590SOL    HW1 5669   2.183   6.993   5.978
 1590SOL    HW2 5670   2.141   6.866   5.885
 1591SOL     OW 5671   1.582   5.158   3.122
 1591SOL    HW1 5672   1.628   5.244   3.099
 1591SOL    HW2 5673   1.501   5.178   3.177
 1592SOL     OW 5674   2.613   4.068   1.678
 1592SOL    HW1 5675   2.566   4.070   1.590
 1592SOL    HW2 5676   2.560   4.120   1.746
 1593SOL     OW 5677   0.807   6.614   3.532
 1593SOL    HW1 5678   0.776   6.521   3.555
 1593SOL    HW2 5679   0.732   6.678   3.547
 1594SOL     OW 5680   0.401   4.759   3.039
 1594SOL    HW1 5681   0.398   4.839   3.100
 1594SOL    HW2 5682   0.496   4.729   3.027
 1595SOL     OW 5683   0.477   4.982   6.104
 1595SOL    HW1 5684   0.519   4.984   6.014
 1595SOL    HW2 5685   0.404   5.051   6.108
 1596SOL     OW 5686   1.345   3.724   5.935
 1596SOL    HW1 5687   1.425   3.769   5.896
 1596SOL    HW2 5688   1.372   3.638   5.978
 1597SOL     OW 5689   3.036   5.564   0.702
 1597SOL    HW1 5690   3.042   5.530   0.608
 1597SOL    HW2 5691   3.003   5.659   0.700
 1598SOL     OW 5692   0.439   4.194   0.395
 1598SOL    HW1 5693   0.435   4.104   0.351
 1598SOL    HW2 5694   0.474   4.184   0.488
 1599SOL     OW 5695   4.456   3.693   5.590
 1599SOL    HW1 5696   4.542   3.642   5.598
 1599SOL    HW2 5697   4.413   3.672   5.502
 1600SOL     OW 5698   5.011   1.994   4.796
 1600SOL    HW1 5699   4.970   2.063   4.856
 1600SOL    HW2 5700   5.108   2.016   4.781
 1601SOL     OW 5701   0.765   5.141   4.898
 1601SOL    HW1 5702   0.847   5.092   4.930
 1601SOL    HW2 5703   0.791   5.205   4.826
 1602SOL     OW 5704   1.920   5.766   4.043
 1602SOL    HW1 5705   1.905   5.865   4.041
 1602SOL    HW2 5706   2.010   5.745   4.004
 1603SOL     OW 5707   1.195   6.213   1.826
 1603SOL    HW1 5708   1.215   6.116   1.812
 1603SOL    HW2 5709   1.130   6.244   1.756
 1604SOL     OW 5710   5.754   5.062   6.808
 1604SOL    HW1 5711   5.709   5.004   6.875
 1604SOL    HW2 5712   5.820   5.008   6.755
 1605SOL     OW 5713   6.586   0.157   1.845
 1605SOL    HW1 5714   6.594   0.184   1.749
 1605SOL    HW2 5715   6.490   0.147   1.869
 1606SOL     OW 5716   4.584   0.679   5.153
 1606SOL    HW1 5717   4.584   0.697   5.251
 1606SOL    HW2 5718   4.516   0.737   5.108
 1607SOL     OW 5719   5.250   2.825   1.201
 1607SOL    HW1 5720   5.181   2.790   1.264
 1607SOL    HW2 5721   5.221   2.914   1.167
 1608SOL     OW 5722   1.515   0.259   5.742
 1608SOL    HW1 5723   1.458   0.216   5.811
 1608SOL    HW2 5724   1.608   0.271   5.778
 1609SOL     OW 5725   5.070   1.469   6.632
 1609SOL    HW1 5726   5.042   1.411   6.556
 1609SOL    HW2 5727   5.014   1.553   6.632
 1610SOL     OW 5728   5.369   4.295   5.395
 1610SOL    HW1 5729   5.468   4.312   5.398
 1610SOL    HW2 5730   5.330   4.336   5.313
 1611SOL     OW 5731   3.872   3.459   1.979
 1611SOL    HW1 5732   3.911   3.370   1.957
 1611SOL    HW2 5733   3.928   3.531   1.938
 1612SOL     OW 5734   2.651   0.881   5.439
 1612SOL    HW1 5735   2.575   0.927   5.485
 1612SOL    HW2 5736   2.655   0.786   5.469
 1613SOL     OW 5737   2.325   5.947   0.969
 1613SOL    HW1 5738   2.331   5.862   1.022
 1613SOL    HW2 5739   2.306   5.924   0.874
 1614SOL     OW 5740   6.610   4.147   0.426
 1614SOL    HW1 5741   6.640   4.241   0.407
 1614SOL    HW2 5742   6.569   4.144   0.517
 1615SOL     OW 5743   6.458   4.786   1.501
 1615SOL    HW1 5744   6.528   4.808   1.568
 1615SOL    HW2 5745   6.466   4.848   1.423
 1616SOL     OW 5746   4.836   1.803   5.952
 1616SOL    HW1 5747   4.773   1.734   5.917
 1616SOL    HW2 5748   4.810   1.893   5.916
 1617SOL     OW 5749   6.012   6.952   1.636
 1617SOL    HW1 5750   5.919   6.984   1.616
 1617SOL    HW2 5751   6.037   6.881   1.571
 1618SOL     OW 5752   0.792   4.164   1.008
 1618SOL    HW1 5753   0.821   4.099   0.938
 1618SOL    HW2 5754   0.782   4.116   1.096
 1619SOL     OW 5755   1.738   2.642   4.508
 1619SOL    HW1 5756   1.778   2.605   4.592
 1619SOL    HW2 5757   1.805   2.701   4.463
 1620SOL     OW 5758   2.007   5.642   0.760
 1620SOL    HW1 5759   2.020   5.630   0.661
 1620SOL    HW2 5760   1.913   5.616   0.784
 1621SOL     OW 5761   0.441   0.997   0.120
 1621SOL    HW1 5762   0.540   0.996   0.111
 1621SOL    HW2 5763   0.406   0.903   0.113
 1622SOL     OW 5764   1.521   1.981   4.847
 1622SOL    HW1 5765   1.440   2.036   4.826
 1622SOL    HW2 5766   1.598   2.013   4.791
 1623SOL     OW 5767   2.554   2.811   6.084
 1623SOL    HW1 5768   2.608   2.827   6.167
 1623SOL    HW2 5769   2.589   2.731   6.036
 1624SOL     OW 5770   2.529   0.779   6.034
 1624SOL    HW1 5771   2.548   0.859   6.092
 1624SOL    HW2 5772   2.614   0.743   5.998
 1625SOL     OW 5773   1.455   5.234   2.664
 1625SOL    HW1 5774   1.429   5.329   2.652
 1625SOL    HW2 5775   1.553   5.223   2.644
 1626SOL     OW 5776   2.324   1.861   6.662
 1626SOL    HW1 5777   2.251   1.798   6.687
 1626SOL    HW2 5778   2.412   1.814   6.667
 1627SOL     OW 5779   6.994   2.143   4.477
 1627SOL    HW1 5780   0.045   2.089   4.443
 1627SOL    HW2 5781   6.908   2.101   4.449
 1628SOL     OW 5782   4.212   4.999   6.436
 1628SOL    HW1 5783   4.173   5.040   6.518
 1628SOL    HW2 5784   4.141   4.990   6.366
 1629SOL     OW 5785   2.509   2.525   4.165
 1629SOL    HW1 5786   2.487   2.595   4.233
 1629SOL    HW2 5787   2.594   2.478   4.190
 1630SOL     OW 5788   0.898   6.277   5.766
 1630SOL    HW1 5789   0.808   6.235   5.763
 1630SOL    HW2 5790   0.890   6.371   5.801
 1631SOL     OW 5791   6.531   0.493   5.690
 1631SOL    HW1 5792   6.437   0.527   5.678
 1631SOL    HW2 5793   6.535   0.436   5.772
 1632SOL     OW 5794   0.011   1.152   6.910
 1632SOL    HW1 5795   0.090   1.197   6.951
 1632SOL    HW2 5796   6.961   1.153   6.974
 1633SOL     OW 5797   5.292   2.563   3.341
 1633SOL    HW1 5798   5.267   2.546   3.436
 1633SOL    HW2 5799   5.209   2.576   3.286
 1634SOL     OW 5800   4.315   5.942   5.558
 1634SOL    HW1 5801   4.336   5.945   5.656
 1634SOL    HW2 5802   4.327   5.848   5.525
 1635SOL     OW 5803   6.377   5.366   4.640
 1635SOL    HW1 5804   6.278   5.372   4.653
 1635SOL    HW2 5805   6.396   5.306   4.562
 1636SOL     OW 5806   2.146   4.324   1.375
 1636SOL    HW1 5807   2.232   4.373   1.388
 1636SOL    HW2 5808   2.073   4.390   1.354
 1637SOL     OW 5809   6.611   1.641   3.012
 1637SOL    HW1 5810   6.636   1.609   3.104
 1637SOL    HW2 5811   6.685   1.697   2.975
 1638SOL     OW 5812   0.679   3.883   4.110
 1638SOL    HW1 5813   0.745   3.935   4.164
 1638SOL    HW2 5814   0.587   3.898   4.146
 1639SOL     OW 5815   5.303   6.265   2.449
 1639SOL    HW1 5816   5.385   6.321   2.458
 1639SOL    HW2 5817   5.301   6.221   2.359
 1640SOL     OW 5818   5.959   1.859   0.356
 1640SOL    HW1 5819   5.901   1.793   0.405
 1640SOL    HW2 5820   5.912   1.887   0.272
 1641SOL     OW 5821   6.107   2.897   3.501
 1641SOL    HW1 5822   6.177   2.918   3.433
 1641SOL    HW2 5823   6.136   2.819   3.556
 1642SOL     OW 5824   6.769   3.351   0.352
 1642SOL    HW1 5825   6.689   3.311   0.308
 1642SOL    HW2 5826   6.774   3.320   0.447
 1643SOL     OW 5827   3.209   6.273   4.349
 1643SOL    HW1 5828   3.162   6.186   4.364
 1643SOL    HW2 5829   3.280   6.284   4.419
 1644SOL     OW 5830   2.436   2.421   0.972
 1644SOL    HW1 5831   2.432   2.487   0.897
 1644SOL    HW2 5832   2.515   2.441   1.029
 1645SOL     OW 5833   3.182   6.416   5.093
 1645SOL    HW1 5834   3.225   6.497   5.053
 1645SOL    HW2 5835   3.091   6.439   5.126
 1646SOL     OW 5836   3.109   5.297   1.072
 1646SOL    HW1 5837   3.079   5.391   1.057
 1646SOL    HW2 5838   3.038   5.245   1.120
 1647SOL     OW 5839   5.591   2.301   4.172
 1647SOL    HW1 5840   5.565   2.329   4.264
 1647SOL    HW2 5841   5.574   2.376   4.108
 1648SOL     OW 5842   5.349   6.379   1.798
 1648SOL    HW1 5843   5.428   6.343   1.848
 1648SOL    HW2 5844   5.342   6.333   1.710
 1649SOL     OW 5845   3.284   0.563   3.083
 1649SOL    HW1 5846   3.316   0.651   3.048
 1649SOL    HW2 5847   3.184   0.563   3.085
 1650SOL     OW 5848   3.007   6.782   4.179
 1650SOL    HW1 5849   2.914   6.749   4.162
 1650SOL    HW2 5850   3.073   6.709   4.161
 1651SOL     OW 5851   0.517   0.679   1.076
 1651SOL    HW1 5852   0.588   0.611   1.060
 1651SOL    HW2 5853   0.541   0.734   1.156
 1652SOL     OW 5854   1.521   1.974   1.315
 1652SOL    HW1 5855   1.573   2.051   1.279
 1652SOL    HW2 5856   1.575   1.927   1.385
 1653SOL     OW 5857   0.690   5.729   1.344
 1653SOL    HW1 5858   0.606   5.707   1.394
 1653SOL    HW2 5859   0.667   5.775   1.259
 1654SOL     OW 5860   0.006   3.111   2.173
 1654SOL    HW1 5861   7.003   3.137   2.081
 1654SOL    HW2 5862   0.104   3.129   2.183
 1655SOL     OW 5863   5.463   3.875   6.165
 1655SOL    HW1 5864   5.486   3.816   6.243
 1655SOL    HW2 5865   5.548   3.908   6.122
 1656SOL     OW 5866   1.786   4.163   3.284
 1656SOL    HW1 5867   1.713   4.215   3.239
 1656SOL    HW2 5868   1.874   4.189   3.246
 1657SOL     OW 5869   0.617   1.399   5.221
 1657SOL    HW1 5870   0.527   1.386   5.179
 1657SOL    HW2 5871   0.607   1.422   5.317
 1658SOL     OW 5872   6.682   6.874   2.838
 1658SOL    HW1 5873   6.756   6.812   2.863
 1658SOL    HW2 5874   6.707   6.967   2.864
 1659SOL     OW 5875   3.623   1.733   6.265
 1659SOL    HW1 5876   3.617   1.821   6.217
 1659SOL    HW2 5877   3.547   1.725   6.330
 1660SOL     OW 5878   1.135   5.606   3.739
 1660SOL    HW1 5879   1.133   5.537   3.812
 1660SOL    HW2 5880   1.206   5.582   3.673
 1661SOL     OW 5881   3.561   1.671   1.792
 1661SOL    HW1 5882   3.526   1.579   1.808
 1661SOL    HW2 5883   3.657   1.675   1.820
 1662SOL     OW 5884   6.070   1.126   3.577
 1662SOL    HW1 5885   6.131   1.111   3.500
 1662SOL    HW2 5886   6.116   1.182   3.646
 1663SOL     OW 5887   2.600   0.549   3.250
 1663SOL    HW1 5888   2.501   0.542   3.232
 1663SOL    HW2 5889   2.634   0.635   3.212
 1664SOL     OW 5890   1.897   0.460   4.130
 1664SOL    HW1 5891   1.914   0.480   4.033
 1664SOL    HW2 5892   1.863   0.542   4.175
 1665SOL     OW 5893   6.968   1.561   3.244
 1665SOL    HW1 5894   6.927   1.493   3.183
 1665SOL    HW2 5895   6.987   1.520   3.333
 1666SOL     OW 5896   6.041   2.873   0.570
 1666SOL    HW1 5897   6.123   2.885   0.515
 1666SOL    HW2 5898   6.064   2.822   0.653
 1667SOL     OW 5899   5.247   6.754   0.568
 1667SOL    HW1 5900   5.275   6.682   0.504
 1667SOL    HW2 5901   5.321   6.819   0.579
 1668SOL     OW 5902   4.868   6.492   5.185
 1668SOL    HW1 5903   4.814   6.483   5.102
 1668SOL    HW2 5904   4.895   6.588   5.197
 1669SOL     OW 5905   6.393   6.495   0.147
 1669SOL    HW1 5906   6.317   6.495   0.212
 1669SOL    HW2 5907   6.418   6.589   0.124
 1670SOL     OW 5908   6.930   5.778   5.937
 1670SOL    HW1 5909   6.942   5.725   5.853
 1670SOL    HW2 5910   6.955   5.873   5.920
 1671SOL     OW 5911   4.008   2.429   1.151
 1671SOL    HW1 5912   3.914   2.404   1.170
 1671SOL    HW2 5913   4.030   2.515   1.198
 1672SOL     OW 5914   2.136   3.650   2.872
 1672SOL    HW1 5915   2.122   3.743   2.839
 1672SOL    HW2 5916   2.132   3.649   2.972
 1673SOL     OW 5917   0.655   2.659   4.799
 1673SOL    HW1 5918   0.688   2.611   4.880
 1673SOL    HW2 5919   0.564   2.625   4.775
 1674SOL     OW 5920   1.460   3.770   1.632
 1674SOL    HW1 5921   1.519   3.851   1.638
 1674SOL    HW2 5922   1.515   3.687   1.643
 1675SOL     OW 5923   4.335   0.145   6.516
 1675SOL    HW1 5924   4.271   0.120   6.443
 1675SOL    HW2 5925   4.402   0.209   6.480
 1676SOL     OW 5926   3.161   1.557   2.908
 1676SOL    HW1 5927   3.072   1.582   2.947
 1676SOL    HW2 5928   3.193   1.630   2.848
 1677SOL     OW 5929   4.786   2.096   5.539
 1677SOL    HW1 5930   4.794   2.187   5.498
 1677SOL    HW2 5931   4.806   2.026   5.470
 1678SOL     OW 5932   5.722   4.694   4.324
 1678SOL    HW1 5933   5.773   4.643   4.255
 1678SOL    HW2 5934   5.644   4.740   4.282
 1679SOL     OW 5935   1.773   3.835   5.581
 1679SOL    HW1 5936   1.851   3.773   5.570
 1679SOL    HW2 5937   1.727   3.846   5.493
 1680SOL     OW 5938   0.798   1.080   4.192
 1680SOL    HW1 5939   0.850   1.164   4.177
 1680SOL    HW2 5940   0.815   1.045   4.284
 1681SOL     OW 5941   6.591   5.553   1.274
 1681SOL    HW1 5942   6.614   5.508   1.361
 1681SOL    HW2 5943   6.494   5.541   1.255
 1682SOL     OW 5944   0.315   2.957   5.084
 1682SOL    HW1 5945   0.249   2.999   5.022
 1682SOL    HW2 5946   0.407   2.962   5.044
 1683SOL     OW 5947   4.285   5.056   0.824
 1683SOL    HW1 5948   4.277   5.034   0.921
 1683SOL    HW2 5949   4.260   5.152   0.810
 1684SOL     OW 5950   1.328   6.291   3.649
 1684SOL    HW1 5951   1.264   6.301   3.574
 1684SOL    HW2 5952   1.344   6.194   3.668
 1685SOL     OW 5953   1.917   1.186   6.439
 1685SOL    HW1 5954   1.976   1.173   6.360
 1685SOL    HW2 5955   1.862   1.104   6.455
 1686SOL     OW 5956   1.978   5.472   5.820
 1686SOL    HW1 5957   1.960   5.445   5.915
 1686SOL    HW2 5958   1.897   5.456   5.765
 1687SOL     OW 5959   2.022   2.832   1.932
 1687SOL    HW1 5960   2.068   2.915   1.898
 1687SOL    HW2 5961   2.090   2.774   1.977
 1688SOL     OW 5962   1.166   1.814   3.530
 1688SOL    HW1 5963   1.157   1.784   3.625
 1688SOL    HW2 5964   1.255   1.785   3.495
 1689SOL     OW 5965   3.298   1.217   2.172
 1689SOL    HW1 5966   3.318   1.157   2.250
 1689SOL    HW2 5967   3.370   1.285   2.163
 1690SOL     OW 5968   1.462   2.299   3.360
 1690SOL    HW1 5969   1.443   2.338   3.270
 1690SOL    HW2 5970   1.384   2.245   3.391
 1691SOL     OW 5971   5.419   4.233   3.301
 1691SOL    HW1 5972   5.410   4.197   3.208
 1691SOL    HW2 5973   5.454   4.162   3.362
 1692SOL     OW 5974   0.138   0.107   1.245
 1692SOL    HW1 5975   0.093   0.018   1.252
 1692SOL    HW2 5976   0.198   0.108   1.165
 1693SOL     OW 5977   1.804   2.743   3.272
 1693SOL    HW1 5978   1.815   2.842   3.283
 1693SOL    HW2 5979   1.873   2.695   3.326
 1694SOL     OW 5980   3.851   6.228   4.003
 1694SOL    HW1 5981   3.854   6.245   3.904
 1694SOL    HW2 5982   3.845   6.129   4.019
 1695SOL     OW 5983   2.504   1.345   4.419
 1695SOL    HW1 5984   2.461   1.403   4.489
 1695SOL    HW2 5985   2.445   1.342   4.338
 1696SOL     OW 5986   5.170   5.426   0.725
 1696SOL    HW1 5987   5.234   5.353   0.748
 1696SOL    HW2 5988   5.220   5.513   0.717
 1697SOL     OW 5989   0.349   6.827   1.151
 1697SOL    HW1 5990   0.421   6.881   1.106
 1697SOL    HW2 5991   0.388   6.782   1.231
 1698SOL     OW 5992   4.593   1.778   1.368
 1698SOL    HW1 5993   4.657   1.701   1.365
 1698SOL    HW2 5994   4.643   1.864   1.362
 1699SOL     OW 5995   2.819   1.993   1.696
 1699SOL    HW1 5996   2.777   2.084   1.696
 1699SOL    HW2 5997   2.897   1.992   1.758
 1700SOL     OW 5998   6.298   2.244   3.312
 1700SOL    HW1 5999   6.242   2.163   3.299
 1700SOL    HW2 6000   6.319   2.256   3.410
 1701SOL     OW 6001   5.514   2.659   4.637
 1701SOL    HW1 6002   5.573   2.585   4.607
 1701SOL    HW2 6003   5.429   2.658   4.583
 1702SOL     OW 6004   6.291   3.834   0.778
 1702SOL    HW1 6005   6.282   3.745   0.823
 1702SOL    HW2 6006   6.346   3.895   0.836
 1703SOL     OW 6007   3.271   4.118   2.552
 1703SOL    HW1 6008   3.244   4.204   2.596
 1703SOL    HW2 6009   3.198   4.088   2.490
 1704SOL     OW 6010   0.429   1.189   0.845
 1704SOL    HW1 6011   0.350   1.199   0.784
 1704SOL    HW2 6012   0.434   1.094   0.877
 1705SOL     OW 6013   3.285   2.074   1.917
 1705SOL    HW1 6014   3.309   2.151   1.859
 1705SOL    HW2 6015   3.356   2.061   1.987
 1706SOL     OW 6016   3.904   6.978   1.440
 1706SOL    HW1 6017   3.963   0.030   1.421
 1706SOL    HW2 6018   3.847   6.958   1.360
 1707SOL     OW 6019   4.034   1.650   2.003
 1707SOL    HW1 6020   4.007   1.571   2.059
 1707SOL    HW2 6021   4.068   1.723   2.063
 1708SOL     OW 6022   5.953   6.109   3.205
 1708SOL    HW1 6023   6.004   6.099   3.120
 1708SOL    HW2 6024   5.977   6.196   3.249
 1709SOL     OW 6025   2.656   6.658   1.674
 1709SOL    HW1 6026   2.599   6.595   1.622
 1709SOL    HW2 6027   2.600   6.733   1.709
 1710SOL     OW 6028   6.697   4.286   3.850
 1710SOL    HW1 6029   6.753   4.281   3.933
 1710SOL    HW2 6030   6.736   4.353   3.787
 1711SOL     OW 6031   1.808   4.546   5.178
 1711SOL    HW1 6032   1.874   4.546   5.103
 1711SOL    HW2 6033   1.809   4.456   5.222
 1712SOL     OW 6034   0.449   3.466   6.373
 1712SOL    HW1 6035   0.390   3.498   6.299
 1712SOL    HW2 6036   0.520   3.406   6.336
 1713SOL     OW 6037   2.660   1.996   1.271
 1713SOL    HW1 6038   2.678   2.093   1.254
 1713SOL    HW2 6039   2.734   1.958   1.327
 1714SOL     OW 6040   3.867   1.685   6.048
 1714SOL    HW1 6041   3.834   1.601   6.006
 1714SOL    HW2 6042   3.797   1.756   6.042
 1715SOL     OW 6043   0.158   3.472   2.883
 1715SOL    HW1 6044   0.229   3.459   2.814
 1715SOL    HW2 6045   0.086   3.403   2.871
 1716SOL     OW 6046   5.770   6.241   1.554
 1716SOL    HW1 6047   5.681   6.269   1.519
 1716SOL    HW2 6048   5.840   6.307   1.523
 1717SOL     OW 6049   2.621   6.200   6.410
 1717SOL    HW1 6050   2.655   6.212   6.503
 1717SOL    HW2 6051   2.586   6.287   6.376
 1718SOL     OW 6052   1.808   2.297   0.414
 1718SOL    HW1 6053   1.824   2.205   0.377
 1718SOL    HW2 6054   1.800   2.292   0.513
 1719SOL     OW 6055   2.372   3.842   1.200
 1719SOL    HW1 6056   2.310   3.869   1.274
 1719SOL    HW2 6057   2.322   3.841   1.113
 1720SOL     OW 6058   6.523   2.009   1.570
 1720SOL    HW1 6059   6.572   2.051   1.493
 1720SOL    HW2 6060   6.589   1.972   1.636
 1721SOL     OW 6061   1.331   6.770   2.391
 1721SOL    HW1 6062   1.397   6.748   2.462
 1721SOL    HW2 6063   1.359   6.727   2.305
 1722SOL     OW 6064   5.212   1.304   3.224
 1722SOL    HW1 6065   5.292   1.287   3.283
 1722SOL    HW2 6066   5.167   1.388   3.254
 1723SOL     OW 6067   6.761   2.095   3.597
 1723SOL    HW1 6068   6.822   2.045   3.536
 1723SOL    HW2 6069   6.757   2.191   3.569
 1724SOL     OW 6070   5.954   1.126   0.859
 1724SOL    HW1 6071   5.966   1.207   0.802
 1724SOL    HW2 6072   6.008   1.051   0.821
 1725SOL     OW 6073   3.431   4.228   0.348
 1725SOL    HW1 6074   3.361   4.193   0.411
 1725SOL    HW2 6075   3.505   4.270   0.401
 1726SOL     OW 6076   6.910   4.456   4.654
 1726SOL    HW1 6077   6.812   4.458   4.670
 1726SOL    HW2 6078   6.928   4.428   4.559
 1727SOL     OW 6079   3.601   2.924   3.819
 1727SOL    HW1 6080   3.584   3.022   3.813
 1727SOL    HW2 6081   3.612   2.898   3.915
 1728SOL     OW 6082   5.114   4.846   4.264
 1728SOL    HW1 6083   5.078   4.861   4.356
 1728SOL    HW2 6084   5.040   4.822   4.202
 1729SOL     OW 6085   2.168   3.567   3.738
 1729SOL    HW1 6086   2.088   3.547   3.795
 1729SOL    HW2 6087   2.190   3.664   3.746
 1730SOL     OW 6088   6.510   0.856   5.062
 1730SOL    HW1 6089   6.581   0.789   5.039
 1730SOL    HW2 6090   6.453   0.874   4.982
 1731SOL     OW 6091   1.203   5.174   2.558
 1731SOL    HW1 6092   1.201   5.108   2.483
 1731SOL    HW2 6093   1.294   5.172   2.601
 1732SOL     OW 6094   1.881   4.073   6.279
 1732SOL    HW1 6095   1.924   4.112   6.198
 1732SOL    HW2 6096   1.843   4.147   6.334
 1733SOL     OW 6097   1.905   3.132   2.321
 1733SOL    HW1 6098   1.907   3.228   2.350
 1733SOL    HW2 6099   1.850   3.123   2.238
 1734SOL     OW 6100   4.686   3.121   1.577
 1734SOL    HW1 6101   4.643   3.083   1.659
 1734SOL    HW2 6102   4.615   3.153   1.514
 1735SOL     OW 6103   5.970   5.596   1.805
 1735SOL    HW1 6104   5.951   5.498   1.800
 1735SOL    HW2 6105   5.899   5.646   1.756
 1736SOL     OW 6106   4.890   1.995   0.088
 1736SOL    HW1 6107   4.906   1.897   0.093
 1736SOL    HW2 6108   4.973   2.041   0.055
 1737SOL     OW 6109   3.169   0.073   3.905
 1737SOL    HW1 6110   3.215   0.147   3.955
 1737SOL    HW2 6111   3.158   0.100   3.809
 1738SOL     OW 6112   2.084   2.652   3.828
 1738SOL    HW1 6113   1.998   2.654   3.878
 1738SOL    HW2 6114   2.123   2.744   3.825
 1739SOL     OW 6115   4.655   2.585   4.963
 1739SOL    HW1 6116   4.637   2.635   5.048
 1739SOL    HW2 6117   4.592   2.508   4.956
 1740SOL     OW 6118   0.151   0.927   6.800
 1740SOL    HW1 6119   0.245   0.930   6.832
 1740SOL    HW2 6120   0.098   0.999   6.845
 1741SOL     OW 6121   2.599   1.159   2.483
 1741SOL    HW1 6122   2.599   1.101   2.565
 1741SOL    HW2 6123   2.602   1.255   2.510
 1742SOL     OW 6124   3.946   5.809   5.810
 1742SOL    HW1 6125   4.018   5.750   5.773
 1742SOL    HW2 6126   3.866   5.805   5.749
 1743SOL     OW 6127   2.341   1.459   2.567
 1743SOL    HW1 6128   2.440   1.475   2.569
 1743SOL    HW2 6129   2.305   1.481   2.476
 1744SOL     OW 6130   1.438   6.658   1.808
 1744SOL    HW1 6131   1.496   6.579   1.788
 1744SOL    HW2 6132   1.477   6.740   1.765
 1745SOL     OW 6133   6.574   1.599   4.753
 1745SOL    HW1 6134   6.668   1.622   4.776
 1745SOL    HW2 6135   6.560   1.501   4.762
 1746SOL     OW 6136   2.463   5.779   5.627
 1746SOL    HW1 6137   2.447   5.724   5.545
 1746SOL    HW2 6138   2.470   5.718   5.707
 1747SOL     OW 6139   5.093   6.724   2.816
 1747SOL    HW1 6140   5.049   6.813   2.831
 1747SOL    HW2 6141   5.136   6.693   2.901
 1748SOL     OW 6142   6.838   0.834   4.129
 1748SOL    HW1 6143   6.914   0.891   4.160
 1748SOL    HW2 6144   6.871   0.742   4.110
 1749SOL     OW 6145   3.411   6.544   5.648
 1749SOL    HW1 6146   3.423   6.453   5.607
 1749SOL    HW2 6147   3.319   6.551   5.686
 1750SOL     OW 6148   5.467   1.517   3.373
 1750SOL    HW1 6149   5.465   1.505   3.273
 1750SOL    HW2 6150   5.507   1.606   3.395
 1751SOL     OW 6151   2.957   4.825   4.510
 1751SOL    HW1 6152   3.007   4.829   4.597
 1751SOL    HW2 6153   2.859   4.814   4.529
 1752SOL     OW 6154   6.633   2.557   1.717
 1752SOL    HW1 6155   6.536   2.572   1.737
 1752SOL    HW2 6156   6.689   2.605   1.784
 1753SOL     OW 6157   0.723   1.149   0.347
 1753SOL    HW1 6158   0.683   1.095   0.420
 1753SOL    HW2 6159   0.820   1.164   0.366
 1754SOL     OW 6160   3.744   3.203   0.812
 1754SOL    HW1 6161   3.686   3.280   0.839
 1754SOL    HW2 6162   3.711   3.166   0.725
 1755SOL     OW 6163   5.887   5.038   2.151
 1755SOL    HW1 6164   5.851   5.076   2.066
 1755SOL    HW2 6165   5.945   4.959   2.131
 1756SOL     OW 6166   5.522   4.390   5.711
 1756SOL    HW1 6167   5.559   4.439   5.632
 1756SOL    HW2 6168   5.446   4.333   5.681
 1757SOL     OW 6169   2.059   6.864   4.767
 1757SOL    HW1 6170   2.076   6.909   4.680
 1757SOL    HW2 6171   1.963   6.837   4.773
 1758SOL     OW 6172   2.759   0.660   3.795
 1758SOL    HW1 6173   2.790   0.687   3.703
 1758SOL    HW2 6174   2.704   0.577   3.788
 1759SOL     OW 6175   0.317   5.472   6.154
 1759SOL    HW1 6176   0.226   5.485   6.113
 1759SOL    HW2 6177   0.332   5.542   6.224
 1760SOL     OW 6178   6.126   1.856   1.512
 1760SOL    HW1 6179   6.206   1.799   1.530
 1760SOL    HW2 6180   6.144   1.914   1.432
 1761SOL     OW 6181   6.689   6.878   0.524
 1761SOL    HW1 6182   6.700   6.978   0.521
 1761SOL    HW2 6183   6.721   6.844   0.613
 1762SOL     OW 6184   6.490   1.932   5.012
 1762SOL    HW1 6185   6.426   1.959   4.940
 1762SOL    HW2 6186   6.507   1.834   5.008
 1763SOL     OW 6187   1.395   4.142   4.248
 1763SOL    HW1 6188   1.440   4.174   4.331
 1763SOL    HW2 6189   1.367   4.046   4.260
 1764SOL     OW 6190   2.024   3.588   2.566
 1764SOL    HW1 6191   1.925   3.599   2.559
 1764SOL    HW2 6192   2.046   3.541   2.652
 1765SOL     OW 6193   3.464   1.974   6.948
 1765SOL    HW1 6194   3.430   1.881   6.937
 1765SOL    HW2 6195   3.549   1.985   6.896
 1766SOL     OW 6196   5.331   2.907   4.094
 1766SOL    HW1 6197   5.338   3.005   4.113
 1766SOL    HW2 6198   5.414   2.876   4.047
 1767SOL     OW 6199   5.162   4.062   2.569
 1767SOL    HW1 6200   5.225   4.132   2.535
 1767SOL    HW2 6201   5.133   4.004   2.492
 1768SOL     OW 6202   4.011   0.714   5.004
 1768SOL    HW1 6203   3.944   0.745   4.938
 1768SOL    HW2 6204   4.082   0.784   5.016
 1769SOL     OW 6205   4.171   2.210   4.259
 1769SOL    HW1 6206   4.235   2.208   4.183
 1769SOL    HW2 6207   4.220   2.232   4.344
 1770SOL     OW 6208   1.770   6.073   5.056
 1770SOL    HW1 6209   1.812   6.164   5.051
 1770SOL    HW2 6210   1.712   6.059   4.975
 1771SOL     OW 6211   2.761   5.226   6.732
 1771SOL    HW1 6212   2.795   5.271   6.649
 1771SOL    HW2 6213   2.802   5.270   6.812
 1772SOL     OW 6214   3.508   6.385   3.670
 1772SOL    HW1 6215   3.500   6.400   3.769
 1772SOL    HW2 6216   3.470   6.464   3.622
 1773SOL     OW 6217   2.362   4.899   5.753
 1773SOL    HW1 6218   2.340   4.883   5.849
 1773SOL    HW2 6219   2.309   4.977   5.719
 1774SOL     OW 6220   4.675   6.148   1.620
 1774SOL    HW1 6221   4.666   6.244   1.649
 1774SOL    HW2 6222   4.764   6.134   1.578
 1775SOL     OW 6223   1.847   4.144   3.550
 1775SOL    HW1 6224   1.763   4.143   3.605
 1775SOL    HW2 6225   1.826   4.179   3.459
 1776SOL     OW 6226   3.225   0.143   3.636
 1776SOL    HW1 6227   3.189   0.174   3.548
 1776SOL    HW2 6228   3.323   0.160   3.640
 1777SOL     OW 6229   3.700   5.470   5.884
 1777SOL    HW1 6230   3.764   5.538   5.848
 1777SOL    HW2 6231   3.633   5.447   5.814
 1778SOL     OW 6232   4.184   3.510   5.466
 1778SOL    HW1 6233   4.280   3.510   5.439
 1778SOL    HW2 6234   4.129   3.472   5.391
 1779SOL     OW 6235   4.383   0.869   4.486
 1779SOL    HW1 6236   4.378   0.773   4.513
 1779SOL    HW2 6237   4.363   0.927   4.566
 1780SOL     OW 6238   3.545   3.149   6.623
 1780SOL    HW1 6239   3.507   3.175   6.534
 1780SOL    HW2 6240   3.596   3.226   6.661
 1781SOL     OW 6241   4.275   6.016   3.417
 1781SOL    HW1 6242   4.291   5.922   3.447
 1781SOL    HW2 6243   4.344   6.042   3.349
 1782SOL     OW 6244   3.037   1.793   2.535
 1782SOL    HW1 6245   3.071   1.886   2.525
 1782SOL    HW2 6246   2.976   1.788   2.614
 1783SOL     OW 6247   1.642   5.150   6.388
 1783SOL    HW1 6248   1.641   5.083   6.462
 1783SOL    HW2 6249   1.550   5.158   6.349
 1784SOL     OW 6250   4.225   1.287   5.881
 1784SOL    HW1 6251   4.150   1.329   5.932
 1784SOL    HW2 6252   4.234   1.330   5.791
 1785SOL     OW 6253   6.216   3.821   3.588
 1785SOL    HW1 6254   6.148   3.792   3.521
 1785SOL    HW2 6255   6.222   3.921   3.590
 1786SOL     OW 6256   2.102   2.401   0.078
 1786SOL    HW1 6257   2.097   2.482   0.136
 1786SOL    HW2 6258   2.162   2.419   0.000
 1787SOL     OW 6259   3.424   1.105   5.036
 1787SOL    HW1 6260   3.333   1.122   5.075
 1787SOL    HW2 6261   3.421   1.116   4.937
 1788SOL     OW 6262   3.045   2.881   6.909
 1788SOL    HW1 6263   3.056   2.828   6.993
 1788SOL    HW2 6264   3.128   2.874   6.854
 1789SOL     OW 6265   6.136   2.015   3.271
 1789SOL    HW1 6266   6.074   1.968   3.208
 1789SOL    HW2 6267   6.089   2.034   3.357
 1790SOL     OW 6268   4.066   5.783   3.843
 1790SOL    HW1 6269   4.033   5.763   3.935
 1790SOL    HW2 6270   4.162   5.811   3.847
 1791SOL     OW 6271   5.900   0.646   3.335
 1791SOL    HW1 6272   5.800   0.644   3.332
 1791SOL    HW2 6273   5.931   0.734   3.370
 1792SOL     OW 6274   6.821   3.221   4.980
 1792SOL    HW1 6275   6.795   3.188   5.071
 1792SOL    HW2 6276   6.884   3.298   4.990
 1793SOL     OW 6277   6.059   6.844   3.457
 1793SOL    HW1 6278   6.093   6.786   3.531
 1793SOL    HW2 6279   6.058   6.792   3.371
 1794SOL     OW 6280   5.234   6.109   5.910
 1794SOL    HW1 6281   5.228   6.020   5.955
 1794SOL    HW2 6282   5.141   6.142   5.889
 1795SOL     OW 6283   1.071   2.059   0.614
 1795SOL    HW1 6284   1.170   2.066   0.600
 1795SOL    HW2 6285   1.027   2.031   0.528
 1796SOL     OW 6286   2.376   0.694   4.517
 1796SOL    HW1 6287   2.416   0.603   4.523
 1796SOL    HW2 6288   2.447   0.763   4.536
 1797SOL     OW 6289   1.504   6.604   0.148
 1797SOL    HW1 6290   1.406   6.586   0.157
 1797SOL    HW2 6291   1.518   6.691   0.101
 1798SOL     OW 6292   5.429   2.617   3.637
 1798SOL    HW1 6293   5.380   2.684   3.692
 1798SOL    HW2 6294   5.364   2.551   3.599
 1799SOL     OW 6295   0.011   2.142   6.041
 1799SOL    HW1 6296   7.011   2.072   6.107
 1799SOL    HW2 6297   0.106   2.169   6.056
 1800SOL     OW 6298   3.924   4.848   2.037
 1800SOL    HW1 6299   4.002   4.789   2.015
 1800SOL    HW2 6300   3.840   4.807   2.002
 1801SOL     OW 6301   0.256   0.338   1.902
 1801SOL    HW1 6302   0.232   0.252   1.856
 1801SOL    HW2 6303   0.240   0.329   2.000
 1802SOL     OW 6304   5.484   5.575   3.453
 1802SOL    HW1 6305   5.481   5.568   3.353
 1802SOL    HW2 6306   5.577   5.558   3.485
 1803SOL     OW 6307   0.855   5.803   6.820
 1803SOL    HW1 6308   0.780   5.739   6.835
 1803SOL    HW2 6309   0.918   5.798   6.898
 1804SOL     OW 6310   2.657   3.931   5.318
 1804SOL    HW1 6311   2.623   3.886   5.400
 1804SOL    HW2 6312   2.583   3.983   5.276
 1805SOL     OW 6313   6.067   3.818   5.909
 1805SOL    HW1 6314   6.059   3.869   5.823
 1805SOL    HW2 6315   6.060   3.720   5.892
 1806SOL     OW 6316   0.104   0.599   0.337
 1806SOL    HW1 6317   0.022   0.584   0.283
 1806SOL    HW2 6318   0.099   0.688   0.383
 1807SOL     OW 6319   5.487   2.681   4.918
 1807SOL    HW1 6320   5.486   2.681   4.818
 1807SOL    HW2 6321   5.543   2.757   4.950
 1808SOL     OW 6322   0.313   4.569   5.841
 1808SOL    HW1 6323   0.377   4.503   5.879
 1808SOL    HW2 6324   0.262   4.613   5.915
 1809SOL     OW 6325   1.979   2.191   4.666
 1809SOL    HW1 6326   2.003   2.283   4.635
 1809SOL    HW2 6327   1.964   2.193   4.765
 1810SOL     OW 6328   2.908   6.848   3.316
 1810SOL    HW1 6329   2.853   6.769   3.289
 1810SOL    HW2 6330   2.849   6.919   3.353
 1811SOL     OW 6331   6.126   5.551   3.809
 1811SOL    HW1 6332   6.027   5.565   3.803
 1811SOL    HW2 6333   6.157   5.495   3.732
 1812SOL     OW 6334   4.473   6.418   5.079
 1812SOL    HW1 6335   4.567   6.427   5.045
 1812SOL    HW2 6336   4.471   6.351   5.154
 1813SOL     OW 6337   6.478   5.091   1.046
 1813SOL    HW1 6338   6.458   5.129   1.137
 1813SOL    HW2 6339   6.406   5.118   0.982
 1814SOL     OW 6340   6.214   0.746   1.363
 1814SOL    HW1 6341   6.127   0.773   1.406
 1814SOL    HW2 6342   6.290   0.766   1.425
 1815SOL     OW 6343   0.118   2.120   2.388
 1815SOL    HW1 6344   0.072   2.063   2.319
 1815SOL    HW2 6345   0.182   2.063   2.441
 1816SOL     OW 6346   2.729   2.929   1.119
 1816SOL    HW1 6347   2.687   2.877   1.044
 1816SOL    HW2 6348   2.740   3.025   1.092
 1817SOL     OW 6349   2.770   0.128   2.660
 1817SOL    HW1 6350   2.792   0.066   2.735
 1817SOL    HW2 6351   2.765   0.222   2.695
 1818SOL     OW 6352   1.505   0.152   2.822
 1818SOL    HW1 6353   1.450   0.198   2.892
 1818SOL    HW2 6354   1.447   0.131   2.743
 1819SOL     OW 6355   1.528   4.351   1.462
 1819SOL    HW1 6356   1.590   4.337   1.539
 1819SOL    HW2 6357   1.451   4.288   1.469
 1820SOL     OW 6358   4.572   1.121   2.308
 1820SOL    HW1 6359   4.480   1.118   2.347
 1820SOL    HW2 6360   4.632   1.061   2.360
 1821SOL     OW 6361   0.494   1.177   2.098
 1821SOL    HW1 6362   0.531   1.108   2.037
 1821SOL    HW2 6363   0.550   1.183   2.181
 1822SOL     OW 6364   2.766   3.243   1.011
 1822SOL    HW1 6365   2.865   3.229   1.006
 1822SOL    HW2 6366   2.728   3.248   0.919
 1823SOL     OW 6367   3.122   5.891   3.186
 1823SOL    HW1 6368   3.083   5.931   3.103
 1823SOL    HW2 6369   3.141   5.794   3.171
 1824SOL     OW 6370   2.948   2.447   0.759
 1824SOL    HW1 6371   2.887   2.403   0.824
 1824SOL    HW2 6372   2.947   2.396   0.673
 1825SOL     OW 6373   1.195   0.995   2.918
 1825SOL    HW1 6374   1.194   0.895   2.918
 1825SOL    HW2 6375   1.289   1.027   2.931
 1826SOL     OW 6376   3.051   0.629   1.307
 1826SOL    HW1 6377   3.051   0.577   1.393
 1826SOL    HW2 6378   3.145   0.636   1.274
 1827SOL     OW 6379   0.185   5.482   2.391
 1827SOL    HW1 6380   0.117   5.472   2.463
 1827SOL    HW2 6381   0.195   5.395   2.342
 1828SOL     OW 6382   0.526   2.676   0.460
 1828SOL    HW1 6383   0.612   2.643   0.421
 1828SOL    HW2 6384   0.462   2.698   0.385
 1829SOL     OW 6385   4.077   0.045   3.304
 1829SOL    HW1 6386   3.991   7.022   3.289
 1829SOL    HW2 6387   4.058   0.131   3.352
 1830SOL     OW 6388   5.520   5.872   4.234
 1830SOL    HW1 6389   5.476   5.823   4.158
 1830SOL    HW2 6390   5.521   5.813   4.315
 1831SOL     OW 6391   5.773   0.114   2.660
 1831SOL    HW1 6392   5.754   0.165   2.576
 1831SOL    HW2 6393   5.690   0.109   2.715
 1832SOL     OW 6394   5.521   1.721   0.932
 1832SOL    HW1 6395   5.472   1.750   0.850
 1832SOL    HW2 6396   5.620   1.725   0.915
 1833SOL     OW 6397   5.808   1.142   5.206
 1833SOL    HW1 6398   5.769   1.155   5.297
 1833SOL    HW2 6399   5.862   1.223   5.182
 1834SOL     OW 6400   3.084   3.704   0.472
 1834SOL    HW1 6401   3.148   3.779   0.488
 1834SOL    HW2 6402   3.084   3.643   0.551
 1835SOL     OW 6403   1.453   4.180   1.768
 1835SOL    HW1 6404   1.403   4.180   1.681
 1835SOL    HW2 6405   1.400   4.229   1.837
 1836SOL     OW 6406   5.857   1.669   0.968
 1836SOL    HW1 6407   5.826   1.657   1.062
 1836SOL    HW2 6408   5.919   1.747   0.962
 1837SOL     OW 6409   0.877   2.617   3.436
 1837SOL    HW1 6410   0.915   2.572   3.516
 1837SOL    HW2 6411   0.948   2.629   3.366
 1838SOL     OW 6412   0.074   2.088   4.004
 1838SOL    HW1 6413   0.086   2.180   4.042
 1838SOL    HW2 6414   0.004   2.091   3.932
 1839SOL     OW 6415   4.468   2.332   4.988
 1839SOL    HW1 6416   4.454   2.264   4.917
 1839SOL    HW2 6417   4.387   2.390   4.995
 1840SOL     OW 6418   3.803   5.980   1.274
 1840SOL    HW1 6419   3.731   6.034   1.229
 1840SOL    HW2 6420   3.892   6.010   1.241
 1841SOL     OW 6421   2.372   2.716   4.309
 1841SOL    HW1 6422   2.388   2.814   4.296
 1841SOL    HW2 6423   2.276   2.696   4.292
 1842SOL     OW 6424   1.267   5.678   0.516
 1842SOL    HW1 6425   1.314   5.760   0.547
 1842SOL    HW2 6426   1.332   5.604   0.504
 1843SOL     OW 6427   0.611   2.141   4.565
 1843SOL    HW1 6428   0.568   2.231   4.572
 1843SOL    HW2 6429   0.702   2.144   4.606
 1844SOL     OW 6430   3.770   0.465   5.386
 1844SOL    HW1 6431   3.811   0.381   5.422
 1844SOL    HW2 6432   3.789   0.473   5.288
 1845SOL     OW 6433   2.300   0.023   5.436
 1845SOL    HW1 6434   2.324   0.112   5.473
 1845SOL    HW2 6435   2.327   0.018   5.340
 1846SOL     OW 6436   3.736   1.836   0.101
 1846SOL    HW1 6437   3.656   1.893   0.119
 1846SOL    HW2 6438   3.743   1.765   0.171
 1847SOL     OW 6439   1.617   1.252   6.884
 1847SOL    HW1 6440   1.678   1.222   6.811
 1847SOL    HW2 6441   1.538   1.299   6.844
 1848SOL     OW 6442   1.407   6.630   2.111
 1848SOL    HW1 6443   1.367   6.625   2.020
 1848SOL    HW2 6444   1.506   6.625   2.105
 1849SOL     OW 6445   3.927   1.630   0.644
 1849SOL    HW1 6446   4.014   1.674   0.663
 1849SOL    HW2 6447   3.941   1.532   0.628
 1850SOL     OW 6448   6.686   3.163   2.689
 1850SOL    HW1 6449   6.588   3.167   2.670
 1850SOL    HW2 6450   6.702   3.121   2.778
 1851SOL     OW 6451   0.398   1.641   1.108
 1851SOL    HW1 6452   0.457   1.561   1.101
 1851SOL    HW2 6453   0.413   1.700   1.029
 1852SOL     OW 6454   5.433   3.811   1.056
 1852SOL    HW1 6455   5.496   3.734   1.042
 1852SOL    HW2 6456   5.359   3.783   1.117
 1853SOL     OW 6457   0.688   2.992   2.298
 1853SOL    HW1 6458   0.640   2.919   2.250
 1853SOL    HW2 6459   0.623   3.045   2.352
 1854SOL     OW 6460   2.857   5.760   3.272
 1854SOL    HW1 6461   2.952   5.790   3.275
 1854SOL    HW2 6462   2.796   5.839   3.274
 1855SOL     OW 6463   4.389   4.144   6.850
 1855SOL    HW1 6464   4.363   4.093   6.931
 1855SOL    HW2 6465   4.363   4.092   6.768
 1856SOL     OW 6466   6.661   3.378   5.408
 1856SOL    HW1 6467   6.602   3.442   5.457
 1856SOL    HW2 6468   6.756   3.404   5.420
 1857SOL     OW 6469   3.477   1.131   5.867
 1857SOL    HW1 6470   3.407   1.063   5.892
 1857SOL    HW2 6471   3.564   1.105   5.908
 1858SOL     OW 6472   5.948   2.706   3.890
 1858SOL    HW1 6473   6.008   2.779   3.857
 1858SOL    HW2 6474   5.905   2.660   3.812
 1859SOL     OW 6475   4.106   1.498   3.250
 1859SOL    HW1 6476   4.057   1.585   3.259
 1859SOL    HW2 6477   4.182   1.496   3.316
 1860SOL     OW 6478   6.336   0.407   3.682
 1860SOL    HW1 6479   6.247   0.361   3.682
 1860SOL    HW2 6480   6.375   0.404   3.590
 1861SOL     OW 6481   4.909   6.700   2.601
 1861SOL    HW1 6482   4.986   6.713   2.663
 1861SOL    HW2 6483   4.940   6.660   2.515
 1862SOL     OW 6484   2.237   0.092   6.539
 1862SOL    HW1 6485   2.206   0.187   6.529
 1862SOL    HW2 6486   2.173   0.042   6.597
 1863SOL     OW 6487   2.241   2.119   0.163
 1863SOL    HW1 6488   2.198   2.190   0.107
 1863SOL    HW2 6489   2.318   2.079   0.113
 1864SOL     OW 6490   1.058   6.704   5.786
 1864SOL    HW1 6491   1.013   6.769   5.724
 1864SOL    HW2 6492   1.128   6.653   5.735
 1865SOL     OW 6493   3.639   6.962   5.903
 1865SOL    HW1 6494   3.544   6.931   5.901
 1865SOL    HW2 6495   3.685   6.933   5.819
 1866SOL     OW 6496   4.189   5.006   3.153
 1866SOL    HW1 6497   4.099   4.962   3.145
 1866SOL    HW2 6498   4.256   4.938   3.183
 1867SOL     OW 6499   1.062   4.389   0.613
 1867SOL    HW1 6500   1.070   4.488   0.607
 1867SOL    HW2 6501   1.151   4.349   0.633
 1868SOL     OW 6502   4.773   3.987   0.750
 1868SOL    HW1 6503   4.846   3.936   0.704
 1868SOL    HW2 6504   4.772   3.963   0.847
 1869SOL     OW 6505   6.774   2.226   5.224
 1869SOL    HW1 6506   6.735   2.157   5.285
 1869SOL    HW2 6507   6.716   2.236   5.144
 1870SOL     OW 6508   2.017   3.534   5.852
 1870SOL    HW1 6509   2.048   3.515   5.945
 1870SOL    HW2 6510   1.918   3.526   5.847
 1871SOL     OW 6511   1.067   0.064   6.519
 1871SOL    HW1 6512   1.144   0.098   6.573
 1871SOL    HW2 6513   0.989   0.048   6.579
 1872SOL     OW 6514   3.615   3.276   6.972
 1872SOL    HW1 6515   3.650   3.288   6.879
 1872SOL    HW2 6516   3.554   3.351   6.995
 1873SOL     OW 6517   4.872   1.151   5.044
 1873SOL    HW1 6518   4.833   1.096   4.970
 1873SOL    HW2 6519   4.800   1.173   5.110
 1874SOL     OW 6520   2.597   0.777   0.890
 1874SOL    HW1 6521   2.621   0.847   0.823
 1874SOL    HW2 6522   2.533   0.815   0.956
 1875SOL     OW 6523   0.191   1.270   0.043
 1875SOL    HW1 6524   0.171   1.283   0.140
 1875SOL    HW2 6525   0.267   1.329   0.016
 1876SOL     OW 6526   3.874   0.365   5.954
 1876SOL    HW1 6527   3.840   0.452   5.991
 1876SOL    HW2 6528   3.894   0.302   6.028
 1877SOL     OW 6529   0.670   0.210   2.370
 1877SOL    HW1 6530   0.663   0.258   2.283
 1877SOL    HW2 6531   0.605   0.250   2.435
 1878SOL     OW 6532   6.410   1.737   3.839
 1878SOL    HW1 6533   6.461   1.666   3.789
 1878SOL    HW2 6534   6.336   1.771   3.781
 1879SOL     OW 6535   0.922   4.339   3.965
 1879SOL    HW1 6536   0.904   4.332   4.063
 1879SOL    HW2 6537   0.915   4.248   3.924
 1880SOL     OW 6538   7.019   1.640   4.942
 1880SOL    HW1 6539   0.020   1.679   5.031
 1880SOL    HW2 6540   6.925   1.607   4.949
 1881SOL     OW 6541   5.929   2.326   3.034
 1881SOL    HW1 6542   5.889   2.355   2.947
 1881SOL    HW2 6543   5.879   2.247   3.069
 1882SOL     OW 6544   0.967   4.126   6.544
 1882SOL    HW1 6545   1.047   4.150   6.598
 1882SOL    HW2 6546   0.966   4.180   6.459
 1883SOL     OW 6547   0.018   2.125   3.145
 1883SOL    HW1 6548   0.047   2.034   3.117
 1883SOL    HW2 6549   6.956   2.147   3.102
 1884SOL     OW 6550   0.099   1.708   0.354
 1884SOL    HW1 6551   0.061   1.728   0.444
 1884SOL    HW2 6552   0.198   1.702   0.360
 1885SOL     OW 6553   2.168   1.964   6.311
 1885SOL    HW1 6554   2.262   1.952   6.345
 1885SOL    HW2 6555   2.148   2.062   6.305
 1886SOL     OW 6556   1.498   0.345   1.814
 1886SOL    HW1 6557   1.495   0.249   1.843
 1886SOL    HW2 6558   1.536   0.401   1.888
 1887SOL     OW 6559   0.613   5.273   5.397
 1887SOL    HW1 6560   0.535   5.213   5.383
 1887SOL    HW2 6561   0.665   5.242   5.477
 1888SOL     OW 6562   3.262   2.590   6.515
 1888SOL    HW1 6563   3.208   2.652   6.458
 1888SOL    HW2 6564   3.214   2.574   6.601
 1889SOL     OW 6565   0.034   3.896   5.278
 1889SOL    HW1 6566   0.022   3.840   5.359
 1889SOL    HW2 6567   0.031   3.993   5.304
 1890SOL     OW 6568   1.313   5.688   4.017
 1890SOL    HW1 6569   1.218   5.718   4.012
 1890SOL    HW2 6570   1.368   5.760   4.059
 1891SOL     OW 6571   4.611   2.725   1.460
 1891SOL    HW1 6572   4.555   2.803   1.434
 1891SOL    HW2 6573   4.591   2.647   1.400
 1892SOL     OW 6574   1.084   6.764   2.306
 1892SOL    HW1 6575   1.176   6.771   2.345
 1892SOL    HW2 6576   1.089   6.777   2.207
 1893SOL     OW 6577   3.387   3.245   1.514
 1893SOL    HW1 6578   3.318   3.303   1.470
 1893SOL    HW2 6579   3.407   3.167   1.455
 1894SOL     OW 6580   4.057   3.137   3.607
 1894SOL    HW1 6581   3.988   3.127   3.536
 1894SOL    HW2 6582   4.145   3.157   3.564
 1895SOL     OW 6583   4.162   0.338   0.810
 1895SOL    HW1 6584   4.192   0.365   0.718
 1895SOL    HW2 6585   4.236   0.288   0.856
 1896SOL     OW 6586   5.792   2.020   1.375
 1896SOL    HW1 6587   5.712   2.054   1.425
 1896SOL    HW2 6588   5.837   1.948   1.428
 1897SOL     OW 6589   2.234   5.229   1.803
 1897SOL    HW1 6590   2.155   5.282   1.834
 1897SOL    HW2 6591   2.236   5.228   1.703
 1898SOL     OW 6592   1.986   5.004   4.060
 1898SOL    HW1 6593   2.040   5.054   4.129
 1898SOL    HW2 6594   1.953   4.918   4.100
 1899SOL     OW 6595   0.123   1.703   0.824
 1899SOL    HW1 6596   0.113   1.801   0.809
 1899SOL    HW2 6597   0.108   1.682   0.921
 1900SOL     OW 6598   2.315   0.429   7.006
 1900SOL    HW1 6599   2.339   0.336   6.976
 1900SOL    HW2 6600   2.373   0.454   0.058
 1901SOL     OW 6601   1.990   2.470   0.703
 1901SOL    HW1 6602   2.030   2.435   0.787
 1901SOL    HW2 6603   2.043   2.438   0.624
 1902SOL     OW 6604   2.460   1.073   4.601
 1902SOL    HW1 6605   2.370   1.051   4.563
 1902SOL    HW2 6606   2.457   1.163   4.644
 1903SOL     OW 6607   0.697   3.026   2.829
 1903SOL    HW1 6608   0.732   2.933   2.827
 1903SOL    HW2 6609   0.652   3.043   2.917
 1904SOL     OW 6610   5.483   5.239   3.428
 1904SOL    HW1 6611   5.450   5.273   3.516
 1904SOL    HW2 6612   5.498   5.316   3.366
 1905SOL     OW 6613   0.494   0.086   3.440
 1905SOL    HW1 6614   0.410   0.033   3.448
 1905SOL    HW2 6615   0.562   0.035   3.387
 1906SOL     OW 6616   3.465   0.676   5.754
 1906SOL    HW1 6617   3.401   0.720   5.691
 1906SOL    HW2 6618   3.545   0.644   5.704
 1907SOL     OW 6619   4.213   2.225   1.499
 1907SOL    HW1 6620   4.129   2.173   1.513
 1907SOL    HW2 6621   4.249   2.255   1.588
 1908SOL     OW 6622   3.772   5.985   6.412
 1908SOL    HW1 6623   3.729   6.074   6.399
 1908SOL    HW2 6624   3.706   5.912   6.395
 1909SOL     OW 6625   0.742   2.936   3.214
 1909SOL    HW1 6626   0.818   2.997   3.189
 1909SOL    HW2 6627   0.682   2.983   3.278
 1910SOL     OW 6628   6.981   5.350   5.930
 1910SOL    HW1 6629   6.896   5.300   5.948
 1910SOL    HW2 6630   0.029   5.285   5.915
 1911SOL     OW 6631   0.377   3.722   4.868
 1911SOL    HW1 6632   0.304   3.663   4.902
 1911SOL    HW2 6633   0.426   3.676   4.794
 1912SOL     OW 6634   2.899   5.859   1.605
 1912SOL    HW1 6635   2.964   5.877   1.678
 1912SOL    HW2 6636   2.818   5.917   1.617
 1913SOL     OW 6637   2.940   0.672   4.982
 1913SOL    HW1 6638   3.011   0.661   5.051
 1913SOL    HW2 6639   2.890   0.586   4.971
 1914SOL     OW 6640   3.447   3.097   0.099
 1914SOL    HW1 6641   3.481   3.006   0.123
 1914SOL    HW2 6642   3.522   3.151   0.061
 1915SOL     OW 6643   4.702   2.727   6.262
 1915SOL    HW1 6644   4.785   2.765   6.304
 1915SOL    HW2 6645   4.711   2.730   6.162
 1916SOL     OW 6646   4.640   6.196   0.923
 1916SOL    HW1 6647   4.720   6.206   0.864
 1916SOL    HW2 6648   4.626   6.280   0.976
 1917SOL     OW 6649   2.166   3.459   0.177
 1917SOL    HW1 6650   2.138   3.547   0.138
 1917SOL    HW2 6651   2.162   3.389   0.105
 1918SOL     OW 6652   0.551   0.720   4.957
 1918SOL    HW1 6653   0.471   0.776   4.936
 1918SOL    HW2 6654   0.575   0.730   5.054
 1919SOL     OW 6655   1.792   1.441   1.690
 1919SOL    HW1 6656   1.735   1.521   1.669
 1919SOL    HW2 6657   1.751   1.359   1.650
 1920SOL     OW 6658   6.445   3.985   3.345
 1920SOL    HW1 6659   6.531   4.000   3.297
 1920SOL    HW2 6660   6.449   3.898   3.394
 1921SOL     OW 6661   1.994   2.899   0.164
 1921SOL    HW1 6662   1.994   2.863   0.071
 1921SOL    HW2 6663   1.933   2.978   0.170
 1922SOL     OW 6664   2.857   3.258   1.795
 1922SOL    HW1 6665   2.924   3.192   1.760
 1922SOL    HW2 6666   2.767   3.239   1.754
 1923SOL     OW 6667   3.883   1.933   6.589
 1923SOL    HW1 6668   3.892   1.835   6.573
 1923SOL    HW2 6669   3.853   1.978   6.505
 1924SOL     OW 6670   4.458   0.031   0.632
 1924SOL    HW1 6671   4.475   0.096   0.558
 1924SOL    HW2 6672   4.545   7.017   0.661
 1925SOL     OW 6673   1.378   4.886   1.615
 1925SOL    HW1 6674   1.309   4.887   1.543
 1925SOL    HW2 6675   1.460   4.935   1.583
 1926SOL     OW 6676   3.017   0.167   2.183
 1926SOL    HW1 6677   3.040   0.246   2.240
 1926SOL    HW2 6678   3.079   0.091   2.204
 1927SOL     OW 6679   2.123   3.756   0.440
 1927SOL    HW1 6680   2.187   3.716   0.505
 1927SOL    HW2 6681   2.065   3.684   0.402
 1928SOL     OW 6682   5.387   4.581   4.459
 1928SOL    HW1 6683   5.387   4.507   4.392
 1928SOL    HW2 6684   5.477   4.586   4.503
 1929SOL     OW 6685   1.994   0.736   2.047
 1929SOL    HW1 6686   2.076   0.679   2.052
 1929SOL    HW2 6687   2.020   0.832   2.057
 1930SOL     OW 6688   5.367   3.084   6.859
 1930SOL    HW1 6689   5.320   3.043   6.781
 1930SOL    HW2 6690   5.438   3.022   6.892
 1931SOL     OW 6691   1.066   2.045   6.835
 1931SOL    HW1 6692   0.985   2.094   6.870
 1931SOL    HW2 6693   1.038   1.983   6.762
 1932SOL     OW 6694   4.882   2.756   3.561
 1932SOL    HW1 6695   4.923   2.770   3.651
 1932SOL    HW2 6696   4.950   2.775   3.491
 1933SOL     OW 6697   1.270   2.325   0.649
 1933SOL    HW1 6698   1.308   2.233   0.642
 1933SOL    HW2 6699   1.191   2.333   0.587
 1934SOL     OW 6700   0.282   1.046   5.245
 1934SOL    HW1 6701   0.302   1.089   5.333
 1934SOL    HW2 6702   0.337   1.089   5.173
 1935SOL     OW 6703   4.156   4.977   3.561
 1935SOL    HW1 6704   4.252   4.999   3.576
 1935SOL    HW2 6705   4.101   5.059   3.575
 1936SOL     OW 6706   4.962   3.685   4.159
 1936SOL    HW1 6707   5.032   3.615   4.173
 1936SOL    HW2 6708   4.933   3.684   4.063
 1937SOL     OW 6709   4.370   6.308   0.113
 1937SOL    HW1 6710   4.340   6.297   0.208
 1937SOL    HW2 6711   4.427   6.230   0.087
 1938SOL     OW 6712   1.128   2.126   0.977
 1938SOL    HW1 6713   1.079   2.181   0.909
 1938SOL    HW2 6714   1.212   2.090   0.936
 1939SOL     OW 6715   0.324   6.015   4.139
 1939SOL    HW1 6716   0.287   6.051   4.224
 1939SOL    HW2 6717   0.400   6.073   4.108
 1940SOL     OW 6718   5.863   4.156   1.270
 1940SOL    HW1 6719   5.910   4.110   1.195
 1940SOL    HW2 6720   5.883   4.109   1.355
 1941SOL     OW 6721   1.191   3.140   3.451
 1941SOL    HW1 6722   1.263   3.131   3.520
 1941SOL    HW2 6723   1.162   3.049   3.421
 1942SOL     OW 6724   5.538   4.182   2.690
 1942SOL    HW1 6725   5.548   4.271   2.735
 1942SOL    HW2 6726   5.466   4.188   2.620
 1943SOL     OW 6727   1.230   1.318   2.934
 1943SOL    HW1 6728   1.325   1.310   2.902
 1943SOL    HW2 6729   1.169   1.322   2.856
 1944SOL     OW 6730   6.439   4.465   6.880
 1944SOL    HW1 6731   6.349   4.425   6.865
 1944SOL    HW2 6732   6.468   4.448   6.974
 1945SOL     OW 6733   3.800   6.342   1.044
 1945SOL    HW1 6734   3.790   6.246   1.020
 1945SOL    HW2 6735   3.764   6.358   1.136
 1946SOL     OW 6736   6.160   6.448   1.739
 1946SOL    HW1 6737   6.153   6.518   1.667
 1946SOL    HW2 6738   6.084   6.384   1.730
 1947SOL     OW 6739   6.166   5.699   4.184
 1947SOL    HW1 6740   6.218   5.692   4.269
 1947SOL    HW2 6741   6.225   5.736   4.112
 1948SOL     OW 6742   5.887   5.034   2.926
 1948SOL    HW1 6743   5.791   5.017   2.905
 1948SOL    HW2 6744   5.895   5.069   3.019
 1949SOL     OW 6745   3.978   3.958   0.523
 1949SOL    HW1 6746   4.049   4.028   0.529
 1949SOL    HW2 6747   3.891   4.002   0.503
 1950SOL     OW 6748   4.057   3.385   3.287
 1950SOL    HW1 6749   3.972   3.395   3.339
 1950SOL    HW2 6750   4.066   3.462   3.224
 1951SOL     OW 6751   6.845   4.375   5.940
 1951SOL    HW1 6752   6.933   4.364   5.986
 1951SOL    HW2 6753   6.857   4.362   5.842
 1952SOL     OW 6754   5.428   4.578   1.526
 1952SOL    HW1 6755   5.332   4.602   1.537
 1952SOL    HW2 6756   5.451   4.574   1.429
 1953SOL     OW 6757   6.957   1.422   6.373
 1953SOL    HW1 6758   6.898   1.439   6.293
 1953SOL    HW2 6759   0.027   1.432   6.346
 1954SOL     OW 6760   5.492   0.032   1.385
 1954SOL    HW1 6761   5.422   7.019   1.324
 1954SOL    HW2 6762   5.517   0.123   1.353
 1955SOL     OW 6763   0.256   0.902   1.288
 1955SOL    HW1 6764   0.302   0.816   1.266
 1955SOL    HW2 6765   0.163   0.900   1.251
 1956SOL     OW 6766   4.611   0.037   2.914
 1956SOL    HW1 6767   4.538   7.004   2.949
 1956SOL    HW2 6768   4.588   0.069   2.823
 1957SOL     OW 6769   5.173   3.466   4.186
 1957SOL    HW1 6770   5.145   3.447   4.280
 1957SOL    HW2 6771   5.252   3.410   4.163
 1958SOL     OW 6772   4.435   1.458   1.585
 1958SOL    HW1 6773   4.419   1.388   1.654
 1958SOL    HW2 6774   4.389   1.432   1.500
 1959SOL     OW 6775   6.632   6.338   3.973
 1959SOL    HW1 6776   6.630   6.270   3.901
 1959SOL    HW2 6777   6.579   6.305   4.052
 1960SOL     OW 6778   0.253   3.089   3.016
 1960SOL    HW1 6779   0.155   3.112   3.015
 1960SOL    HW2 6780   0.265   2.999   3.057
 1961SOL     OW 6781   6.292   4.261   4.483
 1961SOL    HW1 6782   6.200   4.276   4.448
 1961SOL    HW2 6783   6.290   4.190   4.554
 1962SOL     OW 6784   1.136   6.201   2.212
 1962SOL    HW1 6785   1.217   6.260   2.213
 1962SOL    HW2 6786   1.081   6.219   2.131
 1963SOL     OW 6787   0.875   1.819   1.311
 1963SOL    HW1 6788   0.832   1.752   1.249
 1963SOL    HW2 6789   0.961   1.781   1.346
 1964SOL     OW 6790   5.118   4.509   1.854
 1964SOL    HW1 6791   5.145   4.596   1.895
 1964SOL    HW2 6792   5.118   4.518   1.755
 1965SOL     OW 6793   1.764   3.535   4.344
 1965SOL    HW1 6794   1.737   3.455   4.398
 1965SOL    HW2 6795   1.845   3.576   4.386
 1966SOL     OW 6796   1.504   4.829   0.916
 1966SOL    HW1 6797   1.573   4.765   0.882
 1966SOL    HW2 6798   1.540   4.878   0.996
 1967SOL     OW 6799   6.705   2.658   4.139
 1967SOL    HW1 6800   6.726   2.710   4.056
 1967SOL    HW2 6801   6.782   2.665   4.203
 1968SOL     OW 6802   2.430   0.937   5.595
 1968SOL    HW1 6803   2.436   1.011   5.661
 1968SOL    HW2 6804   2.460   0.852   5.637
 1969SOL     OW 6805   3.020   0.527   1.641
 1969SOL    HW1 6806   2.991   0.620   1.621
 1969SOL    HW2 6807   3.068   0.525   1.729
 1970SOL     OW 6808   6.735   6.883   5.498
 1970SOL    HW1 6809   6.812   6.884   5.435
 1970SOL    HW2 6810   6.670   6.812   5.470
 1971SOL     OW 6811   0.579   0.142   5.300
 1971SOL    HW1 6812   0.621   0.220   5.255
 1971SOL    HW2 6813   0.556   0.165   5.394
 1972SOL     OW 6814   5.578   2.621   1.539
 1972SOL    HW1 6815   5.631   2.699   1.507
 1972SOL    HW2 6816   5.490   2.652   1.574
 1973SOL     OW 6817   2.409   3.808   1.720
 1973SOL    HW1 6818   2.437   3.858   1.638
 1973SOL    HW2 6819   2.393   3.872   1.795
 1974SOL     OW 6820   4.777   6.681   4.780
 1974SOL    HW1 6821   4.740   6.669   4.688
 1974SOL    HW2 6822   4.777   6.778   4.803
 1975SOL     OW 6823   1.913   2.925   4.131
 1975SOL    HW1 6824   1.980   2.976   4.077
 1975SOL    HW2 6825   1.890   2.840   4.083
 1976SOL     OW 6826   5.466   6.805   6.511
 1976SOL    HW1 6827   5.402   6.779   6.583
 1976SOL    HW2 6828   5.417   6.812   6.424
 1977SOL     OW 6829   2.348   3.278   6.188
 1977SOL    HW1 6830   2.386   3.246   6.101
 1977SOL    HW2 6831   2.337   3.377   6.185
 1978SOL     OW 6832   1.792   6.053   3.194
 1978SOL    HW1 6833   1.723   6.098   3.137
 1978SOL    HW2 6834   1.781   5.954   3.186
 1979SOL     OW 6835   6.019   4.945   6.997
 1979SOL    HW1 6836   6.046   4.959   6.902
 1979SOL    HW2 6837   5.942   4.881   7.000
 1980SOL     OW 6838   3.617   0.263   2.694
 1980SOL    HW1 6839   3.708   0.226   2.715
 1980SOL    HW2 6840   3.584   0.316   2.771
 1981SOL     OW 6841   5.446   2.747   2.592
 1981SOL    HW1 6842   5.496   2.661   2.601
 1981SOL    HW2 6843   5.408   2.773   2.681
 1982SOL     OW 6844   6.704   4.152   4.342
 1982SOL    HW1 6845   6.617   4.200   4.335
 1982SOL    HW2 6846   6.712   4.085   4.268
 1983SOL     OW 6847   0.720   0.502   1.055
 1983SOL    HW1 6848   0.679   0.421   1.012
 1983SOL    HW2 6849   0.803   0.475   1.104
 1984SOL     OW 6850   5.160   2.536   5.167
 1984SOL    HW1 6851   5.203   2.446   5.177
 1984SOL    HW2 6852   5.061   2.527   5.178
 1985SOL     OW 6853   6.886   5.748   1.990
 1985SOL    HW1 6854   6.793   5.725   1.959
 1985SOL    HW2 6855   6.938   5.664   2.004
 1986SOL     OW 6856   2.697   1.190   6.329
 1986SOL    HW1 6857   2.715   1.138   6.412
 1986SOL    HW2 6858   2.732   1.283   6.339
 1987SOL     OW 6859   2.213   1.471   3.880
 1987SOL    HW1 6860   2.290   1.526   3.911
 1987SOL    HW2 6861   2.237   1.424   3.795
 1988SOL     OW 6862   6.575   1.314   1.247
 1988SOL    HW1 6863   6.648   1.332   1.182
 1988SOL    HW2 6864   6.602   1.348   1.337
 1989SOL     OW 6865   2.710   6.127   4.751
 1989SOL    HW1 6866   2.762   6.134   4.836
 1989SOL    HW2 6867   2.633   6.065   4.763
 1990SOL     OW 6868   4.056   0.047   0.494
 1990SOL    HW1 6869   3.974   0.030   0.549
 1990SOL    HW2 6870   4.129   7.011   0.524
 1991SOL     OW 6871   2.683   4.752   0.337
 1991SOL    HW1 6872   2.688   4.823   0.267
 1991SOL    HW2 6873   2.695   4.662   0.294
 1992SOL     OW 6874   6.849   0.034   0.846
 1992SOL    HW1 6875   6.893   6.987   0.899
 1992SOL    HW2 6876   6.781   7.019   0.785
 1993SOL     OW 6877   2.939   2.021   4.550
 1993SOL    HW1 6878   2.999   2.055   4.623
 1993SOL    HW2 6879   2.858   2.079   4.544
 1994SOL     OW 6880   4.771   2.025   0.864
 1994SOL    HW1 6881   4.806   2.100   0.920
 1994SOL    HW2 6882   4.827   1.943   0.878
 1995SOL     OW 6883   5.784   3.367   4.622
 1995SOL    HW1 6884   5.827   3.405   4.540
 1995SOL    HW2 6885   5.686   3.388   4.620
 1996SOL     OW 6886   2.763   1.338   1.407
 1996SOL    HW1 6887   2.700   1.302   1.476
 1996SOL    HW2 6888   2.822   1.264   1.374
 1997SOL     OW 6889   3.191   1.422   4.046
 1997SOL    HW1 6890   3.158   1.337   4.086
 1997SOL    HW2 6891   3.138   1.499   4.082
 1998SOL     OW 6892   1.208   3.352   0.695
 1998SOL    HW1 6893   1.225   3.381   0.789
 1998SOL    HW2 6894   1.247   3.261   0.681
 1999SOL     OW 6895   0.285   0.819   4.941
 1999SOL    HW1 6896   0.223   0.821   5.020
 1999SOL    HW2 6897   0.256   0.747   4.878
 2000SOL     OW 6898   3.983   3.892   6.020
 2000SOL    HW1 6899   4.017   3.872   5.929
 2000SOL    HW2 6900   4.011   3.818   6.083
 2001SOL     OW 6901   1.385   1.996   6.959
 2001SOL    HW1 6902   1.438   2.061   7.015
 2001SOL    HW2 6903   1.290   1.996   6.989
 2002SOL     OW 6904   1.068   5.490   0.911
 2002SOL    HW1 6905   1.061   5.418   0.843
 2002SOL    HW2 6906   1.158   5.532   0.907
 2003SOL     OW 6907   6.429   5.267   1.955
 2003SOL    HW1 6908   6.429   5.354   2.005
 2003SOL    HW2 6909   6.353   5.211   1.988
 2004SOL     OW 6910   4.531   1.081   3.874
 2004SOL    HW1 6911   4.495   0.988   3.860
 2004SOL    HW2 6912   4.630   1.077   3.884
 2005SOL     OW 6913   6.628   5.899   0.077
 2005SOL    HW1 6914   6.555   5.836   0.051
 2005SOL    HW2 6915   6.702   5.848   0.121
 2006SOL     OW 6916   5.192   6.886   4.298
 2006SOL    HW1 6917   5.138   6.941   4.361
 2006SOL    HW2 6918   5.203   6.935   4.212
 2007SOL     OW 6919   5.413   4.069   1.072
 2007SOL    HW1 6920   5.420   3.973   1.045
 2007SOL    HW2 6921   5.492   4.094   1.127
 2008SOL     OW 6922   2.135   3.466   4.164
 2008SOL    HW1 6923   2.121   3.559   4.196
 2008SOL    HW2 6924   2.126   3.403   4.241
 2009SOL     OW 6925   5.503   5.900   1.759
 2009SOL    HW1 6926   5.533   5.943   1.674
 2009SOL    HW2 6927   5.404   5.883   1.755
 2010SOL     OW 6928   1.790   1.872   1.623
 2010SOL    HW1 6929   1.721   1.915   1.682
 2010SOL    HW2 6930   1.829   1.793   1.671
 2011SOL     OW 6931   6.660   0.219   5.257
 2011SOL    HW1 6932   6.560   0.209   5.250
 2011SOL    HW2 6933   6.682   0.312   5.287
 2012SOL     OW 6934   1.628   3.915   2.062
 2012SOL    HW1 6935   1.702   3.889   1.999
 2012SOL    HW2 6936   1.651   3.886   2.155
 2013SOL     OW 6937   0.122   3.222   3.312
 2013SOL    HW1 6938   0.140   3.281   3.234
 2013SOL    HW2 6939   0.080   3.275   3.385
 2014SOL     OW 6940   3.015   0.550   3.047
 2014SOL    HW1 6941   2.973   0.512   3.130
 2014SOL    HW2 6942   2.969   0.511   2.967
 2015SOL     OW 6943   3.831   0.548   1.092
 2015SOL    HW1 6944   3.925   0.580   1.080
 2015SOL    HW2 6945   3.829   0.473   1.158
 2016SOL     OW 6946   1.659   5.974   5.782
 2016SOL    HW1 6947   1.607   5.921   5.849
 2016SOL    HW2 6948   1.601   5.993   5.702
 2017SOL     OW 6949   4.178   0.489   3.616
 2017SOL    HW1 6950   4.165   0.443   3.528
 2017SOL    HW2 6951   4.247   0.439   3.669
 2018SOL     OW 6952   6.978   2.270   3.778
 2018SOL    HW1 6953   6.939   2.179   3.771
 2018SOL    HW2 6954   6.941   2.316   3.859
 2019SOL     OW 6955   6.502   4.562   6.451
 2019SOL    HW1 6956   6.555   4.482   6.479
 2019SOL    HW2 6957   6.551   4.612   6.380
 2020SOL     OW 6958   1.361   5.948   6.191
 2020SOL    HW1 6959   1.348   5.881   6.265
 2020SOL    HW2 6960   1.449   5.994   6.204
 2021SOL     OW 6961   5.811   6.790   3.214
 2021SOL    HW1 6962   5.733   6.755   3.161
 2021SOL    HW2 6963   5.880   6.826   3.151
 2022SOL     OW 6964   1.652   4.257   4.917
 2022SOL    HW1 6965   1.726   4.224   4.976
 2022SOL    HW2 6966   1.631   4.188   4.848
 2023SOL     OW 6967   7.018   6.815   6.385
 2023SOL    HW1 6968   0.086   6.846   6.369
 2023SOL    HW2 6969   6.984   6.771   6.302
 2024SOL     OW 6970   0.330   5.744   4.200
 2024SOL    HW1 6971   0.288   5.674   4.142
 2024SOL    HW2 6972   0.306   5.835   4.165
 2025SOL     OW 6973   3.094   0.779   3.406
 2025SOL    HW1 6974   3.176   0.721   3.406
 2025SOL    HW2 6975   3.115   0.866   3.451
 2026SOL     OW 6976   5.968   1.346   6.238
 2026SOL    HW1 6977   6.009   1.342   6.329
 2026SOL    HW2 6978   6.032   1.309   6.170
 2027SOL     OW 6979   0.729   6.151   1.564
 2027SOL    HW1 6980   0.783   6.082   1.612
 2027SOL    HW2 6981   0.654   6.107   1.515
 2028SOL     OW 6982   3.808   5.545   2.812
 2028SOL    HW1 6983   3.744   5.608   2.767
 2028SOL    HW2 6984   3.761   5.458   2.831
 2029SOL     OW 6985   6.530   1.739   0.025
 2029SOL    HW1 6986   6.441   1.761   0.065
 2029SOL    HW2 6987   6.552   1.805   6.980
 2030SOL     OW 6988   3.068   6.500   2.698
 2030SOL    HW1 6989   2.974   6.494   2.664
 2030SOL    HW2 6990   3.083   6.427   2.765
 2031SOL     OW 6991   6.774   5.856   2.801
 2031SOL    HW1 6992   6.793   5.851   2.703
 2031SOL    HW2 6993   6.677   5.870   2.817
 2032SOL     OW 6994   3.622   1.891   0.384
 2032SOL    HW1 6995   3.538   1.836   0.385
 2032SOL    HW2 6996   3.599   1.988   0.385
 2033SOL     OW 6997   1.264   1.166   0.486
 2033SOL    HW1 6998   1.310   1.201   0.568
 2033SOL    HW2 6999   1.314   1.195   0.405
 2034SOL     OW 7000   1.528   5.284   5.474
 2034SOL    HW1 7001   1.475   5.202   5.453
 2034SOL    HW2 7002   1.465   5.358   5.500
 2035SOL     OW 7003   6.569   0.640   2.364
 2035SOL    HW1 7004   6.579   0.702   2.286
 2035SOL    HW2 7005   6.588   0.546   2.335
 2036SOL     OW 7006   1.201   3.391   3.347
 2036SOL    HW1 7007   1.214   3.383   3.248
 2036SOL    HW2 7008   1.200   3.300   3.388
 2037SOL     OW 7009   6.977   2.600   6.253
 2037SOL    HW1 7010   6.915   2.544   6.307
 2037SOL    HW2 7011   6.997   2.554   6.166
 2038SOL     OW 7012   2.435   1.195   7.001
 2038SOL    HW1 7013   2.454   1.210   0.072
 2038SOL    HW2 7014   2.378   1.269   6.965
 2039SOL     OW 7015   0.215   5.648   2.165
 2039SOL    HW1 7016   0.219   5.581   2.240
 2039SOL    HW2 7017   0.213   5.740   2.203
 2040SOL     OW 7018   1.951   2.536   6.840
 2040SOL    HW1 7019   1.980   2.445   6.811
 2040SOL    HW2 7020   1.989   2.557   6.930
 2041SOL     OW 7021   2.002   6.744   5.435
 2041SOL    HW1 7022   2.037   6.834   5.462
 2041SOL    HW2 7023   1.915   6.726   5.480
 2042SOL     OW 7024   5.124   0.100   6.145
 2042SOL    HW1 7025   5.103   0.058   6.233
 2042SOL    HW2 7026   5.096   0.196   6.146
 2043SOL     OW 7027   6.193   2.580   1.701
 2043SOL    HW1 7028   6.223   2.531   1.619
 2043SOL    HW2 7029   6.269   2.588   1.765
 2044SOL     OW 7030   5.818   1.166   1.751
 2044SOL    HW1 7031   5.779   1.099   1.814
 2044SOL    HW2 7032   5.829   1.124   1.661
 2045SOL     OW 7033   1.493   5.621   5.295
 2045SOL    HW1 7034   1.555   5.691   5.330
 2045SOL    HW2 7035   1.545   5.538   5.272
 2046SOL     OW 7036   6.780   1.883   5.328
 2046SOL    HW1 7037   6.764   1.820   5.252
 2046SOL    HW2 7038   6.863   1.936   5.311
 2047SOL     OW 7039   6.342   2.157   0.869
 2047SOL    HW1 7040   6.343   2.062   0.839
 2047SOL    HW2 7041   6.417   2.173   0.933
 2048SOL     OW 7042   0.389   2.035   4.734
 2048SOL    HW1 7043   0.441   2.057   4.651
 2048SOL    HW2 7044   0.314   1.973   4.711
 2049SOL     OW 7045   4.615   1.225   4.778
 2049SOL    HW1 7046   4.571   1.241   4.689
 2049SOL    HW2 7047   4.551   1.179   4.839
 2050SOL     OW 7048   0.059   2.115   4.774
 2050SOL    HW1 7049   7.004   2.157   4.816
 2050SOL    HW2 7050   0.056   2.128   4.675
 2051SOL     OW 7051   2.120   6.423   6.861
 2051SOL    HW1 7052   2.186   6.469   6.921
 2051SOL    HW2 7053   2.040   6.482   6.847
 2052SOL     OW 7054   1.714   3.011   0.613
 2052SOL    HW1 7055   1.763   3.077   0.557
 2052SOL    HW2 7056   1.744   3.018   0.708
 2053SOL     OW 7057   0.731   5.709   4.521
 2053SOL    HW1 7058   0.800   5.641   4.495
 2053SOL    HW2 7059   0.675   5.672   4.596
 2054SOL     OW 7060   3.541   2.844   2.114
 2054SOL    HW1 7061   3.613   2.888   2.167
 2054SOL    HW2 7062   3.573   2.827   2.021
 2055SOL     OW 7063   0.203   2.719   5.195
 2055SOL    HW1 7064   0.247   2.699   5.283
 2055SOL    HW2 7065   0.246   2.799   5.154
 2056SOL     OW 7066   4.369   4.912   1.105
 2056SOL    HW1 7067   4.314   4.843   1.152
 2056SOL    HW2 7068   4.436   4.867   1.046
 2057SOL     OW 7069   5.619   2.977   4.282
 2057SOL    HW1 7070   5.614   3.069   4.322
 2057SOL    HW2 7071   5.532   2.930   4.296
 2058SOL     OW 7072   0.584   6.075   2.755
 2058SOL    HW1 7073   0.611   6.072   2.851
 2058SOL    HW2 7074   0.499   6.126   2.746
 2059SOL     OW 7075   2.439   0.554   5.401
 2059SOL    HW1 7076   2.381   0.562   5.320
 2059SOL    HW2 7077   2.529   0.521   5.374
 2060SOL     OW 7078   0.814   3.295   0.475
 2060SOL    HW1 7079   0.822   3.287   0.574
 2060SOL    HW2 7080   0.776   3.385   0.452
 2061SOL     OW 7081   1.932   2.914   2.752
 2061SOL    HW1 7082   1.901   2.970   2.675
 2061SOL    HW2 7083   2.010   2.958   2.796
 2062SOL     OW 7084   6.535   4.925   5.055
 2062SOL    HW1 7085   6.625   4.959   5.029
 2062SOL    HW2 7086   6.523   4.934   5.154
 2063SOL     OW 7087   1.631   6.255   5.360
 2063SOL    HW1 7088   1.543   6.216   5.333
 2063SOL    HW2 7089   1.704   6.214   5.305
 2064SOL     OW 7090   1.002   3.879   4.063
 2064SOL    HW1 7091   0.969   3.905   4.154
 2064SOL    HW2 7092   0.961   3.939   3.994
 2065SOL     OW 7093   5.176   2.987   5.172
 2065SOL    HW1 7094   5.196   2.899   5.129
 2065SOL    HW2 7095   5.137   2.971   5.263
 2066SOL     OW 7096   5.925   3.653   5.468
 2066SOL    HW1 7097   6.008   3.615   5.509
 2066SOL    HW2 7098   5.885   3.587   5.405
 2067SOL     OW 7099   6.267   4.648   2.127
 2067SOL    HW1 7100   6.168   4.642   2.110
 2067SOL    HW2 7101   6.290   4.596   2.208
 2068SOL     OW 7102   3.749   1.400   4.120
 2068SOL    HW1 7103   3.779   1.438   4.208
 2068SOL    HW2 7104   3.732   1.475   4.056
 2069SOL     OW 7105   7.003   1.713   4.191
 2069SOL    HW1 7106   0.061   1.764   4.214
 2069SOL    HW2 7107   6.961   1.754   4.111
 2070SOL     OW 7108   1.440   3.054   1.628
 2070SOL    HW1 7109   1.405   3.143   1.657
 2070SOL    HW2 7110   1.406   3.034   1.537
 2071SOL     OW 7111   6.554   1.424   6.278
 2071SOL    HW1 7112   6.475   1.477   6.308
 2071SOL    HW2 7113   6.571   1.351   6.344
 2072SOL     OW 7114   3.842   4.787   5.221
 2072SOL    HW1 7115   3.836   4.871   5.274
 2072SOL    HW2 7116   3.919   4.733   5.253
 2073SOL     OW 7117   3.767   6.209   6.137
 2073SOL    HW1 7118   3.739   6.239   6.228
 2073SOL    HW2 7119   3.857   6.165   6.142
 2074SOL     OW 7120   1.700   3.481   5.802
 2074SOL    HW1 7121   1.677   3.524   5.890
 2074SOL    HW2 7122   1.683   3.546   5.728
 2075SOL     OW 7123   6.878   2.455   1.963
 2075SOL    HW1 7124   6.886   2.460   2.063
 2075SOL    HW2 7125   6.857   2.545   1.927
 2076SOL     OW 7126   5.995   7.006   4.829
 2076SOL    HW1 7127   5.921   7.018   4.762
 2076SOL    HW2 7128   5.996   0.057   4.893
 2077SOL     OW 7129   0.487   2.597   1.575
 2077SOL    HW1 7130   0.410   2.656   1.548
 2077SOL    HW2 7131   0.472   2.504   1.541
 2078SOL     OW 7132   1.577   4.940   5.736
 2078SOL    HW1 7133   1.633   4.871   5.690
 2078SOL    HW2 7134   1.489   4.900   5.761
 2079SOL     OW 7135   5.139   0.878   1.949
 2079SOL    HW1 7136   5.144   0.958   2.008
 2079SOL    HW2 7137   5.067   0.816   1.982
 2080SOL     OW 7138   2.868   2.297   4.546
 2080SOL    HW1 7139   2.839   2.384   4.506
 2080SOL    HW2 7140   2.829   2.289   4.638
 2081SOL     OW 7141   0.169   6.583   3.406
 2081SOL    HW1 7142   0.266   6.609   3.401
 2081SOL    HW2 7143   0.162   6.487   3.431
 2082SOL     OW 7144   0.681   6.219   2.251
 2082SOL    HW1 7145   0.773   6.180   2.250
 2082SOL    HW2 7146   0.675   6.289   2.323
 2083SOL     OW 7147   0.410   6.200   3.425
 2083SOL    HW1 7148   0.452   6.143   3.497
 2083SOL    HW2 7149   0.396   6.145   3.343
 2084SOL     OW 7150   1.052   1.787   1.096
 2084SOL    HW1 7151   0.987   1.861   1.112
 2084SOL    HW2 7152   1.019   1.703   1.138
 2085SOL     OW 7153   4.796   6.084   0.531
 2085SOL    HW1 7154   4.807   6.026   0.450
 2085SOL    HW2 7155   4.850   6.167   0.520
 2086SOL     OW 7156   3.789   6.871   7.013
 2086SOL    HW1 7157   3.753   6.964   7.022
 2086SOL    HW2 7158   3.795   6.847   6.916
 2087SOL     OW 7159   4.055   1.973   6.772
 2087SOL    HW1 7160   4.011   1.964   6.682
 2087SOL    HW2 7161   4.020   1.902   6.833
 2088SOL     OW 7162   0.492   5.956   6.280
 2088SOL    HW1 7163   0.580   6.002   6.291
 2088SOL    HW2 7164   0.472   5.903   6.363
 2089SOL     OW 7165   4.006   2.681   5.314
 2089SOL    HW1 7166   4.048   2.599   5.276
 2089SOL    HW2 7167   4.064   2.760   5.295
 2090SOL     OW 7168   4.598   3.255   5.464
 2090SOL    HW1 7169   4.651   3.238   5.548
 2090SOL    HW2 7170   4.660   3.283   5.391
 2091SOL     OW 7171   6.647   5.855   1.651
 2091SOL    HW1 7172   6.713   5.899   1.590
 2091SOL    HW2 7173   6.580   5.806   1.596
 2092SOL     OW 7174   4.998   3.945   1.169
 2092SOL    HW1 7175   5.062   3.891   1.224
 2092SOL    HW2 7176   5.047   4.019   1.123
 2093SOL     OW 7177   3.799   2.128   2.279
 2093SOL    HW1 7178   3.756   2.164   2.196
 2093SOL    HW2 7179   3.729   2.098   2.343
 2094SOL     OW 7180   6.101   2.950   0.245
 2094SOL    HW1 7181   6.126   3.022   0.309
 2094SOL    HW2 7182   6.071   2.869   0.296
 2095SOL     OW 7183   6.111   6.061   3.827
 2095SOL    HW1 7184   6.015   6.086   3.824
 2095SOL    HW2 7185   6.163   6.131   3.876
 2096SOL     OW 7186   4.609   6.396   2.218
 2096SOL    HW1 7187   4.631   6.393   2.316
 2096SOL    HW2 7188   4.519   6.439   2.206
 2097SOL     OW 7189   2.131   4.321   6.594
 2097SOL    HW1 7190   2.128   4.405   6.647
 2097SOL    HW2 7191   2.087   4.336   6.505
 2098SOL     OW 7192   4.078   5.838   3.318
 2098SOL    HW1 7193   4.108   5.809   3.408
 2098SOL    HW2 7194   4.009   5.910   3.327
 2099SOL     OW 7195   4.252   1.662   0.263
 2099SOL    HW1 7196   4.238   1.620   0.173
 2099SOL    HW2 7197   4.349   1.686   0.273
 2100SOL     OW 7198   5.216   1.190   0.699
 2100SOL    HW1 7199   5.200   1.110   0.757
 2100SOL    HW2 7200   5.180   1.172   0.608
 2101SOL     OW 7201   0.338   5.997   1.111
 2101SOL    HW1 7202   0.335   6.096   1.122
 2101SOL    HW2 7203   0.294   5.954   1.190
 2102SOL     OW 7204   3.821   2.828   1.575
 2102SOL    HW1 7205   3.853   2.889   1.648
 2102SOL    HW2 7206   3.723   2.812   1.585
 2103SOL     OW 7207   3.409   4.757   0.068
 2103SOL    HW1 7208   3.410   4.803   0.157
 2103SOL    HW2 7209   3.375   4.664   0.079
 2104SOL     OW 7210   1.925   4.419   2.763
 2104SOL    HW1 7211   1.978   4.349   2.811
 2104SOL    HW2 7212   1.988   4.489   2.729
 2105SOL     OW 7213   4.837   4.419   0.387
 2105SOL    HW1 7214   4.845   4.341   0.449
 2105SOL    HW2 7215   4.846   4.504   0.438
 2106SOL     OW 7216   5.363   3.563   1.440
 2106SOL    HW1 7217   5.339   3.478   1.486
 2106SOL    HW2 7218   5.462   3.579   1.449
 2107SOL     OW 7219   5.184   3.608   6.166
 2107SOL    HW1 7220   5.146   3.700   6.159
 2107SOL    HW2 7221   5.253   3.594   6.095
 2108SOL     OW 7222   5.804   6.777   6.025
 2108SOL    HW1 7223   5.834   6.686   5.999
 2108SOL    HW2 7224   5.711   6.773   6.062
 2109SOL     OW 7225   3.280   5.252   2.404
 2109SOL    HW1 7226   3.269   5.176   2.340
 2109SOL    HW2 7227   3.190   5.282   2.436
 2110SOL     OW 7228   4.271   1.059   6.635
 2110SOL    HW1 7229   4.351   0.999   6.632
 2110SOL    HW2 7230   4.287   1.132   6.700
 2111SOL     OW 7231   0.859   2.857   6.005
 2111SOL    HW1 7232   0.909   2.905   6.078
 2111SOL    HW2 7233   0.883   2.759   6.008
 2112SOL     OW 7234   6.036   0.912   0.201
 2112SOL    HW1 7235   5.940   0.930   0.219
 2112SOL    HW2 7236   6.046   0.824   0.155
 2113SOL     OW 7237   1.646   6.750   4.153
 2113SOL    HW1 7238   1.559   6.700   4.151
 2113SOL    HW2 7239   1.639   6.831   4.094
 2114SOL     OW 7240   2.829   2.979   0.228
 2114SOL    HW1 7241   2.900   3.032   0.275
 2114SOL    HW2 7242   2.844   2.882   0.244
 2115SOL     OW 7243   0.981   4.867   2.660
 2115SOL    HW1 7244   0.896   4.824   2.632
 2115SOL    HW2 7245   1.010   4.829   2.747
 2116SOL     OW 7246   1.282   2.392   0.213
 2116SOL    HW1 7247   1.336   2.455   0.157
 2116SOL    HW2 7248   1.335   2.309   0.229
 2117SOL     OW 7249   5.600   2.518   2.661
 2117SOL    HW1 7250   5.553   2.498   2.747
 2117SOL    HW2 7251   5.551   2.474   2.586
 2118SOL     OW 7252   6.950   3.665   2.666
 2118SOL    HW1 7253   7.025   3.602   2.648
 2118SOL    HW2 7254   6.910   3.695   2.580
 2119SOL     OW 7255   2.403   0.471   6.563
 2119SOL    HW1 7256   2.380   0.427   6.476
 2119SOL    HW2 7257   2.499   0.454   6.584
 2120SOL     OW 7258   6.780   2.181   2.088
 2120SOL    HW1 7259   6.816   2.274   2.073
 2120SOL    HW2 7260   6.689   2.187   2.131
 2121SOL     OW 7261   1.783   1.199   5.983
 2121SOL    HW1 7262   1.819   1.292   5.991
 2121SOL    HW2 7263   1.702   1.189   6.041
 2122SOL     OW 7264   6.076   0.475   5.694
 2122SOL    HW1 7265   6.138   0.542   5.654
 2122SOL    HW2 7266   6.091   0.470   5.793
 2123SOL     OW 7267   0.536   5.860   2.606
 2123SOL    HW1 7268   0.499   5.789   2.665
 2123SOL    HW2 7269   0.560   5.940   2.661
 2124SOL     OW 7270   3.787   2.863   5.918
 2124SOL    HW1 7271   3.766   2.888   6.012
 2124SOL    HW2 7272   3.772   2.765   5.905
 2125SOL     OW 7273   1.738   5.909   3.519
 2125SOL    HW1 7274   1.650   5.938   3.483
 2125SOL    HW2 7275   1.807   5.979   3.501
 2126SOL     OW 7276   3.622   3.461   0.520
 2126SOL    HW1 7277   3.670   3.546   0.539
 2126SOL    HW2 7278   3.673   3.409   0.450
 2127SOL     OW 7279   0.057   2.838   6.210
 2127SOL    HW1 7280   7.022   2.768   6.245
 2127SOL    HW2 7281   0.111   2.801   6.135
 2128SOL     OW 7282   5.940   3.937   1.100
 2128SOL    HW1 7283   5.915   3.865   1.165
 2128SOL    HW2 7284   5.931   3.901   1.006
 2129SOL     OW 7285   5.181   4.045   3.752
 2129SOL    HW1 7286   5.182   4.060   3.653
 2129SOL    HW2 7287   5.193   3.948   3.772
 2130SOL     OW 7288   2.413   1.341   1.334
 2130SOL    HW1 7289   2.492   1.334   1.272
 2130SOL    HW2 7290   2.368   1.429   1.321
 2131SOL     OW 7291   5.690   1.927   5.872
 2131SOL    HW1 7292   5.629   1.878   5.809
 2131SOL    HW2 7293   5.664   2.024   5.875
 2132SOL     OW 7294   2.653   1.486   6.402
 2132SOL    HW1 7295   2.566   1.514   6.362
 2132SOL    HW2 7296   2.657   1.514   6.498
 2133SOL     OW 7297   2.369   1.470   1.931
 2133SOL    HW1 7298   2.421   1.544   1.889
 2133SOL    HW2 7299   2.377   1.475   2.031
 2134SOL     OW 7300   0.182   6.658   4.320
 2134SOL    HW1 7301   0.257   6.720   4.300
 2134SOL    HW2 7302   0.217   6.567   4.338
 2135SOL     OW 7303   0.958   1.387   3.737
 2135SOL    HW1 7304   1.050   1.413   3.769
 2135SOL    HW2 7305   0.949   1.288   3.739
 2136SOL     OW 7306   1.141   3.646   5.041
 2136SOL    HW1 7307   1.208   3.692   4.982
 2136SOL    HW2 7308   1.107   3.565   4.994
 2137SOL     OW 7309   1.247   6.096   5.527
 2137SOL    HW1 7310   1.167   6.038   5.509
 2137SOL    HW2 7311   1.220   6.172   5.586
 2138SOL     OW 7312   0.218   2.847   0.688
 2138SOL    HW1 7313   0.215   2.872   0.785
 2138SOL    HW2 7314   0.219   2.930   0.632
 2139SOL     OW 7315   2.577   0.851   4.177
 2139SOL    HW1 7316   2.569   0.758   4.142
 2139SOL    HW2 7317   2.634   0.850   4.259
 2140SOL     OW 7318   2.625   6.264   2.826
 2140SOL    HW1 7319   2.705   6.225   2.781
 2140SOL    HW2 7320   2.548   6.200   2.819
 2141SOL     OW 7321   6.474   2.929   1.112
 2141SOL    HW1 7322   6.440   2.885   1.029
 2141SOL    HW2 7323   6.397   2.970   1.162
 2142SOL     OW 7324   1.412   2.091   3.166
 2142SOL    HW1 7325   1.492   2.151   3.167
 2142SOL    HW2 7326   1.364   2.098   3.253
 2143SOL     OW 7327   4.207   6.689   1.521
 2143SOL    HW1 7328   4.219   6.600   1.566
 2143SOL    HW2 7329   4.150   6.747   1.578
 2144SOL     OW 7330   1.205   0.734   3.106
 2144SOL    HW1 7331   1.230   0.721   3.010
 2144SOL    HW2 7332   1.282   0.773   3.156
 2145SOL     OW 7333   3.095   5.686   3.874
 2145SOL    HW1 7334   3.128   5.690   3.779
 2145SOL    HW2 7335   3.133   5.763   3.925
 2146SOL     OW 7336   2.833   3.549   1.870
 2146SOL    HW1 7337   2.741   3.559   1.831
 2146SOL    HW2 7338   2.870   3.460   1.846
 2147SOL     OW 7339   0.436   1.939   6.881
 2147SOL    HW1 7340   0.468   1.875   6.811
 2147SOL    HW2 7341   0.448   2.033   6.848
 2148SOL     OW 7342   4.882   3.655   3.857
 2148SOL    HW1 7343   4.936   3.575   3.832
 2148SOL    HW2 7344   4.824   3.682   3.781
 2149SOL     OW 7345   4.086   0.634   1.796
 2149SOL    HW1 7346   4.002   0.583   1.817
 2149SOL    HW2 7347   4.162   0.570   1.784
 2150SOL     OW 7348   3.925   1.793   2.839
 2150SOL    HW1 7349   3.990   1.728   2.800
 2150SOL    HW2 7350   3.851   1.742   2.884
 2151SOL     OW 7351   3.842   2.581   5.784
 2151SOL    HW1 7352   3.878   2.570   5.877
 2151SOL    HW2 7353   3.905   2.636   5.730
 2152SOL     OW 7354   6.053   6.769   2.168
 2152SOL    HW1 7355   6.042   6.733   2.260
 2152SOL    HW2 7356   6.075   6.693   2.106
 2153SOL     OW 7357   4.571   1.672   3.860
 2153SOL    HW1 7358   4.617   1.589   3.891
 2153SOL    HW2 7359   4.487   1.685   3.912
 2154SOL     OW 7360   3.128   5.290   4.710
 2154SOL    HW1 7361   3.050   5.262   4.767
 2154SOL    HW2 7362   3.124   5.242   4.622
 2155SOL     OW 7363   2.191   4.707   0.239
 2155SOL    HW1 7364   2.259   4.669   0.177
 2155SOL    HW2 7365   2.234   4.729   0.326
 2156SOL     OW 7366   1.599   0.473   1.613
 2156SOL    HW1 7367   1.554   0.420   1.684
 2156SOL    HW2 7368   1.668   0.417   1.567
 2157SOL     OW 7369   0.125   1.404   5.226
 2157SOL    HW1 7370   0.068   1.474   5.183
 2157SOL    HW2 7371   0.118   1.319   5.174
 2158SOL     OW 7372   3.982   0.116   1.160
 2158SOL    HW1 7373   4.049   0.131   1.232
 2158SOL    HW2 7374   3.911   0.185   1.165
 2159SOL     OW 7375   1.463   6.968   4.943
 2159SOL    HW1 7376   1.561   6.990   4.933
 2159SOL    HW2 7377   1.452   6.869   4.949
 2160SOL     OW 7378   3.817   4.334   1.251
 2160SOL    HW1 7379   3.755   4.264   1.286
 2160SOL    HW2 7380   3.817   4.413   1.312
 2161SOL     OW 7381   4.886   3.788   3.230
 2161SOL    HW1 7382   4.833   3.802   3.314
 2161SOL    HW2 7383   4.900   3.877   3.185
 2162SOL     OW 7384   2.278   0.574   6.782
 2162SOL    HW1 7385   2.275   0.529   6.871
 2162SOL    HW2 7386   2.324   0.515   6.715
 2163SOL     OW 7387   1.925   7.002   0.198
 2163SOL    HW1 7388   1.933   6.917   0.251
 2163SOL    HW2 7389   1.834   0.015   0.212
 2164SOL     OW 7390   2.065   0.491   6.542
 2164SOL    HW1 7391   2.054   0.573   6.487
 2164SOL    HW2 7392   2.148   0.498   6.597
 2165SOL     OW 7393   1.309   0.677   2.850
 2165SOL    HW1 7394   1.296   0.691   2.752
 2165SOL    HW2 7395   1.361   0.593   2.865
 2166SOL     OW 7396   1.329   2.030   5.464
 2166SOL    HW1 7397   1.348   1.968   5.388
 2166SOL    HW2 7398   1.259   2.096   5.437
 2167SOL     OW 7399   2.457   0.793   2.224
 2167SOL    HW1 7400   2.522   0.788   2.299
 2167SOL    HW2 7401   2.503   0.827   2.142
 2168SOL     OW 7402   5.889   3.791   4.274
 2168SOL    HW1 7403   5.813   3.855   4.281
 2168SOL    HW2 7404   5.955   3.810   4.347
 2169SOL     OW 7405   5.422   2.896   5.846
 2169SOL    HW1 7406   5.349   2.948   5.802
 2169SOL    HW2 7407   5.499   2.887   5.782
 2170SOL     OW 7408   4.731   4.750   5.301
 2170SOL    HW1 7409   4.828   4.773   5.299
 2170SOL    HW2 7410   4.703   4.731   5.395
 2171SOL     OW 7411   6.547   3.193   6.942
 2171SOL    HW1 7412   6.449   3.174   6.949
 2171SOL    HW2 7413   6.583   3.148   6.860
 2172SOL     OW 7414   3.409   1.713   0.387
 2172SOL    HW1 7415   3.398   1.688   0.484
 2172SOL    HW2 7416   3.320   1.742   0.350
 2173SOL     OW 7417   4.103   0.404   5.808
 2173SOL    HW1 7418   4.014   0.390   5.850
 2173SOL    HW2 7419   4.171   0.422   5.879
 2174SOL     OW 7420   6.647   4.449   4.700
 2174SOL    HW1 7421   6.612   4.443   4.606
 2174SOL    HW2 7422   6.572   4.474   4.761
 2175SOL     OW 7423   2.575   0.186   3.081
 2175SOL    HW1 7424   2.530   0.097   3.075
 2175SOL    HW2 7425   2.663   0.176   3.127
 2176SOL     OW 7426   2.082   2.324   2.466
 2176SOL    HW1 7427   1.996   2.275   2.479
 2176SOL    HW2 7428   2.064   2.421   2.456
 2177SOL     OW 7429   6.393   2.077   1.257
 2177SOL    HW1 7430   6.471   2.114   1.307
 2177SOL    HW2 7431   6.424   2.001   1.200
 2178SOL     OW 7432   1.050   4.882   0.494
 2178SOL    HW1 7433   1.088   4.971   0.465
 2178SOL    HW2 7434   0.951   4.890   0.502
 2179SOL     OW 7435   1.112   5.633   4.347
 2179SOL    HW1 7436   1.041   5.686   4.301
 2179SOL    HW2 7437   1.201   5.677   4.335
 2180SOL     OW 7438   3.102   4.019   2.810
 2180SOL    HW1 7439   3.109   3.925   2.776
 2180SOL    HW2 7440   3.093   4.018   2.909
 2181SOL     OW 7441   4.873   5.642   5.848
 2181SOL    HW1 7442   4.859   5.733   5.810
 2181SOL    HW2 7443   4.969   5.630   5.870
 2182SOL     OW 7444   6.674   3.843   6.578
 2182SOL    HW1 7445   6.629   3.921   6.536
 2182SOL    HW2 7446   6.768   3.836   6.544
 2183SOL     OW 7447   3.138   2.846   0.376
 2183SOL    HW1 7448   3.109   2.797   0.294
 2183SOL    HW2 7449   3.167   2.938   0.352
 2184SOL     OW 7450   3.574   1.413   6.493
 2184SOL    HW1 7451   3.618   1.359   6.421
 2184SOL    HW2 7452   3.645   1.458   6.548
 2185SOL     OW 7453   1.726   0.487   0.594
 2185SOL    HW1 7454   1.745   0.504   0.691
 2185SOL    HW2 7455   1.681   0.568   0.555
 2186SOL     OW 7456   0.154   4.638   2.775
 2186SOL    HW1 7457   0.152   4.618   2.677
 2186SOL    HW2 7458   0.171   4.736   2.788
 2187SOL     OW 7459   6.244   1.699   1.033
 2187SOL    HW1 7460   6.243   1.599   1.027
 2187SOL    HW2 7461   6.150   1.732   1.044
 2188SOL     OW 7462   5.282   6.406   3.420
 2188SOL    HW1 7463   5.202   6.460   3.448
 2188SOL    HW2 7464   5.329   6.372   3.502
 2189SOL     OW 7465   2.070   0.445   5.976
 2189SOL    HW1 7466   2.038   0.514   6.041
 2189SOL    HW2 7467   2.088   0.488   5.887
 2190SOL     OW 7468   6.370   2.444   1.461
 2190SOL    HW1 7469   6.466   2.471   1.462
 2190SOL    HW2 7470   6.350   2.395   1.377
 2191SOL     OW 7471   3.531   2.957   6.309
 2191SOL    HW1 7472   3.497   3.044   6.346
 2191SOL    HW2 7473   3.455   2.903   6.276
 2192SOL     OW 7474   4.178   6.144   5.189
 2192SOL    HW1 7475   4.236   6.142   5.270
 2192SOL    HW2 7476   4.232   6.174   5.110
 2193SOL     OW 7477   1.094   5.453   5.541
 2193SOL    HW1 7478   1.038   5.520   5.591
 2193SOL    HW2 7479   1.186   5.489   5.528
 2194SOL     OW 7480   2.518   6.204   0.390
 2194SOL    HW1 7481   2.470   6.181   0.474
 2194SOL    HW2 7482   2.563   6.123   0.353
 2195SOL     OW 7483   1.386   5.489   2.571
 2195SOL    HW1 7484   1.323   5.520   2.644
 2195SOL    HW2 7485   1.479   5.518   2.593
 2196SOL     OW 7486   3.513   1.822   5.604
 2196SOL    HW1 7487   3.488   1.735   5.563
 2196SOL    HW2 7488   3.611   1.838   5.592
 2197SOL     OW 7489   4.859   4.556   1.600
 2197SOL    HW1 7490   4.763   4.570   1.579
 2197SOL    HW2 7491   4.915   4.594   1.526
 2198SOL     OW 7492   6.723   4.231   0.162
 2198SOL    HW1 7493   6.720   4.134   0.138
 2198SOL    HW2 7494   6.649   4.279   0.113
 2199SOL     OW 7495   4.738   6.923   0.663
 2199SOL    HW1 7496   4.704   6.840   0.708
 2199SOL    HW2 7497   4.835   6.934   0.684
 2200SOL     OW 7498   3.986   0.726   4.581
 2200SOL    HW1 7499   3.925   0.770   4.647
 2200SOL    HW2 7500   4.026   0.795   4.521
 2201SOL     OW 7501   6.150   3.125   2.347
 2201SOL    HW1 7502   6.207   3.055   2.389
 2201SOL    HW2 7503   6.209   3.191   2.300
 2202SOL     OW 7504   3.826   5.547   4.035
 2202SOL    HW1 7505   3.924   5.547   4.017
 2202SOL    HW2 7506   3.801   5.465   4.087
 2203SOL     OW 7507   3.636   2.094   3.239
 2203SOL    HW1 7508   3.658   2.105   3.142
 2203SOL    HW2 7509   3.537   2.103   3.251
 2204SOL     OW 7510   3.012   1.921   0.020
 2204SOL    HW1 7511   2.913   1.917   0.017
 2204SOL    HW2 7512   3.042   2.001   0.072
 2205SOL     OW 7513   1.927   6.776   0.356
 2205SOL    HW1 7514   1.960   6.786   0.450
 2205SOL    HW2 7515   1.952   6.686   0.321
 2206SOL     OW 7516   3.224   3.583   6.939
 2206SOL    HW1 7517   3.255   3.611   6.848
 2206SOL    HW2 7518   3.169   3.656   6.979
 2207SOL     OW 7519   1.632   4.727   6.356
 2207SOL    HW1 7520   1.580   4.789   6.298
 2207SOL    HW2 7521   1.570   4.680   6.419
 2208SOL     OW 7522   0.527   3.431   2.007
 2208SOL    HW1 7523   0.471   3.487   2.068
 2208SOL    HW2 7524   0.610   3.482   1.983
 2209SOL     OW 7525   1.316   5.387   6.461
 2209SOL    HW1 7526   1.254   5.370   6.385
 2209SOL    HW2 7527   1.330   5.302   6.513
 2210SOL     OW 7528   0.925   5.926   3.532
 2210SOL    HW1 7529   0.948   5.985   3.609
 2210SOL    HW2 7530   0.928   5.831   3.562
 2211SOL     OW 7531   6.339   1.409   5.424
 2211SOL    HW1 7532   6.341   1.326   5.481
 2211SOL    HW2 7533   6.423   1.415   5.371
 2212SOL     OW 7534   1.279   0.440   5.770
 2212SOL    HW1 7535   1.257   0.400   5.681
 2212SOL    HW2 7536   1.270   0.370   5.841
 2213SOL     OW 7537   4.138   2.301   3.502
 2213SOL    HW1 7538   4.071   2.299   3.428
 2213SOL    HW2 7539   4.218   2.246   3.477
 2214SOL     OW 7540   5.448   0.184   4.563
 2214SOL    HW1 7541   5.376   0.114   4.561
 2214SOL    HW2 7542   5.510   0.169   4.486
 2215SOL     OW 7543   0.022   2.229   5.274
 2215SOL    HW1 7544   6.950   2.236   5.256
 2215SOL    HW2 7545   0.069   2.201   5.191
 2216SOL     OW 7546   1.043   6.766   0.585
 2216SOL    HW1 7547   0.958   6.745   0.633
 2216SOL    HW2 7548   1.120   6.722   0.632
 2217SOL     OW 7549   4.621   6.983   1.481
 2217SOL    HW1 7550   4.591   0.052   1.472
 2217SOL    HW2 7551   4.705   6.970   1.427
 2218SOL     OW 7552   0.809   5.721   6.303
 2218SOL    HW1 7553   0.743   5.691   6.372
 2218SOL    HW2 7554   0.855   5.804   6.336
 2219SOL     OW 7555   1.502   3.989   3.100
 2219SOL    HW1 7556   1.487   3.921   3.028
 2219SOL    HW2 7557   1.511   4.080   3.060
 2220SOL     OW 7558   0.431   2.074   5.405
 2220SOL    HW1 7559   0.417   2.165   5.445
 2220SOL    HW2 7560   0.356   2.014   5.431
 2221SOL     OW 7561   6.657   2.078   1.315
 2221SOL    HW1 7562   6.731   2.144   1.327
 2221SOL    HW2 7563   6.679   2.017   1.239
 2222SOL     OW 7564   4.600   6.867   2.275
 2222SOL    HW1 7565   4.679   6.807   2.286
 2222SOL    HW2 7566   4.590   6.891   2.179
 2223SOL     OW 7567   5.860   5.255   4.146
 2223SOL    HW1 7568   5.892   5.165   4.117
 2223SOL    HW2 7569   5.769   5.246   4.187
 2224SOL     OW 7570   2.398   4.651   1.793
 2224SOL    HW1 7571   2.487   4.659   1.838
 2224SOL    HW2 7572   2.335   4.602   1.854
 2225SOL     OW 7573   6.534   5.052   2.325
 2225SOL    HW1 7574   6.596   5.072   2.250
 2225SOL    HW2 7575   6.531   4.953   2.340
 2226SOL     OW 7576   3.614   2.966   1.206
 2226SOL    HW1 7577   3.581   2.874   1.224
 2226SOL    HW2 7578   3.688   2.988   1.270
 2227SOL     OW 7579   6.570   3.976   5.896
 2227SOL    HW1 7580   6.563   4.074   5.916
 2227SOL    HW2 7581   6.495   3.927   5.940
 2228SOL     OW 7582   3.100   4.865   6.126
 2228SOL    HW1 7583   3.174   4.800   6.145
 2228SOL    HW2 7584   3.013   4.828   6.157
 2229SOL     OW 7585   4.617   1.211   3.254
 2229SOL    HW1 7586   4.616   1.303   3.293
 2229SOL    HW2 7587   4.649   1.216   3.159
 2230SOL     OW 7588   0.790   5.757   5.082
 2230SOL    HW1 7589   0.840   5.675   5.109
 2230SOL    HW2 7590   0.735   5.790   5.158
 2231SOL     OW 7591   1.926   0.146   1.850
 2231SOL    HW1 7592   1.832   0.169   1.874
 2231SOL    HW2 7593   1.938   0.155   1.751
 2232SOL     OW 7594   6.782   2.721   2.643
 2232SOL    HW1 7595   6.875   2.739   2.677
 2232SOL    HW2 7596   6.756   2.793   2.578
 2233SOL     OW 7597   3.474   6.588   0.262
 2233SOL    HW1 7598   3.389   6.634   0.289
 2233SOL    HW2 7599   3.490   6.603   0.164
 2234SOL     OW 7600   3.508   1.332   0.700
 2234SOL    HW1 7601   3.466   1.257   0.650
 2234SOL    HW2 7602   3.572   1.380   0.641
 2235SOL     OW 7603   0.973   0.018   0.664
 2235SOL    HW1 7604   1.001   6.953   0.634
 2235SOL    HW2 7605   1.051   0.064   0.708
 2236SOL     OW 7606   0.698   4.718   1.175
 2236SOL    HW1 7607   0.605   4.719   1.141
 2236SOL    HW2 7608   0.738   4.810   1.167
 2237SOL     OW 7609   6.854   3.027   4.794
 2237SOL    HW1 7610   6.877   3.064   4.704
 2237SOL    HW2 7611   6.836   3.102   4.858
 2238SOL     OW 7612   0.517   5.909   1.767
 2238SOL    HW1 7613   0.615   5.894   1.756
 2238SOL    HW2 7614   0.486   5.865   1.852
 2239SOL     OW 7615   3.803   4.849   3.586
 2239SOL    HW1 7616   3.890   4.817   3.547
 2239SOL    HW2 7617   3.749   4.894   3.514
 2240SOL     OW 7618   6.454   4.831   3.182
 2240SOL    HW1 7619   6.452   4.738   3.145
 2240SOL    HW2 7620   6.515   4.835   3.261
 2241SOL     OW 7621   6.796   6.420   1.970
 2241SOL    HW1 7622   6.808   6.321   1.975
 2241SOL    HW2 7623   6.749   6.444   1.886
 2242SOL     OW 7624   4.800   2.427   3.206
 2242SOL    HW1 7625   4.702   2.434   3.190
 2242SOL    HW2 7626   4.845   2.393   3.124
 2243SOL     OW 7627   2.058   6.100   5.221
 2243SOL    HW1 7628   2.122   6.138   5.287
 2243SOL    HW2 7629   1.978   6.160   5.213
 2244SOL     OW 7630   2.451   0.429   4.312
 2244SOL    HW1 7631   2.421   0.355   4.252
 2244SOL    HW2 7632   2.524   0.396   4.372
 2245SOL     OW 7633   0.692   1.422   2.586
 2245SOL    HW1 7634   0.612   1.387   2.538
 2245SOL    HW2 7635   0.750   1.474   2.523
 2246SOL     OW 7636   1.130   3.815   6.300
 2246SOL    HW1 7637   1.115   3.830   6.398
 2246SOL    HW2 7638   1.184   3.890   6.263
 2247SOL     OW 7639   2.099   2.709   6.384
 2247SOL    HW1 7640   2.010   2.720   6.429
 2247SOL    HW2 7641   2.085   2.692   6.287
 2248SOL     OW 7642   4.773   4.128   5.494
 2248SOL    HW1 7643   4.761   4.221   5.460
 2248SOL    HW2 7644   4.708   4.111   5.568
 2249SOL     OW 7645   5.504   6.065   3.516
 2249SOL    HW1 7646   5.427   6.001   3.512
 2249SOL    HW2 7647   5.548   6.069   3.426
 2250SOL     OW 7648   6.408   4.291   1.037
 2250SOL    HW1 7649   6.364   4.207   1.007
 2250SOL    HW2 7650   6.499   4.297   0.996
 2251SOL     OW 7651   5.783   0.941   0.314
 2251SOL    HW1 7652   5.801   0.963   0.410
 2251SOL    HW2 7653   5.685   0.934   0.299
 2252SOL     OW 7654   5.232   2.738   5.023
 2252SOL    HW1 7655   5.324   2.713   4.992
 2252SOL    HW2 7656   5.198   2.667   5.085
 2253SOL     OW 7657   2.647   2.926   6.725
 2253SOL    HW1 7658   2.662   2.834   6.761
 2253SOL    HW2 7659   2.699   2.992   6.779
 2254SOL     OW 7660   2.209   3.896   6.528
 2254SOL    HW1 7661   2.126   3.881   6.474
 2254SOL    HW2 7662   2.259   3.975   6.491
 2255SOL     OW 7663   5.920   2.617   2.043
 2255SOL    HW1 7664   5.836   2.668   2.062
 2255SOL    HW2 7665   5.922   2.591   1.946
 2256SOL     OW 7666   4.009   4.764   2.292
 2256SOL    HW1 7667   3.991   4.825   2.215
 2256SOL    HW2 7668   3.969   4.674   2.273
 2257SOL     OW 7669   1.639   4.118   3.735
 2257SOL    HW1 7670   1.569   4.179   3.699
 2257SOL    HW2 7671   1.612   4.023   3.722
 2258SOL     OW 7672   1.702   5.617   4.970
 2258SOL    HW1 7673   1.797   5.638   4.993
 2258SOL    HW2 7674   1.664   5.553   5.038
 2259SOL     OW 7675   5.277   3.818   6.987
 2259SOL    HW1 7676   5.231   3.757   0.025
 2259SOL    HW2 7677   5.375   3.797   6.986
 2260SOL     OW 7678   5.312   4.888   1.679
 2260SOL    HW1 7679   5.355   4.923   1.596
 2260SOL    HW2 7680   5.298   4.962   1.744
 2261SOL     OW 7681   5.681   6.443   0.509
 2261SOL    HW1 7682   5.590   6.401   0.503
 2261SOL    HW2 7683   5.676   6.538   0.478
 2262SOL     OW 7684   4.794   2.480   3.941
 2262SOL    HW1 7685   4.731   2.484   4.019
 2262SOL    HW2 7686   4.806   2.572   3.902
 2263SOL     OW 7687   1.539   5.211   5.925
 2263SOL    HW1 7688   1.600   5.152   5.873
 2263SOL    HW2 7689   1.468   5.247   5.864
 2264SOL     OW 7690   3.007   3.293   3.512
 2264SOL    HW1 7691   3.010   3.235   3.431
 2264SOL    HW2 7692   3.002   3.236   3.594
 2265SOL     OW 7693   0.115   0.128   1.777
 2265SOL    HW1 7694   0.081   0.127   1.682
 2265SOL    HW2 7695   0.089   0.043   1.822
 2266SOL     OW 7696   5.983   0.267   0.671
 2266SOL    HW1 7697   5.971   0.363   0.693
 2266SOL    HW2 7698   5.970   0.212   0.754
 2267SOL     OW 7699   5.955   2.628   5.380
 2267SOL    HW1 7700   5.923   2.624   5.474
 2267SOL    HW2 7701   5.986   2.537   5.352
 2268SOL     OW 7702   0.019   6.434   0.270
 2268SOL    HW1 7703   6.974   6.500   0.248
 2268SOL    HW2 7704   0.095   6.444   0.206
 2269SOL     OW 7705   6.625   5.375   6.058
 2269SOL    HW1 7706   6.635   5.336   5.967
 2269SOL    HW2 7707   6.632   5.475   6.052
 2270SOL     OW 7708   3.099   3.464   2.063
 2270SOL    HW1 7709   3.058   3.551   2.036
 2270SOL    HW2 7710   3.029   3.393   2.065
 2271SOL     OW 7711   5.723   4.576   2.194
 2271SOL    HW1 7712   5.683   4.553   2.105
 2271SOL    HW2 7713   5.767   4.495   2.233
 2272SOL     OW 7714   5.694   2.099   5.565
 2272SOL    HW1 7715   5.666   2.133   5.475
 2272SOL    HW2 7716   5.640   2.018   5.588
 2273SOL     OW 7717   0.660   1.100   3.401
 2273SOL    HW1 7718   0.722   1.038   3.353
 2273SOL    HW2 7719   0.712   1.168   3.451
 2274SOL     OW 7720   1.548   3.418   4.868
 2274SOL    HW1 7721   1.601   3.354   4.925
 2274SOL    HW2 7722   1.611   3.475   4.815
 2275SOL     OW 7723   5.588   6.175   4.368
 2275SOL    HW1 7724   5.538   6.089   4.360
 2275SOL    HW2 7725   5.680   6.157   4.401
 2276SOL     OW 7726   4.256   4.224   1.159
 2276SOL    HW1 7727   4.271   4.195   1.254
 2276SOL    HW2 7728   4.282   4.150   1.097
 2277SOL     OW 7729   3.113   3.288   6.730
 2277SOL    HW1 7730   3.104   3.329   6.821
 2277SOL    HW2 7731   3.200   3.239   6.723
 2278SOL     OW 7732   5.300   6.097   1.287
 2278SOL    HW1 7733   5.327   6.159   1.361
 2278SOL    HW2 7734   5.354   6.013   1.291
 2279SOL     OW 7735   5.630   2.905   4.953
 2279SOL    HW1 7736   5.550   2.958   4.922
 2279SOL    HW2 7737   5.636   2.910   5.053
 2280SOL     OW 7738   6.181   5.993   5.724
 2280SOL    HW1 7739   6.198   5.970   5.820
 2280SOL    HW2 7740   6.251   6.057   5.693
 2281SOL     OW 7741   3.551   1.965   1.665
 2281SOL    HW1 7742   3.459   1.988   1.632
 2281SOL    HW2 7743   3.595   1.902   1.601
 2282SOL     OW 7744   5.006   5.678   3.252
 2282SOL    HW1 7745   4.953   5.763   3.254
 2282SOL    HW2 7746   5.104   5.699   3.257
 2283SOL     OW 7747   0.271   3.374   3.575
 2283SOL    HW1 7748   0.303   3.331   3.659
 2283SOL    HW2 7749   0.332   3.450   3.550
 2284SOL     OW 7750   2.384   1.871   1.611
 2284SOL    HW1 7751   2.294   1.912   1.621
 2284SOL    HW2 7752   2.434   1.918   1.538
 2285SOL     OW 7753   0.851   3.289   0.780
 2285SOL    HW1 7754   0.768   3.265   0.831
 2285SOL    HW2 7755   0.906   3.206   0.767
 2286SOL     OW 7756   6.447   6.086   4.686
 2286SOL    HW1 7757   6.476   6.142   4.764
 2286SOL    HW2 7758   6.528   6.053   4.637
 2287SOL     OW 7759   2.558   2.652   1.632
 2287SOL    HW1 7760   2.601   2.628   1.545
 2287SOL    HW2 7761   2.626   2.693   1.693
 2288SOL     OW 7762   0.052   6.210   2.581
 2288SOL    HW1 7763   0.042   6.113   2.559
 2288SOL    HW2 7764   0.012   6.228   2.671
 2289SOL     OW 7765   5.513   1.738   2.463
 2289SOL    HW1 7766   5.474   1.648   2.483
 2289SOL    HW2 7767   5.445   1.795   2.417
 2290SOL     OW 7768   3.179   3.992   3.322
 2290SOL    HW1 7769   3.218   4.067   3.268
 2290SOL    HW2 7770   3.250   3.954   3.381
 2291SOL     OW 7771   2.052   2.428   0.974
 2291SOL    HW1 7772   2.071   2.494   1.047
 2291SOL    HW2 7773   2.136   2.376   0.954
 2292SOL     OW 7774   4.289   1.896   2.862
 2292SOL    HW1 7775   4.356   1.966   2.836
 2292SOL    HW2 7776   4.207   1.907   2.805
 2293SOL     OW 7777   5.469   1.271   0.657
 2293SOL    HW1 7778   5.502   1.311   0.572
 2293SOL    HW2 7779   5.369   1.260   0.653
 2294SOL     OW 7780   1.236   2.726   6.416
 2294SOL    HW1 7781   1.333   2.749   6.414
 2294SOL    HW2 7782   1.225   2.627   6.403
 2295SOL     OW 7783   6.753   6.918   2.078
 2295SOL    HW1 7784   6.751   6.857   1.998
 2295SOL    HW2 7785   6.736   6.865   2.161
 2296SOL     OW 7786   2.699   5.374   3.557
 2296SOL    HW1 7787   2.764   5.324   3.615
 2296SOL    HW2 7788   2.620   5.402   3.612
 2297SOL     OW 7789   4.484   4.953   5.505
 2297SOL    HW1 7790   4.458   4.951   5.601
 2297SOL    HW2 7791   4.565   4.897   5.490
 2298SOL     OW 7792   3.901   3.013   4.527
 2298SOL    HW1 7793   3.876   3.048   4.618
 2298SOL    HW2 7794   3.926   2.916   4.535
 2299SOL     OW 7795   5.080   3.099   4.915
 2299SOL    HW1 7796   5.142   3.086   4.993
 2299SOL    HW2 7797   5.071   3.013   4.865
 2300SOL     OW 7798   3.970   6.391   2.837
 2300SOL    HW1 7799   4.012   6.311   2.878
 2300SOL    HW2 7800   3.875   6.398   2.867
 2301SOL     OW 7801   3.476   2.994   4.574
 2301SOL    HW1 7802   3.414   2.950   4.509
 2301SOL    HW2 7803   3.562   3.016   4.528
 2302SOL     OW 7804   4.512   1.753   0.276
 2302SOL    HW1 7805   4.549   1.833   0.229
 2302SOL    HW2 7806   4.577   1.722   0.345
 2303SOL     OW 7807   2.376   2.173   0.602
 2303SOL    HW1 7808   2.465   2.218   0.598
 2303SOL    HW2 7809   2.375   2.096   0.538
 2304SOL     OW 7810   6.489   6.155   2.643
 2304SOL    HW1 7811   6.559   6.225   2.659
 2304SOL    HW2 7812   6.399   6.193   2.661
 2305SOL     OW 7813   1.356   1.324   5.286
 2305SOL    HW1 7814   1.358   1.316   5.187
 2305SOL    HW2 7815   1.335   1.235   5.326
 2306SOL     OW 7816   2.602   4.700   3.463
 2306SOL    HW1 7817   2.571   4.772   3.525
 2306SOL    HW2 7818   2.627   4.619   3.516
 2307SOL     OW 7819   1.115   2.653   5.647
 2307SOL    HW1 7820   1.123   2.593   5.727
 2307SOL    HW2 7821   1.137   2.747   5.674
 2308SOL     OW 7822   2.625   4.697   1.927
 2308SOL    HW1 7823   2.574   4.655   2.002
 2308SOL    HW2 7824   2.722   4.675   1.935
 2309SOL     OW 7825   1.156   6.342   4.338
 2309SOL    HW1 7826   1.059   6.333   4.319
 2309SOL    HW2 7827   1.209   6.317   4.257
 2310SOL     OW 7828   4.436   6.944   1.285
 2310SOL    HW1 7829   4.513   6.974   1.341
 2310SOL    HW2 7830   4.350   6.961   1.335
 2311SOL     OW 7831   2.696   5.970   0.804
 2311SOL    HW1 7832   2.681   5.955   0.901
 2311SOL    HW2 7833   2.676   5.886   0.753
 2312SOL     OW 7834   3.905   5.663   2.541
 2312SOL    HW1 7835   3.820   5.634   2.497
 2312SOL    HW2 7836   3.889   5.677   2.639
 2313SOL     OW 7837   5.171   4.879   2.346
 2313SOL    HW1 7838   5.081   4.836   2.337
 2313SOL    HW2 7839   5.224   4.831   2.415
 2314SOL     OW 7840   3.159   5.933   3.481
 2314SOL    HW1 7841   3.125   5.843   3.507
 2314SOL    HW2 7842   3.244   5.952   3.531
 2315SOL     OW 7843   3.968   3.376   5.867
 2315SOL    HW1 7844   3.958   3.279   5.890
 2315SOL    HW2 7845   4.065   3.399   5.860
 2316SOL     OW 7846   5.507   2.819   3.305
 2316SOL    HW1 7847   5.480   2.835   3.210
 2316SOL    HW2 7848   5.463   2.737   3.339
 2317SOL     OW 7849   2.009   4.517   3.415
 2317SOL    HW1 7850   2.024   4.440   3.478
 2317SOL    HW2 7851   2.097   4.559   3.393
 2318SOL     OW 7852   0.080   0.770   3.394
 2318SOL    HW1 7853   0.095   0.780   3.295
 2318SOL    HW2 7854   0.091   0.858   3.439
 2319SOL     OW 7855   1.492   4.988   4.523
 2319SOL    HW1 7856   1.503   4.918   4.593
 2319SOL    HW2 7857   1.397   5.020   4.523
 2320SOL     OW 7858   6.959   2.714   4.210
 2320SOL    HW1 7859   6.973   2.769   4.127
 2320SOL    HW2 7860   7.022   2.637   4.210
 2321SOL     OW 7861   3.167   6.809   5.272
 2321SOL    HW1 7862   3.210   6.845   5.189
 2321SOL    HW2 7863   3.077   6.771   5.249
 2322SOL     OW 7864   1.218   0.613   5.174
 2322SOL    HW1 7865   1.161   0.633   5.253
 2322SOL    HW2 7866   1.288   0.547   5.199
 2323SOL     OW 7867   4.311   6.042   2.049
 2323SOL    HW1 7868   4.284   6.086   2.135
 2323SOL    HW2 7869   4.393   6.087   2.013
 2324SOL     OW 7870   0.418   5.679   2.772
 2324SOL    HW1 7871   0.429   5.684   2.871
 2324SOL    HW2 7872   0.402   5.584   2.745
 2325SOL     OW 7873   1.295   3.827   0.841
 2325SOL    HW1 7874   1.291   3.881   0.757
 2325SOL    HW2 7875   1.379   3.849   0.891
 2326SOL     OW 7876   1.005   5.171   6.684
 2326SOL    HW1 7877   0.907   5.175   6.665
 2326SOL    HW2 7878   1.019   5.171   6.783
 2327SOL     OW 7879   5.031   2.672   3.768
 2327SOL    HW1 7880   5.093   2.746   3.743
 2327SOL    HW2 7881   5.082   2.598   3.811
 2328SOL     OW 7882   4.704   1.272   2.720
 2328SOL    HW1 7883   4.748   1.348   2.768
 2328SOL    HW2 7884   4.658   1.213   2.787
 2329SOL     OW 7885   1.026   5.880   3.888
 2329SOL    HW1 7886   1.045   5.829   3.804
 2329SOL    HW2 7887   0.943   5.934   3.876
 2330SOL     OW 7888   0.936   4.461   2.686
 2330SOL    HW1 7889   1.001   4.445   2.759
 2330SOL    HW2 7890   0.848   4.490   2.724
 2331SOL     OW 7891   0.631   4.485   5.391
 2331SOL    HW1 7892   0.581   4.550   5.449
 2331SOL    HW2 7893   0.675   4.535   5.316
 2332SOL     OW 7894   5.380   2.092   5.963
 2332SOL    HW1 7895   5.439   2.070   6.041
 2332SOL    HW2 7896   5.355   2.188   5.965
 2333SOL     OW 7897   1.147   5.868   3.340
 2333SOL    HW1 7898   1.207   5.865   3.419
 2333SOL    HW2 7899   1.065   5.921   3.362
 2334SOL     OW 7900   3.284   6.834   0.190
 2334SOL    HW1 7901   3.302   6.923   0.148
 2334SOL    HW2 7902   3.209   6.842   0.255
 2335SOL     OW 7903   4.985   6.948   3.424
 2335SOL    HW1 7904   5.031   6.918   3.508
 2335SOL    HW2 7905   4.935   6.871   3.384
 2336SOL     OW 7906   4.849   0.954   5.833
 2336SOL    HW1 7907   4.762   0.939   5.785
 2336SOL    HW2 7908   4.835   1.022   5.906
 2337SOL     OW 7909   5.237   0.050   3.196
 2337SOL    HW1 7910   5.245   0.041   3.295
 2337SOL    HW2 7911   5.142   0.069   3.172
 2338SOL     OW 7912   0.576   6.889   6.230
 2338SOL    HW1 7913   0.614   6.897   6.323
 2338SOL    HW2 7914   0.496   6.948   6.221
 2339SOL     OW 7915   3.749   4.459   6.940
 2339SOL    HW1 7916   3.743   4.557   6.959
 2339SOL    HW2 7917   3.704   4.440   6.853
 2340SOL     OW 7918   3.763   5.839   4.660
 2340SOL    HW1 7919   3.780   5.831   4.758
 2340SOL    HW2 7920   3.692   5.908   4.644
 2341SOL     OW 7921   5.304   5.179   1.143
 2341SOL    HW1 7922   5.262   5.254   1.194
 2341SOL    HW2 7923   5.384   5.212   1.094
 2342SOL     OW 7924   6.391   0.340   5.071
 2342SOL    HW1 7925   6.451   0.415   5.042
 2342SOL    HW2 7926   6.433   0.252   5.048
 2343SOL     OW 7927   1.312   5.580   0.888
 2343SOL    HW1 7928   1.346   5.523   0.813
 2343SOL    HW2 7929   1.352   5.549   0.974
 2344SOL     OW 7930   1.869   1.979   1.997
 2344SOL    HW1 7931   1.813   1.933   1.928
 2344SOL    HW2 7932   1.946   2.023   1.953
 2345SOL     OW 7933   1.888   0.813   4.602
 2345SOL    HW1 7934   1.956   0.789   4.533
 2345SOL    HW2 7935   1.806   0.758   4.588
 2346SOL     OW 7936   5.390   3.861   5.891
 2346SOL    HW1 7937   5.416   3.870   5.987
 2346SOL    HW2 7938   5.338   3.942   5.863
 2347SOL     OW 7939   1.735   2.681   1.682
 2347SOL    HW1 7940   1.797   2.628   1.623
 2347SOL    HW2 7941   1.665   2.620   1.720
 2348SOL     OW 7942   2.711   6.257   2.352
 2348SOL    HW1 7943   2.717   6.173   2.406
 2348SOL    HW2 7944   2.771   6.251   2.273
 2349SOL     OW 7945   6.221   6.475   5.704
 2349SOL    HW1 7946   6.277   6.540   5.755
 2349SOL    HW2 7947   6.252   6.473   5.609
 2350SOL     OW 7948   2.575   0.516   5.788
 2350SOL    HW1 7949   2.630   0.509   5.871
 2350SOL    HW2 7950   2.623   0.472   5.712
 2351SOL     OW 7951   2.433   5.441   4.072
 2351SOL    HW1 7952   2.334   5.446   4.066
 2351SOL    HW2 7953   2.472   5.532   4.059
 2352SOL     OW 7954   0.623   4.207   3.027
 2352SOL    HW1 7955   0.569   4.273   3.081
 2352SOL    HW2 7956   0.710   4.191   3.073
 2353SOL     OW 7957   2.824   4.502   5.916
 2353SOL    HW1 7958   2.782   4.508   5.825
 2353SOL    HW2 7959   2.820   4.591   5.961
 2354SOL     OW 7960   3.192   1.980   0.538
 2354SOL    HW1 7961   3.183   1.928   0.453
 2354SOL    HW2 7962   3.220   2.074   0.518
 2355SOL     OW 7963   0.688   6.449   0.683
 2355SOL    HW1 7964   0.762   6.383   0.695
 2355SOL    HW2 7965   0.607   6.418   0.732
 2356SOL     OW 7966   2.479   5.265   2.922
 2356SOL    HW1 7967   2.498   5.169   2.942
 2356SOL    HW2 7968   2.466   5.315   3.007
 2357SOL     OW 7969   6.123   4.414   2.276
 2357SOL    HW1 7970   6.140   4.426   2.178
 2357SOL    HW2 7971   6.175   4.336   2.310
 2358SOL     OW 7972   3.630   1.355   5.689
 2358SOL    HW1 7973   3.688   1.277   5.712
 2358SOL    HW2 7974   3.544   1.350   5.741
 2359SOL     OW 7975   1.597   1.483   5.300
 2359SOL    HW1 7976   1.588   1.542   5.380
 2359SOL    HW2 7977   1.542   1.401   5.313
 2360SOL     OW 7978   4.603   4.532   0.691
 2360SOL    HW1 7979   4.545   4.495   0.764
 2360SOL    HW2 7980   4.560   4.613   0.651
 2361SOL     OW 7981   3.161   6.961   2.164
 2361SOL    HW1 7982   3.254   6.971   2.128
 2361SOL    HW2 7983   3.098   6.940   2.090
 2362SOL     OW 7984   4.047   5.559   4.355
 2362SOL    HW1 7985   3.994   5.481   4.323
 2362SOL    HW2 7986   4.136   5.527   4.388
 2363SOL     OW 7987   3.326   3.230   0.521
 2363SOL    HW1 7988   3.240   3.222   0.573
 2363SOL    HW2 7989   3.319   3.307   0.457
 2364SOL     OW 7990   4.287   2.047   2.084
 2364SOL    HW1 7991   4.322   2.053   1.991
 2364SOL    HW2 7992   4.239   2.132   2.107
 2365SOL     OW 7993   5.610   3.634   4.451
 2365SOL    HW1 7994   5.542   3.669   4.387
 2365SOL    HW2 7995   5.691   3.604   4.401
 2366SOL     OW 7996   2.524   4.391   5.238
 2366SOL    HW1 7997   2.578   4.320   5.282
 2366SOL    HW2 7998   2.432   4.356   5.218
 2367SOL     OW 7999   0.909   4.184   5.982
 2367SOL    HW1 8000   0.842   4.166   5.910
 2367SOL    HW2 8001   0.867   4.165   6.071
 2368SOL     OW 8002   5.404   0.399   4.191
 2368SOL    HW1 8003   5.439   0.341   4.117
 2368SOL    HW2 8004   5.391   0.492   4.157
 2369SOL     OW 8005   2.862   1.061   3.530
 2369SOL    HW1 8006   2.790   1.028   3.591
 2369SOL    HW2 8007   2.951   1.046   3.573
 2370SOL     OW 8008   5.228   3.107   1.365
 2370SOL    HW1 8009   5.323   3.111   1.337
 2370SOL    HW2 8010   5.216   3.155   1.452
 2371SOL     OW 8011   0.740   6.660   2.938
 2371SOL    HW1 8012   0.664   6.595   2.948
 2371SOL    HW2 8013   0.728   6.712   2.854
 2372SOL     OW 8014   6.796   1.457   6.167
 2372SOL    HW1 8015   6.708   1.423   6.198
 2372SOL    HW2 8016   6.823   1.410   6.084
 2373SOL     OW 8017   6.467   6.988   6.354
 2373SOL    HW1 8018   6.412   6.986   6.438
 2373SOL    HW2 8019   6.561   7.014   6.376
 2374SOL     OW 8020   6.102   6.436   2.863
 2374SOL    HW1 8021   6.193   6.433   2.821
 2374SOL    HW2 8022   6.074   6.531   2.874
 2375SOL     OW 8023   0.913   0.557   4.134
 2375SOL    HW1 8024   0.840   0.611   4.093
 2375SOL    HW2 8025   0.891   0.538   4.229
 2376SOL     OW 8026   6.171   2.053   2.849
 2376SOL    HW1 8027   6.128   2.084   2.934
 2376SOL    HW2 8028   6.219   1.967   2.866
 2377SOL     OW 8029   4.419   4.922   5.769
 2377SOL    HW1 8030   4.342   4.859   5.775
 2377SOL    HW2 8031   4.386   5.015   5.756
 2378SOL     OW 8032   6.786   1.509   0.631
 2378SOL    HW1 8033   6.766   1.470   0.541
 2378SOL    HW2 8034   6.706   1.498   0.691
 2379SOL     OW 8035   6.955   5.420   0.486
 2379SOL    HW1 8036   6.867   5.395   0.529
 2379SOL    HW2 8037   7.025   5.356   0.515
 2380SOL     OW 8038   4.825   4.460   4.788
 2380SOL    HW1 8039   4.870   4.381   4.831
 2380SOL    HW2 8040   4.883   4.496   4.715
 2381SOL     OW 8041   2.676   5.301   5.148
 2381SOL    HW1 8042   2.703   5.213   5.109
 2381SOL    HW2 8043   2.707   5.306   5.243
 2382SOL     OW 8044   1.551   6.145   2.155
 2382SOL    HW1 8045   1.508   6.084   2.089
 2382SOL    HW2 8046   1.649   6.125   2.161
 2383SOL     OW 8047   4.969   5.769   5.024
 2383SOL    HW1 8048   5.048   5.830   5.013
 2383SOL    HW2 8049   4.941   5.733   4.935
 2384SOL     OW 8050   0.935   1.780   1.903
 2384SOL    HW1 8051   1.021   1.787   1.854
 2384SOL    HW2 8052   0.860   1.810   1.844
 2385SOL     OW 8053   0.518   1.856   0.940
 2385SOL    HW1 8054   0.505   1.953   0.960
 2385SOL    HW2 8055   0.595   1.845   0.877
 2386SOL     OW 8056   4.092   5.653   4.090
 2386SOL    HW1 8057   4.192   5.651   4.089
 2386SOL    HW2 8058   4.059   5.607   4.172
 2387SOL     OW 8059   0.945   1.738   3.371
 2387SOL    HW1 8060   0.985   1.775   3.287
 2387SOL    HW2 8061   0.987   1.782   3.450
 2388SOL     OW 8062   6.658   2.206   6.286
 2388SOL    HW1 8063   6.563   2.213   6.316
 2388SOL    HW2 8064   6.714   2.166   6.359
 2389SOL     OW 8065   5.134   4.772   3.926
 2389SOL    HW1 8066   5.096   4.854   3.883
 2389SOL    HW2 8067   5.097   4.761   4.018
 2390SOL     OW 8068   4.714   3.522   5.656
 2390SOL    HW1 8069   4.764   3.438   5.636
 2390SOL    HW2 8070   4.702   3.531   5.755
 2391SOL     OW 8071   3.295   3.723   5.779
 2391SOL    HW1 8072   3.285   3.696   5.683
 2391SOL    HW2 8073   3.205   3.727   5.822
 2392SOL     OW 8074   3.296   5.457   5.068
 2392SOL    HW1 8075   3.390   5.489   5.062
 2392SOL    HW2 8076   3.270   5.447   5.164
 2393SOL     OW 8077   3.861   5.325   1.438
 2393SOL    HW1 8078   3.825   5.300   1.348
 2393SOL    HW2 8079   3.918   5.251   1.472
 2394SOL     OW 8080   0.557   3.346   3.409
 2394SOL    HW1 8081   0.488   3.418   3.399
 2394SOL    HW2 8082   0.635   3.367   3.350
 2395SOL     OW 8083   0.533   3.373   6.034
 2395SOL    HW1 8084   0.591   3.441   6.080
 2395SOL    HW2 8085   0.567   3.357   5.941
 2396SOL     OW 8086   6.073   1.336   4.963
 2396SOL    HW1 8087   6.025   1.357   4.879
 2396SOL    HW2 8088   6.008   1.334   5.039
 2397SOL     OW 8089   0.763   4.905   5.622
 2397SOL    HW1 8090   0.767   4.932   5.526
 2397SOL    HW2 8091   0.855   4.910   5.662
 2398SOL     OW 8092   2.537   5.720   4.039
 2398SOL    HW1 8093   2.608   5.770   4.088
 2398SOL    HW2 8094   2.561   5.713   3.943
 2399SOL     OW 8095   2.721   2.412   3.531
 2399SOL    HW1 8096   2.678   2.323   3.547
 2399SOL    HW2 8097   2.656   2.485   3.555
 2400SOL     OW 8098   1.516   3.693   0.327
 2400SOL    HW1 8099   1.452   3.621   0.355
 2400SOL    HW2 8100   1.469   3.758   0.267
 2401SOL     OW 8101   3.612   6.989   4.927
 2401SOL    HW1 8102   3.639   0.000   5.016
 2401SOL    HW2 8103   3.692   6.946   4.884
 2402SOL     OW 8104   0.770   2.569   2.560
 2402SOL    HW1 8105   0.710   2.644   2.589
 2402SOL    HW2 8106   0.761   2.556   2.461
 2403SOL     OW 8107   3.457   3.520   2.428
 2403SOL    HW1 8108   3.531   3.457   2.403
 2403SOL    HW2 8109   3.385   3.469   2.475
 2404SOL     OW 8110   6.852   1.007   1.162
 2404SOL    HW1 8111   6.779   0.938   1.158
 2404SOL    HW2 8112   6.816   1.095   1.132
 2405SOL     OW 8113   2.537   4.134   0.447
 2405SOL    HW1 8114   2.528   4.084   0.362
 2405SOL    HW2 8115   2.633   4.153   0.466
 2406SOL     OW 8116   1.900   0.215   4.281
 2406SOL    HW1 8117   1.907   0.311   4.254
 2406SOL    HW2 8118   1.838   0.206   4.359
 2407SOL     OW 8119   3.824   1.620   3.424
 2407SOL    HW1 8120   3.792   1.527   3.404
 2407SOL    HW2 8121   3.776   1.684   3.364
 2408SOL     OW 8122   2.316   6.595   3.904
 2408SOL    HW1 8123   2.394   6.586   3.965
 2408SOL    HW2 8124   2.334   6.666   3.836
 2409SOL     OW 8125   2.252   2.738   0.602
 2409SOL    HW1 8126   2.164   2.778   0.628
 2409SOL    HW2 8127   2.246   2.638   0.609
 2410SOL     OW 8128   6.475   3.294   5.757
 2410SOL    HW1 8129   6.486   3.389   5.727
 2410SOL    HW2 8130   6.510   3.233   5.686
 2411SOL     OW 8131   2.957   3.632   6.670
 2411SOL    HW1 8132   2.909   3.619   6.583
 2411SOL    HW2 8133   2.890   3.643   6.744
 2412SOL     OW 8134   2.634   2.202   6.628
 2412SOL    HW1 8135   2.700   2.182   6.556
 2412SOL    HW2 8136   2.541   2.197   6.591
 2413SOL     OW 8137   6.753   2.548   6.621
 2413SOL    HW1 8138   6.676   2.566   6.682
 2413SOL    HW2 8139   6.836   2.533   6.676
 2414SOL     OW 8140   5.857   2.655   4.330
 2414SOL    HW1 8141   5.819   2.697   4.412
 2414SOL    HW2 8142   5.910   2.574   4.356
 2415SOL     OW 8143   2.797   6.204   0.743
 2415SOL    HW1 8144   2.803   6.234   0.838
 2415SOL    HW2 8145   2.770   6.108   0.740
 2416SOL     OW 8146   0.151   3.480   3.160
 2416SOL    HW1 8147   0.115   3.484   3.067
 2416SOL    HW2 8148   0.086   3.522   3.223
 2417SOL     OW 8149   3.748   2.443   0.551
 2417SOL    HW1 8150   3.720   2.508   0.622
 2417SOL    HW2 8151   3.803   2.371   0.593
 2418SOL     OW 8152   4.667   4.329   6.035
 2418SOL    HW1 8153   4.644   4.289   6.123
 2418SOL    HW2 8154   4.697   4.258   5.972
 2419SOL     OW 8155   2.016   6.728   4.410
 2419SOL    HW1 8156   2.042   6.808   4.463
 2419SOL    HW2 8157   1.954   6.756   4.336
 2420SOL     OW 8158   3.531   5.355   2.462
 2420SOL    HW1 8159   3.580   5.296   2.526
 2420SOL    HW2 8160   3.440   5.317   2.445
 2421SOL     OW 8161   3.064   0.151   4.722
 2421SOL    HW1 8162   2.987   0.214   4.711
 2421SOL    HW2 8163   3.086   0.110   4.634
 2422SOL     OW 8164   3.733   6.667   2.306
 2422SOL    HW1 8165   3.818   6.696   2.263
 2422SOL    HW2 8166   3.708   6.732   2.378
 2423SOL     OW 8167   1.753   5.497   2.040
 2423SOL    HW1 8168   1.707   5.456   2.119
 2423SOL    HW2 8169   1.697   5.570   2.003
 2424SOL     OW 8170   5.106   0.647   6.738
 2424SOL    HW1 8171   5.196   0.607   6.720
 2424SOL    HW2 8172   5.117   0.738   6.778
 2425SOL     OW 8173   4.535   5.273   5.577
 2425SOL    HW1 8174   4.500   5.199   5.520
 2425SOL    HW2 8175   4.533   5.359   5.526
 2426SOL     OW 8176   1.036   5.216   5.711
 2426SOL    HW1 8177   1.040   5.264   5.798
 2426SOL    HW2 8178   1.042   5.282   5.636
 2427SOL     OW 8179   4.977   0.074   6.670
 2427SOL    HW1 8180   4.938   0.160   6.704
 2427SOL    HW2 8181   4.904   0.014   6.638
 2428SOL     OW 8182   0.365   1.471   3.782
 2428SOL    HW1 8183   0.352   1.395   3.845
 2428SOL    HW2 8184   0.461   1.475   3.754
 2429SOL     OW 8185   5.374   5.140   2.438
 2429SOL    HW1 8186   5.343   5.100   2.352
 2429SOL    HW2 8187   5.413   5.231   2.420
 2430SOL     OW 8188   5.722   2.707   0.278
 2430SOL    HW1 8189   5.648   2.642   0.261
 2430SOL    HW2 8190   5.806   2.676   0.233
 2431SOL     OW 8191   6.246   2.048   1.780
 2431SOL    HW1 8192   6.153   2.038   1.743
 2431SOL    HW2 8193   6.298   2.111   1.723
 2432SOL     OW 8194   3.307   5.599   1.895
 2432SOL    HW1 8195   3.243   5.667   1.932
 2432SOL    HW2 8196   3.383   5.587   1.959
 2433SOL     OW 8197   6.808   5.745   0.232
 2433SOL    HW1 8198   6.841   5.785   0.318
 2433SOL    HW2 8199   6.883   5.740   0.167
 2434SOL     OW 8200   3.724   2.096   2.985
 2434SOL    HW1 8201   3.814   2.108   2.944
 2434SOL    HW2 8202   3.654   2.098   2.914
 2435SOL     OW 8203   5.506   0.349   6.571
 2435SOL    HW1 8204   5.513   0.258   6.530
 2435SOL    HW2 8205   5.597   0.383   6.594
 2436SOL     OW 8206   1.046   1.507   1.463
 2436SOL    HW1 8207   1.091   1.596   1.458
 2436SOL    HW2 8208   1.106   1.441   1.508
 2437SOL     OW 8209   6.371   6.030   2.391
 2437SOL    HW1 8210   6.467   6.003   2.389
 2437SOL    HW2 8211   6.351   6.074   2.478
 2438SOL     OW 8212   3.511   1.844   4.552
 2438SOL    HW1 8213   3.449   1.900   4.497
 2438SOL    HW2 8214   3.465   1.813   4.635
 2439SOL     OW 8215   0.479   5.029   6.367
 2439SOL    HW1 8216   0.495   4.952   6.428
 2439SOL    HW2 8217   0.499   5.001   6.273
 2440SOL     OW 8218   4.048   1.040   4.645
 2440SOL    HW1 8219   4.110   0.962   4.643
 2440SOL    HW2 8220   4.000   1.047   4.557
 2441SOL     OW 8221   5.875   0.193   6.447
 2441SOL    HW1 8222   5.806   0.179   6.518
 2441SOL    HW2 8223   5.899   0.104   6.407
 2442SOL     OW 8224   5.112   3.558   1.843
 2442SOL    HW1 8225   5.062   3.513   1.769
 2442SOL    HW2 8226   5.068   3.645   1.866
 2443SOL     OW 8227   2.430   0.928   7.008
 2443SOL    HW1 8228   2.433   0.900   6.912
 2443SOL    HW2 8229   2.419   1.027   7.013
 2444SOL     OW 8230   4.520   5.254   0.554
 2444SOL    HW1 8231   4.519   5.202   0.640
 2444SOL    HW2 8232   4.572   5.339   0.567
 2445SOL     OW 8233   7.013   1.829   1.598
 2445SOL    HW1 8234   6.943   1.798   1.533
 2445SOL    HW2 8235   6.968   1.866   1.679
 2446SOL     OW 8236   1.274   2.810   2.005
 2446SOL    HW1 8237   1.198   2.795   1.941
 2446SOL    HW2 8238   1.240   2.802   2.099
 2447SOL     OW 8239   2.121   0.814   0.680
 2447SOL    HW1 8240   2.176   0.857   0.608
 2447SOL    HW2 8241   2.181   0.757   0.737
 2448SOL     OW 8242   6.021   2.066   4.130
 2448SOL    HW1 8243   5.965   2.125   4.188
 2448SOL    HW2 8244   6.114   2.103   4.125
 2449SOL     OW 8245   2.219   4.438   1.825
 2449SOL    HW1 8246   2.158   4.393   1.760
 2449SOL    HW2 8247   2.184   4.426   1.918
 2450SOL     OW 8248   2.516   5.069   6.710
 2450SOL    HW1 8249   2.450   5.140   6.736
 2450SOL    HW2 8250   2.607   5.109   6.704
 2451SOL     OW 8251   0.864   0.081   3.869
 2451SOL    HW1 8252   0.851   0.127   3.781
 2451SOL    HW2 8253   0.893   0.148   3.938
 2452SOL     OW 8254   2.248   2.794   3.277
 2452SOL    HW1 8255   2.311   2.791   3.200
 2452SOL    HW2 8256   2.201   2.706   3.286
 2453SOL     OW 8257   6.600   2.089   0.717
 2453SOL    HW1 8258   6.646   2.009   0.754
 2453SOL    HW2 8259   6.613   2.092   0.618
 2454SOL     OW 8260   3.302   5.694   0.445
 2454SOL    HW1 8261   3.308   5.766   0.515
 2454SOL    HW2 8262   3.336   5.608   0.482
 2455SOL     OW 8263   2.824   1.247   6.902
 2455SOL    HW1 8264   2.834   1.186   6.980
 2455SOL    HW2 8265   2.837   1.196   6.817
 2456SOL     OW 8266   1.010   3.834   6.871
 2456SOL    HW1 8267   0.930   3.891   6.853
 2456SOL    HW2 8268   0.980   3.744   6.903
 2457SOL     OW 8269   5.636   1.579   5.857
 2457SOL    HW1 8270   5.570   1.532   5.916
 2457SOL    HW2 8271   5.706   1.622   5.914
 2458SOL     OW 8272   0.789   0.482   2.717
 2458SOL    HW1 8273   0.843   0.549   2.768
 2458SOL    HW2 8274   0.744   0.528   2.640
 2459SOL     OW 8275   2.807   5.368   6.491
 2459SOL    HW1 8276   2.815   5.466   6.477
 2459SOL    HW2 8277   2.886   5.321   6.452
 2460SOL     OW 8278   0.836   1.070   6.813
 2460SOL    HW1 8279   0.762   1.030   6.867
 2460SOL    HW2 8280   0.810   1.161   6.783
 2461SOL     OW 8281   4.494   0.009   4.310
 2461SOL    HW1 8282   4.447   6.956   4.271
 2461SOL    HW2 8283   4.477   0.090   4.254
 2462SOL     OW 8284   0.480   4.717   0.430
 2462SOL    HW1 8285   0.481   4.789   0.500
 2462SOL    HW2 8286   0.568   4.670   0.430
 2463SOL     OW 8287   6.586   1.631   0.293
 2463SOL    HW1 8288   6.539   1.696   0.354
 2463SOL    HW2 8289   6.570   1.657   0.198
 2464SOL     OW 8290   0.525   2.845   2.958
 2464SOL    HW1 8291   0.552   2.915   3.024
 2464SOL    HW2 8292   0.597   2.776   2.952
 2465SOL     OW 8293   6.647   5.679   6.399
 2465SOL    HW1 8294   6.626   5.761   6.346
 2465SOL    HW2 8295   6.589   5.604   6.369
 2466SOL     OW 8296   1.638   1.783   1.909
 2466SOL    HW1 8297   1.586   1.710   1.864
 2466SOL    HW2 8298   1.642   1.766   2.007
 2467SOL     OW 8299   4.391   2.033   6.079
 2467SOL    HW1 8300   4.330   1.986   6.016
 2467SOL    HW2 8301   4.361   2.128   6.091
 2468SOL     OW 8302   4.081   0.649   6.540
 2468SOL    HW1 8303   4.171   0.605   6.539
 2468SOL    HW2 8304   4.009   0.579   6.537
 2469SOL     OW 8305   4.326   3.155   5.987
 2469SOL    HW1 8306   4.302   3.077   5.930
 2469SOL    HW2 8307   4.261   3.163   6.062
 2470SOL     OW 8308   3.959   4.351   6.047
 2470SOL    HW1 8309   3.893   4.375   5.976
 2470SOL    HW2 8310   4.046   4.398   6.030
 2471SOL     OW 8311   3.873   0.015   0.693
 2471SOL    HW1 8312   3.909   0.083   0.757
 2471SOL    HW2 8313   3.868   6.952   0.739
 2472SOL     OW 8314   4.422   2.389   3.794
 2472SOL    HW1 8315   4.468   2.315   3.843
 2472SOL    HW2 8316   4.331   2.358   3.766
 2473SOL     OW 8317   1.316   4.614   4.802
 2473SOL    HW1 8318   1.356   4.652   4.886
 2473SOL    HW2 8319   1.357   4.525   4.783
 2474SOL     OW 8320   1.361   5.378   0.728
 2474SOL    HW1 8321   1.307   5.314   0.783
 2474SOL    HW2 8322   1.378   5.337   0.638
 2475SOL     OW 8323   4.547   0.626   0.737
 2475SOL    HW1 8324   4.614   0.693   0.768
 2475SOL    HW2 8325   4.573   0.591   0.647
 2476SOL     OW 8326   5.707   0.524   2.694
 2476SOL    HW1 8327   5.740   0.566   2.778
 2476SOL    HW2 8328   5.774   0.456   2.662
 2477SOL     OW 8329   4.038   0.683   3.455
 2477SOL    HW1 8330   4.031   0.680   3.355
 2477SOL    HW2 8331   4.117   0.628   3.483
 2478SOL     OW 8332   4.586   0.985   1.979
 2478SOL    HW1 8333   4.595   1.080   1.950
 2478SOL    HW2 8334   4.545   0.931   1.905
 2479SOL     OW 8335   1.423   2.372   1.416
 2479SOL    HW1 8336   1.447   2.458   1.371
 2479SOL    HW2 8337   1.323   2.363   1.418
 2480SOL     OW 8338   3.936   2.608   1.411
 2480SOL    HW1 8339   3.871   2.531   1.408
 2480SOL    HW2 8340   3.899   2.680   1.469
 2481SOL     OW 8341   2.463   0.266   1.583
 2481SOL    HW1 8342   2.532   0.335   1.604
 2481SOL    HW2 8343   2.384   0.310   1.540
 2482SOL     OW 8344   5.359   3.413   0.340
 2482SOL    HW1 8345   5.322   3.332   0.294
 2482SOL    HW2 8346   5.284   3.475   0.363
 2483SOL     OW 8347   1.650   1.842   0.237
 2483SOL    HW1 8348   1.557   1.873   0.253
 2483SOL    HW2 8349   1.707   1.867   0.315
 2484SOL     OW 8350   3.308   0.982   0.222
 2484SOL    HW1 8351   3.268   1.026   0.302
 2484SOL    HW2 8352   3.237   0.967   0.153
 2485SOL     OW 8353   4.949   3.320   0.357
 2485SOL    HW1 8354   4.991   3.403   0.393
 2485SOL    HW2 8355   4.956   3.320   0.257
 2486SOL     OW 8356   0.600   5.363   5.760
 2486SOL    HW1 8357   0.551   5.411   5.688
 2486SOL    HW2 8358   0.582   5.407   5.848
 2487SOL     OW 8359   3.962   6.133   0.274
 2487SOL    HW1 8360   3.964   6.232   0.291
 2487SOL    HW2 8361   3.950   6.116   0.176
 2488SOL     OW 8362   0.472   3.170   2.016
 2488SOL    HW1 8363   0.479   3.269   2.004
 2488SOL    HW2 8364   0.562   3.133   2.037
 2489SOL     OW 8365   1.015   6.181   3.344
 2489SOL    HW1 8366   0.932   6.232   3.324
 2489SOL    HW2 8367   1.006   6.134   3.432
 2490SOL     OW 8368   0.594   5.885   1.112
 2490SOL    HW1 8369   0.514   5.942   1.091
 2490SOL    HW2 8370   0.663   5.899   1.041
 2491SOL     OW 8371   3.650   4.623   1.214
 2491SOL    HW1 8372   3.622   4.719   1.224
 2491SOL    HW2 8373   3.596   4.581   1.141
 2492SOL     OW 8374   4.306   3.336   0.904
 2492SOL    HW1 8375   4.246   3.268   0.947
 2492SOL    HW2 8376   4.250   3.407   0.862
 2493SOL     OW 8377   6.746   6.735   1.215
 2493SOL    HW1 8378   6.778   6.739   1.309
 2493SOL    HW2 8379   6.709   6.824   1.189
 2494SOL     OW 8380   5.901   3.870   2.329
 2494SOL    HW1 8381   5.853   3.886   2.416
 2494SOL    HW2 8382   5.995   3.903   2.336
 2495SOL     OW 8383   5.719   5.481   3.493
 2495SOL    HW1 8384   5.769   5.401   3.526
 2495SOL    HW2 8385   5.775   5.529   3.425
 2496SOL     OW 8386   0.419   3.138   6.747
 2496SOL    HW1 8387   0.360   3.205   6.701
 2496SOL    HW2 8388   0.514   3.156   6.724
 2497SOL     OW 8389   0.487   0.278   1.156
 2497SOL    HW1 8390   0.427   0.300   1.233
 2497SOL    HW2 8391   0.433   0.271   1.072
 2498SOL     OW 8392   3.138   2.164   5.509
 2498SOL    HW1 8393   3.214   2.146   5.446
 2498SOL    HW2 8394   3.103   2.078   5.544
 2499SOL     OW 8395   6.304   3.338   2.245
 2499SOL    HW1 8396   6.245   3.411   2.280
 2499SOL    HW2 8397   6.399   3.361   2.264
 2500SOL     OW 8398   3.973   3.837   6.448
 2500SOL    HW1 8399   3.896   3.884   6.492
 2500SOL    HW2 8400   4.015   3.898   6.381
 2501SOL     OW 8401   5.095   5.702   6.911
 2501SOL    HW1 8402   5.068   5.615   6.952
 2501SOL    HW2 8403   5.166   5.686   6.841
 2502SOL     OW 8404   1.778   0.701   4.994
 2502SOL    HW1 8405   1.833   0.778   4.961
 2502SOL    HW2 8406   1.682   0.726   4.993
 2503SOL     OW 8407   2.965   6.689   4.761
 2503SOL    HW1 8408   2.883   6.728   4.803
 2503SOL    HW2 8409   2.960   6.589   4.765
 2504SOL     OW 8410   3.836   5.773   3.119
 2504SOL    HW1 8411   3.896   5.786   3.040
 2504SOL    HW2 8412   3.835   5.856   3.174
 2505SOL     OW 8413   0.395   6.464   2.699
 2505SOL    HW1 8414   0.338   6.515   2.635
 2505SOL    HW2 8415   0.491   6.472   2.672
 2506SOL     OW 8416   6.497   2.658   6.432
 2506SOL    HW1 8417   6.587   2.681   6.395
 2506SOL    HW2 8418   6.472   2.723   6.504
 2507SOL     OW 8419   6.520   3.454   0.026
 2507SOL    HW1 8420   6.570   3.516   6.992
 2507SOL    HW2 8421   6.534   3.360   7.022
 2508SOL     OW 8422   2.924   1.797   3.787
 2508SOL    HW1 8423   2.961   1.810   3.695
 2508SOL    HW2 8424   2.989   1.744   3.842
 2509SOL     OW 8425   6.901   4.628   1.129
 2509SOL    HW1 8426   6.919   4.617   1.226
 2509SOL    HW2 8427   6.935   4.718   1.099
 2510SOL     OW 8428   3.017   5.074   1.229
 2510SOL    HW1 8429   3.048   5.009   1.160
 2510SOL    HW2 8430   2.923   5.052   1.255
 2511SOL     OW 8431   2.772   1.657   3.973
 2511SOL    HW1 8432   2.805   1.709   3.894
 2511SOL    HW2 8433   2.706   1.713   4.024
 2512SOL     OW 8434   4.379   3.970   5.533
 2512SOL    HW1 8435   4.389   3.875   5.563
 2512SOL    HW2 8436   4.325   4.021   5.599
 2513SOL     OW 8437   1.886   5.397   4.534
 2513SOL    HW1 8438   1.835   5.388   4.619
 2513SOL    HW2 8439   1.834   5.453   4.469
 2514SOL     OW 8440   0.640   3.837   4.930
 2514SOL    HW1 8441   0.610   3.928   4.958
 2514SOL    HW2 8442   0.565   3.772   4.940
 2515SOL     OW 8443   1.946   6.279   0.432
 2515SOL    HW1 8444   1.997   6.331   0.500
 2515SOL    HW2 8445   1.984   6.296   0.341
 2516SOL     OW 8446   4.908   1.558   2.370
 2516SOL    HW1 8447   4.851   1.640   2.380
 2516SOL    HW2 8448   4.849   1.479   2.353
 2517SOL     OW 8449   1.317   0.608   6.311
 2517SOL    HW1 8450   1.281   0.695   6.278
 2517SOL    HW2 8451   1.267   0.533   6.269
 2518SOL     OW 8452   1.366   5.469   1.136
 2518SOL    HW1 8453   1.331   5.376   1.137
 2518SOL    HW2 8454   1.447   5.475   1.194
 2519SOL     OW 8455   3.712   0.566   1.842
 2519SOL    HW1 8456   3.645   0.500   1.809
 2519SOL    HW2 8457   3.667   0.631   1.903
 2520SOL     OW 8458   3.158   1.972   0.836
 2520SOL    HW1 8459   3.162   2.069   0.860
 2520SOL    HW2 8460   3.161   1.963   0.736
 2521SOL     OW 8461   3.043   0.554   5.660
 2521SOL    HW1 8462   3.103   0.539   5.581
 2521SOL    HW2 8463   2.986   0.474   5.675
 2522SOL     OW 8464   0.979   1.419   5.553
 2522SOL    HW1 8465   0.911   1.369   5.606
 2522SOL    HW2 8466   0.935   1.496   5.506
 2523SOL     OW 8467   1.103   2.547   0.954
 2523SOL    HW1 8468   1.030   2.478   0.955
 2523SOL    HW2 8469   1.110   2.587   0.862
 2524SOL     OW 8470   0.049   6.810   5.090
 2524SOL    HW1 8471   0.041   6.898   5.043
 2524SOL    HW2 8472   0.119   6.754   5.045
 2525SOL     OW 8473   1.002   2.653   5.396
 2525SOL    HW1 8474   1.025   2.632   5.491
 2525SOL    HW2 8475   1.080   2.698   5.352
 2526SOL     OW 8476   1.145   4.492   6.497
 2526SOL    HW1 8477   1.053   4.522   6.523
 2526SOL    HW2 8478   1.174   4.417   6.557
 2527SOL     OW 8479   5.952   6.573   5.789
 2527SOL    HW1 8480   6.041   6.527   5.785
 2527SOL    HW2 8481   5.941   6.633   5.710
 2528SOL     OW 8482   5.661   5.002   6.557
 2528SOL    HW1 8483   5.673   5.066   6.481
 2528SOL    HW2 8484   5.690   5.046   6.642
 2529SOL     OW 8485   6.928   6.277   6.846
 2529SOL    HW1 8486   6.848   6.216   6.848
 2529SOL    HW2 8487   6.906   6.362   6.894
 2530SOL     OW 8488   2.461   6.173   4.953
 2530SOL    HW1 8489   2.445   6.114   4.874
 2530SOL    HW2 8490   2.467   6.268   4.923
 2531SOL     OW 8491   5.767   6.113   4.887
 2531SOL    HW1 8492   5.795   6.169   4.809
 2531SOL    HW2 8493   5.750   6.172   4.966
 2532SOL     OW 8494   0.176   6.337   0.576
 2532SOL    HW1 8495   0.145   6.421   0.532
 2532SOL    HW2 8496   0.125   6.259   0.539
 2533SOL     OW 8497   4.086   0.179   3.607
 2533SOL    HW1 8498   4.175   0.200   3.647
 2533SOL    HW2 8499   4.093   0.100   3.547
 2534SOL     OW 8500   3.703   1.182   1.924
 2534SOL    HW1 8501   3.785   1.237   1.909
 2534SOL    HW2 8502   3.724   1.086   1.910
 2535SOL     OW 8503   3.468   3.551   5.920
 2535SOL    HW1 8504   3.537   3.570   5.851
 2535SOL    HW2 8505   3.389   3.611   5.907
 2536SOL     OW 8506   1.503   1.355   6.637
 2536SOL    HW1 8507   1.438   1.306   6.578
 2536SOL    HW2 8508   1.593   1.355   6.594
 2537SOL     OW 8509   3.522   0.346   6.404
 2537SOL    HW1 8510   3.451   0.417   6.402
 2537SOL    HW2 8511   3.493   0.268   6.350
 2538SOL     OW 8512   0.515   4.134   3.729
 2538SOL    HW1 8513   0.584   4.070   3.763
 2538SOL    HW2 8514   0.561   4.217   3.695
 2539SOL     OW 8515   5.577   1.157   4.248
 2539SOL    HW1 8516   5.501   1.102   4.215
 2539SOL    HW2 8517   5.661   1.102   4.245
 2540SOL     OW 8518   3.963   2.053   2.873
 2540SOL    HW1 8519   4.050   2.079   2.914
 2540SOL    HW2 8520   3.963   1.956   2.852
 2541SOL     OW 8521   3.392   1.093   4.766
 2541SOL    HW1 8522   3.421   1.060   4.676
 2541SOL    HW2 8523   3.414   1.190   4.775
 2542SOL     OW 8524   3.372   3.293   6.045
 2542SOL    HW1 8525   3.308   3.314   6.119
 2542SOL    HW2 8526   3.397   3.377   5.998
 2543SOL     OW 8527   0.313   0.800   3.716
 2543SOL    HW1 8528   0.322   0.700   3.712
 2543SOL    HW2 8529   0.223   0.826   3.682
 2544SOL     OW 8530   0.684   6.054   0.578
 2544SOL    HW1 8531   0.624   6.074   0.501
 2544SOL    HW2 8532   0.718   5.960   0.571
 2545SOL     OW 8533   1.555   6.877   1.959
 2545SOL    HW1 8534   1.497   6.796   1.961
 2545SOL    HW2 8535   1.651   6.850   1.966
 2546SOL     OW 8536   6.575   1.616   2.025
 2546SOL    HW1 8537   6.529   1.696   2.063
 2546SOL    HW2 8538   6.525   1.533   2.051
 2547SOL     OW 8539   0.220   4.112   0.141
 2547SOL    HW1 8540   0.141   4.165   0.174
 2547SOL    HW2 8541   0.226   4.027   0.193
 2548SOL     OW 8542   1.149   6.773   4.681
 2548SOL    HW1 8543   1.214   6.755   4.607
 2548SOL    HW2 8544   1.196   6.823   4.755
 2549SOL     OW 8545   0.990   0.196   1.027
 2549SOL    HW1 8546   0.893   0.215   1.040
 2549SOL    HW2 8547   1.016   0.115   1.079
 2550SOL     OW 8548   0.183   0.114   0.001
 2550SOL    HW1 8549   0.157   0.194   0.055
 2550SOL    HW2 8550   0.102   0.077   6.981
 2551SOL     OW 8551   3.549   4.717   0.428
 2551SOL    HW1 8552   3.607   4.661   0.487
 2551SOL    HW2 8553   3.499   4.657   0.365
 2552SOL     OW 8554   1.874   5.975   4.353
 2552SOL    HW1 8555   1.807   5.906   4.324
 2552SOL    HW2 8556   1.939   5.934   4.416
 2553SOL     OW 8557   4.052   3.726   5.815
 2553SOL    HW1 8558   4.065   3.765   5.724
 2553SOL    HW2 8559   4.124   3.658   5.832
 2554SOL     OW 8560   2.919   0.379   0.574
 2554SOL    HW1 8561   2.941   0.330   0.490
 2554SOL    HW2 8562   2.908   0.313   0.648
 2555SOL     OW 8563   6.122   0.762   5.011
 2555SOL    HW1 8564   6.048   0.771   4.943
 2555SOL    HW2 8565   6.137   0.666   5.032
 2556SOL     OW 8566   4.109   6.712   0.178
 2556SOL    HW1 8567   4.162   6.705   0.263
 2556SOL    HW2 8568   4.130   6.633   0.119
 2557SOL     OW 8569   2.097   4.006   0.533
 2557SOL    HW1 8570   2.117   3.913   0.501
 2557SOL    HW2 8571   2.153   4.025   0.614
 2558SOL     OW 8572   5.068   1.317   4.941
 2558SOL    HW1 8573   5.146   1.332   5.002
 2558SOL    HW2 8574   5.006   1.250   4.982
 2559SOL     OW 8575   0.868   4.336   5.339
 2559SOL    HW1 8576   0.853   4.247   5.297
 2559SOL    HW2 8577   0.783   4.388   5.338
 2560SOL     OW 8578   5.484   2.265   5.378
 2560SOL    HW1 8579   5.555   2.314   5.429
 2560SOL    HW2 8580   5.527   2.200   5.315
 2561SOL     OW 8581   2.711   5.257   5.427
 2561SOL    HW1 8582   2.705   5.166   5.467
 2561SOL    HW2 8583   2.659   5.322   5.482
 2562SOL     OW 8584   2.843   5.169   1.504
 2562SOL    HW1 8585   2.793   5.089   1.471
 2562SOL    HW2 8586   2.924   5.184   1.447
 2563SOL     OW 8587   3.377   1.575   0.626
 2563SOL    HW1 8588   3.435   1.507   0.669
 2563SOL    HW2 8589   3.294   1.588   0.681
 2564SOL     OW 8590   2.240   5.564   6.886
 2564SOL    HW1 8591   2.166   5.524   6.831
 2564SOL    HW2 8592   2.201   5.617   6.961
 2565SOL     OW 8593   1.060   6.793   6.399
 2565SOL    HW1 8594   1.017   6.743   6.474
 2565SOL    HW2 8595   1.065   6.890   6.421
 2566SOL     OW 8596   2.251   0.295   0.892
 2566SOL    HW1 8597   2.286   0.224   0.831
 2566SOL    HW2 8598   2.212   0.369   0.837
 2567SOL     OW 8599   1.293   0.698   0.674
 2567SOL    HW1 8600   1.330   0.789   0.652
 2567SOL    HW2 8601   1.366   0.641   0.712
 2568SOL     OW 8602   4.337   1.826   6.518
 2568SOL    HW1 8603   4.322   1.741   6.568
 2568SOL    HW2 8604   4.377   1.806   6.428
 2569SOL     OW 8605   2.832   0.656   2.255
 2569SOL    HW1 8606   2.922   0.651   2.212
 2569SOL    HW2 8607   2.823   0.743   2.304
 2570SOL     OW 8608   5.582   0.118   6.043
 2570SOL    HW1 8609   5.678   0.097   6.025
 2570SOL    HW2 8610   5.562   0.213   6.017
 2571SOL     OW 8611   2.245   4.790   4.941
 2571SOL    HW1 8612   2.278   4.699   4.915
 2571SOL    HW2 8613   2.168   4.781   5.005
 2572SOL     OW 8614   2.946   5.806   1.221
 2572SOL    HW1 8615   2.971   5.763   1.308
 2572SOL    HW2 8616   2.908   5.897   1.238
 2573SOL     OW 8617   0.423   1.725   1.666
 2573SOL    HW1 8618   0.448   1.760   1.757
 2573SOL    HW2 8619   0.391   1.801   1.610
 2574SOL     OW 8620   5.835   4.040   0.820
 2574SOL    HW1 8621   5.855   4.102   0.744
 2574SOL    HW2 8622   5.745   3.998   0.805
 2575SOL     OW 8623   5.160   6.175   0.468
 2575SOL    HW1 8624   5.121   6.263   0.495
 2575SOL    HW2 8625   5.248   6.190   0.423
 2576SOL     OW 8626   4.688   6.691   4.538
 2576SOL    HW1 8627   4.636   6.607   4.525
 2576SOL    HW2 8628   4.718   6.726   4.449
 2577SOL     OW 8629   4.170   6.694   2.030
 2577SOL    HW1 8630   4.105   6.627   1.994
 2577SOL    HW2 8631   4.260   6.652   2.040
 2578SOL     OW 8632   4.313   1.515   4.318
 2578SOL    HW1 8633   4.358   1.556   4.397
 2578SOL    HW2 8634   4.374   1.447   4.276
 2579SOL     OW 8635   1.506   6.647   3.445
 2579SOL    HW1 8636   1.430   6.707   3.420
 2579SOL    HW2 8637   1.487   6.554   3.415
 2580SOL     OW 8638   2.479   4.306   6.248
 2580SOL    HW1 8639   2.448   4.396   6.217
 2580SOL    HW2 8640   2.528   4.317   6.335
 2581SOL     OW 8641   2.525   5.031   2.131
 2581SOL    HW1 8642   2.486   5.017   2.040
 2581SOL    HW2 8643   2.625   5.025   2.126
 2582SOL     OW 8644   0.232   4.002   1.164
 2582SOL    HW1 8645   0.195   3.919   1.204
 2582SOL    HW2 8646   0.214   4.003   1.066
 2583SOL     OW 8647   0.692   1.263   6.694
 2583SOL    HW1 8648   0.596   1.252   6.719
 2583SOL    HW2 8649   0.701   1.262   6.595
 2584SOL     OW 8650   4.651   5.554   6.005
 2584SOL    HW1 8651   4.696   5.484   6.060
 2584SOL    HW2 8652   4.705   5.573   5.923
 2585SOL     OW 8653   3.436   3.429   0.736
 2585SOL    HW1 8654   3.372   3.360   0.704
 2585SOL    HW2 8655   3.504   3.447   0.664
 2586SOL     OW 8656   3.483   0.521   5.415
 2586SOL    HW1 8657   3.424   0.601   5.401
 2586SOL    HW2 8658   3.566   0.549   5.464
 2587SOL     OW 8659   5.793   1.125   3.340
 2587SOL    HW1 8660   5.854   1.097   3.415
 2587SOL    HW2 8661   5.743   1.207   3.368
 2588SOL     OW 8662   4.291   1.884   5.850
 2588SOL    HW1 8663   4.361   1.881   5.778
 2588SOL    HW2 8664   4.219   1.818   5.828
 2589SOL     OW 8665   1.471   6.666   5.701
 2589SOL    HW1 8666   1.484   6.761   5.732
 2589SOL    HW2 8667   1.374   6.641   5.712
 2590SOL     OW 8668   3.912   5.067   0.246
 2590SOL    HW1 8669   3.937   5.076   0.343
 2590SOL    HW2 8670   3.995   5.052   0.192
 2591SOL     OW 8671   0.034   4.614   3.361
 2591SOL    HW1 8672   0.008   4.633   3.266
 2591SOL    HW2 8673   0.086   4.691   3.397
 2592SOL     OW 8674   3.469   4.598   6.836
 2592SOL    HW1 8675   3.439   4.616   6.742
 2592SOL    HW2 8676   3.550   4.653   6.857
 2593SOL     OW 8677   3.770   5.588   0.443
 2593SOL    HW1 8678   3.767   5.687   0.427
 2593SOL    HW2 8679   3.792   5.542   0.357
 2594SOL     OW 8680   2.268   4.099   5.558
 2594SOL    HW1 8681   2.253   4.166   5.631
 2594SOL    HW2 8682   2.365   4.096   5.534
 2595SOL     OW 8683   6.997   0.986   3.916
 2595SOL    HW1 8684   6.958   1.068   3.874
 2595SOL    HW2 8685   7.020   1.005   4.011
 2596SOL     OW 8686   2.653   2.221   1.716
 2596SOL    HW1 8687   2.657   2.280   1.797
 2596SOL    HW2 8688   2.604   2.268   1.642
 2597SOL     OW 8689   0.316   5.206   6.160
 2597SOL    HW1 8690   0.330   5.303   6.180
 2597SOL    HW2 8691   0.246   5.169   6.221
 2598SOL     OW 8692   6.732   1.786   2.318
 2598SOL    HW1 8693   6.652   1.847   2.314
 2598SOL    HW2 8694   6.716   1.715   2.387
 2599SOL     OW 8695   1.675   5.753   0.612
 2599SOL    HW1 8696   1.646   5.681   0.548
 2599SOL    HW2 8697   1.767   5.783   0.589
 2600SOL     OW 8698   5.509   2.398   4.420
 2600SOL    HW1 8699   5.581   2.425   4.482
 2600SOL    HW2 8700   5.420   2.412   4.463
 2601SOL     OW 8701   1.388   1.554   1.068
 2601SOL    HW1 8702   1.467   1.546   1.008
 2601SOL    HW2 8703   1.382   1.647   1.104
 2602SOL     OW 8704   1.462   4.819   5.060
 2602SOL    HW1 8705   1.547   4.867   5.041
 2602SOL    HW2 8706   1.480   4.721   5.067
 2603SOL     OW 8707   3.035   1.304   3.080
 2603SOL    HW1 8708   2.961   1.320   3.015
 2603SOL    HW2 8709   3.001   1.247   3.155
 2604SOL     OW 8710   4.789   2.091   2.671
 2604SOL    HW1 8711   4.836   2.168   2.714
 2604SOL    HW2 8712   4.701   2.122   2.633
 2605SOL     OW 8713   1.608   3.169   2.593
 2605SOL    HW1 8714   1.705   3.187   2.612
 2605SOL    HW2 8715   1.596   3.071   2.575
 2606SOL     OW 8716   5.867   5.024   1.846
 2606SOL    HW1 8717   5.967   5.027   1.841
 2606SOL    HW2 8718   5.837   4.929   1.848
 2607SOL     OW 8719   0.780   1.545   1.519
 2607SOL    HW1 8720   0.873   1.530   1.484
 2607SOL    HW2 8721   0.774   1.510   1.612
 2608SOL     OW 8722   3.747   5.528   0.136
 2608SOL    HW1 8723   3.825   5.590   0.138
 2608SOL    HW2 8724   3.762   5.457   0.066
 2609SOL     OW 8725   6.028   1.517   1.960
 2609SOL    HW1 8726   6.125   1.495   1.950
 2609SOL    HW2 8727   5.989   1.460   2.032
 2610SOL     OW 8728   0.538   4.751   4.325
 2610SOL    HW1 8729   0.530   4.760   4.424
 2610SOL    HW2 8730   0.634   4.736   4.301
 2611SOL     OW 8731   4.536   6.540   0.073
 2611SOL    HW1 8732   4.597   6.501   0.004
 2611SOL    HW2 8733   4.462   6.475   0.092
 2612SOL     OW 8734   5.836   6.454   4.456
 2612SOL    HW1 8735   5.777   6.522   4.412
 2612SOL    HW2 8736   5.847   6.375   4.396
 2613SOL     OW 8737   2.297   5.011   6.481
 2613SOL    HW1 8738   2.332   4.941   6.419
 2613SOL    HW2 8739   2.368   5.080   6.496
 2614SOL     OW 8740   5.913   1.487   6.579
 2614SOL    HW1 8741   5.913   1.573   6.528
 2614SOL    HW2 8742   5.824   1.475   6.623
 2615SOL     OW 8743   0.773   3.171   1.274
 2615SOL    HW1 8744   0.726   3.228   1.208
 2615SOL    HW2 8745   0.717   3.092   1.297
 2616SOL     OW 8746   1.395   1.796   5.995
 2616SOL    HW1 8747   1.423   1.716   6.049
 2616SOL    HW2 8748   1.316   1.839   6.037
 2617SOL     OW 8749   4.889   0.683   0.573
 2617SOL    HW1 8750   4.843   0.710   0.657
 2617SOL    HW2 8751   4.962   0.748   0.552
 2618SOL     OW 8752   0.850   6.311   4.786
 2618SOL    HW1 8753   0.871   6.379   4.856
 2618SOL    HW2 8754   0.930   6.298   4.727
 2619SOL     OW 8755   4.317   1.886   1.755
 2619SOL    HW1 8756   4.219   1.907   1.759
 2619SOL    HW2 8757   4.337   1.838   1.670
 2620SOL     OW 8758   6.661   0.130   2.402
 2620SOL    HW1 8759   6.569   0.168   2.389
 2620SOL    HW2 8760   6.703   0.112   2.313
 2621SOL     OW 8761   1.189   4.787   2.501
 2621SOL    HW1 8762   1.112   4.844   2.530
 2621SOL    HW2 8763   1.244   4.837   2.434
 2622SOL     OW 8764   3.469   3.235   5.536
 2622SOL    HW1 8765   3.516   3.220   5.623
 2622SOL    HW2 8766   3.417   3.153   5.512
 2623SOL     OW 8767   0.332   0.256   4.454
 2623SOL    HW1 8768   0.420   0.243   4.409
 2623SOL    HW2 8769   0.322   0.189   4.528
 2624SOL     OW 8770   6.301   2.271   4.591
 2624SOL    HW1 8771   6.268   2.364   4.577
 2624SOL    HW2 8772   6.380   2.254   4.531
 2625SOL     OW 8773   2.170   4.849   5.290
 2625SOL    HW1 8774   2.146   4.929   5.235
 2625SOL    HW2 8775   2.267   4.828   5.278
 2626SOL     OW 8776   6.472   6.898   5.933
 2626SOL    HW1 8777   6.398   6.850   5.886
 2626SOL    HW2 8778   6.554   6.895   5.875
 2627SOL     OW 8779   0.998   0.600   6.411
 2627SOL    HW1 8780   0.977   0.673   6.345
 2627SOL    HW2 8781   1.037   0.522   6.362
 2628SOL     OW 8782   1.959   3.709   4.471
 2628SOL    HW1 8783   1.978   3.719   4.569
 2628SOL    HW2 8784   2.046   3.712   4.421
 2629SOL     OW 8785   3.976   3.494   3.055
 2629SOL    HW1 8786   3.915   3.428   3.099
 2629SOL    HW2 8787   3.970   3.484   2.955
 2630SOL     OW 8788   3.725   1.623   3.963
 2630SOL    HW1 8789   3.813   1.632   3.915
 2630SOL    HW2 8790   3.655   1.675   3.914
 2631SOL     OW 8791   5.713   0.593   6.774
 2631SOL    HW1 8792   5.734   0.648   6.694
 2631SOL    HW2 8793   5.753   0.502   6.764
 2632SOL     OW 8794   6.397   3.536   1.228
 2632SOL    HW1 8795   6.444   3.501   1.309
 2632SOL    HW2 8796   6.368   3.630   1.245
 2633SOL     OW 8797   6.501   2.201   5.105
 2633SOL    HW1 8798   6.478   2.261   5.028
 2633SOL    HW2 8799   6.499   2.106   5.074
 2634SOL     OW 8800   0.785   6.117   3.804
 2634SOL    HW1 8801   0.695   6.073   3.805
 2634SOL    HW2 8802   0.823   6.118   3.896
 2635SOL     OW 8803   6.218   5.432   4.052
 2635SOL    HW1 8804   6.217   5.498   4.127
 2635SOL    HW2 8805   6.204   5.480   3.965
 2636SOL     OW 8806   3.716   1.111   6.854
 2636SOL    HW1 8807   3.713   1.024   6.903
 2636SOL    HW2 8808   3.697   1.096   6.758
 2637SOL     OW 8809   6.330   1.608   4.059
 2637SOL    HW1 8810   6.370   1.656   3.980
 2637SOL    HW2 8811   6.233   1.630   4.066
 2638SOL     OW 8812   0.257   0.020   4.596
 2638SOL    HW1 8813   0.166   0.061   4.589
 2638SOL    HW2 8814   0.281   7.005   4.508
 2639SOL     OW 8815   4.944   5.021   5.533
 2639SOL    HW1 8816   4.899   5.037   5.621
 2639SOL    HW2 8817   4.888   5.062   5.460
 2640SOL     OW 8818   0.116   0.123   5.116
 2640SOL    HW1 8819   0.208   0.158   5.102
 2640SOL    HW2 8820   0.110   0.078   5.205
 2641SOL     OW 8821   4.646   2.233   1.237
 2641SOL    HW1 8822   4.675   2.320   1.276
 2641SOL    HW2 8823   4.580   2.189   1.299
 2642SOL     OW 8824   6.410   0.585   3.426
 2642SOL    HW1 8825   6.382   0.494   3.396
 2642SOL    HW2 8826   6.446   0.637   3.349
 2643SOL     OW 8827   1.312   3.416   4.008
 2643SOL    HW1 8828   1.242   3.480   3.977
 2643SOL    HW2 8829   1.304   3.330   3.957
 2644SOL     OW 8830   4.768   5.441   5.145
 2644SOL    HW1 8831   4.777   5.417   5.048
 2644SOL    HW2 8832   4.675   5.473   5.163
 2645SOL     OW 8833   5.442   4.792   3.818
 2645SOL    HW1 8834   5.413   4.717   3.877
 2645SOL    HW2 8835   5.395   4.785   3.730
 2646SOL     OW 8836   0.628   3.530   6.734
 2646SOL    HW1 8837   0.538   3.572   6.746
 2646SOL    HW2 8838   0.692   3.599   6.702
 2647SOL     OW 8839   5.628   6.775   1.856
 2647SOL    HW1 8840   5.528   6.767   1.850
 2647SOL    HW2 8841   5.669   6.746   1.769
 2648SOL     OW 8842   0.274   6.916   3.913
 2648SOL    HW1 8843   0.174   6.909   3.908
 2648SOL    HW2 8844   0.314   6.867   3.836
 2649SOL     OW 8845   5.235   3.324   1.888
 2649SOL    HW1 8846   5.193   3.414   1.881
 2649SOL    HW2 8847   5.191   3.271   1.961
 2650SOL     OW 8848   2.997   5.557   4.728
 2650SOL    HW1 8849   2.987   5.467   4.770
 2650SOL    HW2 8850   2.953   5.556   4.638
 2651SOL     OW 8851   3.515   1.283   6.961
 2651SOL    HW1 8852   3.458   1.290   6.879
 2651SOL    HW2 8853   3.588   1.216   6.946
 2652SOL     OW 8854   5.020   3.704   5.673
 2652SOL    HW1 8855   4.942   3.681   5.615
 2652SOL    HW2 8856   5.026   3.639   5.749
 2653SOL     OW 8857   3.395   5.950   5.632
 2653SOL    HW1 8858   3.478   5.894   5.643
 2653SOL    HW2 8859   3.319   5.905   5.678
 2654SOL     OW 8860   5.461   6.460   1.041
 2654SOL    HW1 8861   5.519   6.501   0.971
 2654SOL    HW2 8862   5.384   6.521   1.061
 2655SOL     OW 8863   4.577   5.851   3.302
 2655SOL    HW1 8864   4.578   5.921   3.231
 2655SOL    HW2 8865   4.578   5.895   3.392
 2656SOL     OW 8866   3.656   5.545   3.809
 2656SOL    HW1 8867   3.746   5.524   3.847
 2656SOL    HW2 8868   3.603   5.461   3.801
 2657SOL     OW 8869   2.147   3.288   0.632
 2657SOL    HW1 8870   2.170   3.366   0.574
 2657SOL    HW2 8871   2.215   3.280   0.705
 2658SOL     OW 8872   5.004   4.451   6.988
 2658SOL    HW1 8873   5.103   4.453   6.974
 2658SOL    HW2 8874   4.974   4.357   7.002
 2659SOL     OW 8875   4.873   2.789   4.769
 2659SOL    HW1 8876   4.825   2.812   4.854
 2659SOL    HW2 8877   4.821   2.825   4.691
 2660SOL     OW 8878   0.478   0.933   0.966
 2660SOL    HW1 8879   0.467   0.836   0.988
 2660SOL    HW2 8880   0.505   0.983   1.049
 2661SOL     OW 8881   1.291   0.569   2.022
 2661SOL    HW1 8882   1.253   0.605   1.937
 2661SOL    HW2 8883   1.378   0.615   2.042
 2662SOL     OW 8884   2.582   0.545   3.580
 2662SOL    HW1 8885   2.518   0.509   3.512
 2662SOL    HW2 8886   2.632   0.622   3.540
 2663SOL     OW 8887   3.727   6.324   5.496
 2663SOL    HW1 8888   3.792   6.364   5.560
 2663SOL    HW2 8889   3.657   6.273   5.547
 2664SOL     OW 8890   3.849   3.125   5.933
 2664SOL    HW1 8891   3.864   3.028   5.910
 2664SOL    HW2 8892   3.767   3.133   5.990
 2665SOL     OW 8893   2.544   3.475   5.411
 2665SOL    HW1 8894   2.572   3.387   5.451
 2665SOL    HW2 8895   2.620   3.514   5.361
 2666SOL     OW 8896   1.778   3.372   1.837
 2666SOL    HW1 8897   1.860   3.362   1.781
 2666SOL    HW2 8898   1.764   3.289   1.891
 2667SOL     OW 8899   0.552   5.159   3.738
 2667SOL    HW1 8900   0.524   5.076   3.786
 2667SOL    HW2 8901   0.540   5.238   3.798
 2668SOL     OW 8902   5.812   3.026   4.065
 2668SOL    HW1 8903   5.757   3.000   4.144
 2668SOL    HW2 8904   5.752   3.051   3.989
 2669SOL     OW 8905   2.903   5.855   6.483
 2669SOL    HW1 8906   2.951   5.938   6.512
 2669SOL    HW2 8907   2.810   5.856   6.518
 2670SOL     OW 8908   6.251   1.966   5.497
 2670SOL    HW1 8909   6.285   1.872   5.506
 2670SOL    HW2 8910   6.328   2.030   5.502
 2671SOL     OW 8911   4.335   6.341   6.386
 2671SOL    HW1 8912   4.256   6.346   6.325
 2671SOL    HW2 8913   4.412   6.390   6.346
 2672SOL     OW 8914   3.335   0.686   1.841
 2672SOL    HW1 8915   3.244   0.662   1.875
 2672SOL    HW2 8916   3.384   0.603   1.816
 2673SOL     OW 8917   5.325   1.003   2.739
 2673SOL    HW1 8918   5.237   1.039   2.707
 2673SOL    HW2 8919   5.338   1.028   2.835
 2674SOL     OW 8920   1.657   5.000   3.699
 2674SOL    HW1 8921   1.720   4.934   3.659
 2674SOL    HW2 8922   1.708   5.063   3.758
 2675SOL     OW 8923   0.332   0.138   3.671
 2675SOL    HW1 8924   0.370   0.118   3.762
 2675SOL    HW2 8925   0.405   0.166   3.610
 2676SOL     OW 8926   2.897   3.624   2.553
 2676SOL    HW1 8927   2.855   3.537   2.579
 2676SOL    HW2 8928   2.916   3.624   2.455
 2677SOL     OW 8929   3.390   4.569   0.876
 2677SOL    HW1 8930   3.454   4.615   0.938
 2677SOL    HW2 8931   3.305   4.621   0.871
 2678SOL     OW 8932   0.041   2.823   2.112
 2678SOL    HW1 8933   0.067   2.919   2.125
 2678SOL    HW2 8934   6.971   2.811   2.139
 2679SOL     OW 8935   1.870   5.176   2.813
 2679SOL    HW1 8936   1.818   5.095   2.839
 2679SOL    HW2 8937   1.966   5.151   2.799
 2680SOL     OW 8938   1.068   2.738   0.121
 2680SOL    HW1 8939   1.058   2.760   0.218
 2680SOL    HW2 8940   1.017   2.655   0.100
 2681SOL     OW 8941   1.165   3.070   5.370
 2681SOL    HW1 8942   1.219   3.091   5.289
 2681SOL    HW2 8943   1.186   2.978   5.402
 2682SOL     OW 8944   4.922   4.169   2.675
 2682SOL    HW1 8945   4.838   4.148   2.627
 2682SOL    HW2 8946   4.998   4.118   2.634
 2683SOL     OW 8947   1.909   4.201   2.558
 2683SOL    HW1 8948   1.954   4.116   2.586
 2683SOL    HW2 8949   1.893   4.258   2.639
 2684SOL     OW 8950   5.404   6.654   1.753
 2684SOL    HW1 8951   5.365   6.570   1.791
 2684SOL    HW2 8952   5.487   6.632   1.701
 2685SOL     OW 8953   6.706   4.765   4.706
 2685SOL    HW1 8954   6.783   4.764   4.770
 2685SOL    HW2 8955   6.714   4.686   4.645
 2686SOL     OW 8956   0.935   1.367   5.202
 2686SOL    HW1 8957   1.010   1.301   5.199
 2686SOL    HW2 8958   0.969   1.453   5.241
 2687SOL     OW 8959   3.874   6.732   1.125
 2687SOL    HW1 8960   3.904   6.665   1.193
 2687SOL    HW2 8961   3.825   6.806   1.172
 2688SOL     OW 8962   3.184   2.236   0.750
 2688SOL    HW1 8963   3.253   2.218   0.680
 2688SOL    HW2 8964   3.105   2.280   0.708
 2689SOL     OW 8965   0.820   4.282   2.469
 2689SOL    HW1 8966   0.851   4.335   2.548
 2689SOL    HW2 8967   0.819   4.184   2.493
 2690SOL     OW 8968   2.837   2.939   6.525
 2690SOL    HW1 8969   2.904   3.010   6.545
 2690SOL    HW2 8970   2.761   2.946   6.589
 2691SOL     OW 8971   0.264   4.876   4.421
 2691SOL    HW1 8972   0.314   4.791   4.403
 2691SOL    HW2 8973   0.187   4.883   4.357
 2692SOL     OW 8974   2.715   6.006   3.287
 2692SOL    HW1 8975   2.662   6.006   3.372
 2692SOL    HW2 8976   2.747   6.099   3.268
 2693SOL     OW 8977   2.140   5.178   4.218
 2693SOL    HW1 8978   2.110   5.271   4.198
 2693SOL    HW2 8979   2.218   5.182   4.280
 2694SOL     OW 8980   4.205   6.201   3.063
 2694SOL    HW1 8981   4.158   6.255   3.132
 2694SOL    HW2 8982   4.138   6.153   3.006
 2695SOL     OW 8983   5.958   6.976   3.066
 2695SOL    HW1 8984   5.997   0.037   3.096
 2695SOL    HW2 8985   5.965   6.968   2.966
 2696SOL     OW 8986   4.869   3.912   6.336
 2696SOL    HW1 8987   4.779   3.920   6.379
 2696SOL    HW2 8988   4.921   3.996   6.351
 2697SOL     OW 8989   4.271   1.420   1.376
 2697SOL    HW1 8990   4.175   1.410   1.404
 2697SOL    HW2 8991   4.275   1.474   1.292
 2698SOL     OW 8992   1.396   4.912   6.778
 2698SOL    HW1 8993   1.480   4.949   6.819
 2698SOL    HW2 8994   1.401   4.812   6.776
 2699SOL     OW 8995   2.980   5.650   1.448
 2699SOL    HW1 8996   2.940   5.719   1.508
 2699SOL    HW2 8997   2.926   5.566   1.452
 2700SOL     OW 8998   2.323   1.810   0.660
 2700SOL    HW1 8999   2.231   1.849   0.671
 2700SOL    HW2 9000   2.389   1.868   0.707
 2701SOL     OW 9001   5.219   2.718   5.610
 2701SOL    HW1 9002   5.313   2.694   5.638
 2701SOL    HW2 9003   5.185   2.650   5.546
 2702SOL     OW 9004   1.162   1.832   3.809
 2702SOL    HW1 9005   1.151   1.835   3.908
 2702SOL    HW2 9006   1.249   1.875   3.784
 2703SOL     OW 9007   1.651   5.906   0.979
 2703SOL    HW1 9008   1.638   5.880   1.074
 2703SOL    HW2 9009   1.572   5.876   0.925
 2704SOL     OW 9010   6.745   5.564   2.539
 2704SOL    HW1 9011   6.817   5.496   2.532
 2704SOL    HW2 9012   6.778   5.652   2.505
 2705SOL     OW 9013   6.641   1.205   5.882
 2705SOL    HW1 9014   6.626   1.168   5.974
 2705SOL    HW2 9015   6.702   1.144   5.831
 2706SOL     OW 9016   6.032   4.161   4.830
 2706SOL    HW1 9017   6.045   4.102   4.750
 2706SOL    HW2 9018   5.934   4.173   4.847
 2707SOL     OW 9019   3.844   6.315   3.757
 2707SOL    HW1 9020   3.788   6.239   3.722
 2707SOL    HW2 9021   3.902   6.350   3.684
 2708SOL     OW 9022   6.338   2.917   0.088
 2708SOL    HW1 9023   6.268   2.909   0.159
 2708SOL    HW2 9024   6.425   2.883   0.124
 2709SOL     OW 9025   5.120   6.416   6.178
 2709SOL    HW1 9026   5.206   6.366   6.166
 2709SOL    HW2 9027   5.135   6.513   6.156
 2710SOL     OW 9028   1.836   3.039   3.687
 2710SOL    HW1 9029   1.916   2.989   3.655
 2710SOL    HW2 9030   1.863   3.129   3.721
 2711SOL     OW 9031   3.037   1.482   3.500
 2711SOL    HW1 9032   3.100   1.510   3.572
 2711SOL    HW2 9033   3.085   1.480   3.412
 2712SOL     OW 9034   3.394   5.486   1.665
 2712SOL    HW1 9035   3.439   5.562   1.617
 2712SOL    HW2 9036   3.339   5.523   1.741
 2713SOL     OW 9037   4.136   4.336   6.311
 2713SOL    HW1 9038   4.051   4.315   6.262
 2713SOL    HW2 9039   4.129   4.302   6.405
 2714SOL     OW 9040   4.349   3.665   6.790
 2714SOL    HW1 9041   4.272   3.602   6.781
 2714SOL    HW2 9042   4.332   3.728   6.866
 2715SOL     OW 9043   5.160   1.833   1.269
 2715SOL    HW1 9044   5.150   1.924   1.310
 2715SOL    HW2 9045   5.187   1.843   1.173
 2716SOL     OW 9046   4.608   2.660   2.923
 2716SOL    HW1 9047   4.668   2.714   2.982
 2716SOL    HW2 9048   4.644   2.662   2.829
 2717SOL     OW 9049   0.147   6.864   2.159
 2717SOL    HW1 9050   0.144   6.764   2.168
 2717SOL    HW2 9051   0.220   6.889   2.096
 2718SOL     OW 9052   6.960   1.156   5.367
 2718SOL    HW1 9053   7.022   1.133   5.292
 2718SOL    HW2 9054   6.926   1.072   5.409
 2719SOL     OW 9055   1.696   4.192   1.979
 2719SOL    HW1 9056   1.666   4.105   2.018
 2719SOL    HW2 9057   1.626   4.262   1.993
 2720SOL     OW 9058   1.274   0.190   4.459
 2720SOL    HW1 9059   1.224   0.251   4.522
 2720SOL    HW2 9060   1.358   0.160   4.503
 2721SOL     OW 9061   3.304   6.670   2.176
 2721SOL    HW1 9062   3.258   6.644   2.091
 2721SOL    HW2 9063   3.237   6.698   2.244
 2722SOL     OW 9064   5.117   5.717   6.490
 2722SOL    HW1 9065   5.175   5.683   6.416
 2722SOL    HW2 9066   5.155   5.689   6.578
 2723SOL     OW 9067   3.149   6.409   6.668
 2723SOL    HW1 9068   3.220   6.340   6.655
 2723SOL    HW2 9069   3.133   6.457   6.582
 2724SOL     OW 9070   1.263   5.689   6.732
 2724SOL    HW1 9071   1.237   5.771   6.783
 2724SOL    HW2 9072   1.181   5.650   6.689
 2725SOL     OW 9073   5.520   4.086   4.465
 2725SOL    HW1 9074   5.496   4.005   4.519
 2725SOL    HW2 9075   5.450   4.101   4.395
 2726SOL     OW 9076   0.711   2.316   1.723
 2726SOL    HW1 9077   0.646   2.297   1.797
 2726SOL    HW2 9078   0.688   2.260   1.643
 2727SOL     OW 9079   1.988   4.096   3.793
 2727SOL    HW1 9080   1.972   4.060   3.701
 2727SOL    HW2 9081   1.940   4.183   3.803
 2728SOL     OW 9082   5.506   5.644   6.416
 2728SOL    HW1 9083   5.565   5.697   6.356
 2728SOL    HW2 9084   5.427   5.700   6.443
 2729SOL     OW 9085   6.531   6.438   6.835
 2729SOL    HW1 9086   6.499   6.355   6.879
 2729SOL    HW2 9087   6.472   6.460   6.757
 2730SOL     OW 9088   0.858   5.591   1.147
 2730SOL    HW1 9089   0.818   5.501   1.132
 2730SOL    HW2 9090   0.820   5.632   1.230
 2731SOL     OW 9091   3.190   3.391   3.223
 2731SOL    HW1 9092   3.274   3.435   3.192
 2731SOL    HW2 9093   3.119   3.403   3.153
 2732SOL     OW 9094   5.111   2.337   1.415
 2732SOL    HW1 9095   5.179   2.402   1.448
 2732SOL    HW2 9096   5.020   2.366   1.445
 2733SOL     OW 9097   6.671   1.238   5.278
 2733SOL    HW1 9098   6.661   1.334   5.301
 2733SOL    HW2 9099   6.757   1.203   5.317
 2734SOL     OW 9100   3.544   6.118   1.429
 2734SOL    HW1 9101   3.566   6.144   1.335
 2734SOL    HW2 9102   3.508   6.024   1.430
 2735SOL     OW 9103   1.543   2.356   0.530
 2735SOL    HW1 9104   1.626   2.332   0.582
 2735SOL    HW2 9105   1.465   2.357   0.592
 2736SOL     OW 9106   5.770   6.025   4.208
 2736SOL    HW1 9107   5.701   5.971   4.257
 2736SOL    HW2 9108   5.836   5.963   4.166
 2737SOL     OW 9109   2.931   2.480   5.879
 2737SOL    HW1 9110   2.921   2.474   5.779
 2737SOL    HW2 9111   3.027   2.471   5.904
 2738SOL     OW 9112   6.063   0.015   2.165
 2738SOL    HW1 9113   6.084   0.044   2.071
 2738SOL    HW2 9114   6.078   6.943   2.174
 2739SOL     OW 9115   0.987   5.282   1.058
 2739SOL    HW1 9116   0.984   5.359   0.994
 2739SOL    HW2 9117   1.083   5.260   1.079
 2740SOL     OW 9118   0.493   5.233   2.460
 2740SOL    HW1 9119   0.497   5.153   2.400
 2740SOL    HW2 9120   0.566   5.297   2.436
 2741SOL     OW 9121   1.013   1.611   4.816
 2741SOL    HW1 9122   1.063   1.643   4.896
 2741SOL    HW2 9123   1.020   1.678   4.743
 2742SOL     OW 9124   2.751   5.151   1.778
 2742SOL    HW1 9125   2.697   5.069   1.759
 2742SOL    HW2 9126   2.807   5.173   1.698
 2743SOL     OW 9127   6.849   4.705   2.210
 2743SOL    HW1 9128   6.840   4.649   2.292
 2743SOL    HW2 9129   6.922   4.772   2.223
 2744SOL     OW 9130   3.791   3.573   2.211
 2744SOL    HW1 9131   3.747   3.660   2.188
 2744SOL    HW2 9132   3.832   3.534   2.128
 2745SOL     OW 9133   6.557   1.512   5.306
 2745SOL    HW1 9134   6.592   1.577   5.373
 2745SOL    HW2 9135   6.525   1.561   5.225
 2746SOL     OW 9136   0.631   1.306   4.373
 2746SOL    HW1 9137   0.606   1.287   4.278
 2746SOL    HW2 9138   0.731   1.303   4.382
 2747SOL     OW 9139   4.576   5.617   6.578
 2747SOL    HW1 9140   4.553   5.542   6.515
 2747SOL    HW2 9141   4.674   5.615   6.597
 2748SOL     OW 9142   4.618   0.417   1.632
 2748SOL    HW1 9143   4.612   0.343   1.699
 2748SOL    HW2 9144   4.614   0.505   1.679
 2749SOL     OW 9145   1.397   4.049   0.383
 2749SOL    HW1 9146   1.451   4.004   0.454
 2749SOL    HW2 9147   1.339   3.982   0.338
 2750SOL     OW 9148   2.631   4.785   1.559
 2750SOL    HW1 9149   2.644   4.830   1.648
 2750SOL    HW2 9150   2.690   4.705   1.553
 2751SOL     OW 9151   1.791   1.587   1.393
 2751SOL    HW1 9152   1.835   1.560   1.308
 2751SOL    HW2 9153   1.861   1.617   1.458
 2752SOL     OW 9154   4.156   4.560   6.192
 2752SOL    HW1 9155   4.057   4.564   6.208
 2752SOL    HW2 9156   4.187   4.465   6.201
 2753SOL     OW 9157   6.337   5.971   5.249
 2753SOL    HW1 9158   6.268   5.957   5.320
 2753SOL    HW2 9159   6.419   5.918   5.271
 2754SOL     OW 9160   0.842   0.079   7.003
 2754SOL    HW1 9161   0.876   0.103   0.068
 2754SOL    HW2 9162   0.857   0.156   6.941
 2755SOL     OW 9163   3.180   6.912   2.916
 2755SOL    HW1 9164   3.182   6.971   2.997
 2755SOL    HW2 9165   3.267   6.921   2.867
 2756SOL     OW 9166   4.326   6.567   0.362
 2756SOL    HW1 9167   4.323   6.578   0.462
 2756SOL    HW2 9168   4.273   6.486   0.336
 2757SOL     OW 9169   2.078   5.550   0.498
 2757SOL    HW1 9170   2.078   5.613   0.420
 2757SOL    HW2 9171   2.110   5.460   0.468
 2758SOL     OW 9172   5.078   0.233   4.571
 2758SOL    HW1 9173   5.113   0.289   4.496
 2758SOL    HW2 9174   5.154   0.187   4.617
 2759SOL     OW 9175   4.992   6.510   4.436
 2759SOL    HW1 9176   5.038   6.421   4.440
 2759SOL    HW2 9177   4.905   6.500   4.388
 2760SOL     OW 9178   1.371   5.559   1.771
 2760SOL    HW1 9179   1.355   5.566   1.673
 2760SOL    HW2 9180   1.466   5.534   1.788
 2761SOL     OW 9181   1.971   4.777   4.221
 2761SOL    HW1 9182   1.924   4.819   4.299
 2761SOL    HW2 9183   1.918   4.699   4.188
 2762SOL     OW 9184   0.818   0.864   5.136
 2762SOL    HW1 9185   0.870   0.857   5.051
 2762SOL    HW2 9186   0.802   0.961   5.157
 2763SOL     OW 9187   5.614   2.176   3.718
 2763SOL    HW1 9188   5.675   2.217   3.785
 2763SOL    HW2 9189   5.519   2.188   3.748
 2764SOL     OW 9190   6.217   0.473   1.267
 2764SOL    HW1 9191   6.190   0.567   1.288
 2764SOL    HW2 9192   6.255   0.430   1.349
 2765SOL     OW 9193   5.189   0.514   0.890
 2765SOL    HW1 9194   5.165   0.555   0.978
 2765SOL    HW2 9195   5.110   0.465   0.854
 2766SOL     OW 9196   5.364   1.874   0.715
 2766SOL    HW1 9197   5.284   1.926   0.743
 2766SOL    HW2 9198   5.341   1.818   0.636
 2767SOL     OW 9199   0.040   5.144   6.769
 2767SOL    HW1 9200   6.971   5.138   6.739
 2767SOL    HW2 9201   0.086   5.218   6.721
 2768SOL     OW 9202   5.169   0.797   0.206
 2768SOL    HW1 9203   5.253   0.771   0.158
 2768SOL    HW2 9204   5.109   0.717   0.214
 2769SOL     OW 9205   6.889   4.310   4.038
 2769SOL    HW1 9206   6.902   4.401   3.999
 2769SOL    HW2 9207   6.972   4.281   4.084
 2770SOL     OW 9208   1.884   5.450   6.124
 2770SOL    HW1 9209   1.864   5.393   6.204
 2770SOL    HW2 9210   1.982   5.471   6.122
 2771SOL     OW 9211   5.357   1.482   1.741
 2771SOL    HW1 9212   5.382   1.397   1.787
 2771SOL    HW2 9213   5.392   1.481   1.648
 2772SOL     OW 9214   4.384   2.221   1.082
 2772SOL    HW1 9215   4.461   2.228   1.146
 2772SOL    HW2 9216   4.417   2.238   0.989
 2773SOL     OW 9217   4.929   3.460   6.151
 2773SOL    HW1 9218   4.867   3.480   6.228
 2773SOL    HW2 9219   5.018   3.503   6.169
 2774SOL     OW 9220   7.011   3.132   3.021
 2774SOL    HW1 9221   6.955   3.137   3.104
 2774SOL    HW2 9222   6.995   3.214   2.966
 2775SOL     OW 9223   0.047   5.458   0.252
 2775SOL    HW1 9224   0.066   5.555   0.262
 2775SOL    HW2 9225   0.005   5.423   0.336
 2776SOL     OW 9226   4.762   5.698   5.510
 2776SOL    HW1 9227   4.809   5.755   5.442
 2776SOL    HW2 9228   4.792   5.723   5.602
 2777SOL     OW 9229   3.242   1.592   1.964
 2777SOL    HW1 9230   3.236   1.622   1.868
 2777SOL    HW2 9231   3.232   1.672   2.024
 2778SOL     OW 9232   1.611   1.434   5.033
 2778SOL    HW1 9233   1.675   1.356   5.034
 2778SOL    HW2 9234   1.612   1.479   5.123
 2779SOL     OW 9235   4.710   0.342   0.378
 2779SOL    HW1 9236   4.633   0.299   0.426
 2779SOL    HW2 9237   4.795   0.298   0.406
 2780SOL     OW 9238   6.399   5.694   5.556
 2780SOL    HW1 9239   6.308   5.676   5.592
 2780SOL    HW2 9240   6.406   5.656   5.464
 2781SOL     OW 9241   6.054   5.597   2.260
 2781SOL    HW1 9242   6.139   5.643   2.288
 2781SOL    HW2 9243   5.976   5.647   2.296
 2782SOL     OW 9244   2.943   2.734   6.036
 2782SOL    HW1 9245   2.954   2.660   5.970
 2782SOL    HW2 9246   2.916   2.696   6.125
 2783SOL     OW 9247   5.784   3.347   4.986
 2783SOL    HW1 9248   5.842   3.400   4.925
 2783SOL    HW2 9249   5.841   3.289   5.044
 2784SOL     OW 9250   2.795   1.716   1.681
 2784SOL    HW1 9251   2.728   1.666   1.626
 2784SOL    HW2 9252   2.771   1.813   1.682
 2785SOL     OW 9253   6.051   1.199   0.247
 2785SOL    HW1 9254   6.060   1.099   0.253
 2785SOL    HW2 9255   6.124   1.236   0.190
 2786SOL     OW 9256   4.286   6.415   1.562
 2786SOL    HW1 9257   4.375   6.456   1.538
 2786SOL    HW2 9258   4.289   6.317   1.542
 2787SOL     OW 9259   2.189   3.061   6.268
 2787SOL    HW1 9260   2.257   3.135   6.267
 2787SOL    HW2 9261   2.162   3.041   6.362
 2788SOL     OW 9262   2.020   3.984   0.266
 2788SOL    HW1 9263   1.990   4.055   0.330
 2788SOL    HW2 9264   2.070   3.913   0.316
 2789SOL     OW 9265   1.460   2.708   3.826
 2789SOL    HW1 9266   1.435   2.656   3.907
 2789SOL    HW2 9267   1.503   2.648   3.759
 2790SOL     OW 9268   3.047   5.221   2.960
 2790SOL    HW1 9269   3.008   5.236   2.869
 2790SOL    HW2 9270   3.082   5.127   2.965
 2791SOL     OW 9271   1.503   4.831   4.744
 2791SOL    HW1 9272   1.440   4.754   4.735
 2791SOL    HW2 9273   1.597   4.798   4.744
 2792SOL     OW 9274   1.130   6.911   4.940
 2792SOL    HW1 9275   1.191   6.984   4.970
 2792SOL    HW2 9276   1.035   6.944   4.943
 2793SOL     OW 9277   5.041   2.709   2.751
 2793SOL    HW1 9278   4.980   2.653   2.694
 2793SOL    HW2 9279   5.020   2.692   2.848
 2794SOL     OW 9280   6.801   2.735   0.746
 2794SOL    HW1 9281   6.808   2.801   0.821
 2794SOL    HW2 9282   6.884   2.736   0.692
 2795SOL     OW 9283   2.947   3.602   1.145
 2795SOL    HW1 9284   2.991   3.564   1.064
 2795SOL    HW2 9285   2.939   3.532   1.216
 2796SOL     OW 9286   6.692   4.428   2.592
 2796SOL    HW1 9287   6.675   4.334   2.624
 2796SOL    HW2 9288   6.609   4.482   2.605
 2797SOL     OW 9289   4.875   5.465   4.649
 2797SOL    HW1 9290   4.968   5.437   4.624
 2797SOL    HW2 9291   4.809   5.403   4.607
 2798SOL     OW 9292   1.276   4.313   1.950
 2798SOL    HW1 9293   1.286   4.293   2.048
 2798SOL    HW2 9294   1.284   4.412   1.936
 2799SOL     OW 9295   0.116   5.715   6.873
 2799SOL    HW1 9296   0.194   5.763   6.834
 2799SOL    HW2 9297   0.148   5.642   6.933
 2800SOL     OW 9298   4.376   4.353   6.522
 2800SOL    HW1 9299   4.426   4.373   6.438
 2800SOL    HW2 9300   4.368   4.437   6.577
 2801SOL     OW 9301   4.369   5.866   4.460
 2801SOL    HW1 9302   4.395   5.953   4.502
 2801SOL    HW2 9303   4.276   5.873   4.425
 2802SOL     OW 9304   4.861   3.205   6.650
 2802SOL    HW1 9305   4.924   3.265   6.601
 2802SOL    HW2 9306   4.827   3.251   6.732
 2803SOL     OW 9307   2.852   5.606   6.401
 2803SOL    HW1 9308   2.916   5.600   6.325
 2803SOL    HW2 9309   2.867   5.690   6.452
 2804SOL     OW 9310   6.989   4.349   4.399
 2804SOL    HW1 9311   0.037   4.355   4.333
 2804SOL    HW2 9312   6.934   4.267   4.380
 2805SOL     OW 9313   4.973   3.419   1.260
 2805SOL    HW1 9314   4.933   3.361   1.331
 2805SOL    HW2 9315   4.904   3.483   1.227
 2806SOL     OW 9316   6.246   4.964   3.669
 2806SOL    HW1 9317   6.224   5.045   3.723
 2806SOL    HW2 9318   6.202   4.972   3.579
 2807SOL     OW 9319   5.651   4.947   3.939
 2807SOL    HW1 9320   5.682   5.011   3.869
 2807SOL    HW2 9321   5.591   4.878   3.897
 2808SOL     OW 9322   4.447   2.423   2.460
 2808SOL    HW1 9323   4.407   2.436   2.550
 2808SOL    HW2 9324   4.480   2.511   2.426
 2809SOL     OW 9325   6.635   2.801   1.333
 2809SOL    HW1 9326   6.610   2.878   1.392
 2809SOL    HW2 9327   6.624   2.828   1.237
 2810SOL     OW 9328   3.062   6.444   4.548
 2810SOL    HW1 9329   3.084   6.393   4.465
 2810SOL    HW2 9330   3.032   6.382   4.620
 2811SOL     OW 9331   0.844   0.688   3.695
 2811SOL    HW1 9332   0.909   0.613   3.689
 2811SOL    HW2 9333   0.770   0.674   3.629
 2812SOL     OW 9334   5.870   3.716   1.213
 2812SOL    HW1 9335   5.893   3.669   1.298
 2812SOL    HW2 9336   5.836   3.650   1.146
 2813SOL     OW 9337   6.327   6.854   5.562
 2813SOL    HW1 9338   6.237   6.891   5.587
 2813SOL    HW2 9339   6.399   6.918   5.591
 2814SOL     OW 9340   4.452   3.061   6.870
 2814SOL    HW1 9341   4.499   3.001   6.935
 2814SOL    HW2 9342   4.385   3.008   6.818
 2815SOL     OW 9343   0.368   1.852   5.116
 2815SOL    HW1 9344   0.445   1.914   5.128
 2815SOL    HW2 9345   0.389   1.785   5.045
 2816SOL     OW 9346   6.931   6.286   3.965
 2816SOL    HW1 9347   6.937   6.217   3.893
 2816SOL    HW2 9348   6.844   6.334   3.959
 2817SOL     OW 9349   1.830   0.442   1.289
 2817SOL    HW1 9350   1.831   0.415   1.192
 2817SOL    HW2 9351   1.777   0.526   1.300
 2818SOL     OW 9352   6.736   5.957   6.527
 2818SOL    HW1 9353   6.806   6.019   6.492
 2818SOL    HW2 9354   6.749   5.866   6.489
 2819SOL     OW 9355   0.036   2.112   1.191
 2819SOL    HW1 9356   0.098   2.091   1.115
 2819SOL    HW2 9357   0.060   2.055   1.270
 2820SOL     OW 9358   1.138   1.776   2.823
 2820SOL    HW1 9359   1.210   1.774   2.754
 2820SOL    HW2 9360   1.177   1.802   2.911
 2821SOL     OW 9361   3.904   3.604   6.926
 2821SOL    HW1 9362   3.948   3.612   6.837
 2821SOL    HW2 9363   3.973   3.593   6.997
 2822SOL     OW 9364   4.196   2.472   0.152
 2822SOL    HW1 9365   4.105   2.455   0.190
 2822SOL    HW2 9366   4.189   2.538   0.077
 2823SOL     OW 9367   2.586   6.378   1.236
 2823SOL    HW1 9368   2.524   6.321   1.183
 2823SOL    HW2 9369   2.662   6.408   1.178
 2824SOL     OW 9370   2.384   1.350   4.172
 2824SOL    HW1 9371   2.456   1.367   4.105
 2824SOL    HW2 9372   2.324   1.430   4.178
 2825SOL     OW 9373   0.131   0.198   0.333
 2825SOL    HW1 9374   0.162   0.282   0.376
 2825SOL    HW2 9375   0.067   0.219   0.259
 2826SOL     OW 9376   5.233   2.160   6.571
 2826SOL    HW1 9377   5.201   2.248   6.605
 2826SOL    HW2 9378   5.162   2.092   6.582
 2827SOL     OW 9379   5.872   1.337   5.683
 2827SOL    HW1 9380   5.967   1.317   5.707
 2827SOL    HW2 9381   5.829   1.255   5.645
 2828SOL     OW 9382   3.069   1.031   6.763
 2828SOL    HW1 9383   3.139   1.019   6.833
 2828SOL    HW2 9384   3.094   0.978   6.682
 2829SOL     OW 9385   3.092   4.295   6.203
 2829SOL    HW1 9386   3.146   4.216   6.233
 2829SOL    HW2 9387   3.000   4.288   6.241
 2830SOL     OW 9388   0.303   3.247   6.512
 2830SOL    HW1 9389   0.359   3.318   6.470
 2830SOL    HW2 9390   0.280   3.178   6.443
 2831SOL     OW 9391   6.980   6.004   3.492
 2831SOL    HW1 9392   0.045   5.969   3.517
 2831SOL    HW2 9393   6.934   5.937   3.434
 2832SOL     OW 9394   0.270   0.990   1.543
 2832SOL    HW1 9395   0.204   0.944   1.602
 2832SOL    HW2 9396   0.260   0.956   1.449
 2833SOL     OW 9397   5.279   2.806   2.161
 2833SOL    HW1 9398   5.182   2.793   2.182
 2833SOL    HW2 9399   5.314   2.724   2.115
 2834SOL     OW 9400   2.889   0.283   5.970
 2834SOL    HW1 9401   2.907   0.368   6.021
 2834SOL    HW2 9402   2.909   0.204   6.029
 2835SOL     OW 9403   0.405   0.512   1.702
 2835SOL    HW1 9404   0.435   0.434   1.647
 2835SOL    HW2 9405   0.370   0.480   1.790
 2836SOL     OW 9406   6.754   0.139   1.403
 2836SOL    HW1 9407   6.748   0.134   1.303
 2836SOL    HW2 9408   6.722   0.229   1.433
 2837SOL     OW 9409   5.998   3.559   3.282
 2837SOL    HW1 9410   6.003   3.529   3.187
 2837SOL    HW2 9411   6.070   3.625   3.301
 2838SOL     OW 9412   1.640   3.986   1.686
 2838SOL    HW1 9413   1.675   3.959   1.775
 2838SOL    HW2 9414   1.578   4.064   1.696
 2839SOL     OW 9415   5.687   0.961   1.912
 2839SOL    HW1 9416   5.732   0.871   1.915
 2839SOL    HW2 9417   5.681   0.998   2.005
 2840SOL     OW 9418   0.656   0.709   4.116
 2840SOL    HW1 9419   0.574   0.656   4.096
 2840SOL    HW2 9420   0.630   0.801   4.148
 2841SOL     OW 9421   0.111   0.841   5.930
 2841SOL    HW1 9422   0.099   0.746   5.901
 2841SOL    HW2 9423   0.023   0.880   5.957
 2842SOL     OW 9424   0.154   1.989   4.338
 2842SOL    HW1 9425   0.180   2.069   4.284
 2842SOL    HW2 9426   0.211   1.911   4.312
 2843SOL     OW 9427   3.457   1.751   3.602
 2843SOL    HW1 9428   3.514   1.752   3.520
 2843SOL    HW2 9429   3.374   1.804   3.585
 2844SOL     OW 9430   1.538   4.517   0.262
 2844SOL    HW1 9431   1.522   4.577   0.341
 2844SOL    HW2 9432   1.554   4.423   0.293
 2845SOL     OW 9433   1.096   3.333   0.437
 2845SOL    HW1 9434   1.002   3.305   0.420
 2845SOL    HW2 9435   1.113   3.333   0.536
 2846SOL     OW 9436   4.860   1.652   6.617
 2846SOL    HW1 9437   4.839   1.728   6.556
 2846SOL    HW2 9438   4.776   1.613   6.653
 2847SOL     OW 9439   5.183   3.859   3.186
 2847SOL    HW1 9440   5.109   3.913   3.226
 2847SOL    HW2 9441   5.185   3.768   3.227
 2848SOL     OW 9442   0.484   4.522   6.177
 2848SOL    HW1 9443   0.475   4.464   6.259
 2848SOL    HW2 9444   0.557   4.487   6.119
 2849SOL     OW 9445   3.662   0.038   1.560
 2849SOL    HW1 9446   3.748   7.015   1.548
 2849SOL    HW2 9447   3.680   0.136   1.570
 2850SOL     OW 9448   3.259   0.025   2.396
 2850SOL    HW1 9449   3.218   7.015   2.311
 2850SOL    HW2 9450   3.309   0.108   2.375
 2851SOL     OW 9451   0.641   3.562   5.757
 2851SOL    HW1 9452   0.548   3.597   5.772
 2851SOL    HW2 9453   0.653   3.477   5.807
 2852SOL     OW 9454   5.414   4.521   0.436
 2852SOL    HW1 9455   5.375   4.455   0.500
 2852SOL    HW2 9456   5.451   4.599   0.485
 2853SOL     OW 9457   2.822   2.166   0.163
 2853SOL    HW1 9458   2.914   2.169   0.125
 2853SOL    HW2 9459   2.776   2.082   0.133
 2854SOL     OW 9460   3.267   1.759   4.318
 2854SOL    HW1 9461   3.304   1.679   4.365
 2854SOL    HW2 9462   3.337   1.799   4.259
 2855SOL     OW 9463   2.282   1.078   6.261
 2855SOL    HW1 9464   2.353   1.106   6.326
 2855SOL    HW2 9465   2.230   1.157   6.232
 2856SOL     OW 9466   2.313   2.800   5.942
 2856SOL    HW1 9467   2.249   2.871   5.971
 2856SOL    HW2 9468   2.395   2.802   6.000
 2857SOL     OW 9469   3.475   1.773   2.346
 2857SOL    HW1 9470   3.474   1.674   2.331
 2857SOL    HW2 9471   3.554   1.813   2.298
 2858SOL     OW 9472   6.081   3.521   1.679
 2858SOL    HW1 9473   6.035   3.561   1.759
 2858SOL    HW2 9474   6.171   3.562   1.669
 2859SOL     OW 9475   5.115   2.280   0.756
 2859SOL    HW1 9476   5.113   2.284   0.656
 2859SOL    HW2 9477   5.139   2.370   0.793
 2860SOL     OW 9478   3.638   1.754   0.899
 2860SOL    HW1 9479   3.590   1.675   0.938
 2860SOL    HW2 9480   3.626   1.755   0.800
 2861SOL     OW 9481   4.814   5.327   5.784
 2861SOL    HW1 9482   4.846   5.420   5.801
 2861SOL    HW2 9483   4.755   5.327   5.704
 2862SOL     OW 9484   5.251   1.977   2.946
 2862SOL    HW1 9485   5.316   2.020   2.883
 2862SOL    HW2 9486   5.166   1.957   2.898
 2863SOL     OW 9487   5.835   1.326   6.853
 2863SOL    HW1 9488   5.842   1.270   6.936
 2863SOL    HW2 9489   5.926   1.357   6.826
 2864SOL     OW 9490   3.742   0.818   1.204
 2864SOL    HW1 9491   3.821   0.850   1.153
 2864SOL    HW2 9492   3.769   0.801   1.299
 2865SOL     OW 9493   4.958   3.927   5.861
 2865SOL    HW1 9494   4.976   3.862   5.787
 2865SOL    HW2 9495   5.009   4.011   5.845
 2866SOL     OW 9496   6.411   6.074   0.216
 2866SOL    HW1 9497   6.387   6.112   0.305
 2866SOL    HW2 9498   6.504   6.103   0.191
 2867SOL     OW 9499   5.771   3.930   2.548
 2867SOL    HW1 9500   5.818   3.889   2.626
 2867SOL    HW2 9501   5.673   3.918   2.558
 2868SOL     OW 9502   0.500   3.082   5.390
 2868SOL    HW1 9503   0.476   3.072   5.487
 2868SOL    HW2 9504   0.502   2.992   5.347
 2869SOL     OW 9505   5.821   1.510   3.577
 2869SOL    HW1 9506   5.761   1.557   3.642
 2869SOL    HW2 9507   5.794   1.415   3.569
 2870SOL     OW 9508   7.000   1.466   4.524
 2870SOL    HW1 9509   6.930   1.526   4.562
 2870SOL    HW2 9510   6.993   1.375   4.566
 2871SOL     OW 9511   1.620   1.455   0.061
 2871SOL    HW1 9512   1.694   1.508   0.020
 2871SOL    HW2 9513   1.606   1.371   0.008
 2872SOL     OW 9514   2.467   1.745   3.544
 2872SOL    HW1 9515   2.497   1.649   3.544
 2872SOL    HW2 9516   2.403   1.760   3.468
 2873SOL     OW 9517   1.394   5.184   3.324
 2873SOL    HW1 9518   1.389   5.263   3.385
 2873SOL    HW2 9519   1.426   5.104   3.375
 2874SOL     OW 9520   4.341   5.208   2.931
 2874SOL    HW1 9521   4.413   5.228   2.865
 2874SOL    HW2 9522   4.382   5.180   3.018
 2875SOL     OW 9523   4.756   6.445   6.563
 2875SOL    HW1 9524   4.781   6.432   6.467
 2875SOL    HW2 9525   4.660   6.421   6.577
 2876SOL     OW 9526   0.799   6.857   1.871
 2876SOL    HW1 9527   0.831   6.855   1.777
 2876SOL    HW2 9528   0.854   6.921   1.924
 2877SOL     OW 9529   3.482   2.751   5.357
 2877SOL    HW1 9530   3.562   2.710   5.401
 2877SOL    HW2 9531   3.421   2.678   5.325
 2878SOL     OW 9532   3.674   5.000   4.638
 2878SOL    HW1 9533   3.577   4.987   4.615
 2878SOL    HW2 9534   3.696   5.098   4.635
 2879SOL     OW 9535   5.481   5.197   0.089
 2879SOL    HW1 9536   5.579   5.198   0.069
 2879SOL    HW2 9537   5.434   5.137   0.024
 2880SOL     OW 9538   5.910   6.574   0.689
 2880SOL    HW1 9539   5.950   6.490   0.653
 2880SOL    HW2 9540   5.882   6.559   0.784
 2881SOL     OW 9541   6.023   6.385   1.482
 2881SOL    HW1 9542   6.083   6.311   1.513
 2881SOL    HW2 9543   6.026   6.389   1.382
 2882SOL     OW 9544   0.732   3.621   2.240
 2882SOL    HW1 9545   0.815   3.586   2.283
 2882SOL    HW2 9546   0.658   3.554   2.249
 2883SOL     OW 9547   5.374   6.675   4.102
 2883SOL    HW1 9548   5.285   6.632   4.117
 2883SOL    HW2 9549   5.446   6.606   4.105
 2884SOL     OW 9550   0.717   5.476   3.065
 2884SOL    HW1 9551   0.744   5.382   3.083
 2884SOL    HW2 9552   0.778   5.517   2.997
 2885SOL     OW 9553   0.289   3.153   2.573
 2885SOL    HW1 9554   0.286   3.071   2.630
 2885SOL    HW2 9555   0.208   3.156   2.515
 2886SOL     OW 9556   2.045   3.706   0.091
 2886SOL    HW1 9557   2.017   3.651   0.012
 2886SOL    HW2 9558   1.989   3.788   0.096
 2887SOL     OW 9559   1.744   0.033   4.883
 2887SOL    HW1 9560   1.811   0.097   4.846
 2887SOL    HW2 9561   1.759   6.969   4.843
 2888SOL     OW 9562   0.474   4.835   6.569
 2888SOL    HW1 9563   0.386   4.794   6.593
 2888SOL    HW2 9564   0.547   4.770   6.586
 2889SOL     OW 9565   1.296   0.841   2.553
 2889SOL    HW1 9566   1.265   0.747   2.536
 2889SOL    HW2 9567   1.216   0.901   2.560
 2890SOL     OW 9568   2.829   0.177   0.755
 2890SOL    HW1 9569   2.845   0.203   0.850
 2890SOL    HW2 9570   2.730   0.175   0.737
 2891SOL     OW 9571   2.398   4.326   3.828
 2891SOL    HW1 9572   2.461   4.397   3.857
 2891SOL    HW2 9573   2.407   4.311   3.730
 2892SOL     OW 9574   5.681   3.763   0.323
 2892SOL    HW1 9575   5.710   3.747   0.417
 2892SOL    HW2 9576   5.647   3.678   0.283
 2893SOL     OW 9577   0.775   6.692   4.936
 2893SOL    HW1 9578   0.774   6.781   4.981
 2893SOL    HW2 9579   0.688   6.645   4.954
 2894SOL     OW 9580   3.255   2.806   6.720
 2894SOL    HW1 9581   3.227   2.718   6.759
 2894SOL    HW2 9582   3.231   2.808   6.623
 2895SOL     OW 9583   4.080   3.035   6.715
 2895SOL    HW1 9584   4.002   2.990   6.673
 2895SOL    HW2 9585   4.164   3.002   6.672
 2896SOL     OW 9586   3.135   5.059   6.391
 2896SOL    HW1 9587   3.102   5.129   6.455
 2896SOL    HW2 9588   3.061   5.031   6.331
 2897SOL     OW 9589   2.961   6.102   3.455
 2897SOL    HW1 9590   3.044   6.047   3.463
 2897SOL    HW2 9591   2.924   6.095   3.362
 2898SOL     OW 9592   4.523   5.280   3.377
 2898SOL    HW1 9593   4.558   5.371   3.354
 2898SOL    HW2 9594   4.429   5.271   3.344
 2899SOL     OW 9595   0.541   1.858   0.103
 2899SOL    HW1 9596   0.489   1.868   0.188
 2899SOL    HW2 9597   0.499   1.914   0.031
 2900SOL     OW 9598   1.166   4.916   5.391
 2900SOL    HW1 9599   1.071   4.942   5.375
 2900SOL    HW2 9600   1.202   4.968   5.469
 2901SOL     OW 9601   1.363   0.356   2.586
 2901SOL    HW1 9602   1.292   0.287   2.601
 2901SOL    HW2 9603   1.420   0.328   2.509
 2902SOL     OW 9604   5.705   5.985   0.825
 2902SOL    HW1 9605   5.740   5.901   0.784
 2902SOL    HW2 9606   5.777   6.054   0.829
 2903SOL     OW 9607   3.403   0.329   1.575
 2903SOL    HW1 9608   3.338   0.253   1.582
 2903SOL    HW2 9609   3.407   0.360   1.480
 2904SOL     OW 9610   2.166   3.149   5.391
 2904SOL    HW1 9611   2.165   3.062   5.342
 2904SOL    HW2 9612   2.224   3.214   5.342
 2905SOL     OW 9613   0.845   2.293   3.201
 2905SOL    HW1 9614   0.936   2.259   3.178
 2905SOL    HW2 9615   0.813   2.252   3.286
 2906SOL     OW 9616   5.309   5.403   3.057
 2906SOL    HW1 9617   5.327   5.306   3.073
 2906SOL    HW2 9618   5.295   5.419   2.960
 2907SOL     OW 9619   6.695   1.036   4.320
 2907SOL    HW1 9620   6.744   0.965   4.270
 2907SOL    HW2 9621   6.736   1.125   4.300
 2908SOL     OW 9622   4.461   6.635   3.835
 2908SOL    HW1 9623   4.495   6.659   3.926
 2908SOL    HW2 9624   4.456   6.717   3.779
 2909SOL     OW 9625   0.483   5.979   3.565
 2909SOL    HW1 9626   0.555   5.959   3.500
 2909SOL    HW2 9627   0.520   5.979   3.658
 2910SOL     OW 9628   4.267   6.653   4.465
 2910SOL    HW1 9629   4.243   6.594   4.542
 2910SOL    HW2 9630   4.209   6.631   4.387
 2911SOL     OW 9631   2.299   5.110   3.548
 2911SOL    HW1 9632   2.210   5.145   3.576
 2911SOL    HW2 9633   2.339   5.171   3.479
 2912SOL     OW 9634   3.783   6.071   7.009
 2912SOL    HW1 9635   3.857   6.083   6.943
 2912SOL    HW2 9636   3.750   6.161   0.013
 2913SOL     OW 9637   2.060   4.990   2.173
 2913SOL    HW1 9638   2.042   5.087   2.191
 2913SOL    HW2 9639   2.155   4.968   2.196
 2914SOL     OW 9640   5.926   5.406   6.295
 2914SOL    HW1 9641   5.885   5.443   6.212
 2914SOL    HW2 9642   6.026   5.413   6.289
 2915SOL     OW 9643   4.777   1.556   5.087
 2915SOL    HW1 9644   4.694   1.510   5.120
 2915SOL    HW2 9645   4.803   1.518   4.999
 2916SOL     OW 9646   6.333   5.407   5.908
 2916SOL    HW1 9647   6.354   5.383   6.002
 2916SOL    HW2 9648   6.331   5.507   5.898
 2917SOL     OW 9649   4.556   0.617   1.815
 2917SOL    HW1 9650   4.486   0.638   1.884
 2917SOL    HW2 9651   4.646   0.644   1.849
 2918SOL     OW 9652   0.599   3.534   2.983
 2918SOL    HW1 9653   0.527   3.467   3.004
 2918SOL    HW2 9654   0.679   3.485   2.947
 2919SOL     OW 9655   6.481   0.770   0.226
 2919SOL    HW1 9656   6.529   0.837   0.169
 2919SOL    HW2 9657   6.537   0.747   0.305
 2920SOL     OW 9658   3.371   2.114   2.384
 2920SOL    HW1 9659   3.301   2.185   2.379
 2920SOL    HW2 9660   3.408   2.097   2.292
 2921SOL     OW 9661   0.336   0.507   3.180
 2921SOL    HW1 9662   0.290   0.503   3.269
 2921SOL    HW2 9663   0.275   0.549   3.113
 2922SOL     OW 9664   6.068   6.678   6.922
 2922SOL    HW1 9665   6.164   6.676   6.949
 2922SOL    HW2 9666   6.012   6.645   6.998
 2923SOL     OW 9667   0.066   5.000   1.662
 2923SOL    HW1 9668   0.147   4.985   1.719
 2923SOL    HW2 9669   0.048   5.098   1.653
 2924SOL     OW 9670   6.848   2.179   6.547
 2924SOL    HW1 9671   6.764   2.142   6.587
 2924SOL    HW2 9672   6.840   2.278   6.539
 2925SOL     OW 9673   5.145   1.074   3.325
 2925SOL    HW1 9674   5.229   1.054   3.376
 2925SOL    HW2 9675   5.157   1.160   3.274
 2926SOL     OW 9676   6.767   1.508   4.958
 2926SOL    HW1 9677   6.705   1.431   4.946
 2926SOL    HW2 9678   6.723   1.578   5.015
 2927SOL     OW 9679   2.219   1.846   2.039
 2927SOL    HW1 9680   2.204   1.930   2.091
 2927SOL    HW2 9681   2.137   1.790   2.042
 2928SOL     OW 9682   6.547   2.498   6.168
 2928SOL    HW1 9683   6.505   2.525   6.081
 2928SOL    HW2 9684   6.597   2.576   6.207
 2929SOL     OW 9685   0.798   1.237   5.707
 2929SOL    HW1 9686   0.720   1.257   5.766
 2929SOL    HW2 9687   0.765   1.210   5.617
 2930SOL     OW 9688   5.082   6.367   5.045
 2930SOL    HW1 9689   5.170   6.340   5.083
 2930SOL    HW2 9690   5.033   6.425   5.110
 2931SOL     OW 9691   5.840   6.451   6.508
 2931SOL    HW1 9692   5.852   6.352   6.499
 2931SOL    HW2 9693   5.927   6.493   6.533
 2932SOL     OW 9694   1.657   4.809   2.222
 2932SOL    HW1 9695   1.732   4.745   2.204
 2932SOL    HW2 9696   1.580   4.788   2.162
 2933SOL     OW 9697   5.486   3.104   3.177
 2933SOL    HW1 9698   5.559   3.056   3.227
 2933SOL    HW2 9699   5.403   3.106   3.233
 2934SOL     OW 9700   3.837   1.042   0.266
 2934SOL    HW1 9701   3.892   1.093   0.333
 2934SOL    HW2 9702   3.839   1.089   0.178
 2935SOL     OW 9703   6.095   3.117   1.648
 2935SOL    HW1 9704   6.041   3.174   1.710
 2935SOL    HW2 9705   6.089   3.022   1.678
 2936SOL     OW 9706   5.103   5.615   1.802
 2936SOL    HW1 9707   5.123   5.703   1.758
 2936SOL    HW2 9708   5.180   5.590   1.861
 2937SOL     OW 9709   3.639   4.716   0.945
 2937SOL    HW1 9710   3.728   4.680   0.917
 2937SOL    HW2 9711   3.643   4.815   0.950
 2938SOL     OW 9712   5.071   4.810   5.848
 2938SOL    HW1 9713   5.059   4.812   5.749
 2938SOL    HW2 9714   5.006   4.874   5.890
 2939SOL     OW 9715   0.436   6.928   4.430
 2939SOL    HW1 9716   0.442   6.974   4.341
 2939SOL    HW2 9717   0.494   6.847   4.429
 2940SOL     OW 9718   6.105   6.971   5.681
 2940SOL    HW1 9719   6.151   0.034   5.683
 2940SOL    HW2 9720   6.008   6.984   5.663
 2941SOL     OW 9721   2.068   2.452   4.890
 2941SOL    HW1 9722   2.028   2.534   4.931
 2941SOL    HW2 9723   2.000   2.378   4.889
 2942SOL     OW 9724   2.083   0.973   2.101
 2942SOL    HW1 9725   2.128   0.950   2.187
 2942SOL    HW2 9726   2.007   1.036   2.119
 2943SOL     OW 9727   5.879   3.915   3.210
 2943SOL    HW1 9728   5.843   3.983   3.274
 2943SOL    HW2 9729   5.805   3.883   3.151
 2944SOL     OW 9730   2.659   5.572   5.314
 2944SOL    HW1 9731   2.753   5.563   5.281
 2944SOL    HW2 9732   2.625   5.482   5.341
 2945SOL     OW 9733   4.051   3.134   3.169
 2945SOL    HW1 9734   4.028   3.209   3.231
 2945SOL    HW2 9735   4.150   3.122   3.167
 2946SOL     OW 9736   6.895   5.494   6.263
 2946SOL    HW1 9737   6.954   5.501   6.183
 2946SOL    HW2 9738   6.822   5.562   6.258
 2947SOL     OW 9739   0.861   4.614   0.658
 2947SOL    HW1 9740   0.953   4.649   0.679
 2947SOL    HW2 9741   0.857   4.516   0.679
 2948SOL     OW 9742   6.743   3.521   5.714
 2948SOL    HW1 9743   6.802   3.551   5.639
 2948SOL    HW2 9744   6.647   3.532   5.687
 2949SOL     OW 9745   2.152   6.135   1.083
 2949SOL    HW1 9746   2.109   6.178   1.004
 2949SOL    HW2 9747   2.238   6.092   1.055
 2950SOL     OW 9748   5.248   3.652   4.452
 2950SOL    HW1 9749   5.234   3.566   4.501
 2950SOL    HW2 9750   5.161   3.699   4.440
 2951SOL     OW 9751   6.466   2.590   0.380
 2951SOL    HW1 9752   6.455   2.606   0.478
 2951SOL    HW2 9753   6.503   2.499   0.364
 2952SOL     OW 9754   0.992   5.782   4.894
 2952SOL    HW1 9755   1.079   5.816   4.928
 2952SOL    HW2 9756   0.921   5.797   4.963
 2953SOL     OW 9757   4.771   2.813   2.228
 2953SOL    HW1 9758   4.748   2.781   2.136
 2953SOL    HW2 9759   4.800   2.908   2.224
 2954SOL     OW 9760   1.041   5.358   1.478
 2954SOL    HW1 9761   1.057   5.433   1.414
 2954SOL    HW2 9762   1.109   5.286   1.462
 2955SOL     OW 9763   0.712   3.749   0.695
 2955SOL    HW1 9764   0.743   3.654   0.697
 2955SOL    HW2 9765   0.718   3.784   0.602
 2956SOL     OW 9766   6.118   6.181   2.971
 2956SOL    HW1 9767   6.098   6.274   2.940
 2956SOL    HW2 9768   6.084   6.115   2.904
 2957SOL     OW 9769   6.596   3.039   1.454
 2957SOL    HW1 9770   6.663   3.113   1.458
 2957SOL    HW2 9771   6.546   3.035   1.540
 2958SOL     OW 9772   2.634   4.684   4.716
 2958SOL    HW1 9773   2.570   4.631   4.772
 2958SOL    HW2 9774   2.714   4.627   4.694
 2959SOL     OW 9775   4.379   4.427   0.163
 2959SOL    HW1 9776   4.333   4.505   0.207
 2959SOL    HW2 9777   4.478   4.437   0.173
 2960SOL     OW 9778   2.921   0.322   6.581
 2960SOL    HW1 9779   3.015   0.302   6.551
 2960SOL    HW2 9780   2.909   0.290   6.675
 2961SOL     OW 9781   5.242   2.639   4.525
 2961SOL    HW1 9782   5.215   2.647   4.429
 2961SOL    HW2 9783   5.236   2.544   4.553
 2962SOL     OW 9784   4.443   0.817   3.841
 2962SOL    HW1 9785   4.415   0.825   3.745
 2962SOL    HW2 9786   4.482   0.726   3.857
 2963SOL     OW 9787   1.764   1.659   5.791
 2963SOL    HW1 9788   1.699   1.710   5.735
 2963SOL    HW2 9789   1.753   1.686   5.887
 2964SOL     OW 9790   1.151   6.820   1.520
 2964SOL    HW1 9791   1.213   6.745   1.498
 2964SOL    HW2 9792   1.067   6.811   1.466
 2965SOL     OW 9793   0.094   1.179   5.050
 2965SOL    HW1 9794   0.001   1.145   5.036
 2965SOL    HW2 9795   0.159   1.105   5.032
 2966SOL     OW 9796   6.300   4.535   4.157
 2966SOL    HW1 9797   6.307   4.600   4.080
 2966SOL    HW2 9798   6.342   4.448   4.131
 2967SOL     OW 9799   6.004   2.382   4.398
 2967SOL    HW1 9800   6.099   2.376   4.369
 2967SOL    HW2 9801   5.997   2.364   4.496
 2968SOL     OW 9802   0.835   4.037   5.583
 2968SOL    HW1 9803   0.921   3.996   5.556
 2968SOL    HW2 9804   0.771   3.965   5.612
 2969SOL     OW 9805   5.836   1.396   4.596
 2969SOL    HW1 9806   5.883   1.425   4.512
 2969SOL    HW2 9807   5.833   1.473   4.660
 2970SOL     OW 9808   1.091   4.523   0.100
 2970SOL    HW1 9809   1.166   4.499   0.038
 2970SOL    HW2 9810   1.127   4.539   0.192
 2971SOL     OW 9811   4.897   2.551   5.104
 2971SOL    HW1 9812   4.919   2.647   5.091
 2971SOL    HW2 9813   4.813   2.529   5.055
 2972SOL     OW 9814   6.595   5.086   6.200
 2972SOL    HW1 9815   6.526   5.049   6.139
 2972SOL    HW2 9816   6.633   5.170   6.161
 2973SOL     OW 9817   5.139   1.096   4.439
 2973SOL    HW1 9818   5.151   1.174   4.378
 2973SOL    HW2 9819   5.199   1.105   4.518
 2974SOL     OW 9820   0.298   3.822   2.810
 2974SOL    HW1 9821   0.218   3.813   2.869
 2974SOL    HW2 9822   0.270   3.812   2.714
 2975SOL     OW 9823   0.677   1.973   5.436
 2975SOL    HW1 9824   0.588   2.017   5.427
 2975SOL    HW2 9825   0.675   1.884   5.392
 2976SOL     OW 9826   4.050   1.222   2.461
 2976SOL    HW1 9827   3.962   1.180   2.436
 2976SOL    HW2 9828   4.040   1.321   2.462
 2977SOL     OW 9829   1.547   0.276   4.228
 2977SOL    HW1 9830   1.545   0.269   4.128
 2977SOL    HW2 9831   1.535   0.186   4.268
 2978SOL     OW 9832   4.339   4.570   6.647
 2978SOL    HW1 9833   4.317   4.645   6.585
 2978SOL    HW2 9834   4.371   4.607   6.734
 2979SOL     OW 9835   4.575   6.716   4.079
 2979SOL    HW1 9836   4.622   6.669   4.154
 2979SOL    HW2 9837   4.626   6.799   4.056
 2980SOL     OW 9838   1.616   5.813   3.797
 2980SOL    HW1 9839   1.600   5.742   3.728
 2980SOL    HW2 9840   1.697   5.866   3.772
 2981SOL     OW 9841   0.817   0.283   5.532
 2981SOL    HW1 9842   0.788   0.373   5.564
 2981SOL    HW2 9843   0.871   0.294   5.448
 2982SOL     OW 9844   5.063   6.382   3.039
 2982SOL    HW1 9845   4.985   6.380   3.101
 2982SOL    HW2 9846   5.036   6.347   2.950
 2983SOL     OW 9847   0.561   0.953   4.196
 2983SOL    HW1 9848   0.638   1.017   4.200
 2983SOL    HW2 9849   0.530   0.944   4.101
 2984SOL     OW 9850   4.839   5.775   1.717
 2984SOL    HW1 9851   4.909   5.734   1.659
 2984SOL    HW2 9852   4.830   5.722   1.802
 2985SOL     OW 9853   0.836   2.436   5.257
 2985SOL    HW1 9854   0.916   2.476   5.301
 2985SOL    HW2 9855   0.846   2.336   5.255
 2986SOL     OW 9856   1.726   3.770   6.716
 2986SOL    HW1 9857   1.766   3.698   6.659
 2986SOL    HW2 9858   1.663   3.824   6.660
 2987SOL     OW 9859   4.707   0.826   3.515
 2987SOL    HW1 9860   4.754   0.745   3.550
 2987SOL    HW2 9861   4.775   0.896   3.491
 2988SOL     OW 9862   0.105   6.947   3.073
 2988SOL    HW1 9863   0.144   6.952   2.981
 2988SOL    HW2 9864   0.084   6.851   3.095
 2989SOL     OW 9865   6.478   5.990   1.081
 2989SOL    HW1 9866   6.531   5.953   1.156
 2989SOL    HW2 9867   6.539   6.024   1.010
 2990SOL     OW 9868   4.353   1.222   3.397
 2990SOL    HW1 9869   4.325   1.165   3.319
 2990SOL    HW2 9870   4.421   1.173   3.451
 2991SOL     OW 9871   6.736   3.904   0.409
 2991SOL    HW1 9872   6.834   3.925   0.405
 2991SOL    HW2 9873   6.684   3.990   0.414
 2992SOL     OW 9874   2.280   5.246   5.852
 2992SOL    HW1 9875   2.207   5.244   5.921
 2992SOL    HW2 9876   2.247   5.204   5.768
 2993SOL     OW 9877   1.250   4.872   1.863
 2993SOL    HW1 9878   1.306   4.868   1.780
 2993SOL    HW2 9879   1.245   4.967   1.895
 2994SOL     OW 9880   4.026   0.804   0.438
 2994SOL    HW1 9881   3.976   0.798   0.525
 2994SOL    HW2 9882   4.002   0.725   0.381
 2995SOL     OW 9883   0.728   3.069   6.925
 2995SOL    HW1 9884   0.796   3.078   6.997
 2995SOL    HW2 9885   0.773   3.065   6.836
 2996SOL     OW 9886   2.628   6.109   3.730
 2996SOL    HW1 9887   2.570   6.087   3.809
 2996SOL    HW2 9888   2.639   6.208   3.723
 2997SOL     OW 9889   4.787   6.675   2.264
 2997SOL    HW1 9890   4.880   6.641   2.279
 2997SOL    HW2 9891   4.745   6.624   2.189
 2998SOL     OW 9892   5.278   6.429   5.448
 2998SOL    HW1 9893   5.198   6.438   5.508
 2998SOL    HW2 9894   5.331   6.514   5.451
 2999SOL     OW 9895   3.521   5.678   4.016
 2999SOL    HW1 9896   3.586   5.718   4.081
 2999SOL    HW2 9897   3.571   5.634   3.941
 3000SOL     OW 9898   1.367   3.798   6.637
 3000SOL    HW1 9899   1.443   3.854   6.602
 3000SOL    HW2 9900   1.281   3.843   6.614
 3001SOL     OW 9901   5.619   0.062   6.696
 3001SOL    HW1 9902   5.565   0.079   6.614
 3001SOL    HW2 9903   5.561   0.020   6.766
 3002SOL     OW 9904   4.316   0.357   5.279
 3002SOL    HW1 9905   4.307   0.396   5.187
 3002SOL    HW2 9906   4.375   0.415   5.334
 3003SOL     OW 9907   2.553   6.498   6.666
 3003SOL    HW1 9908   2.576   6.489   6.569
 3003SOL    HW2 9909   2.524   6.591   6.685
 3004SOL     OW 9910   0.377   4.992   3.855
 3004SOL    HW1 9911   0.410   4.939   3.933
 3004SOL    HW2 9912   0.353   5.084   3.885
 3005SOL     OW 9913   3.371   2.574   0.470
 3005SOL    HW1 9914   3.347   2.666   0.441
 3005SOL    HW2 9915   3.452   2.543   0.419
 3006SOL     OW 9916   6.042   2.177   0.086
 3006SOL    HW1 9917   6.041   2.097   0.026
 3006SOL    HW2 9918   6.123   2.173   0.145
 3007SOL     OW 9919   6.192   5.110   2.291
 3007SOL    HW1 9920   6.118   5.179   2.288
 3007SOL    HW2 9921   6.154   5.022   2.319
 3008SOL     OW 9922   4.006   0.834   6.354
 3008SOL    HW1 9923   4.019   0.929   6.382
 3008SOL    HW2 9924   4.030   0.773   6.430
 3009SOL     OW 9925   0.646   6.482   2.608
 3009SOL    HW1 9926   0.673   6.496   2.512
 3009SOL    HW2 9927   0.727   6.456   2.661
 3010SOL     OW 9928   3.537   6.076   3.125
 3010SOL    HW1 9929   3.600   6.139   3.170
 3010SOL    HW2 9930   3.478   6.033   3.193
 3011SOL     OW 9931   5.530   0.919   0.568
 3011SOL    HW1 9932   5.451   0.960   0.612
 3011SOL    HW2 9933   5.516   0.916   0.469
 3012SOL     OW 9934   1.756   3.891   5.281
 3012SOL    HW1 9935   1.780   3.794   5.284
 3012SOL    HW2 9936   1.840   3.946   5.269
 3013SOL     OW 9937   5.612   5.602   4.042
 3013SOL    HW1 9938   5.701   5.593   4.086
 3013SOL    HW2 9939   5.550   5.533   4.078
 3014SOL     OW 9940   5.068   2.609   4.093
 3014SOL    HW1 9941   4.984   2.664   4.098
 3014SOL    HW2 9942   5.146   2.664   4.122
 3015SOL     OW 9943   3.338   2.239   0.513
 3015SOL    HW1 9944   3.357   2.308   0.443
 3015SOL    HW2 9945   3.416   2.235   0.576
 3016SOL     OW 9946   2.811   6.238   4.486
 3016SOL    HW1 9947   2.796   6.179   4.565
 3016SOL    HW2 9948   2.832   6.182   4.406
 3017SOL     OW 9949   1.097   5.272   1.791
 3017SOL    HW1 9950   1.060   5.283   1.699
 3017SOL    HW2 9951   1.114   5.362   1.831
 3018SOL     OW 9952   3.178   6.868   5.655
 3018SOL    HW1 9953   3.256   6.850   5.715
 3018SOL    HW2 9954   3.211   6.893   5.564
 3019SOL     OW 9955   2.418   6.834   0.774
 3019SOL    HW1 9956   2.439   6.921   0.818
 3019SOL    HW2 9957   2.494   6.770   0.788
 3020SOL     OW 9958   3.296   4.154   1.584
 3020SOL    HW1 9959   3.215   4.157   1.642
 3020SOL    HW2 9960   3.296   4.068   1.532
 3021SOL     OW 9961   2.115   1.528   0.494
 3021SOL    HW1 9962   2.074   1.445   0.455
 3021SOL    HW2 9963   2.208   1.538   0.459
 3022SOL     OW 9964   4.409   5.872   2.943
 3022SOL    HW1 9965   4.329   5.855   3.001
 3022SOL    HW2 9966   4.436   5.787   2.898
 3023SOL     OW 9967   4.001   6.546   2.573
 3023SOL    HW1 9968   3.971   6.520   2.664
 3023SOL    HW2 9969   3.956   6.489   2.504
 3024SOL     OW 9970   4.212   0.365   6.323
 3024SOL    HW1 9971   4.288   0.415   6.363
 3024SOL    HW2 9972   4.136   0.362   6.388
 3025SOL     OW 9973   3.714   2.456   0.111
 3025SOL    HW1 9974   3.691   2.384   0.045
 3025SOL    HW2 9975   3.775   2.522   0.068
 3026SOL     OW 9976   1.771   2.318   0.685
 3026SOL    HW1 9977   1.826   2.401   0.682
 3026SOL    HW2 9978   1.823   2.244   0.728
 3027SOL     OW 9979   4.284   0.763   1.590
 3027SOL    HW1 9980   4.199   0.716   1.614
 3027SOL    HW2 9981   4.274   0.806   1.500
 3028SOL     OW 9982   1.011   4.334   6.329
 3028SOL    HW1 9983   1.034   4.333   6.231
 3028SOL    HW2 9984   1.075   4.394   6.377
 3029SOL     OW 9985   0.364   4.932   4.979
 3029SOL    HW1 9986   0.351   4.865   5.052
 3029SOL    HW2 9987   0.278   4.979   4.960
 3030SOL     OW 9988   0.565   2.363   5.969
 3030SOL    HW1 9989   0.476   2.322   5.951
 3030SOL    HW2 9990   0.575   2.446   5.914
 3031SOL     OW 9991   0.070   3.744   0.705
 3031SOL    HW1 9992   0.089   3.676   0.776
 3031SOL    HW2 9993   7.005   3.726   0.666
 3032SOL     OW 9994   4.981   6.915   0.772
 3032SOL    HW1 9995   5.046   6.990   0.761
 3032SOL    HW2 9996   5.029   6.836   0.810
 3033SOL     OW 9997   1.035   2.620   1.196
 3033SOL    HW1 9998   0.941   2.598   1.168
 3033SOL    HW2 9999   1.099   2.581   1.131
 3034SOL     OW10000   2.281   6.330   3.923
 3034SOL    HW110001   2.270   6.425   3.894
 3034SOL    HW210002   2.246   6.319   4.016
 3035SOL     OW10003   6.753   2.935   0.324
 3035SOL    HW110004   6.833   2.970   0.373
 3035SOL    HW210005   6.726   2.999   0.253
 3036SOL     OW10006   1.510   3.162   6.795
 3036SOL    HW110007   1.603   3.195   6.807
 3036SOL    HW210008   1.480   3.116   6.879
 3037SOL     OW10009   6.151   5.666   4.749
 3037SOL    HW110010   6.189   5.645   4.839
 3037SOL    HW210011   6.112   5.758   4.750
 3038SOL     OW10012   5.948   6.958   6.434
 3038SOL    HW110013   6.024   6.894   6.421
 3038SOL    HW210014   5.865   6.919   6.395
 3039SOL     OW10015   6.644   3.938   2.327
 3039SOL    HW110016   6.701   3.931   2.245
 3039SOL    HW210017   6.562   3.883   2.316
 3040SOL     OW10018   5.037   3.827   6.087
 3040SOL    HW110019   5.033   3.867   5.995
 3040SOL    HW210020   4.963   3.863   6.143
 3041SOL     OW10021   2.170   2.654   5.442
 3041SOL    HW110022   2.238   2.643   5.369
 3041SOL    HW210023   2.194   2.731   5.500
 3042SOL     OW10024   5.779   7.017   1.886
 3042SOL    HW110025   5.741   6.927   1.865
 3042SOL    HW210026   5.712   0.062   1.861
 3043SOL     OW10027   0.674   5.381   1.187
 3043SOL    HW110028   0.715   5.304   1.140
 3043SOL    HW210029   0.575   5.367   1.193
 3044SOL     OW10030   2.675   4.730   5.984
 3044SOL    HW110031   2.646   4.816   5.941
 3044SOL    HW210032   2.683   4.744   6.083
 3045SOL     OW10033   4.847   0.758   2.590
 3045SOL    HW110034   4.752   0.738   2.615
 3045SOL    HW210035   4.874   0.700   2.513
 3046SOL     OW10036   2.196   2.282   5.743
 3046SOL    HW110037   2.099   2.295   5.723
 3046SOL    HW210038   2.210   2.189   5.776
 3047SOL     OW10039   5.107   5.981   2.601
 3047SOL    HW110040   5.117   5.907   2.667
 3047SOL    HW210041   5.092   6.067   2.649
 3048SOL     OW10042   3.548   2.814   1.585
 3048SOL    HW110043   3.496   2.731   1.567
 3048SOL    HW210044   3.525   2.883   1.516
 3049SOL     OW10045   1.575   5.955   1.274
 3049SOL    HW110046   1.621   5.866   1.272
 3049SOL    HW210047   1.635   6.021   1.320
 3050SOL     OW10048   3.498   0.763   3.751
 3050SOL    HW110049   3.532   0.801   3.665
 3050SOL    HW210050   3.463   0.837   3.808
 3051SOL     OW10051   2.778   3.315   6.732
 3051SOL    HW110052   2.830   3.397   6.707
 3051SOL    HW210053   2.828   3.262   6.800
 3052SOL     OW10054   4.196   0.811   2.044
 3052SOL    HW110055   4.249   0.828   1.961
 3052SOL    HW210056   4.098   0.826   2.025
 3053SOL     OW10057   6.668   0.742   6.588
 3053SOL    HW110058   6.632   0.662   6.635
 3053SOL    HW210059   6.768   0.740   6.590
 3054SOL     OW10060   0.665   2.837   0.975
 3054SOL    HW110061   0.620   2.835   0.886
 3054SOL    HW210062   0.756   2.877   0.966
 3055SOL     OW10063   4.740   6.858   3.684
 3055SOL    HW110064   4.716   6.787   3.617
 3055SOL    HW210065   4.698   6.945   3.657
 3056SOL     OW10066   6.924   0.376   6.160
 3056SOL    HW110067   6.866   0.437   6.107
 3056SOL    HW210068   6.954   0.300   6.102
 3057SOL     OW10069   4.555   5.650   2.762
 3057SOL    HW110070   4.624   5.578   2.750
 3057SOL    HW210071   4.464   5.608   2.768
 3058SOL     OW10072   6.782   5.312   1.458
 3058SOL    HW110073   6.785   5.304   1.358
 3058SOL    HW210074   6.687   5.328   1.487
 3059SOL     OW10075   1.724   2.294   5.300
 3059SOL    HW110076   1.678   2.328   5.218
 3059SOL    HW210077   1.818   2.270   5.279
 3060SOL     OW10078   0.474   6.134   0.415
 3060SOL    HW110079   0.495   6.154   0.320
 3060SOL    HW210080   0.398   6.191   0.445
 3061SOL     OW10081   6.320   0.930   4.906
 3061SOL    HW110082   6.313   0.965   4.813
 3061SOL    HW210083   6.231   0.892   4.935
 3062SOL     OW10084   1.670   0.057   0.230
 3062SOL    HW110085   1.677   0.137   0.170
 3062SOL    HW210086   1.573   0.033   0.242
 3063SOL     OW10087   3.202   5.283   1.684
 3063SOL    HW110088   3.258   5.365   1.670
 3063SOL    HW210089   3.164   5.254   1.596
 3064SOL     OW10090   6.151   3.393   3.780
 3064SOL    HW110091   6.238   3.374   3.735
 3064SOL    HW210092   6.087   3.432   3.713
 3065SOL     OW10093   1.859   0.756   6.634
 3065SOL    HW110094   1.843   0.660   6.654
 3065SOL    HW210095   1.951   0.769   6.600
 3066SOL     OW10096   5.554   4.628   0.782
 3066SOL    HW110097   5.544   4.656   0.687
 3066SOL    HW210098   5.577   4.531   0.786
 3067SOL     OW10099   3.613   1.669   4.355
 3067SOL    HW110100   3.557   1.586   4.358
 3067SOL    HW210101   3.582   1.733   4.425
 3068SOL     OW10102   5.522   5.962   0.597
 3068SOL    HW110103   5.590   5.962   0.671
 3068SOL    HW210104   5.466   6.045   0.605
 3069SOL     OW10105   6.690   6.070   1.802
 3069SOL    HW110106   6.681   5.990   1.742
 3069SOL    HW210107   6.607   6.126   1.795
 3070SOL     OW10108   1.633   1.146   2.729
 3070SOL    HW110109   1.566   1.092   2.679
 3070SOL    HW210110   1.707   1.087   2.762
 3071SOL     OW10111   6.103   6.333   3.555
 3071SOL    HW110112   6.021   6.389   3.548
 3071SOL    HW210113   6.163   6.371   3.626
 3072SOL     OW10114   0.593   6.865   0.655
 3072SOL    HW110115   0.684   6.841   0.621
 3072SOL    HW210116   0.597   6.878   0.755
 3073SOL     OW10117   0.602   3.194   5.158
 3073SOL    HW110118   0.609   3.116   5.095
 3073SOL    HW210119   0.561   3.163   5.244
 3074SOL     OW10120   5.811   2.981   0.702
 3074SOL    HW110121   5.729   2.949   0.654
 3074SOL    HW210122   5.892   2.944   0.656
 3075SOL     OW10123   2.111   6.202   1.326
 3075SOL    HW110124   2.128   6.173   1.232
 3075SOL    HW210125   2.147   6.294   1.340
 3076SOL     OW10126   6.436   1.144   4.192
 3076SOL    HW110127   6.503   1.117   4.262
 3076SOL    HW210128   6.358   1.082   4.195
 3077SOL     OW10129   5.260   5.141   3.120
 3077SOL    HW110130   5.161   5.143   3.116
 3077SOL    HW210131   5.294   5.076   3.051
 3078SOL     OW10132   2.055   3.111   1.092
 3078SOL    HW110133   2.109   3.074   1.016
 3078SOL    HW210134   2.065   3.211   1.094
 3079SOL     OW10135   1.942   2.801   4.415
 3079SOL    HW110136   1.977   2.816   4.323
 3079SOL    HW210137   2.019   2.785   4.478
 3080SOL     OW10138   5.507   4.635   3.216
 3080SOL    HW110139   5.532   4.579   3.295
 3080SOL    HW210140   5.540   4.729   3.230
 3081SOL     OW10141   0.480   4.077   6.085
 3081SOL    HW110142   0.381   4.071   6.075
 3081SOL    HW210143   0.520   3.985   6.086
 3082SOL     OW10144   3.891   6.035   3.262
 3082SOL    HW110145   3.948   6.088   3.325
 3082SOL    HW210146   3.812   6.089   3.235
 3083SOL     OW10147   4.000   6.478   3.573
 3083SOL    HW110148   4.082   6.520   3.612
 3083SOL    HW210149   3.929   6.548   3.563
 3084SOL     OW10150   4.661   4.854   4.489
 3084SOL    HW110151   4.579   4.871   4.433
 3084SOL    HW210152   4.649   4.898   4.578
 3085SOL     OW10153   0.725   4.794   2.329
 3085SOL    HW110154   0.743   4.804   2.427
 3085SOL    HW210155   0.803   4.749   2.285
 3086SOL     OW10156   4.041   1.865   1.703
 3086SOL    HW110157   3.967   1.834   1.762
 3086SOL    HW210158   4.025   1.833   1.609
 3087SOL     OW10159   0.648   5.110   4.126
 3087SOL    HW110160   0.696   5.037   4.078
 3087SOL    HW210161   0.612   5.175   4.060
 3088SOL     OW10162   2.486   5.050   5.389
 3088SOL    HW110163   2.583   5.045   5.410
 3088SOL    HW210164   2.460   4.973   5.331
 3089SOL     OW10165   0.922   2.808   0.379
 3089SOL    HW110166   0.997   2.817   0.444
 3089SOL    HW210167   0.879   2.897   0.364
 3090SOL     OW10168   2.048   2.152   1.861
 3090SOL    HW110169   1.973   2.199   1.815
 3090SOL    HW210170   2.052   2.180   1.956
 3091SOL     OW10171   2.693   6.151   6.983
 3091SOL    HW110172   2.748   6.082   6.936
 3091SOL    HW210173   2.683   6.231   6.924
 3092SOL     OW10174   4.894   0.272   6.820
 3092SOL    HW110175   4.962   0.232   6.881
 3092SOL    HW210176   4.818   0.308   6.874
 3093SOL     OW10177   5.334   4.850   5.933
 3093SOL    HW110178   5.380   4.770   5.896
 3093SOL    HW210179   5.248   4.865   5.885
 3094SOL     OW10180   3.414   6.710   4.708
 3094SOL    HW110181   3.441   6.646   4.636
 3094SOL    HW210182   3.315   6.703   4.724
 3095SOL     OW10183   2.415   5.130   3.989
 3095SOL    HW110184   2.498   5.182   3.966
 3095SOL    HW210185   2.370   5.172   4.068
 3096SOL     OW10186   0.579   0.052   4.226
 3096SOL    HW110187   0.627   0.068   4.140
 3096SOL    HW210188   0.586   0.134   4.283
 3097SOL     OW10189   0.669   2.248   1.300
 3097SOL    HW110190   0.616   2.284   1.223
 3097SOL    HW210191   0.728   2.321   1.336
 3098SOL     OW10192   2.384   3.531   1.248
 3098SOL    HW110193   2.348   3.515   1.341
 3098SOL    HW210194   2.393   3.629   1.233
 3099SOL     OW10195   6.862   5.903   5.149
 3099SOL    HW110196   6.915   5.967   5.093
 3099SOL    HW210197   6.924   5.856   5.213
 3100SOL     OW10198   6.723   0.321   4.618
 3100SOL    HW110199   6.821   0.321   4.595
 3100SOL    HW210200   6.679   0.401   4.577
 3101SOL     OW10201   5.001   6.078   5.266
 3101SOL    HW110202   4.968   6.062   5.173
 3101SOL    HW210203   5.099   6.055   5.270
 3102SOL     OW10204   0.966   5.258   2.634
 3102SOL    HW110205   0.904   5.201   2.581
 3102SOL    HW210206   1.060   5.242   2.603
 3103SOL     OW10207   3.158   1.457   1.510
 3103SOL    HW110208   3.198   1.388   1.449
 3103SOL    HW210209   3.065   1.430   1.533
 3104SOL     OW10210   6.098   0.114   4.346
 3104SOL    HW110211   6.076   0.076   4.256
 3104SOL    HW210212   6.157   0.050   4.396
 3105SOL     OW10213   6.764   5.164   2.675
 3105SOL    HW110214   6.755   5.183   2.773
 3105SOL    HW210215   6.686   5.110   2.644
 3106SOL     OW10216   6.835   1.363   3.087
 3106SOL    HW110217   6.905   1.346   3.017
 3106SOL    HW210218   6.807   1.276   3.127
 3107SOL     OW10219   3.431   0.356   4.321
 3107SOL    HW110220   3.443   0.449   4.355
 3107SOL    HW210221   3.399   0.296   4.395
 3108SOL     OW10222   1.556   0.567   4.191
 3108SOL    HW110223   1.569   0.476   4.231
 3108SOL    HW210224   1.645   0.605   4.166
 3109SOL     OW10225   5.782   5.796   2.809
 3109SOL    HW110226   5.832   5.880   2.787
 3109SOL    HW210227   5.846   5.729   2.847
 3110SOL     OW10228   0.900   1.888   3.729
 3110SOL    HW110229   0.990   1.870   3.769
 3110SOL    HW210230   0.844   1.805   3.736
 3111SOL     OW10231   6.590   5.716   3.982
 3111SOL    HW110232   6.579   5.659   4.064
 3111SOL    HW210233   6.658   5.787   4.000
 3112SOL     OW10234   4.957   2.560   6.366
 3112SOL    HW110235   5.039   2.613   6.384
 3112SOL    HW210236   4.968   2.509   6.280
 3113SOL     OW10237   1.564   6.942   4.531
 3113SOL    HW110238   1.565   6.960   4.432
 3113SOL    HW210239   1.524   7.020   4.579
 3114SOL     OW10240   4.723   3.185   0.155
 3114SOL    HW110241   4.773   3.112   0.200
 3114SOL    HW210242   4.625   3.164   0.155
 3115SOL     OW10243   5.089   3.642   0.040
 3115SOL    HW110244   4.997   3.628   0.005
 3115SOL    HW210245   5.103   3.585   0.121
 3116SOL     OW10246   0.045   3.840   0.152
 3116SOL    HW110247   7.024   3.766   0.199
 3116SOL    HW210248   0.045   3.823   0.054
 3117SOL     OW10249   4.457   3.538   5.359
 3117SOL    HW110250   4.479   3.452   5.405
 3117SOL    HW210251   4.520   3.551   5.282
 3118SOL     OW10252   0.338   4.687   6.773
 3118SOL    HW110253   0.376   4.750   6.841
 3118SOL    HW210254   0.246   4.718   6.747
 3119SOL     OW10255   1.828   4.064   5.923
 3119SOL    HW110256   1.813   4.097   5.830
 3119SOL    HW210257   1.903   4.115   5.965
 3120SOL     OW10258   2.242   6.559   4.341
 3120SOL    HW110259   2.150   6.589   4.368
 3120SOL    HW210260   2.253   6.462   4.363
 3121SOL     OW10261   0.464   1.713   2.536
 3121SOL    HW110262   0.388   1.698   2.599
 3121SOL    HW210263   0.437   1.682   2.444
 3122SOL     OW10264   2.913   5.701   5.877
 3122SOL    HW110265   2.924   5.800   5.882
 3122SOL    HW210266   2.830   5.674   5.925
 3123SOL     OW10267   3.218   6.592   3.457
 3123SOL    HW110268   3.296   6.611   3.516
 3123SOL    HW210269   3.196   6.495   3.461
 3124SOL     OW10270   4.040   6.998   4.695
 3124SOL    HW110271   3.985   6.937   4.751
 3124SOL    HW210272   4.041   0.063   4.735
 3125SOL     OW10273   6.020   2.219   6.234
 3125SOL    HW110274   6.088   2.290   6.220
 3125SOL    HW210275   6.057   2.131   6.204
 3126SOL     OW10276   5.086   4.419   6.700
 3126SOL    HW110277   5.123   4.427   6.792
 3126SOL    HW210278   5.129   4.342   6.653
 3127SOL     OW10279   0.498   2.557   3.333
 3127SOL    HW110280   0.572   2.589   3.274
 3127SOL    HW210281   0.519   2.582   3.428
 3128SOL     OW10282   2.162   6.724   6.778
 3128SOL    HW110283   2.197   6.706   6.686
 3128SOL    HW210284   2.226   6.689   6.846
 3129SOL     OW10285   0.665   4.392   6.618
 3129SOL    HW110286   0.677   4.354   6.526
 3129SOL    HW210287   0.568   4.408   6.635
 3130SOL     OW10288   2.363   4.330   2.312
 3130SOL    HW110289   2.324   4.259   2.253
 3130SOL    HW210290   2.457   4.304   2.338
 3131SOL     OW10291   0.774   2.973   1.602
 3131SOL    HW110292   0.844   2.907   1.627
 3131SOL    HW210293   0.690   2.924   1.577
 3132SOL     OW10294   4.872   5.874   5.723
 3132SOL    HW110295   4.809   5.949   5.703
 3132SOL    HW210296   4.953   5.910   5.770
 3133SOL     OW10297   2.508   2.426   3.887
 3133SOL    HW110298   2.490   2.330   3.911
 3133SOL    HW210299   2.532   2.477   3.970
 3134SOL     OW10300   5.240   4.252   1.816
 3134SOL    HW110301   5.177   4.186   1.856
 3134SOL    HW210302   5.205   4.345   1.831
 3135SOL     OW10303   4.773   1.861   5.014
 3135SOL    HW110304   4.758   1.774   5.061
 3135SOL    HW210305   4.775   1.846   4.915
 3136SOL     OW10306   6.372   6.490   5.460
 3136SOL    HW110307   6.429   6.571   5.477
 3136SOL    HW210308   6.311   6.508   5.383
 3137SOL     OW10309   5.447   0.484   3.556
 3137SOL    HW110310   5.512   0.408   3.564
 3137SOL    HW210311   5.480   0.562   3.610
 3138SOL     OW10312   6.491   1.977   4.178
 3138SOL    HW110313   6.567   2.028   4.139
 3138SOL    HW210314   6.526   1.898   4.229
 3139SOL     OW10315   4.997   0.001   6.383
 3139SOL    HW110316   4.950   6.939   6.384
 3139SOL    HW210317   4.931   0.075   6.399
 3140SOL     OW10318   6.207   6.182   6.113
 3140SOL    HW110319   6.209   6.135   6.201
 3140SOL    HW210320   6.224   6.279   6.126
 3141SOL     OW10321   0.700   0.097   6.069
 3141SOL    HW110322   0.639   0.172   6.046
 3141SOL    HW210323   0.650   0.029   6.123
 3142SOL     OW10324   4.864   6.209   0.763
 3142SOL    HW110325   4.950   6.172   0.798
 3142SOL    HW210326   4.829   6.151   0.689
 3143SOL     OW10327   6.657   2.630   0.015
 3143SOL    HW110328   6.711   2.569   0.073
 3143SOL    HW210329   6.598   2.687   0.073
 3144SOL     OW10330   2.804   3.769   0.971
 3144SOL    HW110331   2.837   3.703   1.038
 3144SOL    HW210332   2.740   3.832   1.015
 3145SOL     OW10333   2.259   5.384   2.718
 3145SOL    HW110334   2.286   5.409   2.625
 3145SOL    HW210335   2.336   5.398   2.780
 3146SOL     OW10336   1.204   6.377   3.416
 3146SOL    HW110337   1.138   6.308   3.385
 3146SOL    HW210338   1.217   6.446   3.345
 3147SOL     OW10339   3.987   5.270   6.444
 3147SOL    HW110340   4.055   5.259   6.372
 3147SOL    HW210341   3.995   5.361   6.484
 3148SOL     OW10342   4.328   5.583   4.454
 3148SOL    HW110343   4.358   5.676   4.434
 3148SOL    HW210344   4.402   5.519   4.436
 3149SOL     OW10345   2.885   0.322   5.338
 3149SOL    HW110346   2.942   0.383   5.282
 3149SOL    HW210347   2.923   0.230   5.336
 3150SOL     OW10348   5.398   5.775   4.458
 3150SOL    HW110349   5.323   5.709   4.451
 3150SOL    HW210350   5.424   5.785   4.555
 3151SOL     OW10351   4.687   1.424   6.898
 3151SOL    HW110352   4.766   1.380   6.941
 3151SOL    HW210353   4.635   1.473   6.968
 3152SOL     OW10354   1.523   5.066   1.472
 3152SOL    HW110355   1.508   4.989   1.410
 3152SOL    HW210356   1.598   5.122   1.437
 3153SOL     OW10357   6.352   4.298   1.931
 3153SOL    HW110358   6.401   4.319   1.846
 3153SOL    HW210359   6.405   4.331   2.009
 3154SOL     OW10360   6.111   1.640   0.346
 3154SOL    HW110361   6.168   1.644   0.427
 3154SOL    HW210362   6.044   1.715   0.348
 3155SOL     OW10363   0.215   5.227   1.354
 3155SOL    HW110364   0.182   5.182   1.271
 3155SOL    HW210365   0.279   5.166   1.402
 3156SOL     OW10366   3.717   3.266   3.653
 3156SOL    HW110367   3.782   3.200   3.690
 3156SOL    HW210368   3.651   3.219   3.594
 3157SOL     OW10369   1.972   3.104   5.029
 3157SOL    HW110370   1.993   3.018   4.983
 3157SOL    HW210371   2.026   3.112   5.113
 3158SOL     OW10372   4.461   0.338   1.136
 3158SOL    HW110373   4.484   0.389   1.219
 3158SOL    HW210374   4.545   0.301   1.096
 3159SOL     OW10375   5.070   6.329   6.898
 3159SOL    HW110376   4.991   6.279   6.934
 3159SOL    HW210377   5.046   6.371   6.811
 3160SOL     OW10378   6.100   5.363   6.006
 3160SOL    HW110379   6.182   5.381   5.952
 3160SOL    HW210380   6.122   5.372   6.103
 3161SOL     OW10381   1.300   1.343   2.551
 3161SOL    HW110382   1.373   1.293   2.505
 3161SOL    HW210383   1.239   1.278   2.597
 3162SOL     OW10384   0.585   5.195   0.171
 3162SOL    HW110385   0.606   5.116   0.228
 3162SOL    HW210386   0.669   5.242   0.145
 3163SOL     OW10387   3.715   2.801   6.192
 3163SOL    HW110388   3.646   2.858   6.238
 3163SOL    HW210389   3.706   2.707   6.223
 3164SOL     OW10390   4.760   4.001   1.341
 3164SOL    HW110391   4.762   3.902   1.354
 3164SOL    HW210392   4.782   4.022   1.245
 3165SOL     OW10393   1.602   6.463   1.706
 3165SOL    HW110394   1.535   6.412   1.653
 3165SOL    HW210395   1.666   6.400   1.749
 3166SOL     OW10396   4.445   2.580   6.329
 3166SOL    HW110397   4.538   2.566   6.295
 3166SOL    HW210398   4.385   2.606   6.253
 3167SOL     OW10399   6.379   4.883   2.078
 3167SOL    HW110400   6.327   4.798   2.092
 3167SOL    HW210401   6.457   4.884   2.139
 3168SOL     OW10402   5.159   2.862   0.472
 3168SOL    HW110403   5.113   2.775   0.450
 3168SOL    HW210404   5.148   2.882   0.569
 3169SOL     OW10405   0.705   3.585   6.089
 3169SOL    HW110406   0.799   3.571   6.118
 3169SOL    HW210407   0.699   3.664   6.028
 3170SOL     OW10408   4.004   0.172   0.131
 3170SOL    HW110409   4.032   0.080   0.105
 3170SOL    HW210410   3.906   0.173   0.153
 3171SOL     OW10411   6.858   6.502   1.527
 3171SOL    HW110412   6.869   6.601   1.528
 3171SOL    HW210413   6.881   6.467   1.437
 3172SOL     OW10414   7.013   6.065   5.011
 3172SOL    HW110415   7.000   6.162   4.991
 3172SOL    HW210416   0.064   6.030   4.959
 3173SOL     OW10417   2.938   0.867   1.352
 3173SOL    HW110418   2.946   0.780   1.303
 3173SOL    HW210419   2.938   0.850   1.450
 3174SOL     OW10420   2.479   3.020   6.405
 3174SOL    HW110421   2.488   3.092   6.474
 3174SOL    HW210422   2.404   2.959   6.430
 3175SOL     OW10423   0.684   6.523   6.591
 3175SOL    HW110424   0.742   6.455   6.636
 3175SOL    HW210425   0.726   6.552   6.505
 3176SOL     OW10426   1.982   4.979   5.693
 3176SOL    HW110427   2.059   4.946   5.638
 3176SOL    HW210428   1.905   5.000   5.632
 3177SOL     OW10429   5.685   5.607   5.827
 3177SOL    HW110430   5.779   5.573   5.830
 3177SOL    HW210431   5.684   5.704   5.852
 3178SOL     OW10432   6.758   3.739   1.821
 3178SOL    HW110433   6.801   3.827   1.801
 3178SOL    HW210434   6.676   3.754   1.877
 3179SOL     OW10435   2.050   2.212   2.150
 3179SOL    HW110436   2.016   2.166   2.232
 3179SOL    HW210437   2.034   2.311   2.158
 3180SOL     OW10438   4.277   0.970   6.147
 3180SOL    HW110439   4.193   0.945   6.099
 3180SOL    HW210440   4.281   1.070   6.157
 3181SOL     OW10441   0.745   0.659   3.437
 3181SOL    HW110442   0.794   0.732   3.389
 3181SOL    HW210443   0.646   0.675   3.430
 3182SOL     OW10444   0.637   0.570   5.394
 3182SOL    HW110445   0.653   0.554   5.492
 3182SOL    HW210446   0.723   0.596   5.351
 3183SOL     OW10447   4.090   4.411   1.426
 3183SOL    HW110448   4.021   4.424   1.354
 3183SOL    HW210449   4.128   4.319   1.419
 3184SOL     OW10450   2.702   1.867   1.969
 3184SOL    HW110451   2.702   1.961   1.933
 3184SOL    HW210452   2.792   1.846   2.007
 3185SOL     OW10453   6.603   0.735   5.510
 3185SOL    HW110454   6.603   0.671   5.586
 3185SOL    HW210455   6.546   0.813   5.532
 3186SOL     OW10456   3.609   1.090   3.427
 3186SOL    HW110457   3.618   1.010   3.486
 3186SOL    HW210458   3.550   1.158   3.472
 3187SOL     OW10459   4.089   4.014   6.746
 3187SOL    HW110460   4.093   4.042   6.842
 3187SOL    HW210461   4.181   3.989   6.715
 3188SOL     OW10462   3.657   6.005   2.883
 3188SOL    HW110463   3.754   6.025   2.897
 3188SOL    HW210464   3.609   6.014   2.971
 3189SOL     OW10465   2.157   1.327   2.689
 3189SOL    HW110466   2.243   1.373   2.666
 3189SOL    HW210467   2.085   1.396   2.699
 3190SOL     OW10468   1.275   6.449   0.983
 3190SOL    HW110469   1.286   6.357   0.946
 3190SOL    HW210470   1.188   6.456   1.032
 3191SOL     OW10471   3.553   0.622   1.297
 3191SOL    HW110472   3.621   0.685   1.260
 3191SOL    HW210473   3.516   0.659   1.382
 3192SOL     OW10474   0.583   2.143   0.959
 3192SOL    HW110475   0.536   2.196   1.028
 3192SOL    HW210476   0.673   2.115   0.994
 3193SOL     OW10477   4.447   2.246   5.792
 3193SOL    HW110478   4.472   2.339   5.763
 3193SOL    HW210479   4.350   2.231   5.773
 3194SOL     OW10480   1.544   2.900   6.603
 3194SOL    HW110481   1.493   2.814   6.607
 3194SOL    HW210482   1.504   2.966   6.666
 3195SOL     OW10483   1.692   2.193   3.477
 3195SOL    HW110484   1.751   2.260   3.522
 3195SOL    HW210485   1.603   2.233   3.458
 3196SOL     OW10486   6.886   0.257   5.108
 3196SOL    HW110487   6.808   0.198   5.127
 3196SOL    HW210488   6.971   0.206   5.123
 3197SOL     OW10489   1.412   5.942   2.545
 3197SOL    HW110490   1.335   5.982   2.496
 3197SOL    HW210491   1.465   5.884   2.483
 3198SOL     OW10492   6.691   1.964   6.953
 3198SOL    HW110493   6.687   1.893   6.882
 3198SOL    HW210494   6.761   2.031   6.929
 3199SOL     OW10495   4.833   2.355   1.685
 3199SOL    HW110496   4.920   2.399   1.706
 3199SOL    HW210497   4.759   2.400   1.736
 3200SOL     OW10498   0.136   2.946   1.032
 3200SOL    HW110499   0.229   2.951   0.997
 3200SOL    HW210500   0.134   2.888   1.114
 3201SOL     OW10501   5.128   3.488   3.898
 3201SOL    HW110502   5.146   3.398   3.859
 3201SOL    HW210503   5.165   3.493   3.991
 3202SOL     OW10504   1.963   4.297   2.286
 3202SOL    HW110505   1.968   4.256   2.378
 3202SOL    HW210506   1.980   4.226   2.218
 3203SOL     OW10507   6.187   0.900   1.134
 3203SOL    HW110508   6.226   0.970   1.193
 3203SOL    HW210509   6.184   0.813   1.184
 3204SOL     OW10510   5.921   5.230   1.498
 3204SOL    HW110511   5.950   5.325   1.492
 3204SOL    HW210512   6.000   5.170   1.489
 3205SOL     OW10513   6.870   4.523   6.809
 3205SOL    HW110514   6.941   4.514   6.739
 3205SOL    HW210515   6.821   4.436   6.818
 3206SOL     OW10516   0.141   6.995   5.677
 3206SOL    HW110517   0.100   6.910   5.709
 3206SOL    HW210518   0.087   0.047   5.708
 3207SOL     OW10519   0.522   1.425   5.502
 3207SOL    HW110520   0.423   1.432   5.498
 3207SOL    HW210521   0.559   1.503   5.553
 3208SOL     OW10522   4.432   5.856   5.089
 3208SOL    HW110523   4.426   5.857   5.189
 3208SOL    HW210524   4.521   5.819   5.062
 3209SOL     OW10525   3.214   6.615   3.771
 3209SOL    HW110526   3.136   6.648   3.718
 3209SOL    HW210527   3.273   6.692   3.794
 3210SOL     OW10528   0.559   3.544   2.543
 3210SOL    HW110529   0.493   3.502   2.606
 3210SOL    HW210530   0.580   3.637   2.573
 3211SOL     OW10531   2.583   4.028   0.717
 3211SOL    HW110532   2.537   4.070   0.795
 3211SOL    HW210533   2.544   4.063   0.632
 3212SOL     OW10534   4.550   1.998   6.539
 3212SOL    HW110535   4.538   2.097   6.530
 3212SOL    HW210536   4.462   1.953   6.528
 3213SOL     OW10537   6.252   5.272   2.954
 3213SOL    HW110538   6.179   5.296   3.019
 3213SOL    HW210539   6.229   5.185   2.909
 3214SOL     OW10540   4.562   6.109   7.026
 3214SOL    HW110541   4.545   6.144   6.934
 3214SOL    HW210542   4.659   6.117   0.022
 3215SOL     OW10543   6.393   3.090   0.858
 3215SOL    HW110544   6.388   3.109   0.760
 3215SOL    HW210545   6.387   3.177   0.908
 3216SOL     OW10546   5.798   5.899   3.308
 3216SOL    HW110547   5.709   5.932   3.277
 3216SOL    HW210548   5.869   5.964   3.282
 3217SOL     OW10549   1.317   4.571   3.210
 3217SOL    HW110550   1.396   4.551   3.267
 3217SOL    HW210551   1.235   4.580   3.268
 3218SOL     OW10552   4.123   6.890   3.551
 3218SOL    HW110553   4.144   6.941   3.468
 3218SOL    HW210554   4.025   6.897   3.571
 3219SOL     OW10555   6.848   0.345   3.288
 3219SOL    HW110556   6.807   0.421   3.238
 3219SOL    HW210557   6.878   0.275   3.224
 3220SOL     OW10558   6.894   4.756   4.955
 3220SOL    HW110559   6.839   4.798   5.028
 3220SOL    HW210560   6.936   4.672   4.989
 3221SOL     OW10561   2.594   6.042   2.486
 3221SOL    HW110562   2.497   6.064   2.496
 3221SOL    HW210563   2.605   5.943   2.475
 3222SOL     OW10564   4.962   1.899   2.971
 3222SOL    HW110565   4.958   1.964   3.047
 3222SOL    HW210566   4.980   1.807   3.007
 3223SOL     OW10567   2.917   5.020   6.645
 3223SOL    HW110568   2.891   5.109   6.682
 3223SOL    HW210569   3.010   4.998   6.675
 3224SOL     OW10570   4.553   5.313   6.471
 3224SOL    HW110571   4.586   5.314   6.565
 3224SOL    HW210572   4.516   5.222   6.450
 3225SOL     OW10573   4.512   3.157   6.423
 3225SOL    HW110574   4.484   3.190   6.513
 3225SOL    HW210575   4.523   3.058   6.425
 3226SOL     OW10576   2.266   0.936   4.276
 3226SOL    HW110577   2.259   1.011   4.210
 3226SOL    HW210578   2.359   0.900   4.274
 3227SOL     OW10579   3.529   1.970   6.521
 3227SOL    HW110580   3.521   2.031   6.442
 3227SOL    HW210581   3.449   1.910   6.525
 3228SOL     OW10582   6.420   3.474   4.139
 3228SOL    HW110583   6.478   3.530   4.079
 3228SOL    HW210584   6.370   3.407   4.084
 3229SOL     OW10585   3.411   2.313   5.832
 3229SOL    HW110586   3.349   2.351   5.764
 3229SOL    HW210587   3.481   2.380   5.854
 3230SOL     OW10588   0.429   1.197   3.215
 3230SOL    HW110589   0.456   1.153   3.301
 3230SOL    HW210590   0.457   1.293   3.217
 3231SOL     OW10591   4.818   5.803   1.176
 3231SOL    HW110592   4.858   5.773   1.090
 3231SOL    HW210593   4.864   5.757   1.252
 3232SOL     OW10594   4.072   4.887   4.912
 3232SOL    HW110595   4.068   4.835   4.997
 3232SOL    HW210596   4.155   4.942   4.910
 3233SOL     OW10597   0.916   4.253   1.419
 3233SOL    HW110598   0.877   4.172   1.376
 3233SOL    HW210599   0.987   4.292   1.361
 3234SOL     OW10600   7.009   2.308   0.530
 3234SOL    HW110601   7.002   2.209   0.538
 3234SOL    HW210602   0.066   2.340   0.576
 3235SOL     OW10603   5.811   6.398   2.884
 3235SOL    HW110604   5.765   6.446   2.809
 3235SOL    HW210605   5.908   6.391   2.865
 3236SOL     OW10606   1.818   2.913   2.109
 3236SOL    HW110607   1.762   2.832   2.130
 3236SOL    HW210608   1.897   2.885   2.055
 3237SOL     OW10609   5.045   6.698   4.687
 3237SOL    HW110610   4.958   6.679   4.733
 3237SOL    HW210611   5.037   6.679   4.590
 3238SOL     OW10612   0.453   5.937   6.895
 3238SOL    HW110613   0.422   5.851   6.854
 3238SOL    HW210614   0.546   5.958   6.864
 3239SOL     OW10615   6.299   0.657   6.845
 3239SOL    HW110616   6.235   0.581   6.838
 3239SOL    HW210617   6.266   0.734   6.790
 3240SOL     OW10618   0.360   6.677   4.591
 3240SOL    HW110619   0.281   6.732   4.619
 3240SOL    HW210620   0.442   6.713   4.634
 3241SOL     OW10621   4.868   1.181   4.182
 3241SOL    HW110622   4.818   1.228   4.255
 3241SOL    HW210623   4.867   1.083   4.198
 3242SOL     OW10624   3.540   5.562   6.834
 3242SOL    HW110625   3.508   5.611   6.915
 3242SOL    HW210626   3.597   5.623   6.778
 3243SOL     OW10627   4.869   5.034   6.989
 3243SOL    HW110628   4.785   5.084   7.011
 3243SOL    HW210629   4.846   4.939   6.967
 3244SOL     OW10630   4.545   6.035   5.931
 3244SOL    HW110631   4.528   5.953   5.986
 3244SOL    HW210632   4.544   6.116   5.990
 3245SOL     OW10633   4.178   3.111   6.227
 3245SOL    HW110634   4.093   3.078   6.268
 3245SOL    HW210635   4.255   3.083   6.283
 3246SOL     OW10636   5.476   0.067   2.374
 3246SOL    HW110637   5.566   0.110   2.383
 3246SOL    HW210638   5.406   0.138   2.367
 3247SOL     OW10639   0.437   3.601   3.897
 3247SOL    HW110640   0.381   3.551   3.963
 3247SOL    HW210641   0.478   3.538   3.832
 3248SOL     OW10642   6.314   3.873   2.179
 3248SOL    HW110643   6.252   3.860   2.102
 3248SOL    HW210644   6.375   3.950   2.161
 3249SOL     OW10645   3.623   4.689   5.373
 3249SOL    HW110646   3.703   4.731   5.330
 3249SOL    HW210647   3.541   4.716   5.323
 3250SOL     OW10648   5.163   6.522   2.625
 3250SOL    HW110649   5.125   6.576   2.699
 3250SOL    HW210650   5.161   6.425   2.649
 3251SOL     OW10651   3.907   1.474   2.992
 3251SOL    HW110652   3.865   1.385   2.974
 3251SOL    HW210653   4.006   1.467   2.983
 3252SOL     OW10654   3.162   1.102   2.944
 3252SOL    HW110655   3.170   1.123   2.847
 3252SOL    HW210656   3.094   1.163   2.985
 3253SOL     OW10657   4.417   2.955   1.448
 3253SOL    HW110658   4.320   2.946   1.426
 3253SOL    HW210659   4.443   3.052   1.445
 3254SOL     OW10660   3.635   4.928   3.806
 3254SOL    HW110661   3.689   4.907   3.724
 3254SOL    HW210662   3.662   4.866   3.879
 3255SOL     OW10663   4.555   5.659   0.405
 3255SOL    HW110664   4.635   5.642   0.347
 3255SOL    HW210665   4.477   5.684   0.348
 3256SOL     OW10666   5.598   6.417   5.590
 3256SOL    HW110667   5.663   6.402   5.515
 3256SOL    HW210668   5.631   6.372   5.672
 3257SOL     OW10669   1.627   1.898   0.906
 3257SOL    HW110670   1.705   1.942   0.862
 3257SOL    HW210671   1.585   1.833   0.843
 3258SOL     OW10672   4.946   6.723   1.614
 3258SOL    HW110673   4.879   6.767   1.674
 3258SOL    HW210674   5.035   6.768   1.626
 3259SOL     OW10675   4.254   6.158   4.135
 3259SOL    HW110676   4.250   6.183   4.038
 3259SOL    HW210677   4.185   6.088   4.154
 3260SOL     OW10678   1.676   1.199   0.570
 3260SOL    HW110679   1.669   1.220   0.473
 3260SOL    HW210680   1.593   1.227   0.616
 3261SOL     OW10681   3.952   0.202   0.891
 3261SOL    HW110682   3.977   0.192   0.987
 3261SOL    HW210683   4.021   0.257   0.844
 3262SOL     OW10684   3.470   1.476   3.561
 3262SOL    HW110685   3.492   1.566   3.600
 3262SOL    HW210686   3.531   1.458   3.484
 3263SOL     OW10687   4.329   6.864   2.936
 3263SOL    HW110688   4.377   6.806   2.870
 3263SOL    HW210689   4.281   6.937   2.887
 3264SOL     OW10690   0.063   5.723   0.190
 3264SOL    HW110691   0.070   5.783   0.110
 3264SOL    HW210692   0.139   5.740   0.252
 3265SOL     OW10693   3.830   2.038   6.342
 3265SOL    HW110694   3.737   2.033   6.304
 3265SOL    HW210695   3.885   2.101   6.287
 3266SOL     OW10696   6.694   3.073   0.099
 3266SOL    HW110697   6.739   3.010   0.036
 3266SOL    HW210698   6.639   3.138   0.047
 3267SOL     OW10699   3.367   2.206   0.975
 3267SOL    HW110700   3.415   2.119   0.958
 3267SOL    HW210701   3.300   2.222   0.903
 3268SOL     OW10702   1.542   4.291   0.399
 3268SOL    HW110703   1.632   4.265   0.365
 3268SOL    HW210704   1.482   4.211   0.400
 3269SOL     OW10705   4.552   4.608   1.429
 3269SOL    HW110706   4.633   4.549   1.428
 3269SOL    HW210707   4.482   4.570   1.368
 3270SOL     OW10708   0.496   5.437   3.634
 3270SOL    HW110709   0.512   5.448   3.732
 3270SOL    HW210710   0.487   5.340   3.612
 3271SOL     OW10711   5.837   2.298   2.518
 3271SOL    HW110712   5.936   2.287   2.530
 3271SOL    HW210713   5.820   2.376   2.459
 3272SOL     OW10714   3.712   0.484   0.260
 3272SOL    HW110715   3.658   0.539   0.324
 3272SOL    HW210716   3.651   0.424   0.208
 3273SOL     OW10717   0.942   6.161   1.974
 3273SOL    HW110718   1.022   6.194   1.923
 3273SOL    HW210719   0.938   6.061   1.969
 3274SOL     OW10720   2.833   1.742   5.507
 3274SOL    HW110721   2.788   1.805   5.571
 3274SOL    HW210722   2.916   1.786   5.471
 3275SOL     OW10723   1.938   0.206   6.846
 3275SOL    HW110724   2.006   0.136   6.826
 3275SOL    HW210725   1.983   0.284   6.890
 3276SOL     OW10726   3.155   5.050   6.831
 3276SOL    HW110727   3.239   5.094   6.800
 3276SOL    HW210728   3.177   4.967   6.882
 3277SOL     OW10729   6.902   6.651   6.159
 3277SOL    HW110730   6.827   6.587   6.143
 3277SOL    HW210731   6.887   6.734   6.105
 3278SOL     OW10732   0.780   1.194   5.429
 3278SOL    HW110733   0.707   1.126   5.424
 3278SOL    HW210734   0.772   1.257   5.351
 3279SOL     OW10735   0.112   0.137   0.942
 3279SOL    HW110736   0.046   0.067   0.914
 3279SOL    HW210737   0.204   0.109   0.916
 3280SOL     OW10738   2.756   4.948   6.438
 3280SOL    HW110739   2.708   5.036   6.439
 3280SOL    HW210740   2.822   4.945   6.513
 3281SOL     OW10741   2.277   4.975   0.376
 3281SOL    HW110742   2.351   5.034   0.410
 3281SOL    HW210743   2.282   4.970   0.276
 3282SOL     OW10744   2.641   5.743   4.503
 3282SOL    HW110745   2.697   5.662   4.517
 3282SOL    HW210746   2.616   5.783   4.591
 3283SOL     OW10747   3.327   1.238   3.487
 3283SOL    HW110748   3.347   1.327   3.526
 3283SOL    HW210749   3.327   1.245   3.387
 3284SOL     OW10750   0.606   6.214   6.627
 3284SOL    HW110751   0.524   6.252   6.670
 3284SOL    HW210752   0.606   6.236   6.529
 3285SOL     OW10753   0.081   2.904   2.805
 3285SOL    HW110754   0.037   2.992   2.787
 3285SOL    HW210755   0.020   2.846   2.859
 3286SOL     OW10756   3.711   3.649   4.419
 3286SOL    HW110757   3.789   3.603   4.378
 3286SOL    HW210758   3.718   3.646   4.518
 3287SOL     OW10759   2.115   5.251   0.077
 3287SOL    HW110760   2.125   5.199   0.162
 3287SOL    HW210761   2.155   5.341   0.088
 3288SOL     OW10762   0.917   6.032   6.591
 3288SOL    HW110763   0.984   6.070   6.654
 3288SOL    HW210764   0.949   5.942   6.559
 3289SOL     OW10765   0.976   5.711   5.390
 3289SOL    HW110766   1.007   5.642   5.324
 3289SOL    HW210767   0.893   5.678   5.436
 3290SOL     OW10768   0.237   5.824   1.364
 3290SOL    HW110769   0.323   5.810   1.413
 3290SOL    HW210770   0.160   5.797   1.422
 3291SOL     OW10771   1.808   6.233   6.327
 3291SOL    HW110772   1.855   6.244   6.415
 3291SOL    HW210773   1.870   6.259   6.253
 3292SOL     OW10774   0.091   0.306   6.436
 3292SOL    HW110775   0.134   0.367   6.371
 3292SOL    HW210776   0.146   0.301   6.520
 3293SOL     OW10777   6.975   1.071   3.350
 3293SOL    HW110778   0.034   1.049   3.302
 3293SOL    HW210779   6.981   1.039   3.445
 3294SOL     OW10780   6.684   0.309   6.295
 3294SOL    HW110781   6.668   0.216   6.327
 3294SOL    HW210782   6.770   0.313   6.244
 3295SOL     OW10783   2.637   2.243   0.645
 3295SOL    HW110784   2.699   2.245   0.567
 3295SOL    HW210785   2.687   2.216   0.727
 3296SOL     OW10786   2.204   0.573   2.355
 3296SOL    HW110787   2.198   0.543   2.260
 3296SOL    HW210788   2.200   0.673   2.358
 3297SOL     OW10789   3.011   2.374   5.368
 3297SOL    HW110790   3.075   2.383   5.292
 3297SOL    HW210791   3.023   2.284   5.410
 3298SOL     OW10792   6.798   3.500   3.131
 3298SOL    HW110793   6.882   3.540   3.167
 3298SOL    HW210794   6.755   3.563   3.067
 3299SOL     OW10795   1.457   0.103   4.724
 3299SOL    HW110796   1.503   0.188   4.751
 3299SOL    HW210797   1.451   0.043   4.804
 3300SOL     OW10798   6.229   6.927   4.943
 3300SOL    HW110799   6.139   6.921   4.900
 3300SOL    HW210800   6.255   6.837   4.979
 3301SOL     OW10801   0.931   4.122   3.457
 3301SOL    HW110802   0.994   4.095   3.529
 3301SOL    HW210803   0.874   4.044   3.432
 3302SOL     OW10804   1.429   5.370   4.185
 3302SOL    HW110805   1.443   5.439   4.256
 3302SOL    HW210806   1.461   5.406   4.097
 3303SOL     OW10807   3.400   2.865   2.939
 3303SOL    HW110808   3.312   2.818   2.942
 3303SOL    HW210809   3.421   2.903   3.029
 3304SOL     OW10810   0.887   5.686   3.623
 3304SOL    HW110811   0.824   5.620   3.581
 3304SOL    HW210812   0.971   5.640   3.650
 3305SOL     OW10813   1.542   1.279   1.927
 3305SOL    HW110814   1.573   1.252   1.836
 3305SOL    HW210815   1.604   1.242   1.996
 3306SOL     OW10816   2.206   3.997   3.315
 3306SOL    HW110817   2.303   3.985   3.334
 3306SOL    HW210818   2.152   3.935   3.372
 3307SOL     OW10819   0.053   6.114   0.496
 3307SOL    HW110820   0.037   6.125   0.398
 3307SOL    HW210821   7.001   6.068   0.537
 3308SOL     OW10822   4.309   6.274   0.405
 3308SOL    HW110823   4.234   6.312   0.460
 3308SOL    HW210824   4.384   6.247   0.465
 3309SOL     OW10825   1.499   5.225   3.600
 3309SOL    HW110826   1.575   5.160   3.603
 3309SOL    HW210827   1.526   5.311   3.644
 3310SOL     OW10828   0.279   4.293   2.902
 3310SOL    HW110829   0.359   4.287   2.843
 3310SOL    HW210830   0.298   4.357   2.977
 3311SOL     OW10831   3.876   6.439   1.401
 3311SOL    HW110832   3.906   6.518   1.453
 3311SOL    HW210833   3.781   6.451   1.372
 3312SOL     OW10834   2.908   4.063   5.828
 3312SOL    HW110835   2.964   4.036   5.749
 3312SOL    HW210836   2.947   4.145   5.870
 3313SOL     OW10837   1.360   5.627   3.570
 3313SOL    HW110838   1.334   5.583   3.483
 3313SOL    HW210839   1.351   5.726   3.560
 3314SOL     OW10840   1.601   3.182   5.293
 3314SOL    HW110841   1.563   3.214   5.380
 3314SOL    HW210842   1.701   3.176   5.300
 3315SOL     OW10843   6.900   2.432   4.005
 3315SOL    HW110844   6.805   2.401   3.998
 3315SOL    HW210845   6.909   2.521   3.961
 3316SOL     OW10846   4.661   2.106   6.058
 3316SOL    HW110847   4.571   2.086   6.097
 3316SOL    HW210848   4.673   2.053   5.974
 3317SOL     OW10849   4.599   2.818   1.734
 3317SOL    HW110850   4.619   2.904   1.781
 3317SOL    HW210851   4.560   2.837   1.644
 3318SOL     OW10852   2.653   5.753   6.074
 3318SOL    HW110853   2.577   5.812   6.047
 3318SOL    HW210854   2.629   5.700   6.155
 3319SOL     OW10855   0.370   6.767   4.144
 3319SOL    HW110856   0.463   6.747   4.113
 3319SOL    HW210857   0.328   6.834   4.083
 3320SOL     OW10858   5.742   1.582   5.609
 3320SOL    HW110859   5.699   1.597   5.698
 3320SOL    HW210860   5.791   1.495   5.609
 3321SOL     OW10861   3.520   2.989   2.521
 3321SOL    HW110862   3.448   2.967   2.454
 3321SOL    HW210863   3.517   2.922   2.595
 3322SOL     OW10864   4.305   1.966   0.414
 3322SOL    HW110865   4.319   2.043   0.476
 3322SOL    HW210866   4.332   1.993   0.321
 3323SOL     OW10867   1.794   4.249   6.451
 3323SOL    HW110868   1.870   4.309   6.424
 3323SOL    HW210869   1.819   4.197   6.533
 3324SOL     OW10870   1.020   3.726   0.552
 3324SOL    HW110871   1.003   3.717   0.454
 3324SOL    HW210872   0.970   3.654   0.601
 3325SOL     OW10873   1.533   2.559   0.352
 3325SOL    HW110874   1.535   2.478   0.411
 3325SOL    HW210875   1.501   2.533   0.261
 3326SOL     OW10876   6.056   2.176   1.495
 3326SOL    HW110877   5.985   2.112   1.465
 3326SOL    HW210878   6.131   2.175   1.429
 3327SOL     OW10879   2.457   6.707   2.156
 3327SOL    HW110880   2.505   6.791   2.131
 3327SOL    HW210881   2.477   6.636   2.089
 3328SOL     OW10882   4.849   0.955   1.952
 3328SOL    HW110883   4.751   0.954   1.969
 3328SOL    HW210884   4.880   1.049   1.939
 3329SOL     OW10885   4.020   0.784   5.424
 3329SOL    HW110886   4.048   0.711   5.486
 3329SOL    HW210887   3.924   0.771   5.398
 3330SOL     OW10888   5.788   6.895   2.171
 3330SOL    HW110889   5.785   6.950   2.087
 3330SOL    HW210890   5.861   6.828   2.164
 3331SOL     OW10891   1.972   3.353   3.129
 3331SOL    HW110892   2.015   3.390   3.211
 3331SOL    HW210893   1.875   3.377   3.128
 3332SOL     OW10894   4.663   5.253   0.002
 3332SOL    HW110895   4.705   5.341   0.023
 3332SOL    HW210896   4.627   5.213   0.085
 3333SOL     OW10897   3.171   3.267   1.272
 3333SOL    HW110898   3.109   3.306   1.340
 3333SOL    HW210899   3.141   3.175   1.247
 3334SOL     OW10900   1.876   2.508   2.645
 3334SOL    HW110901   1.875   2.577   2.718
 3334SOL    HW210902   1.918   2.546   2.563
 3335SOL     OW10903   3.425   4.302   5.646
 3335SOL    HW110904   3.415   4.208   5.614
 3335SOL    HW210905   3.433   4.363   5.568
 3336SOL     OW10906   3.361   6.864   3.846
 3336SOL    HW110907   3.460   6.866   3.858
 3336SOL    HW210908   3.318   6.928   3.909
 3337SOL     OW10909   3.325   3.604   2.667
 3337SOL    HW110910   3.260   3.558   2.607
 3337SOL    HW210911   3.411   3.618   2.618
 3338SOL     OW10912   1.395   1.680   1.401
 3338SOL    HW110913   1.436   1.596   1.365
 3338SOL    HW210914   1.368   1.739   1.325
 3339SOL     OW10915   2.229   0.287   5.530
 3339SOL    HW110916   2.204   0.358   5.465
 3339SOL    HW210917   2.320   0.307   5.567
 3340SOL     OW10918   4.520   1.080   3.606
 3340SOL    HW110919   4.513   1.094   3.704
 3340SOL    HW210920   4.473   0.996   3.580
 3341SOL     OW10921   2.582   4.633   2.324
 3341SOL    HW110922   2.673   4.657   2.291
 3341SOL    HW210923   2.525   4.602   2.247
 3342SOL     OW10924   6.022   0.178   3.184
 3342SOL    HW110925   6.093   0.246   3.165
 3342SOL    HW210926   5.933   0.222   3.186
 3343SOL     OW10927   4.891   5.419   6.792
 3343SOL    HW110928   4.913   5.323   6.775
 3343SOL    HW210929   4.932   5.448   6.879
 3344SOL     OW10930   7.022   2.606   1.532
 3344SOL    HW110931   0.019   2.556   1.615
 3344SOL    HW210932   6.999   2.542   1.459
 3345SOL     OW10933   0.807   4.407   0.860
 3345SOL    HW110934   0.887   4.459   0.890
 3345SOL    HW210935   0.800   4.323   0.915
 3346SOL     OW10936   2.807   0.810   6.508
 3346SOL    HW110937   2.742   0.793   6.433
 3346SOL    HW210938   2.890   0.756   6.494
 3347SOL     OW10939   0.682   3.236   6.649
 3347SOL    HW110940   0.680   3.332   6.622
 3347SOL    HW210941   0.777   3.207   6.661
 3348SOL     OW10942   3.797   3.551   6.179
 3348SOL    HW110943   3.883   3.585   6.215
 3348SOL    HW210944   3.797   3.558   6.079
 3349SOL     OW10945   2.545   4.561   3.823
 3349SOL    HW110946   2.475   4.633   3.823
 3349SOL    HW210947   2.627   4.595   3.777
 3350SOL     OW10948   0.169   4.156   5.426
 3350SOL    HW110949   0.179   4.225   5.499
 3350SOL    HW210950   0.081   4.169   5.380
 3351SOL     OW10951   5.174   0.325   0.554
 3351SOL    HW110952   5.171   0.424   0.570
 3351SOL    HW210953   5.164   0.277   0.642
 3352SOL     OW10954   5.443   2.282   0.022
 3352SOL    HW110955   5.525   2.335   0.001
 3352SOL    HW210956   5.467   2.186   0.030
 3353SOL     OW10957   2.202   0.988   1.586
 3353SOL    HW110958   2.244   1.078   1.578
 3353SOL    HW210959   2.194   0.963   1.683
 3354SOL     OW10960   4.126   3.158   5.598
 3354SOL    HW110961   4.165   3.225   5.662
 3354SOL    HW210962   4.046   3.197   5.552
 3355SOL     OW10963   1.941   1.404   5.190
 3355SOL    HW110964   1.977   1.349   5.266
 3355SOL    HW210965   1.865   1.355   5.147
 3356SOL     OW10966   1.247   6.803   5.950
 3356SOL    HW110967   1.165   6.766   5.906
 3356SOL    HW210968   1.307   6.843   5.881
 3357SOL     OW10969   2.864   3.533   2.240
 3357SOL    HW110970   2.878   3.614   2.183
 3357SOL    HW210971   2.812   3.465   2.189
 3358SOL     OW10972   5.853   1.384   2.947
 3358SOL    HW110973   5.952   1.383   2.933
 3358SOL    HW210974   5.831   1.344   3.036
 3359SOL     OW10975   0.211   5.566   4.054
 3359SOL    HW110976   0.117   5.602   4.055
 3359SOL    HW210977   0.226   5.512   4.137
 3360SOL     OW10978   6.965   2.926   5.776
 3360SOL    HW110979   6.932   2.920   5.682
 3360SOL    HW210980   6.887   2.935   5.838
 3361SOL     OW10981   0.157   0.633   4.288
 3361SOL    HW110982   0.103   0.671   4.213
 3361SOL    HW210983   0.224   0.701   4.318
 3362SOL     OW10984   3.634   2.112   4.107
 3362SOL    HW110985   3.652   2.016   4.130
 3362SOL    HW210986   3.700   2.170   4.155
 3363SOL     OW10987   6.184   2.940   0.956
 3363SOL    HW110988   6.251   3.015   0.960
 3363SOL    HW210989   6.144   2.926   1.046
 3364SOL     OW10990   1.938   4.531   3.116
 3364SOL    HW110991   2.032   4.512   3.087
 3364SOL    HW210992   1.930   4.519   3.215
 3365SOL     OW10993   2.141   3.312   4.876
 3365SOL    HW110994   2.094   3.245   4.933
 3365SOL    HW210995   2.181   3.383   4.933
 3366SOL     OW10996   0.218   3.462   4.882
 3366SOL    HW110997   0.203   3.413   4.795
 3366SOL    HW210998   0.293   3.418   4.931
 3367SOL     OW10999   3.440   3.287   4.351
 3367SOL    HW111000   3.394   3.372   4.328
 3367SOL    HW211001   3.462   3.236   4.268
 3368SOL     OW11002   1.839   6.149   6.612
 3368SOL    HW111003   1.822   6.072   6.550
 3368SOL    HW211004   1.915   6.127   6.672
 3369SOL     OW11005   4.188   1.828   1.330
 3369SOL    HW111006   4.215   1.772   1.408
 3369SOL    HW211007   4.263   1.833   1.264
 3370SOL     OW11008   0.143   5.600   1.736
 3370SOL    HW111009   0.159   5.699   1.733
 3370SOL    HW211010   0.192   5.556   1.661
 3371SOL     OW11011   2.024   3.162   2.949
 3371SOL    HW111012   2.046   3.082   3.004
 3371SOL    HW211013   2.009   3.240   3.010
 3372SOL     OW11014   6.718   2.639   1.096
 3372SOL    HW111015   6.805   2.598   1.125
 3372SOL    HW211016   6.643   2.593   1.144
 3373SOL     OW11017   0.105   1.520   1.791
 3373SOL    HW111018   0.100   1.550   1.696
 3373SOL    HW211019   0.076   1.424   1.797
 3374SOL     OW11020   0.718   7.017   3.292
 3374SOL    HW111021   0.784   0.066   3.295
 3374SOL    HW211022   0.721   6.973   3.202
 3375SOL     OW11023   6.819   5.310   6.909
 3375SOL    HW111024   6.869   5.378   6.856
 3375SOL    HW211025   6.849   5.313   7.004
 3376SOL     OW11026   2.357   3.432   5.611
 3376SOL    HW111027   2.263   3.451   5.582
 3376SOL    HW211028   2.421   3.461   5.540
 3377SOL     OW11029   6.557   4.952   3.668
 3377SOL    HW111030   6.458   4.941   3.681
 3377SOL    HW211031   6.589   5.031   3.721
 3378SOL     OW11032   1.465   6.791   6.983
 3378SOL    HW111033   1.485   6.753   6.892
 3378SOL    HW211034   1.401   6.867   6.973
 3379SOL     OW11035   1.241   3.244   4.469
 3379SOL    HW111036   1.144   3.229   4.449
 3379SOL    HW211037   1.249   3.299   4.552
 3380SOL     OW11038   3.665   4.298   5.786
 3380SOL    HW111039   3.576   4.326   5.751
 3380SOL    HW211040   3.655   4.216   5.843
 3381SOL     OW11041   1.165   2.836   1.307
 3381SOL    HW111042   1.134   2.746   1.277
 3381SOL    HW211043   1.087   2.898   1.314
 3382SOL     OW11044   6.978   2.530   1.106
 3382SOL    HW111045   6.972   2.464   1.031
 3382SOL    HW211046   6.934   2.493   1.187
 3383SOL     OW11047   3.775   4.828   0.300
 3383SOL    HW111048   3.784   4.925   0.277
 3383SOL    HW211049   3.678   4.802   0.297
 3384SOL     OW11050   3.224   4.185   0.521
 3384SOL    HW111051   3.164   4.119   0.565
 3384SOL    HW211052   3.244   4.260   0.585
 3385SOL     OW11053   0.386   2.597   3.743
 3385SOL    HW111054   0.334   2.603   3.657
 3385SOL    HW211055   0.479   2.629   3.727
 3386SOL     OW11056   6.881   4.752   6.633
 3386SOL    HW111057   6.811   4.803   6.584
 3386SOL    HW211058   6.849   4.732   6.726
 3387SOL     OW11059   5.853   0.434   2.992
 3387SOL    HW111060   5.863   0.391   2.903
 3387SOL    HW211061   5.941   0.436   3.038
 3388SOL     OW11062   5.033   3.729   1.514
 3388SOL    HW111063   5.073   3.763   1.599
 3388SOL    HW211064   5.100   3.739   1.440
 3389SOL     OW11065   6.191   6.270   0.311
 3389SOL    HW111066   6.106   6.221   0.294
 3389SOL    HW211067   6.240   6.226   0.386
 3390SOL     OW11068   3.676   6.858   6.155
 3390SOL    HW111069   3.692   6.761   6.140
 3390SOL    HW211070   3.690   6.909   6.070
 3391SOL     OW11071   5.649   3.330   3.443
 3391SOL    HW111072   5.670   3.380   3.527
 3391SOL    HW211073   5.709   3.250   3.436
 3392SOL     OW11074   4.053   0.049   5.059
 3392SOL    HW111075   4.039   0.086   4.967
 3392SOL    HW211076   4.150   0.027   5.071
 3393SOL     OW11077   4.915   0.088   0.977
 3393SOL    HW111078   4.902   7.016   0.959
 3393SOL    HW211079   5.006   0.102   1.015
 3394SOL     OW11080   3.561   5.481   0.915
 3394SOL    HW111081   3.553   5.405   0.979
 3394SOL    HW211082   3.640   5.467   0.856
 3395SOL     OW11083   4.141   0.368   3.331
 3395SOL    HW111084   4.241   0.377   3.324
 3395SOL    HW211085   4.100   0.379   3.241
 3396SOL     OW11086   5.328   2.111   3.730
 3396SOL    HW111087   5.295   2.097   3.637
 3396SOL    HW211088   5.260   2.161   3.783
 3397SOL     OW11089   2.595   5.565   6.268
 3397SOL    HW111090   2.513   5.590   6.319
 3397SOL    HW211091   2.674   5.564   6.330
 3398SOL     OW11092   0.238   1.964   5.562
 3398SOL    HW111093   0.227   2.049   5.613
 3398SOL    HW211094   0.251   1.888   5.625
 3399SOL     OW11095   0.501   4.602   3.470
 3399SOL    HW111096   0.597   4.578   3.458
 3399SOL    HW211097   0.448   4.519   3.489
 3400SOL     OW11098   5.410   2.617   5.247
 3400SOL    HW111099   5.319   2.638   5.211
 3400SOL    HW211100   5.406   2.535   5.303
 3401SOL     OW11101   6.566   3.825   6.268
 3401SOL    HW111102   6.584   3.730   6.293
 3401SOL    HW211103   6.508   3.828   6.187
 3402SOL     OW11104   6.616   4.859   1.030
 3402SOL    HW111105   6.559   4.937   1.057
 3402SOL    HW211106   6.569   4.807   0.959
 3403SOL     OW11107   4.848   6.436   6.295
 3403SOL    HW111108   4.913   6.365   6.266
 3403SOL    HW211109   4.898   6.513   6.334
 3404SOL     OW11110   4.998   3.257   5.809
 3404SOL    HW111111   5.017   3.354   5.819
 3404SOL    HW211112   5.018   3.210   5.895
 3405SOL     OW11113   4.628   6.404   5.766
 3405SOL    HW111114   4.582   6.488   5.739
 3405SOL    HW211115   4.727   6.413   5.753
 3406SOL     OW11116   2.106   3.842   2.175
 3406SOL    HW111117   2.015   3.875   2.151
 3406SOL    HW211118   2.114   3.744   2.155
 3407SOL     OW11119   2.155   3.852   1.018
 3407SOL    HW111120   2.087   3.803   1.073
 3407SOL    HW211121   2.140   3.950   1.027
 3408SOL     OW11122   4.875   2.306   3.759
 3408SOL    HW111123   4.826   2.220   3.767
 3408SOL    HW211124   4.835   2.374   3.821
 3409SOL     OW11125   4.195   0.650   0.731
 3409SOL    HW111126   4.188   0.748   0.717
 3409SOL    HW211127   4.258   0.631   0.807
 3410SOL     OW11128   5.480   6.867   2.160
 3410SOL    HW111129   5.575   6.838   2.147
 3410SOL    HW211130   5.478   6.942   2.227
 3411SOL     OW11131   6.623   1.684   1.011
 3411SOL    HW111132   6.635   1.686   1.111
 3411SOL    HW211133   6.592   1.594   0.983
 3412SOL     OW11134   5.223   3.339   1.588
 3412SOL    HW111135   5.133   3.381   1.576
 3412SOL    HW211136   5.233   3.308   1.683
 3413SOL     OW11137   6.881   2.112   6.848
 3413SOL    HW111138   6.955   2.125   6.915
 3413SOL    HW211139   6.919   2.120   6.755
 3414SOL     OW11140   3.913   2.875   0.648
 3414SOL    HW111141   3.906   2.775   0.655
 3414SOL    HW211142   3.999   2.904   0.690
 3415SOL     OW11143   2.352   2.559   4.520
 3415SOL    HW111144   2.365   2.614   4.438
 3415SOL    HW211145   2.439   2.520   4.548
 3416SOL     OW11146   6.337   6.954   7.026
 3416SOL    HW111147   6.419   6.970   6.970
 3416SOL    HW211148   6.317   6.856   0.003
 3417SOL     OW11149   0.143   0.120   3.260
 3417SOL    HW111150   0.220   0.126   3.196
 3417SOL    HW211151   0.076   0.054   3.225
 3418SOL     OW11152   4.699   4.938   2.277
 3418SOL    HW111153   4.709   4.935   2.376
 3418SOL    HW211154   4.623   4.998   2.253
 3419SOL     OW11155   3.418   5.421   6.349
 3419SOL    HW111156   3.407   5.427   6.448
 3419SOL    HW211157   3.485   5.350   6.327
 3420SOL     OW11158   4.740   2.749   3.915
 3420SOL    HW111159   4.665   2.732   3.851
 3420SOL    HW211160   4.780   2.838   3.897
 3421SOL     OW11161   5.728   2.092   3.006
 3421SOL    HW111162   5.687   2.144   3.082
 3421SOL    HW211163   5.667   2.018   2.980
 3422SOL     OW11164   2.196   0.073   1.092
 3422SOL    HW111165   2.109   0.082   1.044
 3422SOL    HW211166   2.244   0.161   1.091
 3423SOL     OW11167   1.003   4.298   5.643
 3423SOL    HW111168   0.963   4.340   5.561
 3423SOL    HW211169   0.948   4.219   5.670
 3424SOL     OW11170   4.785   6.811   1.272
 3424SOL    HW111171   4.814   6.792   1.178
 3424SOL    HW211172   4.865   6.825   1.330
 3425SOL     OW11173   5.678   3.874   1.400
 3425SOL    HW111174   5.745   3.915   1.462
 3425SOL    HW211175   5.700   3.899   1.305
 3426SOL     OW11176   5.788   3.670   0.584
 3426SOL    HW111177   5.738   3.624   0.657
 3426SOL    HW211178   5.857   3.730   0.624
 3427SOL     OW11179   1.012   2.305   1.131
 3427SOL    HW111180   1.053   2.224   1.087
 3427SOL    HW211181   0.943   2.345   1.071
 3428SOL     OW11182   4.976   6.097   5.571
 3428SOL    HW111183   5.053   6.032   5.566
 3428SOL    HW211184   4.981   6.159   5.493
 3429SOL     OW11185   0.279   0.537   1.146
 3429SOL    HW111186   0.290   0.557   1.244
 3429SOL    HW211187   0.368   0.542   1.101
 3430SOL     OW11188   2.731   5.020   5.545
 3430SOL    HW111189   2.666   4.951   5.575
 3430SOL    HW211190   2.788   5.047   5.622
 3431SOL     OW11191   2.835   6.094   2.675
 3431SOL    HW111192   2.769   6.090   2.600
 3431SOL    HW211193   2.859   6.001   2.702
 3432SOL     OW11194   2.429   4.372   0.338
 3432SOL    HW111195   2.505   4.417   0.292
 3432SOL    HW211196   2.458   4.282   0.371
 3433SOL     OW11197   2.332   1.226   6.585
 3433SOL    HW111198   2.279   1.303   6.622
 3433SOL    HW211199   2.378   1.255   6.501
 3434SOL     OW11200   3.272   1.981   1.631
 3434SOL    HW111201   3.276   1.997   1.729
 3434SOL    HW211202   3.228   1.892   1.614
 3435SOL     OW11203   2.208   0.390   0.337
 3435SOL    HW111204   2.177   0.450   0.264
 3435SOL    HW211205   2.139   0.385   0.409
 3436SOL     OW11206   4.221   5.706   0.221
 3436SOL    HW111207   4.246   5.621   0.175
 3436SOL    HW211208   4.179   5.686   0.310
 3437SOL     OW11209   1.277   6.388   5.934
 3437SOL    HW111210   1.330   6.421   6.013
 3437SOL    HW211211   1.330   6.318   5.886
 3438SOL     OW11212   1.061   4.054   0.936
 3438SOL    HW111213   1.129   4.000   0.985
 3438SOL    HW211214   1.054   4.022   0.841
 3439SOL     OW11215   2.390   5.822   2.611
 3439SOL    HW111216   2.374   5.753   2.682
 3439SOL    HW211217   2.430   5.779   2.531
 3440SOL     OW11218   4.072   3.204   4.303
 3440SOL    HW111219   4.019   3.243   4.228
 3440SOL    HW211220   4.021   3.127   4.343
 3441SOL     OW11221   5.155   5.549   5.864
 3441SOL    HW111222   5.116   5.480   5.925
 3441SOL    HW211223   5.226   5.507   5.807
 3442SOL     OW11224   3.186   3.380   1.719
 3442SOL    HW111225   3.135   3.386   1.805
 3442SOL    HW211226   3.270   3.434   1.727
 3443SOL     OW11227   2.975   5.803   2.314
 3443SOL    HW111228   3.043   5.730   2.315
 3443SOL    HW211229   2.909   5.788   2.388
 3444SOL     OW11230   5.504   4.390   1.734
 3444SOL    HW111231   5.463   4.446   1.662
 3444SOL    HW211232   5.431   4.348   1.788
 3445SOL     OW11233   6.710   4.723   3.719
 3445SOL    HW111234   6.661   4.660   3.779
 3445SOL    HW211235   6.652   4.801   3.696
 3446SOL     OW11236   5.546   0.486   1.553
 3446SOL    HW111237   5.476   0.499   1.624
 3446SOL    HW211238   5.580   0.575   1.523
 3447SOL     OW11239   5.056   0.440   0.227
 3447SOL    HW111240   5.018   0.397   0.309
 3447SOL    HW211241   5.019   0.533   0.218
 3448SOL     OW11242   1.545   6.117   4.848
 3448SOL    HW111243   1.605   6.195   4.831
 3448SOL    HW211244   1.511   6.121   4.942
 3449SOL     OW11245   6.286   5.039   5.052
 3449SOL    HW111246   6.259   5.135   5.050
 3449SOL    HW211247   6.386   5.032   5.041
 3450SOL     OW11248   1.423   0.283   6.918
 3450SOL    HW111249   1.489   0.226   6.967
 3450SOL    HW211250   1.362   0.327   6.984
 3451SOL     OW11251   1.794   6.060   0.503
 3451SOL    HW111252   1.855   6.137   0.487
 3451SOL    HW211253   1.848   5.976   0.509
 3452SOL     OW11254   5.280   0.706   5.333
 3452SOL    HW111255   5.213   0.635   5.356
 3452SOL    HW211256   5.236   0.796   5.337
 3453SOL     OW11257   4.915   6.433   5.744
 3453SOL    HW111258   4.966   6.486   5.812
 3453SOL    HW211259   4.920   6.478   5.655
 3454SOL     OW11260   1.242   2.238   2.968
 3454SOL    HW111261   1.275   2.323   2.927
 3454SOL    HW211262   1.213   2.176   2.895
 3455SOL     OW11263   1.887   3.205   5.353
 3455SOL    HW111264   1.979   3.166   5.362
 3455SOL    HW211265   1.850   3.224   5.444
 3456SOL     OW11266   4.571   4.332   2.706
 3456SOL    HW111267   4.487   4.367   2.664
 3456SOL    HW211268   4.626   4.286   2.636
 3457SOL     OW11269   4.146   5.493   4.758
 3457SOL    HW111270   4.158   5.510   4.661
 3457SOL    HW211271   4.226   5.526   4.808
 3458SOL     OW11272   4.446   1.497   2.448
 3458SOL    HW111273   4.453   1.407   2.491
 3458SOL    HW211274   4.528   1.514   2.393
 3459SOL     OW11275   4.019   0.908   2.966
 3459SOL    HW111276   3.920   0.897   2.980
 3459SOL    HW211277   4.053   0.982   3.024
 3460SOL     OW11278   3.923   1.825   5.772
 3460SOL    HW111279   3.988   1.873   5.713
 3460SOL    HW211280   3.888   1.744   5.724
 3461SOL     OW11281   5.456   4.868   0.177
 3461SOL    HW111282   5.398   4.788   0.189
 3461SOL    HW211283   5.547   4.849   0.214
 3462SOL     OW11284   2.275   3.402   6.614
 3462SOL    HW111285   2.196   3.458   6.639
 3462SOL    HW211286   2.356   3.435   6.663
 3463SOL     OW11287   6.728   4.214   1.618
 3463SOL    HW111288   6.754   4.147   1.548
 3463SOL    HW211289   6.801   4.282   1.627
 3464SOL     OW11290   7.023   4.890   6.018
 3464SOL    HW111291   7.015   4.963   5.949
 3464SOL    HW211292   6.933   4.874   6.059
 3465SOL     OW11293   1.582   0.764   1.607
 3465SOL    HW111294   1.656   0.774   1.674
 3465SOL    HW211295   1.590   0.675   1.562
 3466SOL     OW11296   6.578   4.237   5.646
 3466SOL    HW111297   6.573   4.245   5.745
 3466SOL    HW211298   6.538   4.150   5.617
 3467SOL     OW11299   2.470   2.392   6.320
 3467SOL    HW111300   2.421   2.376   6.234
 3467SOL    HW211301   2.482   2.490   6.333
 3468SOL     OW11302   3.206   6.172   3.764
 3468SOL    HW111303   3.215   6.251   3.824
 3468SOL    HW211304   3.263   6.184   3.683
 3469SOL     OW11305   6.414   2.430   3.144
 3469SOL    HW111306   6.381   2.373   3.219
 3469SOL    HW211307   6.358   2.413   3.063
 3470SOL     OW11308   0.211   5.660   1.148
 3470SOL    HW111309   0.287   5.683   1.087
 3470SOL    HW211310   0.220   5.710   1.234
 3471SOL     OW11311   4.205   5.755   4.983
 3471SOL    HW111312   4.272   5.811   5.031
 3471SOL    HW211313   4.218   5.765   4.884
 3472SOL     OW11314   2.659   0.608   4.532
 3472SOL    HW111315   2.717   0.682   4.566
 3472SOL    HW211316   2.697   0.572   4.447
 3473SOL     OW11317   6.241   1.262   6.198
 3473SOL    HW111318   6.241   1.248   6.099
 3473SOL    HW211319   6.274   1.354   6.219
 3474SOL     OW11320   3.786   5.348   2.127
 3474SOL    HW111321   3.746   5.432   2.090
 3474SOL    HW211322   3.805   5.285   2.052
 3475SOL     OW11323   1.148   5.900   4.118
 3475SOL    HW111324   1.114   5.915   4.025
 3475SOL    HW211325   1.075   5.915   4.184
 3476SOL     OW11326   4.360   0.605   4.500
 3476SOL    HW111327   4.293   0.548   4.547
 3476SOL    HW211328   4.445   0.605   4.552
 3477SOL     OW11329   4.034   6.197   1.516
 3477SOL    HW111330   4.120   6.172   1.474
 3477SOL    HW211331   3.974   6.238   1.447
 3478SOL     OW11332   3.463   5.518   6.076
 3478SOL    HW111333   3.415   5.517   6.164
 3478SOL    HW211334   3.462   5.426   6.037
 3479SOL     OW11335   0.789   0.204   1.853
 3479SOL    HW111336   0.814   0.135   1.921
 3479SOL    HW211337   0.821   0.176   1.763
 3480SOL     OW11338   6.853   1.670   3.566
 3480SOL    HW111339   6.794   1.703   3.493
 3480SOL    HW211340   6.891   1.748   3.617
 3481SOL     OW11341   2.635   6.867   6.527
 3481SOL    HW111342   2.559   6.835   6.583
 3481SOL    HW211343   2.623   6.964   6.507
 3482SOL     OW11344   6.286   2.320   1.234
 3482SOL    HW111345   6.326   2.230   1.219
 3482SOL    HW211346   6.320   2.385   1.166
 3483SOL     OW11347   2.050   0.551   1.438
 3483SOL    HW111348   1.962   0.525   1.399
 3483SOL    HW211349   2.048   0.649   1.461
 3484SOL     OW11350   3.097   3.083   3.717
 3484SOL    HW111351   3.170   3.024   3.751
 3484SOL    HW211352   3.035   3.106   3.792
 3485SOL     OW11353   1.450   2.401   5.373
 3485SOL    HW111354   1.367   2.410   5.429
 3485SOL    HW211355   1.530   2.420   5.430
 3486SOL     OW11356   4.389   1.735   1.539
 3486SOL    HW111357   4.468   1.742   1.479
 3486SOL    HW211358   4.358   1.639   1.543
 3487SOL     OW11359   5.995   1.991   5.979
 3487SOL    HW111360   6.007   2.089   5.962
 3487SOL    HW211361   6.050   1.940   5.914
 3488SOL     OW11362   6.153   3.587   3.977
 3488SOL    HW111363   6.137   3.547   4.067
 3488SOL    HW211364   6.160   3.514   3.909
 3489SOL     OW11365   3.770   6.976   1.189
 3489SOL    HW111366   3.710   6.977   1.110
 3489SOL    HW211367   3.858   7.017   1.165
 3490SOL     OW11368   5.343   3.831   0.339
 3490SOL    HW111369   5.370   3.793   0.428
 3490SOL    HW211370   5.402   3.908   0.317
 3491SOL     OW11371   0.206   2.922   5.774
 3491SOL    HW111372   0.212   3.014   5.812
 3491SOL    HW211373   0.116   2.910   5.731
 3492SOL     OW11374   0.251   5.448   6.704
 3492SOL    HW111375   0.297   5.363   6.731
 3492SOL    HW211376   0.171   5.461   6.762
 3493SOL     OW11377   5.885   4.971   1.342
 3493SOL    HW111378   5.970   4.963   1.393
 3493SOL    HW211379   5.838   5.055   1.367
 3494SOL     OW11380   3.446   0.020   1.720
 3494SOL    HW111381   3.527   0.008   1.662
 3494SOL    HW211382   3.364   0.016   1.663
 3495SOL     OW11383   4.355   5.288   1.735
 3495SOL    HW111384   4.268   5.305   1.690
 3495SOL    HW211385   4.379   5.192   1.727
 3496SOL     OW11386   1.913   3.136   0.428
 3496SOL    HW111387   1.871   3.070   0.366
 3496SOL    HW211388   2.007   3.155   0.399
 3497SOL     OW11389   4.157   1.064   3.206
 3497SOL    HW111390   4.139   1.008   3.287
 3497SOL    HW211391   4.114   1.154   3.218
 3498SOL     OW11392   2.427   1.216   1.060
 3498SOL    HW111393   2.474   1.278   0.996
 3498SOL    HW211394   2.352   1.265   1.104
 3499SOL     OW11395   0.150   3.166   4.662
 3499SOL    HW111396   0.190   3.083   4.622
 3499SOL    HW211397   0.054   3.173   4.634
 3500SOL     OW11398   6.600   4.050   6.395
 3500SOL    HW111399   6.569   3.965   6.352
 3500SOL    HW211400   6.521   4.107   6.418
 3501SOL     OW11401   1.881   4.616   4.890
 3501SOL    HW111402   1.884   4.671   4.806
 3501SOL    HW211403   1.972   4.616   4.933
 3502SOL     OW11404   0.393   1.931   1.496
 3502SOL    HW111405   0.335   1.925   1.415
 3502SOL    HW211406   0.489   1.928   1.469
 3503SOL     OW11407   4.511   5.796   5.351
 3503SOL    HW111408   4.434   5.736   5.373
 3503SOL    HW211409   4.591   5.769   5.405
 3504SOL     OW11410   2.622   3.371   1.350
 3504SOL    HW111411   2.611   3.276   1.379
 3504SOL    HW211412   2.561   3.390   1.274
 3505SOL     OW11413   5.173   5.925   5.644
 3505SOL    HW111414   5.207   6.018   5.659
 3505SOL    HW211415   5.204   5.866   5.718
 3506SOL     OW11416   3.958   5.161   3.644
 3506SOL    HW111417   3.899   5.159   3.564
 3506SOL    HW211418   3.907   5.129   3.724
 3507SOL     OW11419   1.141   0.467   6.803
 3507SOL    HW111420   1.185   0.406   6.738
 3507SOL    HW211421   1.102   0.414   6.878
 3508SOL     OW11422   5.747   3.396   0.284
 3508SOL    HW111423   5.705   3.355   0.203
 3508SOL    HW211424   5.685   3.386   0.362
 3509SOL     OW11425   6.529   6.096   6.623
 3509SOL    HW111426   6.515   6.181   6.573
 3509SOL    HW211427   6.598   6.040   6.577
 3510SOL     OW11428   2.412   2.430   1.725
 3510SOL    HW111429   2.441   2.516   1.684
 3510SOL    HW211430   2.467   2.411   1.806
 3511SOL     OW11431   0.049   2.656   6.965
 3511SOL    HW111432   0.089   2.598   0.010
 3511SOL    HW211433   0.040   2.750   6.999
 3512SOL     OW11434   2.486   3.238   0.355
 3512SOL    HW111435   2.522   3.269   0.266
 3512SOL    HW211436   2.508   3.141   0.367
 3513SOL     OW11437   6.962   4.067   1.481
 3513SOL    HW111438   6.998   4.139   1.540
 3513SOL    HW211439   7.005   3.980   1.505
 3514SOL     OW11440   0.969   6.478   1.049
 3514SOL    HW111441   0.882   6.502   1.093
 3514SOL    HW211442   0.974   6.523   0.960
 3515SOL     OW11443   3.036   5.984   2.940
 3515SOL    HW111444   3.121   5.968   2.889
 3515SOL    HW211445   2.963   5.930   2.901
 3516SOL     OW11446   3.039   1.371   0.138
 3516SOL    HW111447   3.069   1.399   0.047
 3516SOL    HW211448   2.986   1.287   0.132
 3517SOL     OW11449   1.023   1.326   6.924
 3517SOL    HW111450   0.948   1.368   6.874
 3517SOL    HW211451   1.078   1.271   6.862
 3518SOL     OW11452   5.019   3.336   6.467
 3518SOL    HW111453   5.085   3.411   6.466
 3518SOL    HW211454   4.935   3.363   6.420
 3519SOL     OW11455   1.983   6.832   6.346
 3519SOL    HW111456   1.921   6.802   6.273
 3519SOL    HW211457   1.989   6.932   6.345
 3520SOL     OW11458   4.240   5.317   0.809
 3520SOL    HW111459   4.141   5.312   0.823
 3520SOL    HW211460   4.279   5.382   0.874
 3521SOL     OW11461   5.385   2.227   1.867
 3521SOL    HW111462   5.463   2.248   1.808
 3521SOL    HW211463   5.300   2.252   1.820
 3522SOL     OW11464   3.340   5.401   2.175
 3522SOL    HW111465   3.344   5.330   2.246
 3522SOL    HW211466   3.433   5.420   2.142
 3523SOL     OW11467   2.886   4.886   4.884
 3523SOL    HW111468   2.880   4.801   4.936
 3523SOL    HW211469   2.794   4.916   4.858
 3524SOL     OW11470   2.566   0.100   0.608
 3524SOL    HW111471   2.624   0.080   0.529
 3524SOL    HW211472   2.547   0.198   0.611
 3525SOL     OW11473   0.546   2.902   1.891
 3525SOL    HW111474   0.465   2.951   1.925
 3525SOL    HW211475   0.587   2.953   1.816
 3526SOL     OW11476   0.849   0.688   2.907
 3526SOL    HW111477   0.868   0.640   2.992
 3526SOL    HW211478   0.816   0.781   2.927
 3527SOL     OW11479   5.468   2.979   6.362
 3527SOL    HW111480   5.471   2.922   6.444
 3527SOL    HW211481   5.399   3.051   6.374
 3528SOL     OW11482   0.159   6.327   3.486
 3528SOL    HW111483   0.077   6.270   3.486
 3528SOL    HW211484   0.232   6.280   3.435
 3529SOL     OW11485   4.192   6.862   5.224
 3529SOL    HW111486   4.245   6.784   5.257
 3529SOL    HW211487   4.248   6.944   5.227
 3530SOL     OW11488   3.086   5.568   2.634
 3530SOL    HW111489   3.145   5.648   2.624
 3530SOL    HW211490   3.035   5.575   2.720
 3531SOL     OW11491   6.017   4.534   0.847
 3531SOL    HW111492   6.085   4.591   0.893
 3531SOL    HW211493   5.959   4.490   0.916
 3532SOL     OW11494   2.583   0.346   6.809
 3532SOL    HW111495   2.678   0.346   6.778
 3532SOL    HW211496   2.562   0.433   6.853
 3533SOL     OW11497   0.853   1.500   3.222
 3533SOL    HW111498   0.799   1.554   3.158
 3533SOL    HW211499   0.894   1.561   3.290
 3534SOL     OW11500   5.621   1.736   4.825
 3534SOL    HW111501   5.639   1.770   4.917
 3534SOL    HW211502   5.562   1.655   4.830
 3535SOL     OW11503   5.769   5.442   6.072
 3535SOL    HW111504   5.703   5.368   6.089
 3535SOL    HW211505   5.803   5.435   5.978
 3536SOL     OW11506   1.866   3.025   3.232
 3536SOL    HW111507   1.943   2.985   3.181
 3536SOL    HW211508   1.899   3.062   3.318
 3537SOL     OW11509   2.446   5.676   0.570
 3537SOL    HW111510   2.416   5.588   0.533
 3537SOL    HW211511   2.524   5.710   0.517
 3538SOL     OW11512   2.834   0.422   3.249
 3538SOL    HW111513   2.763   0.492   3.248
 3538SOL    HW211514   2.841   0.383   3.341
 3539SOL     OW11515   5.330   5.017   6.976
 3539SOL    HW111516   5.345   4.962   6.894
 3539SOL    HW211517   5.322   4.958   0.030
 3540SOL     OW11518   2.794   3.281   6.321
 3540SOL    HW111519   2.706   3.278   6.369
 3540SOL    HW211520   2.785   3.240   6.231
 3541SOL     OW11521   2.938   2.288   0.543
 3541SOL    HW111522   2.948   2.200   0.588
 3541SOL    HW211523   2.971   2.282   0.449
 3542SOL     OW11524   5.397   2.182   6.352
 3542SOL    HW111525   5.347   2.260   6.315
 3542SOL    HW211526   5.351   2.147   6.433
 3543SOL     OW11527   2.394   2.660   3.048
 3543SOL    HW111528   2.471   2.610   3.010
 3543SOL    HW211529   2.310   2.608   3.033
 3544SOL     OW11530   2.474   4.564   5.951
 3544SOL    HW111531   2.568   4.597   5.942
 3544SOL    HW211532   2.466   4.476   5.906
 3545SOL     OW11533   3.349   6.960   1.107
 3545SOL    HW111534   3.404   6.964   1.023
 3545SOL    HW211535   3.390   7.018   1.176
 3546SOL     OW11536   6.730   3.810   3.581
 3546SOL    HW111537   6.714   3.889   3.640
 3546SOL    HW211538   6.644   3.783   3.537
 3547SOL     OW11539   0.088   3.714   5.497
 3547SOL    HW111540   0.170   3.771   5.494
 3547SOL    HW211541   0.104   3.636   5.557
 3548SOL     OW11542   5.303   1.005   5.833
 3548SOL    HW111543   5.300   1.046   5.741
 3548SOL    HW211544   5.398   0.991   5.860
 3549SOL     OW11545   3.058   4.978   0.189
 3549SOL    HW111546   3.041   5.064   0.142
 3549SOL    HW211547   3.146   4.940   0.159
 3550SOL     OW11548   5.365   1.477   5.266
 3550SOL    HW111549   5.360   1.381   5.239
 3550SOL    HW211550   5.337   1.535   5.190
 3551SOL     OW11551   3.929   2.214   5.125
 3551SOL    HW111552   3.853   2.238   5.185
 3551SOL    HW211553   3.929   2.275   5.045
 3552SOL     OW11554   6.840   5.840   2.510
 3552SOL    HW111555   6.847   5.938   2.493
 3552SOL    HW211556   6.929   5.797   2.495
 3553SOL     OW11557   3.738   5.265   6.068
 3553SOL    HW111558   3.822   5.266   6.123
 3553SOL    HW211559   3.739   5.342   6.004
 3554SOL     OW11560   4.314   3.496   1.682
 3554SOL    HW111561   4.272   3.438   1.753
 3554SOL    HW211562   4.308   3.450   1.594
 3555SOL     OW11563   1.888   2.253   3.850
 3555SOL    HW111564   1.871   2.191   3.774
 3555SOL    HW211565   1.911   2.200   3.932
 3556SOL     OW11566   4.242   0.698   5.288
 3556SOL    HW111567   4.160   0.742   5.324
 3556SOL    HW211568   4.231   0.680   5.191
 3557SOL     OW11569   6.948   1.583   2.241
 3557SOL    HW111570   6.866   1.636   2.265
 3557SOL    HW211571   7.019   1.646   2.208
 3558SOL     OW11572   3.653   6.994   0.921
 3558SOL    HW111573   3.728   6.939   0.884
 3558SOL    HW211574   3.571   6.981   0.865
 3559SOL     OW11575   4.109   6.571   4.263
 3559SOL    HW111576   4.054   6.489   4.243
 3559SOL    HW211577   4.054   6.653   4.247
 3560SOL     OW11578   1.314   5.544   5.101
 3560SOL    HW111579   1.299   5.446   5.105
 3560SOL    HW211580   1.374   5.573   5.175
 3561SOL     OW11581   4.726   4.391   5.467
 3561SOL    HW111582   4.763   4.399   5.560
 3561SOL    HW211583   4.793   4.424   5.401
 3562SOL     OW11584   2.226   1.485   5.322
 3562SOL    HW111585   2.211   1.490   5.223
 3562SOL    HW211586   2.261   1.572   5.355
 3563SOL     OW11587   5.690   2.135   5.247
 3563SOL    HW111588   5.640   2.071   5.188
 3563SOL    HW211589   5.788   2.120   5.238
 3564SOL     OW11590   0.461   4.530   2.722
 3564SOL    HW111591   0.503   4.439   2.724
 3564SOL    HW211592   0.378   4.529   2.777
 3565SOL     OW11593   3.222   5.517   3.511
 3565SOL    HW111594   3.204   5.435   3.457
 3565SOL    HW211595   3.316   5.547   3.496
 3566SOL     OW11596   6.414   1.182   5.631
 3566SOL    HW111597   6.427   1.086   5.605
 3566SOL    HW211598   6.502   1.229   5.628
 3567SOL     OW11599   0.413   4.434   6.725
 3567SOL    HW111600   0.365   4.356   6.766
 3567SOL    HW211601   0.379   4.519   6.766
 3568SOL     OW11602   6.428   3.647   6.073
 3568SOL    HW111603   6.405   3.557   6.111
 3568SOL    HW211604   6.511   3.640   6.018
 3569SOL     OW11605   2.754   2.252   5.308
 3569SOL    HW111606   2.744   2.351   5.319
 3569SOL    HW211607   2.785   2.232   5.215
 3570SOL     OW11608   6.040   1.208   4.075
 3570SOL    HW111609   5.946   1.228   4.100
 3570SOL    HW211610   6.069   1.270   4.002
 3571SOL     OW11611   6.140   5.657   6.500
 3571SOL    HW111612   6.209   5.722   6.471
 3571SOL    HW211613   6.052   5.681   6.459
 3572SOL     OW11614   5.673   3.570   4.008
 3572SOL    HW111615   5.744   3.508   3.973
 3572SOL    HW211616   5.635   3.532   4.092
 3573SOL     OW11617   1.499   4.032   3.361
 3573SOL    HW111618   1.525   4.041   3.265
 3573SOL    HW211619   1.470   3.938   3.379
 3574SOL     OW11620   0.158   4.908   0.638
 3574SOL    HW111621   0.091   4.838   0.662
 3574SOL    HW211622   0.185   4.897   0.543
 3575SOL     OW11623   6.376   5.262   3.353
 3575SOL    HW111624   6.432   5.274   3.435
 3575SOL    HW211625   6.406   5.326   3.282
 3576SOL     OW11626   0.454   1.382   6.342
 3576SOL    HW111627   0.407   1.379   6.253
 3576SOL    HW211628   0.388   1.371   6.415
 3577SOL     OW11629   0.534   2.399   6.562
 3577SOL    HW111630   0.581   2.312   6.575
 3577SOL    HW211631   0.464   2.410   6.632
 3578SOL     OW11632   2.952   4.250   6.482
 3578SOL    HW111633   2.936   4.219   6.576
 3578SOL    HW211634   2.900   4.192   6.419
 3579SOL     OW11635   6.929   3.325   5.376
 3579SOL    HW111636   6.978   3.299   5.459
 3579SOL    HW211637   6.986   3.385   5.321
 3580SOL     OW11638   5.732   1.978   1.823
 3580SOL    HW111639   5.825   1.943   1.814
 3580SOL    HW211640   5.676   1.942   1.748
 3581SOL     OW11641   6.785   0.408   2.286
 3581SOL    HW111642   6.790   0.392   2.384
 3581SOL    HW211643   6.790   0.320   2.238
 3582SOL     OW11644   0.908   0.720   5.730
 3582SOL    HW111645   0.957   0.762   5.806
 3582SOL    HW211646   0.833   0.779   5.702
 3583SOL     OW11647   0.828   4.576   0.154
 3583SOL    HW111648   0.899   4.513   0.123
 3583SOL    HW211649   0.870   4.659   0.191
 3584SOL     OW11650   5.925   6.234   6.291
 3584SOL    HW111651   5.973   6.320   6.302
 3584SOL    HW211652   5.870   6.236   6.208
 3585SOL     OW11653   3.395   5.005   4.862
 3585SOL    HW111654   3.296   4.997   4.867
 3585SOL    HW211655   3.421   5.039   4.772
 3586SOL     OW11656   6.164   2.878   5.461
 3586SOL    HW111657   6.162   2.870   5.560
 3586SOL    HW211658   6.102   2.809   5.421
 3587SOL     OW11659   2.992   6.743   0.650
 3587SOL    HW111660   2.983   6.747   0.749
 3587SOL    HW211661   2.907   6.775   0.607
 3588SOL     OW11662   1.786   2.393   5.874
 3588SOL    HW111663   1.692   2.367   5.851
 3588SOL    HW211664   1.785   2.455   5.953
 3589SOL     OW11665   3.167   0.791   4.557
 3589SOL    HW111666   3.072   0.778   4.530
 3589SOL    HW211667   3.219   0.825   4.479
 3590SOL     OW11668   1.475   4.896   6.200
 3590SOL    HW111669   1.441   4.990   6.193
 3590SOL    HW211670   1.419   4.836   6.143
 3591SOL     OW11671   5.447   3.136   5.998
 3591SOL    HW111672   5.436   3.038   5.981
 3591SOL    HW211673   5.433   3.187   5.913
 3592SOL     OW11674   5.207   3.291   2.817
 3592SOL    HW111675   5.284   3.244   2.860
 3592SOL    HW211676   5.163   3.230   2.751
 3593SOL     OW11677   1.919   6.812   4.173
 3593SOL    HW111678   1.822   6.833   4.186
 3593SOL    HW211679   1.970   6.897   4.164
 3594SOL     OW11680   2.277   1.073   3.472
 3594SOL    HW111681   2.282   0.989   3.526
 3594SOL    HW211682   2.194   1.071   3.415
 3595SOL     OW11683   2.392   6.818   5.543
 3595SOL    HW111684   2.480   6.834   5.587
 3595SOL    HW211685   2.357   6.903   5.506
 3596SOL     OW11686   6.458   0.936   2.579
 3596SOL    HW111687   6.546   0.890   2.594
 3596SOL    HW211688   6.395   0.872   2.534
 3597SOL     OW11689   3.674   6.340   4.554
 3597SOL    HW111690   3.659   6.278   4.631
 3597SOL    HW211691   3.729   6.418   4.584
 3598SOL     OW11692   0.957   0.249   5.287
 3598SOL    HW111693   1.034   0.310   5.305
 3598SOL    HW211694   0.949   0.234   5.188
 3599SOL     OW11695   0.208   2.190   5.691
 3599SOL    HW111696   0.179   2.250   5.617
 3599SOL    HW211697   0.273   2.238   5.750
 3600SOL     OW11698   6.202   3.354   1.212
 3600SOL    HW111699   6.186   3.322   1.306
 3600SOL    HW211700   6.278   3.419   1.212
 3601SOL     OW11701   6.996   3.970   0.382
 3601SOL    HW111702   0.038   3.965   0.455
 3601SOL    HW211703   0.015   3.958   0.293
 3602SOL     OW11704   1.965   0.881   0.268
 3602SOL    HW111705   2.006   0.879   0.177
 3602SOL    HW211706   2.033   0.909   0.336
 3603SOL     OW11707   3.897   4.956   4.245
 3603SOL    HW111708   3.959   4.960   4.324
 3603SOL    HW211709   3.951   4.951   4.161
 3604SOL     OW11710   6.957   2.746   2.956
 3604SOL    HW111711   6.984   2.762   3.051
 3604SOL    HW211712   6.857   2.738   2.950
 3605SOL     OW11713   6.347   4.519   6.232
 3605SOL    HW111714   6.252   4.535   6.256
 3605SOL    HW211715   6.404   4.590   6.274
 3606SOL     OW11716   6.725   4.779   5.981
 3606SOL    HW111717   6.673   4.700   5.947
 3606SOL    HW211718   6.675   4.863   5.962
 3607SOL     OW11719   5.313   0.359   0.305
 3607SOL    HW111720   5.243   0.390   0.241
 3607SOL    HW211721   5.273   0.351   0.397
 3608SOL     OW11722   0.060   1.571   1.512
 3608SOL    HW111723   0.146   1.586   1.462
 3608SOL    HW211724   0.019   1.659   1.536
 3609SOL     OW11725   6.567   0.977   4.579
 3609SOL    HW111726   6.513   0.905   4.535
 3609SOL    HW211727   6.623   1.023   4.511
 3610SOL     OW11728   0.914   6.667   4.694
 3610SOL    HW111729   0.881   6.680   4.787
 3610SOL    HW211730   1.003   6.711   4.684
 3611SOL     OW11731   3.623   5.198   5.437
 3611SOL    HW111732   3.583   5.110   5.460
 3611SOL    HW211733   3.623   5.210   5.337
 3612SOL     OW11734   1.250   6.382   6.468
 3612SOL    HW111735   1.311   6.332   6.530
 3612SOL    HW211736   1.159   6.341   6.469
 3613SOL     OW11737   4.886   5.128   0.600
 3613SOL    HW111738   4.934   5.045   0.571
 3613SOL    HW211739   4.796   5.104   0.635
 3614SOL     OW11740   3.768   3.003   2.841
 3614SOL    HW111741   3.717   3.086   2.863
 3614SOL    HW211742   3.775   2.995   2.741
 3615SOL     OW11743   6.023   5.187   5.650
 3615SOL    HW111744   6.005   5.143   5.738
 3615SOL    HW211745   5.937   5.213   5.607
 3616SOL     OW11746   6.637   2.051   6.618
 3616SOL    HW111747   6.646   1.960   6.658
 3616SOL    HW211748   6.546   2.061   6.578
 3617SOL     OW11749   5.648   1.737   6.461
 3617SOL    HW111750   5.629   1.752   6.364
 3617SOL    HW211751   5.644   1.824   6.509
 3618SOL     OW11752   1.554   1.989   5.902
 3618SOL    HW111753   1.507   2.069   5.866
 3618SOL    HW211754   1.488   1.932   5.953
 3619SOL     OW11755   6.003   2.206   3.889
 3619SOL    HW111756   6.021   2.166   3.979
 3619SOL    HW211757   5.990   2.133   3.822
 3620SOL     OW11758   5.602   6.829   5.459
 3620SOL    HW111759   5.635   6.849   5.551
 3620SOL    HW211760   5.553   6.908   5.423
 3621SOL     OW11761   3.260   3.034   5.688
 3621SOL    HW111762   3.297   2.993   5.605
 3621SOL    HW211763   3.176   3.084   5.666
 3622SOL     OW11764   0.546   1.240   2.952
 3622SOL    HW111765   0.484   1.223   3.029
 3622SOL    HW211766   0.514   1.319   2.900
 3623SOL     OW11767   6.221   5.167   4.001
 3623SOL    HW111768   6.225   5.256   4.045
 3623SOL    HW211769   6.274   5.101   4.055
 3624SOL     OW11770   2.431   6.139   3.176
 3624SOL    HW111771   2.494   6.217   3.173
 3624SOL    HW211772   2.432   6.100   3.268
 3625SOL     OW11773   6.460   3.188   6.017
 3625SOL    HW111774   6.424   3.098   5.992
 3625SOL    HW211775   6.456   3.249   5.938
 3626SOL     OW11776   2.198   3.751   5.077
 3626SOL    HW111777   2.252   3.814   5.021
 3626SOL    HW211778   2.203   3.779   5.173
 3627SOL     OW11779   4.178   3.404   3.582
 3627SOL    HW111780   4.141   3.404   3.488
 3627SOL    HW211781   4.183   3.499   3.615
 3628SOL     OW11782   2.151   6.252   2.233
 3628SOL    HW111783   2.222   6.184   2.249
 3628SOL    HW211784   2.061   6.211   2.246
 3629SOL     OW11785   6.761   1.881   4.848
 3629SOL    HW111786   6.722   1.959   4.800
 3629SOL    HW211787   6.825   1.914   4.918
 3630SOL     OW11788   6.079   2.745   4.154
 3630SOL    HW111789   6.010   2.737   4.226
 3630SOL    HW211790   6.034   2.741   4.065
 3631SOL     OW11791   2.225   0.365   4.585
 3631SOL    HW111792   2.253   0.271   4.604
 3631SOL    HW211793   2.234   0.419   4.669
 3632SOL     OW11794   5.131   1.004   0.995
 3632SOL    HW111795   5.163   0.921   1.041
 3632SOL    HW211796   5.197   1.078   1.010
 3633SOL     OW11797   2.938   2.201   5.747
 3633SOL    HW111798   3.022   2.228   5.795
 3633SOL    HW211799   2.896   2.282   5.705
 3634SOL     OW11800   0.578   6.220   4.456
 3634SOL    HW111801   0.614   6.158   4.526
 3634SOL    HW211802   0.566   6.311   4.495
 3635SOL     OW11803   3.514   0.928   5.235
 3635SOL    HW111804   3.579   0.857   5.206
 3635SOL    HW211805   3.488   0.984   5.156
 3636SOL     OW11806   6.745   6.307   6.108
 3636SOL    HW111807   6.712   6.397   6.078
 3636SOL    HW211808   6.804   6.318   6.187
 3637SOL     OW11809   5.994   1.917   0.992
 3637SOL    HW111810   5.910   1.953   1.032
 3637SOL    HW211811   6.007   1.955   0.901
 3638SOL     OW11812   6.627   4.688   4.005
 3638SOL    HW111813   6.535   4.675   3.968
 3638SOL    HW211814   6.646   4.617   4.073
 3639SOL     OW11815   3.614   3.680   1.102
 3639SOL    HW111816   3.632   3.749   1.172
 3639SOL    HW211817   3.549   3.716   1.036
 3640SOL     OW11818   3.427   5.903   6.603
 3640SOL    HW111819   3.500   5.907   6.671
 3640SOL    HW211820   3.462   5.937   6.515
 3641SOL     OW11821   3.507   1.712   4.874
 3641SOL    HW111822   3.470   1.635   4.926
 3641SOL    HW211823   3.431   1.765   4.836
 3642SOL     OW11824   4.988   0.974   5.565
 3642SOL    HW111825   5.070   1.030   5.581
 3642SOL    HW211826   4.980   0.905   5.636
 3643SOL     OW11827   3.200   5.733   4.632
 3643SOL    HW111828   3.122   5.677   4.658
 3643SOL    HW211829   3.197   5.820   4.681
 3644SOL     OW11830   6.553   1.067   1.426
 3644SOL    HW111831   6.534   1.146   1.484
 3644SOL    HW211832   6.526   1.088   1.332
 3645SOL     OW11833   5.352   1.555   4.335
 3645SOL    HW111834   5.424   1.496   4.372
 3645SOL    HW211835   5.347   1.639   4.390
 3646SOL     OW11836   6.859   4.900   5.491
 3646SOL    HW111837   6.823   4.840   5.420
 3646SOL    HW211838   6.883   4.846   5.571
 3647SOL     OW11839   1.753   3.431   0.554
 3647SOL    HW111840   1.663   3.401   0.522
 3647SOL    HW211841   1.768   3.400   0.647
 3648SOL     OW11842   3.678   5.303   2.809
 3648SOL    HW111843   3.688   5.250   2.725
 3648SOL    HW211844   3.734   5.263   2.881
 3649SOL     OW11845   4.109   3.153   1.074
 3649SOL    HW111846   4.054   3.202   1.007
 3649SOL    HW211847   4.097   3.055   1.063
 3650SOL     OW11848   6.823   5.556   0.714
 3650SOL    HW111849   6.921   5.564   0.727
 3650SOL    HW211850   6.785   5.495   0.783
 3651SOL     OW11851   1.165   6.013   2.418
 3651SOL    HW111852   1.158   6.058   2.330
 3651SOL    HW211853   1.157   6.081   2.491
 3652SOL     OW11854   4.849   6.429   3.383
 3652SOL    HW111855   4.783   6.389   3.446
 3652SOL    HW211856   4.818   6.415   3.289
 3653SOL     OW11857   6.246   0.926   2.873
 3653SOL    HW111858   6.296   1.012   2.866
 3653SOL    HW211859   6.309   0.852   2.898
 3654SOL     OW11860   2.102   6.131   0.131
 3654SOL    HW111861   2.124   6.034   0.139
 3654SOL    HW211862   2.172   6.186   0.177
 3655SOL     OW11863   1.530   6.909   3.754
 3655SOL    HW111864   1.606   6.943   3.698
 3655SOL    HW211865   1.499   6.822   3.717
 3656SOL     OW11866   1.621   2.915   1.420
 3656SOL    HW111867   1.610   2.851   1.344
 3656SOL    HW211868   1.573   3.000   1.399
 3657SOL     OW11869   4.260   5.552   6.191
 3657SOL    HW111870   4.270   5.501   6.105
 3657SOL    HW211871   4.184   5.616   6.184
 3658SOL     OW11872   1.574   5.874   4.632
 3658SOL    HW111873   1.542   5.944   4.568
 3658SOL    HW211874   1.625   5.804   4.582
 3659SOL     OW11875   2.802   4.179   6.242
 3659SOL    HW111876   2.756   4.105   6.290
 3659SOL    HW211877   2.738   4.254   6.226
 3660SOL     OW11878   5.245   6.204   2.192
 3660SOL    HW111879   5.242   6.112   2.151
 3660SOL    HW211880   5.312   6.259   2.143
 3661SOL     OW11881   4.927   2.198   6.822
 3661SOL    HW111882   4.921   2.177   6.724
 3661SOL    HW211883   5.017   2.172   6.857
 3662SOL     OW11884   3.155   0.326   4.442
 3662SOL    HW111885   3.239   0.280   4.468
 3662SOL    HW211886   3.155   0.419   4.480
 3663SOL     OW11887   1.429   1.322   0.690
 3663SOL    HW111888   1.357   1.376   0.646
 3663SOL    HW211889   1.388   1.239   0.730
 3664SOL     OW11890   4.800   1.578   1.386
 3664SOL    HW111891   4.861   1.634   1.329
 3664SOL    HW211892   4.816   1.482   1.367
 3665SOL     OW11893   0.734   5.935   5.647
 3665SOL    HW111894   0.681   5.998   5.703
 3665SOL    HW211895   0.696   5.931   5.555
 3666SOL     OW11896   2.104   4.291   3.590
 3666SOL    HW111897   2.105   4.337   3.679
 3666SOL    HW211898   2.021   4.237   3.581
 3667SOL     OW11899   6.226   0.012   0.389
 3667SOL    HW111900   6.139   7.012   0.346
 3667SOL    HW211901   6.215   0.098   0.438
 3668SOL     OW11902   1.532   0.659   2.057
 3668SOL    HW111903   1.556   0.618   2.145
 3668SOL    HW211904   1.608   0.646   1.993
 3669SOL     OW11905   5.677   1.530   4.182
 3669SOL    HW111906   5.665   1.463   4.256
 3669SOL    HW211907   5.731   1.607   4.215
 3670SOL     OW11908   2.472   5.247   0.826
 3670SOL    HW111909   2.488   5.345   0.831
 3670SOL    HW211910   2.559   5.198   0.834
 3671SOL     OW11911   6.077   0.513   3.144
 3671SOL    HW111912   6.148   0.571   3.105
 3671SOL    HW211913   6.033   0.562   3.220
 3672SOL     OW11914   5.751   1.648   1.224
 3672SOL    HW111915   5.778   1.713   1.295
 3672SOL    HW211916   5.653   1.655   1.207
 3673SOL     OW11917   3.808   0.689   5.868
 3673SOL    HW111918   3.760   0.618   5.817
 3673SOL    HW211919   3.906   0.685   5.846
 3674SOL     OW11920   0.574   0.163   5.580
 3674SOL    HW111921   0.536   0.230   5.644
 3674SOL    HW211922   0.666   0.193   5.553
 3675SOL     OW11923   1.533   2.409   5.104
 3675SOL    HW111924   1.496   2.405   5.197
 3675SOL    HW211925   1.539   2.504   5.075
 3676SOL     OW11926   4.174   5.191   4.405
 3676SOL    HW111927   4.264   5.162   4.437
 3676SOL    HW211928   4.104   5.162   4.470
 3677SOL     OW11929   1.106   6.207   2.590
 3677SOL    HW111930   1.163   6.207   2.672
 3677SOL    HW211931   1.144   6.271   2.523
 3678SOL     OW11932   0.610   3.200   4.031
 3678SOL    HW111933   0.522   3.236   4.061
 3678SOL    HW211934   0.680   3.271   4.040
 3679SOL     OW11935   0.509   1.029   2.763
 3679SOL    HW111936   0.585   1.050   2.702
 3679SOL    HW211937   0.526   1.068   2.853
 3680SOL     OW11938   6.696   3.038   4.134
 3680SOL    HW111939   6.679   3.044   4.036
 3680SOL    HW211940   6.642   3.107   4.182
 3681SOL     OW11941   0.654   0.830   5.722
 3681SOL    HW111942   0.637   0.863   5.814
 3681SOL    HW211943   0.568   0.825   5.671
 3682SOL     OW11944   6.001   2.510   6.125
 3682SOL    HW111945   6.005   2.574   6.048
 3682SOL    HW211946   5.925   2.535   6.185
 3683SOL     OW11947   6.822   0.527   5.109
 3683SOL    HW111948   6.906   0.580   5.100
 3683SOL    HW211949   6.845   0.430   5.121
 3684SOL     OW11950   1.503   2.823   1.137
 3684SOL    HW111951   1.440   2.861   1.069
 3684SOL    HW211952   1.592   2.868   1.128
 3685SOL     OW11953   5.972   6.228   5.679
 3685SOL    HW111954   6.069   6.208   5.690
 3685SOL    HW211955   5.959   6.288   5.600
 3686SOL     OW11956   6.565   4.990   3.393
 3686SOL    HW111957   6.468   5.015   3.388
 3686SOL    HW211958   6.595   4.991   3.488
 3687SOL     OW11959   2.690   5.934   5.746
 3687SOL    HW111960   2.722   5.853   5.697
 3687SOL    HW211961   2.641   5.995   5.683
 3688SOL     OW11962   1.188   4.040   0.049
 3688SOL    HW111963   1.193   4.107   0.123
 3688SOL    HW211964   1.093   4.021   0.027
 3689SOL     OW11965   0.875   0.625   5.264
 3689SOL    HW111966   0.878   0.720   5.236
 3689SOL    HW211967   0.921   0.568   5.196
 3690SOL     OW11968   4.420   0.576   6.320
 3690SOL    HW111969   4.376   0.659   6.355
 3690SOL    HW211970   4.404   0.570   6.221
 3691SOL     OW11971   2.164   3.174   6.538
 3691SOL    HW111972   2.067   3.198   6.526
 3691SOL    HW211973   2.213   3.253   6.573
 3692SOL     OW11974   0.971   6.099   4.475
 3692SOL    HW111975   0.913   6.035   4.525
 3692SOL    HW211976   0.994   6.177   4.534
 3693SOL     OW11977   1.655   2.886   2.861
 3693SOL    HW111978   1.636   2.841   2.948
 3693SOL    HW211979   1.745   2.857   2.827
 3694SOL     OW11980   1.191   5.078   3.177
 3694SOL    HW111981   1.255   5.128   3.236
 3694SOL    HW211982   1.215   5.094   3.081
 3695SOL     OW11983   0.404   2.537   2.499
 3695SOL    HW111984   0.312   2.554   2.533
 3695SOL    HW211985   0.468   2.599   2.544
 3696SOL     OW11986   4.147   5.803   5.259
 3696SOL    HW111987   4.075   5.864   5.292
 3696SOL    HW211988   4.137   5.790   5.160
 3697SOL     OW11989   6.839   5.876   3.886
 3697SOL    HW111990   6.791   5.900   3.971
 3697SOL    HW211991   6.884   5.958   3.850
 3698SOL     OW11992   3.413   6.556   5.218
 3698SOL    HW111993   3.342   6.579   5.285
 3698SOL    HW211994   3.427   6.457   5.218
 3699SOL     OW11995   6.812   3.817   3.092
 3699SOL    HW111996   6.897   3.868   3.081
 3699SOL    HW211997   6.783   3.783   3.003
 3700SOL     OW11998   5.941   0.673   3.668
 3700SOL    HW111999   5.852   0.718   3.666
 3700SOL    HW212000   6.008   0.728   3.619
 3701SOL     OW12001   0.471   0.952   3.496
 3701SOL    HW112002   0.470   0.937   3.595
 3701SOL    HW212003   0.539   1.022   3.474
 3702SOL     OW12004   4.557   0.214   1.853
 3702SOL    HW112005   4.486   0.145   1.834
 3702SOL    HW212006   4.563   0.229   1.952
 3703SOL     OW12007   4.174   3.672   6.095
 3703SOL    HW112008   4.179   3.680   5.995
 3703SOL    HW212009   4.232   3.741   6.137
 3704SOL     OW12010   3.079   1.356   2.087
 3704SOL    HW112011   3.157   1.294   2.089
 3704SOL    HW212012   3.108   1.445   2.051
 3705SOL     OW12013   5.027   6.474   3.714
 3705SOL    HW112014   5.058   6.532   3.639
 3705SOL    HW212015   4.927   6.469   3.713
 3706SOL     OW12016   1.248   2.423   4.663
 3706SOL    HW112017   1.154   2.414   4.629
 3706SOL    HW212018   1.311   2.425   4.585
 3707SOL     OW12019   5.401   3.066   4.871
 3707SOL    HW112020   5.303   3.084   4.863
 3707SOL    HW212021   5.452   3.149   4.848
 3708SOL     OW12022   6.164   0.191   6.449
 3708SOL    HW112023   6.066   0.200   6.464
 3708SOL    HW212024   6.181   0.123   6.378
 3709SOL     OW12025   3.732   1.085   6.560
 3709SOL    HW112026   3.650   1.079   6.503
 3709SOL    HW212027   3.813   1.071   6.503
 3710SOL     OW12028   6.744   6.200   0.426
 3710SOL    HW112029   6.829   6.229   0.382
 3710SOL    HW212030   6.681   6.165   0.357
 3711SOL     OW12031   0.068   5.951   2.503
 3711SOL    HW112032   0.025   5.937   2.413
 3711SOL    HW212033   0.167   5.953   2.492
 3712SOL     OW12034   0.021   6.071   6.970
 3712SOL    HW112035   0.119   6.072   6.947
 3712SOL    HW212036   7.001   6.146   6.923
 3713SOL     OW12037   1.968   6.461   4.817
 3713SOL    HW112038   1.980   6.548   4.768
 3713SOL    HW212039   2.039   6.451   4.886
 3714SOL     OW12040   5.260   6.161   4.659
 3714SOL    HW112041   5.317   6.209   4.726
 3714SOL    HW212042   5.235   6.225   4.585
 3715SOL     OW12043   5.580   4.243   5.058
 3715SOL    HW112044   5.517   4.292   4.998
 3715SOL    HW212045   5.631   4.309   5.115
 3716SOL     OW12046   0.422   6.504   4.393
 3716SOL    HW112047   0.367   6.420   4.393
 3716SOL    HW212048   0.381   6.571   4.455
 3717SOL     OW12049   6.474   5.499   0.803
 3717SOL    HW112050   6.456   5.499   0.901
 3717SOL    HW212051   6.516   5.586   0.777
 3718SOL     OW12052   2.289   6.261   6.195
 3718SOL    HW112053   2.211   6.297   6.144
 3718SOL    HW212054   2.269   6.167   6.224
 3719SOL     OW12055   5.147   4.373   1.206
 3719SOL    HW112056   5.137   4.292   1.148
 3719SOL    HW212057   5.234   4.368   1.256
 3720SOL     OW12058   5.926   2.070   6.685
 3720SOL    HW112059   5.871   2.099   6.764
 3720SOL    HW212060   5.865   2.044   6.610
 3721SOL     OW12061   5.296   4.640   0.220
 3721SOL    HW112062   5.197   4.628   0.218
 3721SOL    HW212063   5.333   4.601   0.304
 3722SOL     OW12064   0.037   6.431   2.416
 3722SOL    HW112065   0.016   6.385   2.330
 3722SOL    HW212066   0.053   6.363   2.487
 3723SOL     OW12067   5.702   6.502   1.903
 3723SOL    HW112068   5.749   6.502   1.992
 3723SOL    HW212069   5.670   6.594   1.882
 3724SOL     OW12070   2.125   5.044   6.699
 3724SOL    HW112071   2.176   5.117   6.745
 3724SOL    HW212072   2.177   5.013   6.619
 3725SOL     OW12073   5.408   6.043   6.610
 3725SOL    HW112074   5.452   6.073   6.695
 3725SOL    HW212075   5.332   6.105   6.588
 3726SOL     OW12076   6.747   4.173   1.225
 3726SOL    HW112077   6.703   4.244   1.280
 3726SOL    HW212078   6.761   4.092   1.281
 3727SOL     OW12079   0.211   2.991   6.378
 3727SOL    HW112080   0.304   2.957   6.365
 3727SOL    HW212081   0.148   2.938   6.321
 3728SOL     OW12082   1.277   3.512   0.354
 3728SOL    HW112083   1.299   3.548   0.445
 3728SOL    HW212084   1.203   3.445   0.362
 3729SOL     OW12085   1.036   2.247   3.931
 3729SOL    HW112086   0.973   2.239   3.854
 3729SOL    HW212087   1.127   2.215   3.904
 3730SOL     OW12088   2.872   6.020   6.816
 3730SOL    HW112089   2.953   6.053   6.866
 3730SOL    HW212090   2.890   5.928   6.781
 3731SOL     OW12091   4.725   1.101   0.326
 3731SOL    HW112092   4.821   1.110   0.300
 3731SOL    HW212093   4.685   1.023   0.279
 3732SOL     OW12094   2.135   2.996   6.020
 3732SOL    HW112095   2.035   2.984   6.019
 3732SOL    HW212096   2.164   3.030   6.109
 3733SOL     OW12097   2.107   3.854   1.412
 3733SOL    HW112098   2.060   3.939   1.388
 3733SOL    HW212099   2.080   3.782   1.349
 3734SOL     OW12100   4.060   1.494   1.790
 3734SOL    HW112101   4.036   1.544   1.873
 3734SOL    HW212102   4.156   1.508   1.769
 3735SOL     OW12103   0.708   1.619   3.011
 3735SOL    HW112104   0.708   1.718   3.029
 3735SOL    HW212105   0.785   1.597   2.951
 3736SOL     OW12106   0.418   3.317   1.049
 3736SOL    HW112107   0.392   3.403   1.092
 3736SOL    HW212108   0.402   3.242   1.113
 3737SOL     OW12109   4.916   0.357   3.025
 3737SOL    HW112110   4.995   0.301   3.001
 3737SOL    HW212111   4.844   0.299   3.062
 3738SOL     OW12112   6.365   6.259   3.415
 3738SOL    HW112113   6.282   6.309   3.392
 3738SOL    HW212114   6.412   6.304   3.492
 3739SOL     OW12115   1.322   3.957   2.537
 3739SOL    HW112116   1.420   3.973   2.526
 3739SOL    HW212117   1.271   4.026   2.484
 3740SOL     OW12118   4.749   0.880   6.536
 3740SOL    HW112119   4.735   0.883   6.634
 3740SOL    HW212120   4.822   0.815   6.514
 3741SOL     OW12121   4.484   3.639   1.375
 3741SOL    HW112122   4.575   3.634   1.416
 3741SOL    HW212123   4.484   3.706   1.301
 3742SOL     OW12124   2.498   2.044   5.520
 3742SOL    HW112125   2.484   2.127   5.467
 3742SOL    HW212126   2.532   1.971   5.460
 3743SOL     OW12127   5.780   4.903   0.761
 3743SOL    HW112128   5.753   4.919   0.856
 3743SOL    HW212129   5.704   4.860   0.712
 3744SOL     OW12130   0.674   5.946   3.374
 3744SOL    HW112131   0.753   5.909   3.422
 3744SOL    HW212132   0.695   5.954   3.276
 3745SOL     OW12133   2.938   5.596   2.874
 3745SOL    HW112134   3.026   5.556   2.897
 3745SOL    HW212135   2.874   5.583   2.950
 3746SOL     OW12136   4.029   1.429   1.512
 3746SOL    HW112137   4.036   1.433   1.612
 3746SOL    HW212138   3.933   1.419   1.486
 3747SOL     OW12139   2.677   6.675   6.337
 3747SOL    HW112140   2.678   6.748   6.405
 3747SOL    HW212141   2.682   6.714   6.246
 3748SOL     OW12142   5.138   0.584   1.753
 3748SOL    HW112143   5.063   0.631   1.708
 3748SOL    HW212144   5.157   0.498   1.705
 3749SOL     OW12145   1.445   6.538   4.209
 3749SOL    HW112146   1.407   6.458   4.164
 3749SOL    HW212147   1.481   6.512   4.299
 3750SOL     OW12148   1.773   3.937   0.593
 3750SOL    HW112149   1.798   3.858   0.536
 3750SOL    HW212150   1.823   3.932   0.680
 3751SOL     OW12151   0.012   3.922   2.858
 3751SOL    HW112152   0.001   3.823   2.865
 3751SOL    HW212153   0.066   3.955   2.935
 3752SOL     OW12154   5.259   0.781   5.647
 3752SOL    HW112155   5.246   0.862   5.705
 3752SOL    HW212156   5.318   0.804   5.569
 3753SOL     OW12157   5.750   0.524   4.807
 3753SOL    HW112158   5.782   0.442   4.854
 3753SOL    HW212159   5.767   0.515   4.708
 3754SOL     OW12160   1.843   0.806   2.318
 3754SOL    HW112161   1.798   0.856   2.244
 3754SOL    HW212162   1.905   0.737   2.280
 3755SOL     OW12163   3.122   5.021   4.882
 3755SOL    HW112164   3.121   5.099   4.944
 3755SOL    HW212165   3.030   4.981   4.878
 3756SOL     OW12166   3.036   5.776   6.771
 3756SOL    HW112167   3.130   5.781   6.804
 3756SOL    HW212168   3.034   5.727   6.683
 3757SOL     OW12169   6.505   5.008   1.859
 3757SOL    HW112170   6.491   5.106   1.877
 3757SOL    HW212171   6.444   4.954   1.916
 3758SOL     OW12172   2.206   0.998   4.524
 3758SOL    HW112173   2.165   0.911   4.552
 3758SOL    HW212174   2.220   0.998   4.425
 3759SOL     OW12175   4.832   0.857   4.623
 3759SOL    HW112176   4.861   0.953   4.620
 3759SOL    HW212177   4.873   0.808   4.546
 3760SOL     OW12178   0.131   0.327   3.716
 3760SOL    HW112179   0.183   0.242   3.702
 3760SOL    HW212180   0.073   0.343   3.636
 3761SOL     OW12181   6.171   1.519   4.635
 3761SOL    HW112182   6.228   1.447   4.594
 3761SOL    HW212183   6.228   1.599   4.656
 3762SOL     OW12184   1.451   3.599   2.088
 3762SOL    HW112185   1.506   3.682   2.096
 3762SOL    HW212186   1.463   3.544   2.171
 3763SOL     OW12187   6.780   3.702   0.176
 3763SOL    HW112188   6.839   3.638   0.224
 3763SOL    HW212189   6.734   3.761   0.242
 3764SOL     OW12190   1.958   0.636   2.775
 3764SOL    HW112191   2.022   0.564   2.802
 3764SOL    HW212192   1.876   0.631   2.832
 3765SOL     OW12193   5.996   1.915   1.742
 3765SOL    HW112194   6.063   1.891   1.671
 3765SOL    HW212195   6.025   1.878   1.830
 3766SOL     OW12196   2.116   2.665   4.221
 3766SOL    HW112197   2.094   2.645   4.126
 3766SOL    HW212198   2.080   2.593   4.280
 3767SOL     OW12199   3.307   4.121   6.215
 3767SOL    HW112200   3.377   4.163   6.158
 3767SOL    HW212201   3.320   4.022   6.216
 3768SOL     OW12202   2.133   0.784   4.786
 3768SOL    HW112203   2.057   0.824   4.837
 3768SOL    HW212204   2.105   0.771   4.690
 3769SOL     OW12205   5.610   5.397   4.920
 3769SOL    HW112206   5.570   5.426   5.007
 3769SOL    HW212207   5.700   5.356   4.937
 3770SOL     OW12208   1.390   1.249   0.272
 3770SOL    HW112209   1.384   1.336   0.224
 3770SOL    HW212210   1.343   1.178   0.220
 3771SOL     OW12211   6.214   4.407   0.673
 3771SOL    HW112212   6.195   4.310   0.655
 3771SOL    HW212213   6.159   4.437   0.751
 3772SOL     OW12214   1.422   6.168   0.174
 3772SOL    HW112215   1.509   6.202   0.137
 3772SOL    HW212216   1.347   6.221   0.135
 3773SOL     OW12217   5.464   4.235   6.050
 3773SOL    HW112218   5.430   4.328   6.063
 3773SOL    HW212219   5.525   4.232   5.972
 3774SOL     OW12220   5.999   4.792   2.063
 3774SOL    HW112221   5.930   4.721   2.075
 3774SOL    HW212222   6.046   4.808   2.150
 3775SOL     OW12223   3.616   4.974   3.424
 3775SOL    HW112224   3.532   4.967   3.479
 3775SOL    HW212225   3.620   5.065   3.383
 3776SOL     OW12226   3.781   2.561   6.480
 3776SOL    HW112227   3.779   2.475   6.430
 3776SOL    HW212228   3.691   2.579   6.520
 3777SOL     OW12229   2.611   5.880   3.507
 3777SOL    HW112230   2.648   5.934   3.582
 3777SOL    HW212231   2.628   5.783   3.524
 3778SOL     OW12232   2.532   6.409   4.516
 3778SOL    HW112233   2.624   6.373   4.529
 3778SOL    HW212234   2.490   6.426   4.605
 3779SOL     OW12235   0.477   5.156   0.723
 3779SOL    HW112236   0.417   5.166   0.801
 3779SOL    HW212237   0.425   5.169   0.638
 3780SOL     OW12238   6.806   2.418   2.651
 3780SOL    HW112239   6.863   2.423   2.570
 3780SOL    HW212240   6.769   2.508   2.672
 3781SOL     OW12241   1.056   6.406   5.261
 3781SOL    HW112242   1.043   6.329   5.323
 3781SOL    HW212243   1.033   6.491   5.309
 3782SOL     OW12244   4.343   6.425   2.331
 3782SOL    HW112245   4.254   6.391   2.298
 3782SOL    HW212246   4.345   6.525   2.324
 3783SOL     OW12247   5.218   4.699   5.369
 3783SOL    HW112248   5.202   4.603   5.390
 3783SOL    HW212249   5.278   4.707   5.289
 3784SOL     OW12250   5.457   2.916   2.352
 3784SOL    HW112251   5.462   2.859   2.434
 3784SOL    HW212252   5.387   2.880   2.291
 3785SOL     OW12253   0.456   3.357   5.506
 3785SOL    HW112254   0.472   3.290   5.433
 3785SOL    HW212255   0.516   3.435   5.493
 3786SOL     OW12256   2.452   2.384   3.356
 3786SOL    HW112257   2.424   2.328   3.434
 3786SOL    HW212258   2.486   2.472   3.389
 3787SOL     OW12259   4.282   0.357   3.019
 3787SOL    HW112260   4.326   0.429   2.965
 3787SOL    HW212261   4.184   0.375   3.024
 3788SOL     OW12262   6.798   4.050   5.022
 3788SOL    HW112263   6.845   4.064   5.109
 3788SOL    HW212264   6.703   4.077   5.031
 3789SOL     OW12265   0.917   3.194   3.080
 3789SOL    HW112266   1.015   3.209   3.094
 3789SOL    HW212267   0.904   3.121   3.012
 3790SOL     OW12268   1.200   5.927   6.878
 3790SOL    HW112269   1.155   6.013   6.855
 3790SOL    HW212270   1.215   5.922   6.977
 3791SOL     OW12271   5.500   1.460   6.050
 3791SOL    HW112272   5.428   1.455   6.119
 3791SOL    HW212273   5.584   1.494   6.093
 3792SOL     OW12274   0.957   0.984   4.473
 3792SOL    HW112275   0.897   0.916   4.431
 3792SOL    HW212276   1.050   0.949   4.476
 3793SOL     OW12277   6.114   5.943   1.261
 3793SOL    HW112278   6.184   5.874   1.241
 3793SOL    HW212279   6.108   6.007   1.184
 3794SOL     OW12280   1.935   3.142   0.798
 3794SOL    HW112281   1.936   3.058   0.852
 3794SOL    HW212282   2.002   3.135   0.724
 3795SOL     OW12283   3.076   6.159   0.888
 3795SOL    HW112284   3.079   6.135   0.791
 3795SOL    HW212285   3.105   6.080   0.942
 3796SOL     OW12286   4.112   2.144   1.115
 3796SOL    HW112287   4.054   2.223   1.136
 3796SOL    HW212288   4.207   2.174   1.108
 3797SOL     OW12289   1.150   4.148   2.415
 3797SOL    HW112290   1.057   4.125   2.387
 3797SOL    HW212291   1.150   4.235   2.465
 3798SOL     OW12292   2.377   0.297   2.707
 3798SOL    HW112293   2.469   0.322   2.739
 3798SOL    HW212294   2.346   0.216   2.757
 3799SOL     OW12295   6.679   2.475   3.091
 3799SOL    HW112296   6.739   2.407   3.048
 3799SOL    HW212297   6.585   2.441   3.091
 3800SOL     OW12298   4.823   1.818   2.742
 3800SOL    HW112299   4.867   1.844   2.828
 3800SOL    HW212300   4.814   1.899   2.683
 3801SOL     OW12301   5.231   6.778   2.271
 3801SOL    HW112302   5.298   6.812   2.205
 3801SOL    HW212303   5.186   6.855   2.316
 3802SOL     OW12304   0.546   1.927   2.325
 3802SOL    HW112305   0.644   1.936   2.343
 3802SOL    HW212306   0.529   1.843   2.272
 3803SOL     OW12307   3.769   3.559   3.713
 3803SOL    HW112308   3.759   3.603   3.802
 3803SOL    HW212309   3.724   3.469   3.715
 3804SOL     OW12310   2.977   1.277   4.559
 3804SOL    HW112311   3.027   1.357   4.525
 3804SOL    HW212312   3.037   1.197   4.558
 3805SOL     OW12313   2.470   2.494   0.697
 3805SOL    HW112314   2.476   2.552   0.616
 3805SOL    HW212315   2.523   2.411   0.682
 3806SOL     OW12316   4.032   3.587   6.334
 3806SOL    HW112317   4.080   3.625   6.254
 3806SOL    HW212318   3.984   3.661   6.382
 3807SOL     OW12319   1.609   5.224   4.457
 3807SOL    HW112320   1.708   5.236   4.466
 3807SOL    HW212321   1.588   5.127   4.455
 3808SOL     OW12322   4.847   0.507   5.734
 3808SOL    HW112323   4.763   0.545   5.774
 3808SOL    HW212324   4.836   0.500   5.634
 3809SOL     OW12325   6.390   1.763   1.516
 3809SOL    HW112326   6.430   1.703   1.585
 3809SOL    HW212327   6.425   1.856   1.528
 3810SOL     OW12328   7.016   2.982   3.431
 3810SOL    HW112329   7.021   3.004   3.529
 3810SOL    HW212330   0.040   3.052   3.380
 3811SOL     OW12331   0.035   6.033   4.635
 3811SOL    HW112332   0.059   6.001   4.543
 3811SOL    HW212333   6.990   6.103   4.628
 3812SOL     OW12334   3.130   5.284   6.595
 3812SOL    HW112335   3.105   5.243   6.683
 3812SOL    HW212336   3.222   5.323   6.601
 3813SOL     OW12337   6.248   4.016   1.111
 3813SOL    HW112338   6.172   3.961   1.146
 3813SOL    HW212339   6.213   4.082   1.044
 3814SOL     OW12340   6.915   6.918   4.033
 3814SOL    HW112341   6.815   6.913   4.031
 3814SOL    HW212342   6.952   6.826   4.027
 3815SOL     OW12343   5.218   3.005   0.247
 3815SOL    HW112344   5.255   2.935   0.186
 3815SOL    HW212345   5.217   2.969   0.341
 3816SOL     OW12346   0.669   6.399   5.122
 3816SOL    HW112347   0.671   6.446   5.211
 3816SOL    HW212348   0.762   6.389   5.088
 3817SOL     OW12349   4.866   3.458   2.649
 3817SOL    HW112350   4.807   3.528   2.690
 3817SOL    HW212351   4.944   3.503   2.604
 3818SOL     OW12352   0.297   0.644   1.397
 3818SOL    HW112353   0.249   0.623   1.482
 3818SOL    HW212354   0.392   0.668   1.417
 3819SOL     OW12355   6.636   4.185   2.700
 3819SOL    HW112356   6.545   4.167   2.738
 3819SOL    HW212357   6.706   4.151   2.762
 3820SOL     OW12358   5.488   6.645   3.770
 3820SOL    HW112359   5.456   6.570   3.827
 3820SOL    HW212360   5.587   6.636   3.757
 3821SOL     OW12361   0.716   0.348   0.587
 3821SOL    HW112362   0.715   0.253   0.618
 3821SOL    HW212363   0.806   0.388   0.604
 3822SOL     OW12364   3.380   0.046   0.088
 3822SOL    HW112365   3.425   0.041   7.025
 3822SOL    HW212366   3.427   0.113   0.146
 3823SOL     OW12367   4.533   4.503   6.341
 3823SOL    HW112368   4.489   4.560   6.271
 3823SOL    HW212369   4.632   4.502   6.326
 3824SOL     OW12370   0.924   2.422   0.726
 3824SOL    HW112371   0.997   2.450   0.665
 3824SOL    HW212372   0.866   2.354   0.681
 3825SOL     OW12373   0.992   4.319   1.161
 3825SOL    HW112374   0.951   4.252   1.099
 3825SOL    HW212375   0.993   4.409   1.116
 3826SOL     OW12376   0.278   3.817   2.545
 3826SOL    HW112377   0.208   3.889   2.550
 3826SOL    HW212378   0.349   3.845   2.480
 3827SOL     OW12379   0.545   0.979   1.914
 3827SOL    HW112380   0.621   1.007   1.855
 3827SOL    HW212381   0.479   0.927   1.860
 3828SOL     OW12382   3.686   3.790   4.681
 3828SOL    HW112383   3.617   3.858   4.654
 3828SOL    HW212384   3.689   3.784   4.780
 3829SOL     OW12385   0.511   4.856   1.951
 3829SOL    HW112386   0.572   4.935   1.960
 3829SOL    HW212387   0.562   4.773   1.969
 3830SOL     OW12388   0.344   0.681   5.382
 3830SOL    HW112389   0.318   0.591   5.348
 3830SOL    HW212390   0.380   0.735   5.306
 3831SOL     OW12391   4.151   2.172   3.048
 3831SOL    HW112392   4.090   2.190   3.125
 3831SOL    HW212393   4.243   2.203   3.071
 3832SOL     OW12394   7.016   0.551   2.186
 3832SOL    HW112395   6.924   0.527   2.217
 3832SOL    HW212396   0.026   0.627   2.240
 3833SOL     OW12397   1.934   6.785   6.635
 3833SOL    HW112398   2.026   6.780   6.675
 3833SOL    HW212399   1.941   6.779   6.535
 3834SOL     OW12400   4.041   4.340   1.048
 3834SOL    HW112401   4.125   4.293   1.076
 3834SOL    HW212402   3.975   4.339   1.124
 3835SOL     OW12403   4.001   5.571   5.045
 3835SOL    HW112404   4.075   5.625   5.005
 3835SOL    HW212405   3.913   5.616   5.026
 3836SOL     OW12406   0.478   4.644   5.533
 3836SOL    HW112407   0.473   4.594   5.620
 3836SOL    HW212408   0.404   4.711   5.529
 3837SOL     OW12409   4.160   5.359   5.000
 3837SOL    HW112410   4.151   5.329   4.905
 3837SOL    HW212411   4.102   5.438   5.016
 3838SOL     OW12412   1.538   1.505   3.184
 3838SOL    HW112413   1.565   1.601   3.184
 3838SOL    HW212414   1.466   1.490   3.251
 3839SOL     OW12415   3.936   0.721   2.712
 3839SOL    HW112416   3.841   0.752   2.722
 3839SOL    HW212417   3.994   0.772   2.776
 3840SOL     OW12418   2.559   1.583   5.582
 3840SOL    HW112419   2.612   1.611   5.502
 3840SOL    HW212420   2.561   1.483   5.590
 3841SOL     OW12421   1.427   4.531   4.517
 3841SOL    HW112422   1.329   4.515   4.505
 3841SOL    HW212423   1.475   4.443   4.523
 3842SOL     OW12424   2.406   2.709   3.983
 3842SOL    HW112425   2.425   2.632   4.045
 3842SOL    HW212426   2.379   2.674   3.893
 3843SOL     OW12427   5.675   3.692   0.884
 3843SOL    HW112428   5.772   3.719   0.886
 3843SOL    HW212429   5.669   3.593   0.870
 3844SOL     OW12430   0.998   4.279   6.905
 3844SOL    HW112431   1.017   4.283   7.003
 3844SOL    HW212432   0.984   4.183   6.878
 3845SOL     OW12433   2.446   6.061   0.063
 3845SOL    HW112434   2.383   6.046   7.014
 3845SOL    HW212435   2.528   6.108   0.029
 3846SOL     OW12436   0.589   3.397   4.262
 3846SOL    HW112437   0.673   3.372   4.213
 3846SOL    HW212438   0.600   3.487   4.302
 3847SOL     OW12439   4.998   2.298   4.492
 3847SOL    HW112440   4.943   2.348   4.559
 3847SOL    HW212441   4.980   2.335   4.401
 3848SOL     OW12442   4.848   3.744   2.739
 3848SOL    HW112443   4.890   3.718   2.826
 3848SOL    HW212444   4.772   3.808   2.757
 3849SOL     OW12445   0.841   0.295   6.203
 3849SOL    HW112446   0.793   0.230   6.144
 3849SOL    HW212447   0.940   0.281   6.194
 3850SOL     OW12448   3.212   2.758   1.401
 3850SOL    HW112449   3.223   2.699   1.481
 3850SOL    HW212450   3.161   2.709   1.330
 3851SOL     OW12451   0.112   4.896   3.384
 3851SOL    HW112452   0.064   4.947   3.313
 3851SOL    HW212453   0.053   4.885   3.464
 3852SOL     OW12454   3.537   6.256   4.335
 3852SOL    HW112455   3.563   6.269   4.431
 3852SOL    HW212456   3.569   6.334   4.281
 3853SOL     OW12457   1.378   2.484   3.163
 3853SOL    HW112458   1.301   2.488   3.100
 3853SOL    HW212459   1.381   2.567   3.217
 3854SOL     OW12460   1.038   2.805   3.135
 3854SOL    HW112461   1.006   2.865   3.062
 3854SOL    HW212462   1.014   2.710   3.114
 3855SOL     OW12463   3.906   6.191   6.738
 3855SOL    HW112464   3.959   6.162   6.658
 3855SOL    HW212465   3.811   6.208   6.711
 3856SOL     OW12466   0.294   1.333   6.134
 3856SOL    HW112467   0.334   1.311   6.045
 3856SOL    HW212468   0.251   1.424   6.130
 3857SOL     OW12469   1.379   6.453   6.177
 3857SOL    HW112470   1.350   6.464   6.272
 3857SOL    HW212471   1.473   6.417   6.175
 3858SOL     OW12472   3.503   1.369   6.056
 3858SOL    HW112473   3.476   1.293   5.998
 3858SOL    HW212474   3.494   1.455   6.005
 3859SOL     OW12475   6.175   0.937   1.714
 3859SOL    HW112476   6.125   0.924   1.799
 3859SOL    HW212477   6.144   1.021   1.669
 3860SOL     OW12478   1.878   1.215   4.430
 3860SOL    HW112479   1.965   1.246   4.468
 3860SOL    HW212480   1.806   1.282   4.450
 3861SOL     OW12481   4.770   6.397   3.131
 3861SOL    HW112482   4.777   6.297   3.125
 3861SOL    HW212483   4.734   6.432   3.044
 3862SOL     OW12484   0.606   0.300   4.381
 3862SOL    HW112485   0.642   0.390   4.356
 3862SOL    HW212486   0.650   0.268   4.465
 3863SOL     OW12487   6.201   1.460   6.555
 3863SOL    HW112488   6.222   1.495   6.464
 3863SOL    HW212489   6.102   1.458   6.569
 3864SOL     OW12490   2.023   0.683   5.307
 3864SOL    HW112491   2.114   0.721   5.321
 3864SOL    HW212492   2.015   0.597   5.358
 3865SOL     OW12493   4.044   1.301   1.049
 3865SOL    HW112494   4.035   1.206   1.079
 3865SOL    HW212495   3.968   1.354   1.085
 3866SOL     OW12496   3.982   1.096   6.779
 3866SOL    HW112497   4.023   1.005   6.783
 3866SOL    HW212498   3.888   1.091   6.812
 3867SOL     OW12499   1.329   4.279   3.163
 3867SOL    HW112500   1.391   4.277   3.084
 3867SOL    HW212501   1.336   4.368   3.208
 3868SOL     OW12502   4.010   0.376   6.959
 3868SOL    HW112503   4.022   0.317   0.012
 3868SOL    HW212504   4.067   0.344   6.883
 3869SOL     OW12505   6.796   3.023   3.856
 3869SOL    HW112506   6.801   3.118   3.889
 3869SOL    HW212507   6.786   3.023   3.757
 3870SOL     OW12508   6.920   6.429   1.275
 3870SOL    HW112509   7.010   6.449   1.236
 3870SOL    HW212510   6.855   6.412   1.201
 3871SOL     OW12511   3.408   0.801   3.145
 3871SOL    HW112512   3.408   0.751   3.232
 3871SOL    HW212513   3.445   0.893   3.160
 3872SOL     OW12514   3.034   3.508   3.851
 3872SOL    HW112515   2.966   3.520   3.779
 3872SOL    HW212516   3.041   3.411   3.874
 3873SOL     OW12517   5.965   4.370   1.130
 3873SOL    HW112518   5.916   4.458   1.126
 3873SOL    HW212519   5.922   4.312   1.199
 3874SOL     OW12520   4.125   0.637   6.994
 3874SOL    HW112521   4.088   0.557   6.946
 3874SOL    HW212522   4.071   0.656   0.049
 3875SOL     OW12523   1.991   2.763   3.506
 3875SOL    HW112524   2.036   2.690   3.455
 3875SOL    HW212525   2.059   2.830   3.536
 3876SOL     OW12526   3.654   5.288   0.727
 3876SOL    HW112527   3.611   5.200   0.746
 3876SOL    HW212528   3.745   5.290   0.769
 3877SOL     OW12529   6.089   2.551   1.264
 3877SOL    HW112530   6.141   2.466   1.271
 3877SOL    HW212531   6.046   2.571   1.352
 3878SOL     OW12532   4.750   6.450   4.320
 3878SOL    HW112533   4.735   6.372   4.259
 3878SOL    HW212534   4.664   6.473   4.366
 3879SOL     OW12535   6.041   5.522   0.783
 3879SOL    HW112536   5.994   5.576   0.852
 3879SOL    HW212537   6.124   5.570   0.753
 3880SOL     OW12538   5.095   4.030   4.708
 3880SOL    HW112539   5.136   4.073   4.627
 3880SOL    HW212540   5.016   4.083   4.738
 3881SOL     OW12541   1.254   3.442   1.427
 3881SOL    HW112542   1.276   3.387   1.509
 3881SOL    HW212543   1.327   3.509   1.413
 3882SOL     OW12544   0.589   0.931   5.976
 3882SOL    HW112545   0.627   0.896   6.062
 3882SOL    HW212546   0.515   0.995   5.997
 3883SOL     OW12547   3.989   1.485   2.225
 3883SOL    HW112548   4.001   1.496   2.323
 3883SOL    HW212549   3.893   1.500   2.200
 3884SOL     OW12550   0.629   5.616   2.193
 3884SOL    HW112551   0.563   5.662   2.132
 3884SOL    HW212552   0.678   5.685   2.246
 3885SOL     OW12553   6.738   5.223   2.947
 3885SOL    HW112554   6.760   5.320   2.940
 3885SOL    HW212555   6.672   5.209   3.021
 3886SOL     OW12556   4.702   5.805   5.100
 3886SOL    HW112557   4.795   5.774   5.119
 3886SOL    HW212558   4.668   5.858   5.177
 3887SOL     OW12559   1.058   0.317   7.004
 3887SOL    HW112560   0.974   0.315   0.032
 3887SOL    HW212561   1.136   0.333   0.038
 3888SOL     OW12562   6.421   0.059   5.033
 3888SOL    HW112563   6.337   0.010   5.008
 3888SOL    HW212564   6.476   0.074   4.951
 3889SOL     OW12565   6.879   3.583   0.572
 3889SOL    HW112566   6.910   3.578   0.477
 3889SOL    HW212567   6.779   3.576   0.575
 3890SOL     OW12568   6.767   4.348   3.576
 3890SOL    HW112569   6.730   4.431   3.534
 3890SOL    HW212570   6.857   4.329   3.538
 3891SOL     OW12571   5.673   3.966   4.148
 3891SOL    HW112572   5.576   3.952   4.172
 3891SOL    HW212573   5.679   4.002   4.055
 3892SOL     OW12574   0.068   2.107   1.632
 3892SOL    HW112575   0.132   2.104   1.555
 3892SOL    HW212576   0.086   2.029   1.693
 3893SOL     OW12577   4.177   3.323   0.007
 3893SOL    HW112578   4.148   3.292   6.942
 3893SOL    HW212579   4.141   3.415   0.024
 3894SOL     OW12580   4.346   1.251   0.059
 3894SOL    HW112581   4.424   1.244   0.122
 3894SOL    HW212582   4.290   1.169   0.068
 3895SOL     OW12583   1.004   0.550   5.540
 3895SOL    HW112584   0.984   0.585   5.632
 3895SOL    HW212585   0.937   0.586   5.476
 3896SOL     OW12586   0.344   1.240   5.879
 3896SOL    HW112587   0.321   1.143   5.874
 3896SOL    HW212588   0.440   1.253   5.856
 3897SOL     OW12589   4.069   5.468   2.483
 3897SOL    HW112590   4.020   5.554   2.493
 3897SOL    HW212591   4.018   5.408   2.421
 3898SOL     OW12592   2.859   3.040   5.920
 3898SOL    HW112593   2.952   3.074   5.934
 3898SOL    HW212594   2.850   3.004   5.826
 3899SOL     OW12595   4.451   6.751   5.268
 3899SOL    HW112596   4.517   6.696   5.318
 3899SOL    HW212597   4.475   6.754   5.171
 3900SOL     OW12598   4.982   3.191   3.624
 3900SOL    HW112599   4.895   3.145   3.606
 3900SOL    HW212600   4.984   3.278   3.576
 3901SOL     OW12601   3.053   0.596   5.945
 3901SOL    HW112602   3.101   0.587   5.858
 3901SOL    HW212603   3.120   0.603   6.019
 3902SOL     OW12604   6.108   2.819   2.011
 3902SOL    HW112605   6.038   2.749   2.027
 3902SOL    HW212606   6.197   2.784   2.041
 3903SOL     OW12607   3.723   6.048   0.383
 3903SOL    HW112608   3.811   6.087   0.357
 3903SOL    HW212609   3.688   5.992   0.307
 3904SOL     OW12610   2.622   1.136   5.912
 3904SOL    HW112611   2.647   1.229   5.940
 3904SOL    HW212612   2.539   1.140   5.857
 3905SOL     OW12613   0.383   0.201   6.892
 3905SOL    HW112614   0.450   0.139   6.851
 3905SOL    HW212615   0.321   0.149   6.951
 3906SOL     OW12616   5.522   6.106   5.910
 3906SOL    HW112617   5.427   6.077   5.912
 3906SOL    HW212618   5.555   6.108   5.816
 3907SOL     OW12619   5.694   0.792   3.651
 3907SOL    HW112620   5.601   0.779   3.688
 3907SOL    HW212621   5.701   0.744   3.564
 3908SOL     OW12622   1.060   2.409   0.487
 3908SOL    HW112623   1.114   2.450   0.413
 3908SOL    HW212624   0.976   2.370   0.449
 3909SOL     OW12625   6.515   5.889   5.711
 3909SOL    HW112626   6.484   5.978   5.677
 3909SOL    HW212627   6.471   5.816   5.659
 3910SOL     OW12628   3.778   3.754   2.630
 3910SOL    HW112629   3.778   3.841   2.679
 3910SOL    HW212630   3.869   3.713   2.636
 3911SOL     OW12631   4.954   1.337   5.362
 3911SOL    HW112632   5.019   1.266   5.336
 3911SOL    HW212633   5.004   1.419   5.389
 3912SOL     OW12634   5.119   1.050   5.087
 3912SOL    HW112635   5.025   1.073   5.060
 3912SOL    HW212636   5.176   1.042   5.006
 3913SOL     OW12637   2.532   6.456   6.367
 3913SOL    HW112638   2.586   6.539   6.351
 3913SOL    HW212639   2.441   6.482   6.398
 3914SOL     OW12640   3.005   0.848   0.977
 3914SOL    HW112641   3.032   0.759   0.941
 3914SOL    HW212642   3.079   0.885   1.034
 3915SOL     OW12643   4.863   5.456   1.446
 3915SOL    HW112644   4.857   5.425   1.351
 3915SOL    HW212645   4.905   5.384   1.502
 3916SOL     OW12646   1.343   0.659   4.340
 3916SOL    HW112647   1.430   0.631   4.300
 3916SOL    HW212648   1.306   0.737   4.289
 3917SOL     OW12649   6.261   5.907   0.059
 3917SOL    HW112650   6.313   5.959   0.127
 3917SOL    HW212651   6.167   5.940   0.056
 3918SOL     OW12652   4.892   5.981   1.430
 3918SOL    HW112653   4.884   6.035   1.346
 3918SOL    HW212654   4.920   5.888   1.407
 3919SOL     OW12655   3.076   6.504   6.398
 3919SOL    HW112656   2.979   6.502   6.372
 3919SOL    HW212657   3.124   6.426   6.357
 3920SOL     OW12658   3.005   3.164   0.874
 3920SOL    HW112659   2.986   3.169   0.775
 3920SOL    HW212660   3.054   3.080   0.894
 3921SOL     OW12661   0.152   3.588   1.670
 3921SOL    HW112662   0.089   3.589   1.747
 3921SOL    HW212663   0.232   3.532   1.693
 3922SOL     OW12664   6.615   3.004   2.056
 3922SOL    HW112665   6.591   2.954   1.973
 3922SOL    HW212666   6.714   3.012   2.063
 3923SOL     OW12667   6.613   0.938   0.071
 3923SOL    HW112668   6.623   0.911   7.002
 3923SOL    HW212669   6.593   1.036   0.076
 3924SOL     OW12670   0.535   4.765   3.699
 3924SOL    HW112671   0.478   4.847   3.690
 3924SOL    HW212672   0.528   4.710   3.616
 3925SOL     OW12673   3.260   5.138   0.881
 3925SOL    HW112674   3.172   5.130   0.835
 3925SOL    HW212675   3.246   5.172   0.975
 3926SOL     OW12676   7.012   5.894   3.087
 3926SOL    HW112677   0.059   5.868   3.150
 3926SOL    HW212678   7.018   5.838   3.004
 3927SOL     OW12679   6.827   2.755   3.524
 3927SOL    HW112680   6.863   2.846   3.503
 3927SOL    HW212681   6.901   2.698   3.558
 3928SOL     OW12682   3.602   6.281   5.929
 3928SOL    HW112683   3.668   6.249   5.997
 3928SOL    HW212684   3.538   6.345   5.971
 3929SOL     OW12685   0.123   0.847   5.196
 3929SOL    HW112686   0.082   0.817   5.282
 3929SOL    HW212687   0.190   0.919   5.213
 3930SOL     OW12688   2.436   2.134   3.913
 3930SOL    HW112689   2.424   2.064   3.843
 3930SOL    HW212690   2.424   2.094   4.004
 3931SOL     OW12691   1.647   1.189   1.672
 3931SOL    HW112692   1.706   1.110   1.658
 3931SOL    HW212693   1.564   1.179   1.617
 3932SOL     OW12694   1.827   4.783   3.612
 3932SOL    HW112695   1.863   4.741   3.695
 3932SOL    HW212696   1.826   4.715   3.538
 3933SOL     OW12697   2.399   6.283   6.798
 3933SOL    HW112698   2.339   6.312   6.872
 3933SOL    HW212699   2.448   6.362   6.761
 3934SOL     OW12700   6.602   1.156   0.428
 3934SOL    HW112701   6.641   1.243   0.396
 3934SOL    HW212702   6.675   1.095   0.457
 3935SOL     OW12703   2.685   6.496   6.909
 3935SOL    HW112704   2.782   6.480   6.890
 3935SOL    HW212705   2.632   6.486   6.825
 3936SOL     OW12706   0.238   5.102   5.587
 3936SOL    HW112707   0.226   5.021   5.530
 3936SOL    HW212708   0.313   5.085   5.652
 3937SOL     OW12709   6.911   1.962   3.419
 3937SOL    HW112710   6.859   1.897   3.363
 3937SOL    HW212711   6.991   1.916   3.458
 3938SOL     OW12712   0.168   2.351   4.019
 3938SOL    HW112713   0.109   2.402   3.956
 3938SOL    HW212714   0.263   2.378   4.005
 3939SOL     OW12715   2.468   2.164   2.610
 3939SOL    HW112716   2.418   2.168   2.523
 3939SOL    HW212717   2.404   2.174   2.686
 3940SOL     OW12718   4.805   5.333   1.195
 3940SOL    HW112719   4.863   5.270   1.143
 3940SOL    HW212720   4.730   5.282   1.237
 3941SOL     OW12721   5.063   3.154   6.060
 3941SOL    HW112722   5.034   3.086   6.127
 3941SOL    HW212723   5.114   3.227   6.106
 3942SOL     OW12724   0.543   7.017   6.784
 3942SOL    HW112725   0.553   6.969   6.872
 3942SOL    HW212726   0.465   6.979   6.734
 3943SOL     OW12727   0.136   3.716   3.007
 3943SOL    HW112728   0.147   3.709   3.106
 3943SOL    HW212729   0.177   3.635   2.964
 3944SOL     OW12730   4.715   2.891   4.990
 3944SOL    HW112731   4.735   2.960   5.059
 3944SOL    HW212732   4.631   2.842   5.016
 3945SOL     OW12733   6.981   1.712   0.607
 3945SOL    HW112734   0.028   1.708   0.674
 3945SOL    HW212735   6.913   1.642   0.627
 3946SOL     OW12736   5.540   5.531   5.600
 3946SOL    HW112737   5.490   5.606   5.557
 3946SOL    HW212738   5.601   5.567   5.671
 3947SOL     OW12739   5.781   5.780   0.658
 3947SOL    HW112740   5.697   5.734   0.631
 3947SOL    HW212741   5.834   5.804   0.577
 3948SOL     OW12742   1.222   5.718   1.966
 3948SOL    HW112743   1.272   5.703   2.052
 3948SOL    HW212744   1.246   5.646   1.901
 3949SOL     OW12745   4.881   0.526   3.292
 3949SOL    HW112746   4.967   0.558   3.253
 3949SOL    HW212747   4.812   0.518   3.219
 3950SOL     OW12748   1.773   4.116   1.202
 3950SOL    HW112749   1.700   4.064   1.247
 3950SOL    HW212750   1.751   4.214   1.205
 3951SOL     OW12751   5.559   6.752   0.833
 3951SOL    HW112752   5.479   6.802   0.801
 3951SOL    HW212753   5.555   6.657   0.800
 3952SOL     OW12754   6.442   3.158   3.032
 3952SOL    HW112755   6.383   3.208   2.969
 3952SOL    HW212756   6.524   3.127   2.984
 3953SOL     OW12757   3.865   4.797   1.671
 3953SOL    HW112758   3.939   4.858   1.699
 3953SOL    HW212759   3.901   4.706   1.651
 3954SOL     OW12760   4.315   5.050   4.899
 3954SOL    HW112761   4.318   4.976   4.831
 3954SOL    HW212762   4.396   5.108   4.889
 3955SOL     OW12763   3.237   5.703   6.533
 3955SOL    HW112764   3.195   5.741   6.450
 3955SOL    HW212765   3.287   5.775   6.581
 3956SOL     OW12766   6.875   0.969   3.636
 3956SOL    HW112767   6.906   0.878   3.664
 3956SOL    HW212768   6.776   0.967   3.621
 3957SOL     OW12769   4.673   6.174   4.209
 3957SOL    HW112770   4.680   6.167   4.110
 3957SOL    HW212771   4.718   6.096   4.252
 3958SOL     OW12772   5.904   1.605   4.766
 3958SOL    HW112773   5.888   1.609   4.865
 3958SOL    HW212774   6.002   1.602   4.749
 3959SOL     OW12775   4.272   6.854   0.673
 3959SOL    HW112776   4.343   6.924   0.680
 3959SOL    HW212777   4.224   6.847   0.760
 3960SOL     OW12778   4.805   1.712   0.116
 3960SOL    HW112779   4.737   1.779   0.088
 3960SOL    HW212780   4.842   1.666   0.035
 3961SOL     OW12781   5.173   2.048   2.326
 3961SOL    HW112782   5.196   2.103   2.245
 3961SOL    HW212783   5.228   1.964   2.325
 3962SOL     OW12784   2.809   4.092   0.475
 3962SOL    HW112785   2.894   4.094   0.422
 3962SOL    HW212786   2.815   4.023   0.547
 3963SOL     OW12787   4.698   4.748   3.880
 3963SOL    HW112788   4.603   4.720   3.894
 3963SOL    HW212789   4.731   4.711   3.793
 3964SOL     OW12790   4.379   4.933   4.140
 3964SOL    HW112791   4.387   4.940   4.040
 3964SOL    HW212792   4.383   4.837   4.167
 3965SOL     OW12793   4.834   2.909   5.477
 3965SOL    HW112794   4.793   2.922   5.567
 3965SOL    HW212795   4.808   2.818   5.442
 3966SOL     OW12796   4.761   6.107   6.618
 3966SOL    HW112797   4.696   6.032   6.628
 3966SOL    HW212798   4.848   6.072   6.583
 3967SOL     OW12799   2.058   3.369   2.396
 3967SOL    HW112800   2.045   3.447   2.457
 3967SOL    HW212801   2.108   3.297   2.445
 3968SOL     OW12802   4.637   0.436   1.341
 3968SOL    HW112803   4.659   0.339   1.351
 3968SOL    HW212804   4.630   0.477   1.432
 3969SOL     OW12805   1.523   4.362   2.168
 3969SOL    HW112806   1.581   4.354   2.250
 3969SOL    HW212807   1.462   4.283   2.164
 3970SOL     OW12808   6.246   6.425   3.777
 3970SOL    HW112809   6.335   6.388   3.750
 3970SOL    HW212810   6.243   6.436   3.876
 3971SOL     OW12811   3.191   5.496   2.923
 3971SOL    HW112812   3.196   5.515   3.021
 3971SOL    HW212813   3.235   5.408   2.904
 3972SOL     OW12814   1.512   4.010   0.640
 3972SOL    HW112815   1.606   3.980   0.620
 3972SOL    HW212816   1.514   4.081   0.710
 3973SOL     OW12817   1.675   5.466   6.839
 3973SOL    HW112818   1.602   5.408   6.803
 3973SOL    HW212819   1.640   5.559   6.853
 3974SOL     OW12820   1.823   0.492   4.799
 3974SOL    HW112821   1.831   0.554   4.877
 3974SOL    HW212822   1.784   0.542   4.721
 3975SOL     OW12823   5.474   1.378   5.648
 3975SOL    HW112824   5.400   1.387   5.715
 3975SOL    HW212825   5.559   1.416   5.687
 3976SOL     OW12826   1.786   5.854   1.650
 3976SOL    HW112827   1.885   5.861   1.658
 3976SOL    HW212828   1.744   5.942   1.674
 3977SOL     OW12829   2.479   3.760   5.483
 3977SOL    HW112830   2.508   3.666   5.471
 3977SOL    HW212831   2.398   3.778   5.426
 3978SOL     OW12832   5.842   4.975   4.682
 3978SOL    HW112833   5.835   4.961   4.584
 3978SOL    HW212834   5.936   5.001   4.706
 3979SOL     OW12835   2.855   0.188   1.021
 3979SOL    HW112836   2.800   0.235   1.090
 3979SOL    HW212837   2.941   0.157   1.063
 3980SOL     OW12838   5.628   6.014   0.302
 3980SOL    HW112839   5.611   5.942   0.235
 3980SOL    HW212840   5.580   5.993   0.387
 3981SOL     OW12841   2.883   0.680   0.402
 3981SOL    HW112842   2.870   0.655   0.498
 3981SOL    HW212843   2.971   0.646   0.369
 3982SOL     OW12844   2.350   0.338   3.029
 3982SOL    HW112845   2.341   0.426   3.076
 3982SOL    HW212846   2.435   0.294   3.058
 3983SOL     OW12847   5.351   4.614   3.988
 3983SOL    HW112848   5.278   4.665   3.942
 3983SOL    HW212849   5.320   4.521   4.007
 3984SOL     OW12850   6.529   1.341   3.222
 3984SOL    HW112851   6.601   1.272   3.216
 3984SOL    HW212852   6.443   1.302   3.190
 3985SOL     OW12853   3.024   4.529   6.510
 3985SOL    HW112854   3.008   4.435   6.539
 3985SOL    HW212855   2.937   4.576   6.500
 3986SOL     OW12856   5.007   2.272   2.791
 3986SOL    HW112857   5.049   2.300   2.877
 3986SOL    HW212858   5.026   2.340   2.721
 3987SOL     OW12859   3.631   5.401   3.496
 3987SOL    HW112860   3.645   5.316   3.548
 3987SOL    HW212861   3.682   5.475   3.539
 3988SOL     OW12862   3.836   3.986   6.652
 3988SOL    HW112863   3.782   4.016   6.730
 3988SOL    HW212864   3.928   4.026   6.658
 3989SOL     OW12865   6.107   3.059   6.823
 3989SOL    HW112866   6.147   2.968   6.831
 3989SOL    HW212867   6.150   3.121   6.888
 3990SOL     OW12868   4.472   2.103   2.800
 3990SOL    HW112869   4.407   2.172   2.833
 3990SOL    HW212870   4.476   2.106   2.701
 3991SOL     OW12871   5.990   1.018   2.941
 3991SOL    HW112872   6.011   1.053   3.032
 3991SOL    HW212873   6.072   0.974   2.903
 3992SOL     OW12874   2.978   1.837   6.681
 3992SOL    HW112875   2.965   1.783   6.598
 3992SOL    HW212876   3.037   1.787   6.744
 3993SOL     OW12877   1.367   1.780   2.684
 3993SOL    HW112878   1.434   1.744   2.748
 3993SOL    HW212879   1.411   1.847   2.624
 3994SOL     OW12880   2.006   0.257   5.754
 3994SOL    HW112881   2.046   0.332   5.808
 3994SOL    HW212882   2.031   0.267   5.658
 3995SOL     OW12883   2.482   3.635   6.103
 3995SOL    HW112884   2.423   3.618   6.024
 3995SOL    HW212885   2.537   3.554   6.122
 3996SOL     OW12886   1.155   0.437   4.327
 3996SOL    HW112887   1.178   0.356   4.273
 3996SOL    HW212888   1.213   0.514   4.298
 3997SOL     OW12889   4.972   1.636   3.733
 3997SOL    HW112890   5.063   1.628   3.774
 3997SOL    HW212891   4.968   1.719   3.678
 3998SOL     OW12892   4.216   1.528   3.655
 3998SOL    HW112893   4.236   1.622   3.628
 3998SOL    HW212894   4.153   1.528   3.733
 3999SOL     OW12895   5.942   3.759   3.987
 3999SOL    HW112896   6.021   3.699   3.979
 3999SOL    HW212897   5.914   3.766   4.082
 4000SOL     OW12898   3.317   6.287   3.447
 4000SOL    HW112899   3.247   6.264   3.380
 4000SOL    HW212900   3.393   6.334   3.402
 4001SOL     OW12901   2.184   2.127   3.533
 4001SOL    HW112902   2.186   2.121   3.433
 4001SOL    HW212903   2.235   2.208   3.563
 4002SOL     OW12904   3.507   4.138   0.092
 4002SOL    HW112905   3.459   4.198   0.155
 4002SOL    HW212906   3.487   4.042   0.116
 4003SOL     OW12907   3.813   6.784   4.340
 4003SOL    HW112908   3.820   6.819   4.434
 4003SOL    HW212909   3.745   6.837   4.289
 4004SOL     OW12910   4.929   1.972   4.049
 4004SOL    HW112911   5.005   1.968   3.984
 4004SOL    HW212912   4.847   1.932   4.007
 4005SOL     OW12913   5.224   4.959   0.333
 4005SOL    HW112914   5.239   5.052   0.367
 4005SOL    HW212915   5.308   4.925   0.289
 4006SOL     OW12916   4.588   5.272   2.773
 4006SOL    HW112917   4.665   5.209   2.784
 4006SOL    HW212918   4.602   5.352   2.831
 4007SOL     OW12919   0.241   2.353   0.650
 4007SOL    HW112920   0.253   2.451   0.667
 4007SOL    HW212921   0.327   2.315   0.615
 4008SOL     OW12922   3.195   1.749   3.888
 4008SOL    HW112923   3.214   1.818   3.818
 4008SOL    HW212924   3.253   1.766   3.968
 4009SOL     OW12925   4.244   3.359   1.446
 4009SOL    HW112926   4.237   3.435   1.381
 4009SOL    HW212927   4.182   3.286   1.420
 4010SOL     OW12928   2.500   3.310   1.079
 4010SOL    HW112929   2.598   3.303   1.059
 4010SOL    HW212930   2.476   3.406   1.091
 4011SOL     OW12931   0.572   1.422   2.003
 4011SOL    HW112932   0.599   1.462   2.091
 4011SOL    HW212933   0.539   1.329   2.017
 4012SOL     OW12934   5.539   4.815   1.963
 4012SOL    HW112935   5.452   4.791   2.004
 4012SOL    HW212936   5.567   4.906   1.994
 4013SOL     OW12937   2.960   1.491   5.432
 4013SOL    HW112938   3.013   1.437   5.497
 4013SOL    HW212939   2.941   1.581   5.472
 4014SOL     OW12940   5.440   6.623   2.514
 4014SOL    HW112941   5.439   6.719   2.489
 4014SOL    HW212942   5.351   6.597   2.552
 4015SOL     OW12943   5.137   4.716   6.572
 4015SOL    HW112944   5.116   4.722   6.670
 4015SOL    HW212945   5.171   4.805   6.540
 4016SOL     OW12946   2.998   5.620   6.158
 4016SOL    HW112947   3.026   5.528   6.130
 4016SOL    HW212948   2.976   5.674   6.077
 4017SOL     OW12949   0.439   5.837   0.425
 4017SOL    HW112950   0.397   5.921   0.458
 4017SOL    HW212951   0.507   5.859   0.355
 4018SOL     OW12952   4.439   6.147   2.406
 4018SOL    HW112953   4.393   6.216   2.351
 4018SOL    HW212954   4.423   6.166   2.503
 4019SOL     OW12955   5.641   3.890   3.083
 4019SOL    HW112956   5.618   3.985   3.102
 4019SOL    HW212957   5.628   3.871   2.986
 4020SOL     OW12958   4.578   1.361   5.468
 4020SOL    HW112959   4.632   1.279   5.449
 4020SOL    HW212960   4.548   1.360   5.563
 4021SOL     OW12961   4.039   4.987   6.012
 4021SOL    HW112962   3.965   5.020   5.953
 4021SOL    HW212963   4.076   4.902   5.975
 4022SOL     OW12964   4.685   1.189   6.583
 4022SOL    HW112965   4.740   1.136   6.519
 4022SOL    HW212966   4.742   1.216   6.661
 4023SOL     OW12967   6.400   1.523   4.325
 4023SOL    HW112968   6.443   1.585   4.391
 4023SOL    HW212969   6.383   1.572   4.239
 4024SOL     OW12970   3.239   6.591   3.163
 4024SOL    HW112971   3.233   6.562   3.258
 4024SOL    HW212972   3.166   6.657   3.143
 4025SOL     OW12973   0.310   4.520   3.056
 4025SOL    HW112974   0.333   4.617   3.051
 4025SOL    HW212975   0.388   4.469   3.093
 4026SOL     OW12976   5.651   6.218   4.058
 4026SOL    HW112977   5.673   6.160   4.137
 4026SOL    HW212978   5.583   6.172   4.001
 4027SOL     OW12979   3.728   4.115   1.545
 4027SOL    HW112980   3.668   4.184   1.504
 4027SOL    HW212981   3.737   4.132   1.643
 4028SOL     OW12982   1.677   2.516   4.218
 4028SOL    HW112983   1.716   2.501   4.308
 4028SOL    HW212984   1.617   2.597   4.220
 4029SOL     OW12985   2.656   4.112   5.706
 4029SOL    HW112986   2.753   4.095   5.722
 4029SOL    HW212987   2.608   4.025   5.700
 4030SOL     OW12988   0.804   2.194   5.721
 4030SOL    HW112989   0.815   2.286   5.682
 4030SOL    HW212990   0.859   2.129   5.668
 4031SOL     OW12991   5.147   5.533   3.885
 4031SOL    HW112992   5.227   5.502   3.834
 4031SOL    HW212993   5.149   5.633   3.893
 4032SOL     OW12994   6.238   6.521   4.034
 4032SOL    HW112995   6.304   6.594   4.018
 4032SOL    HW212996   6.250   6.484   4.126
 4033SOL     OW12997   3.249   2.925   4.451
 4033SOL    HW112998   3.162   2.881   4.428
 4033SOL    HW212999   3.236   3.024   4.453
 4034SOL     OW13000   6.022   1.757   4.466
 4034SOL    HW113001   6.105   1.804   4.438
 4034SOL    HW213002   6.044   1.664   4.496
 4035SOL     OW13003   0.296   4.425   0.290
 4035SOL    HW113004   0.296   4.325   0.297
 4035SOL    HW213005   0.309   4.465   0.381
 4036SOL     OW13006   5.816   6.074   2.746
 4036SOL    HW113007   5.748   6.115   2.806
 4036SOL    HW213008   5.802   6.107   2.652
 4037SOL     OW13009   1.333   3.285   6.321
 4037SOL    HW113010   1.331   3.253   6.416
 4037SOL    HW213011   1.245   3.265   6.277
 4038SOL     OW13012   4.907   4.723   2.682
 4038SOL    HW113013   4.852   4.721   2.765
 4038SOL    HW213014   4.925   4.629   2.652
 4039SOL     OW13015   5.297   6.000   0.031
 4039SOL    HW113016   5.250   6.005   6.969
 4039SOL    HW213017   5.252   6.059   0.097
 4040SOL     OW13018   2.712   0.254   1.257
 4040SOL    HW113019   2.685   0.158   1.266
 4040SOL    HW213020   2.790   0.272   1.318
 4041SOL     OW13021   0.862   6.069   2.600
 4041SOL    HW113022   0.797   6.126   2.650
 4041SOL    HW213023   0.952   6.113   2.602
 4042SOL     OW13024   5.890   5.483   2.597
 4042SOL    HW113025   5.900   5.395   2.645
 4042SOL    HW213026   5.872   5.466   2.500
 4043SOL     OW13027   5.077   2.009   2.707
 4043SOL    HW113028   5.012   1.986   2.635
 4043SOL    HW213029   5.062   2.104   2.736
 4044SOL     OW13030   5.858   0.392   3.492
 4044SOL    HW113031   5.831   0.380   3.396
 4044SOL    HW213032   5.897   0.483   3.504
 4045SOL     OW13033   2.647   4.364   6.765
 4045SOL    HW113034   2.646   4.440   6.830
 4045SOL    HW213035   2.567   4.306   6.780
 4046SOL     OW13036   1.215   1.807   2.128
 4046SOL    HW113037   1.187   1.846   2.215
 4046SOL    HW213038   1.173   1.716   2.116
 4047SOL     OW13039   2.770   3.537   1.525
 4047SOL    HW113040   2.730   3.525   1.616
 4047SOL    HW213041   2.719   3.483   1.459
 4048SOL     OW13042   5.474   0.653   1.094
 4048SOL    HW113043   5.448   0.700   1.178
 4048SOL    HW213044   5.487   0.719   1.020
 4049SOL     OW13045   5.983   6.539   6.064
 4049SOL    HW113046   5.947   6.452   6.098
 4049SOL    HW213047   5.963   6.547   5.966
 4050SOL     OW13048   1.626   6.349   0.101
 4050SOL    HW113049   1.563   6.423   0.124
 4050SOL    HW213050   1.718   6.387   0.087
 4051SOL     OW13051   3.242   4.386   0.702
 4051SOL    HW113052   3.153   4.362   0.742
 4051SOL    HW213053   3.300   4.428   0.772
 4052SOL     OW13054   0.740   0.521   0.335
 4052SOL    HW113055   0.665   0.587   0.335
 4052SOL    HW213056   0.732   0.461   0.414
 4053SOL     OW13057   3.123   5.296   3.758
 4053SOL    HW113058   3.169   5.210   3.780
 4053SOL    HW213059   3.114   5.351   3.841
 4054SOL     OW13060   2.866   2.700   0.294
 4054SOL    HW113061   2.897   2.756   0.371
 4054SOL    HW213062   2.822   2.617   0.328
 4055SOL     OW13063   2.835   2.325   6.175
 4055SOL    HW113064   2.845   2.412   6.223
 4055SOL    HW213065   2.859   2.337   6.079
 4056SOL     OW13066   3.844   3.331   0.049
 4056SOL    HW113067   3.881   3.406   7.021
 4056SOL    HW213068   3.756   3.302   0.011
 4057SOL     OW13069   4.963   3.336   0.091
 4057SOL    HW113070   4.990   3.348   7.021
 4057SOL    HW213071   4.880   3.279   0.095
 4058SOL     OW13072   2.471   1.586   4.845
 4058SOL    HW113073   2.487   1.604   4.942
 4058SOL    HW213074   2.428   1.666   4.804
 4059SOL     OW13075   1.838   2.090   4.404
 4059SOL    HW113076   1.811   2.159   4.471
 4059SOL    HW213077   1.839   2.133   4.313
 4060SOL     OW13078   3.996   4.926   3.999
 4060SOL    HW113079   4.029   4.863   3.929
 4060SOL    HW213080   3.945   5.001   3.956
 4061SOL     OW13081   3.673   4.451   1.685
 4061SOL    HW113082   3.618   4.512   1.742
 4061SOL    HW213083   3.613   4.389   1.635
 4062SOL     OW13084   3.495   1.232   2.433
 4062SOL    HW113085   3.454   1.144   2.405
 4062SOL    HW213086   3.486   1.242   2.532
 4063SOL     OW13087   3.062   6.107   5.759
 4063SOL    HW113088   3.097   6.044   5.690
 4063SOL    HW213089   3.017   6.055   5.832
 4064SOL     OW13090   1.078   0.227   2.589
 4064SOL    HW113091   1.004   0.254   2.651
 4064SOL    HW213092   1.041   0.214   2.497
 4065SOL     OW13093   0.599   6.649   0.964
 4065SOL    HW113094   0.529   6.593   0.920
 4065SOL    HW213095   0.648   6.595   1.032
 4066SOL     OW13096   5.488   4.084   1.921
 4066SOL    HW113097   5.412   4.143   1.895
 4066SOL    HW213098   5.556   4.136   1.973
 4067SOL     OW13099   5.415   1.787   2.747
 4067SOL    HW113100   5.457   1.697   2.753
 4067SOL    HW213101   5.469   1.845   2.686
 4068SOL     OW13102   5.059   0.754   4.918
 4068SOL    HW113103   5.144   0.751   4.971
 4068SOL    HW213104   5.050   0.670   4.865
 4069SOL     OW13105   5.427   4.824   0.905
 4069SOL    HW113106   5.455   4.751   0.843
 4069SOL    HW213107   5.504   4.885   0.922
 4070SOL     OW13108   2.271   4.355   2.551
 4070SOL    HW113109   2.269   4.269   2.601
 4070SOL    HW213110   2.298   4.338   2.456
 4071SOL     OW13111   1.497   0.748   4.969
 4071SOL    HW113112   1.464   0.690   5.043
 4071SOL    HW213113   1.499   0.844   5.000
 4072SOL     OW13114   1.359   6.755   4.492
 4072SOL    HW113115   1.332   6.771   4.397
 4072SOL    HW213116   1.444   6.803   4.511
 4073SOL     OW13117   2.710   5.335   6.021
 4073SOL    HW113118   2.797   5.381   6.042
 4073SOL    HW213119   2.708   5.312   5.923
 4074SOL     OW13120   0.410   2.168   1.651
 4074SOL    HW113121   0.421   2.079   1.607
 4074SOL    HW213122   0.420   2.241   1.583
 4075SOL     OW13123   4.135   1.620   2.724
 4075SOL    HW113124   4.198   1.569   2.782
 4075SOL    HW213125   4.186   1.661   2.648
 4076SOL     OW13126   2.201   3.486   5.063
 4076SOL    HW113127   2.250   3.461   5.146
 4076SOL    HW213128   2.215   3.584   5.044
 4077SOL     OW13129   3.374   0.134   0.360
 4077SOL    HW113130   3.278   0.124   0.335
 4077SOL    HW213131   3.399   0.063   0.426
 4078SOL     OW13132   6.442   4.059   1.313
 4078SOL    HW113133   6.365   4.054   1.251
 4078SOL    HW213134   6.463   4.155   1.334
 4079SOL     OW13135   0.872   1.151   3.899
 4079SOL    HW113136   0.964   1.114   3.898
 4079SOL    HW213137   0.807   1.079   3.925
 4080SOL     OW13138   3.385   3.410   1.251
 4080SOL    HW113139   3.303   3.355   1.262
 4080SOL    HW213140   3.377   3.465   1.168
 4081SOL     OW13141   1.846   1.411   5.476
 4081SOL    HW113142   1.850   1.439   5.380
 4081SOL    HW213143   1.783   1.334   5.485
 4082SOL     OW13144   0.803   2.837   5.357
 4082SOL    HW113145   0.738   2.843   5.433
 4082SOL    HW213146   0.871   2.766   5.377
 4083SOL     OW13147   5.896   4.389   3.615
 4083SOL    HW113148   5.903   4.441   3.530
 4083SOL    HW213149   5.985   4.387   3.660
 4084SOL     OW13150   4.670   1.969   3.215
 4084SOL    HW113151   4.694   2.002   3.123
 4084SOL    HW213152   4.607   1.892   3.206
 4085SOL     OW13153   3.360   5.912   1.446
 4085SOL    HW113154   3.289   5.978   1.420
 4085SOL    HW213155   3.361   5.838   1.380
 4086SOL     OW13156   6.541   5.455   6.312
 4086SOL    HW113157   6.532   5.397   6.394
 4086SOL    HW213158   6.567   5.397   6.234
 4087SOL     OW13159   2.392   6.654   2.418
 4087SOL    HW113160   2.403   6.685   2.324
 4087SOL    HW213161   2.451   6.708   2.479
 4088SOL     OW13162   6.940   1.294   5.629
 4088SOL    HW113163   6.953   1.236   5.548
 4088SOL    HW213164   0.004   1.326   5.661
 4089SOL     OW13165   0.073   6.546   3.858
 4089SOL    HW113166   7.022   6.564   3.797
 4089SOL    HW213167   0.066   6.604   3.939
 4090SOL     OW13168   2.132   6.546   5.015
 4090SOL    HW113169   2.178   6.485   5.080
 4090SOL    HW213170   2.086   6.619   5.066
 4091SOL     OW13171   1.844   5.282   1.032
 4091SOL    HW113172   1.794   5.356   1.077
 4091SOL    HW213173   1.851   5.302   0.934
 4092SOL     OW13174   4.880   3.180   4.499
 4092SOL    HW113175   4.864   3.255   4.434
 4092SOL    HW213176   4.872   3.215   4.592
 4093SOL     OW13177   5.825   5.528   3.045
 4093SOL    HW113178   5.871   5.569   2.966
 4093SOL    HW213179   5.728   5.519   3.026
 4094SOL     OW13180   0.129   5.472   6.995
 4094SOL    HW113181   0.078   5.490   0.053
 4094SOL    HW213182   0.216   5.428   7.017
 4095SOL     OW13183   0.126   4.602   0.188
 4095SOL    HW113184   0.189   4.532   0.224
 4095SOL    HW213185   0.040   4.597   0.237
 4096SOL     OW13186   1.814   1.631   6.979
 4096SOL    HW113187   1.765   1.672   6.901
 4096SOL    HW213188   1.861   1.703   0.004
 4097SOL     OW13189   0.011   4.539   5.284
 4097SOL    HW113190   6.986   4.464   5.243
 4097SOL    HW213191   0.107   4.514   5.295
 4098SOL     OW13192   2.018   5.088   2.557
 4098SOL    HW113193   2.064   5.082   2.645
 4098SOL    HW213194   2.003   4.997   2.520
 4099SOL     OW13195   4.332   3.876   6.180
 4099SOL    HW113196   4.315   3.974   6.197
 4099SOL    HW213197   4.429   3.857   6.191
 4100SOL     OW13198   1.189   0.417   3.839
 4100SOL    HW113199   1.259   0.465   3.893
 4100SOL    HW213200   1.176   0.324   3.875
 4101SOL     OW13201   6.177   0.266   0.499
 4101SOL    HW113202   6.233   0.346   0.519
 4101SOL    HW213203   6.096   0.265   0.558
 4102SOL     OW13204   2.047   0.411   7.026
 4102SOL    HW113205   1.994   0.496   7.024
 4102SOL    HW213206   2.144   0.433   7.019
 4103SOL     OW13207   1.018   6.746   2.015
 4103SOL    HW113208   1.092   6.766   1.950
 4103SOL    HW213209   0.942   6.703   1.966
 4104SOL     OW13210   0.118   5.995   2.854
 4104SOL    HW113211   0.063   6.020   2.934
 4104SOL    HW213212   0.205   6.044   2.859
 4105SOL     OW13213   4.493   1.215   1.258
 4105SOL    HW113214   4.586   1.185   1.237
 4105SOL    HW213215   4.487   1.314   1.246
 4106SOL     OW13216   0.101   1.832   3.574
 4106SOL    HW113217   0.125   1.846   3.670
 4106SOL    HW213218   0.141   1.745   3.542
 4107SOL     OW13219   0.283   6.009   6.502
 4107SOL    HW113220   0.237   6.087   6.546
 4107SOL    HW213221   0.332   6.042   6.421
 4108SOL     OW13222   0.137   5.104   4.010
 4108SOL    HW113223   0.128   5.189   3.958
 4108SOL    HW213224   0.160   5.126   4.105
 4109SOL     OW13225   6.404   5.614   3.340
 4109SOL    HW113226   6.359   5.702   3.358
 4109SOL    HW213227   6.339   5.552   3.296
 4110SOL     OW13228   4.840   3.591   6.968
 4110SOL    HW113229   4.845   3.618   6.871
 4110SOL    HW213230   4.871   3.496   6.977
 4111SOL     OW13231   6.498   3.928   5.570
 4111SOL    HW113232   6.583   3.876   5.575
 4111SOL    HW213233   6.460   3.940   5.662
 4112SOL     OW13234   4.597   6.910   4.943
 4112SOL    HW113235   4.619   6.939   4.850
 4112SOL    HW213236   4.560   6.817   4.940
 4113SOL     OW13237   4.565   4.594   4.783
 4113SOL    HW113238   4.487   4.575   4.843
 4113SOL    HW213239   4.631   4.520   4.789
 4114SOL     OW13240   6.299   1.567   3.566
 4114SOL    HW113241   6.313   1.471   3.593
 4114SOL    HW213242   6.383   1.618   3.583
 4115SOL     OW13243   2.871   5.200   3.424
 4115SOL    HW113244   2.801   5.265   3.454
 4115SOL    HW213245   2.834   5.107   3.430
 4116SOL     OW13246   5.720   2.986   3.296
 4116SOL    HW113247   5.640   2.928   3.310
 4116SOL    HW213248   5.800   2.929   3.277
 4117SOL     OW13249   1.558   2.483   2.434
 4117SOL    HW113250   1.536   2.395   2.394
 4117SOL    HW213251   1.522   2.556   2.376
 4118SOL     OW13252   6.881   6.351   6.344
 4118SOL    HW113253   6.970   6.394   6.329
 4118SOL    HW213254   6.893   6.264   6.391
 4119SOL     OW13255   2.297   0.595   3.179
 4119SOL    HW113256   2.216   0.594   3.120
 4119SOL    HW213257   2.320   0.689   3.205
 4120SOL     OW13258   2.107   1.420   6.570
 4120SOL    HW113259   2.067   1.481   6.638
 4120SOL    HW213260   2.038   1.355   6.538
 4121SOL     OW13261   7.017   6.846   2.746
 4121SOL    HW113262   0.001   6.838   2.647
 4121SOL    HW213263   0.008   6.757   2.789
 4122SOL     OW13264   0.309   5.649   4.694
 4122SOL    HW113265   0.400   5.662   4.731
 4122SOL    HW213266   0.304   5.690   4.602
 4123SOL     OW13267   3.849   4.859   2.790
 4123SOL    HW113268   3.893   4.917   2.721
 4123SOL    HW213269   3.774   4.808   2.748
 4124SOL     OW13270   6.762   6.327   1.044
 4124SOL    HW113271   6.830   6.333   0.972
 4124SOL    HW213272   6.749   6.230   1.069
 4125SOL     OW13273   5.223   2.501   2.164
 4125SOL    HW113274   5.223   2.558   2.247
 4125SOL    HW213275   5.129   2.492   2.131
 4126SOL     OW13276   1.137   2.749   2.276
 4126SOL    HW113277   1.089   2.825   2.230
 4126SOL    HW213278   1.082   2.666   2.268
 4127SOL     OW13279   3.441   2.044   4.361
 4127SOL    HW113280   3.524   2.101   4.358
 4127SOL    HW213281   3.435   1.989   4.278
 4128SOL     OW13282   0.582   3.501   1.267
 4128SOL    HW113283   0.678   3.482   1.245
 4128SOL    HW213284   0.553   3.584   1.220
 4129SOL     OW13285   3.134   2.921   0.894
 4129SOL    HW113286   3.066   2.848   0.894
 4129SOL    HW213287   3.194   2.911   0.814
 4130SOL     OW13288   5.730   3.240   0.999
 4130SOL    HW113289   5.632   3.254   1.015
 4130SOL    HW213290   5.765   3.173   1.065
 4131SOL     OW13291   5.223   0.455   1.986
 4131SOL    HW113292   5.286   0.527   2.016
 4131SOL    HW213293   5.165   0.492   1.913
 4132SOL     OW13294   6.705   3.745   4.619
 4132SOL    HW113295   6.642   3.710   4.550
 4132SOL    HW213296   6.690   3.843   4.631
 4133SOL     OW13297   5.899   6.610   1.441
 4133SOL    HW113298   5.950   6.528   1.467
 4133SOL    HW213299   5.961   6.688   1.434
 4134SOL     OW13300   2.475   2.879   1.414
 4134SOL    HW113301   2.396   2.819   1.402
 4134SOL    HW213302   2.482   2.906   1.510
 4135SOL     OW13303   0.147   1.711   3.113
 4135SOL    HW113304   0.082   1.659   3.168
 4135SOL    HW213305   0.233   1.660   3.105
 4136SOL     OW13306   0.487   4.013   1.969
 4136SOL    HW113307   0.540   4.049   1.892
 4136SOL    HW213308   0.415   4.078   1.993
 4137SOL     OW13309   1.513   2.626   0.827
 4137SOL    HW113310   1.569   2.651   0.905
 4137SOL    HW213311   1.570   2.624   0.744
 4138SOL     OW13312   4.543   6.420   1.048
 4138SOL    HW113313   4.499   6.462   0.969
 4138SOL    HW213314   4.559   6.490   1.118
 4139SOL     OW13315   1.443   1.657   2.925
 4139SOL    HW113316   1.345   1.665   2.945
 4139SOL    HW213317   1.480   1.577   2.972
 4140SOL     OW13318   2.712   2.386   4.249
 4140SOL    HW113319   2.653   2.315   4.287
 4140SOL    HW213320   2.808   2.355   4.253
 4141SOL     OW13321   4.062   6.956   6.614
 4141SOL    HW113322   4.061   7.023   6.688
 4141SOL    HW213323   4.127   6.883   6.636
 4142SOL     OW13324   6.966   4.316   2.555
 4142SOL    HW113325   6.889   4.259   2.528
 4142SOL    HW213326   6.938   4.380   2.627
 4143SOL     OW13327   5.459   3.308   0.912
 4143SOL    HW113328   5.420   3.225   0.873
 4143SOL    HW213329   5.424   3.321   1.004
 4144SOL     OW13330   5.626   1.895   0.637
 4144SOL    HW113331   5.682   1.938   0.708
 4144SOL    HW213332   5.531   1.889   0.668
 4145SOL     OW13333   0.945   6.475   0.377
 4145SOL    HW113334   0.881   6.485   0.454
 4145SOL    HW213335   0.988   6.563   0.359
 4146SOL     OW13336   5.569   6.544   3.416
 4146SOL    HW113337   5.479   6.578   3.390
 4146SOL    HW213338   5.626   6.619   3.448
 4147SOL     OW13339   4.912   4.490   5.662
 4147SOL    HW113340   4.871   4.480   5.753
 4147SOL    HW213341   4.937   4.585   5.647
 4148SOL     OW13342   2.610   0.595   5.066
 4148SOL    HW113343   2.621   0.693   5.081
 4148SOL    HW213344   2.572   0.580   4.975
 4149SOL     OW13345   1.814   2.914   0.901
 4149SOL    HW113346   1.826   2.815   0.910
 4149SOL    HW213347   1.822   2.956   0.992
 4150SOL     OW13348   6.250   2.415   6.125
 4150SOL    HW113349   6.159   2.456   6.134
 4150SOL    HW213350   6.264   2.386   6.030
 4151SOL     OW13351   1.753   0.213   4.521
 4151SOL    HW113352   1.669   0.264   4.542
 4151SOL    HW213353   1.823   0.236   4.588
 4152SOL     OW13354   3.669   5.577   1.775
 4152SOL    HW113355   3.610   5.643   1.729
 4152SOL    HW213356   3.764   5.594   1.751
 4153SOL     OW13357   6.638   4.803   1.754
 4153SOL    HW113358   6.620   4.896   1.787
 4153SOL    HW213359   6.624   4.738   1.829
 4154SOL     OW13360   0.156   6.020   3.899
 4154SOL    HW113361   0.228   6.016   3.968
 4154SOL    HW213362   0.176   5.954   3.826
 4155SOL     OW13363   0.966   2.601   1.468
 4155SOL    HW113364   1.017   2.587   1.383
 4155SOL    HW213365   0.936   2.513   1.504
 4156SOL     OW13366   6.501   4.609   5.029
 4156SOL    HW113367   6.404   4.591   5.048
 4156SOL    HW213368   6.516   4.707   5.020
 4157SOL     OW13369   6.834   6.533   2.242
 4157SOL    HW113370   6.794   6.619   2.274
 4157SOL    HW213371   6.822   6.525   2.143
 4158SOL     OW13372   2.173   2.512   1.869
 4158SOL    HW113373   2.236   2.471   1.804
 4158SOL    HW213374   2.138   2.599   1.832
 4159SOL     OW13375   3.094   1.728   3.238
 4159SOL    HW113376   3.041   1.758   3.318
 4159SOL    HW213377   3.034   1.723   3.158
 4160SOL     OW13378   6.992   6.760   6.868
 4160SOL    HW113379   0.043   6.696   6.863
 4160SOL    HW213380   6.946   6.763   6.780
 4161SOL     OW13381   2.195   1.761   1.410
 4161SOL    HW113382   2.130   1.700   1.457
 4161SOL    HW213383   2.261   1.797   1.476
 4162SOL     OW13384   6.354   6.255   1.509
 4162SOL    HW113385   6.384   6.242   1.414
 4162SOL    HW213386   6.317   6.169   1.545
 4163SOL     OW13387   4.543   6.742   1.837
 4163SOL    HW113388   4.468   6.764   1.773
 4163SOL    HW213389   4.631   6.759   1.792
 4164SOL     OW13390   0.020   5.885   5.387
 4164SOL    HW113391   0.093   5.820   5.408
 4164SOL    HW213392   6.983   5.890   5.464
 4165SOL     OW13393   4.030   1.132   5.720
 4165SOL    HW113394   4.109   1.141   5.781
 4165SOL    HW213395   4.061   1.119   5.626
 4166SOL     OW13396   5.697   0.651   3.018
 4166SOL    HW113397   5.744   0.563   3.018
 4166SOL    HW213398   5.741   0.713   3.082
 4167SOL     OW13399   2.941   5.023   5.742
 4167SOL    HW113400   2.984   4.984   5.661
 4167SOL    HW213401   2.938   4.953   5.814
 4168SOL     OW13402   6.730   4.621   0.588
 4168SOL    HW113403   6.696   4.528   0.597
 4168SOL    HW213404   6.728   4.667   0.676
 4169SOL     OW13405   4.975   4.144   5.246
 4169SOL    HW113406   4.998   4.160   5.342
 4169SOL    HW213407   4.946   4.050   5.234
 4170SOL     OW13408   4.766   2.920   4.555
 4170SOL    HW113409   4.831   2.955   4.488
 4170SOL    HW213410   4.750   2.989   4.626
 4171SOL     OW13411   1.592   3.871   1.084
 4171SOL    HW113412   1.533   3.945   1.052
 4171SOL    HW213413   1.603   3.803   1.012
 4172SOL     OW13414   3.662   3.429   0.908
 4172SOL    HW113415   3.580   3.465   0.864
 4172SOL    HW213416   3.682   3.484   0.990
 4173SOL     OW13417   4.462   2.734   5.496
 4173SOL    HW113418   4.414   2.672   5.559
 4173SOL    HW213419   4.394   2.789   5.447
 4174SOL     OW13420   4.691   0.259   3.736
 4174SOL    HW113421   4.786   0.291   3.726
 4174SOL    HW213422   4.678   0.223   3.829
 4175SOL     OW13423   1.944   4.951   5.981
 4175SOL    HW113424   1.966   4.954   5.883
 4175SOL    HW213425   1.846   4.941   5.993
 4176SOL     OW13426   5.161   6.245   0.136
 4176SOL    HW113427   5.144   6.277   0.042
 4176SOL    HW213428   5.090   6.281   0.196
 4177SOL     OW13429   5.002   4.806   4.750
 4177SOL    HW113430   5.042   4.759   4.828
 4177SOL    HW213431   4.917   4.851   4.778
 4178SOL     OW13432   4.457   6.698   2.758
 4178SOL    HW113433   4.388   6.643   2.710
 4178SOL    HW213434   4.527   6.726   2.693
 4179SOL     OW13435   5.392   3.331   4.069
 4179SOL    HW113436   5.431   3.279   3.994
 4179SOL    HW213437   5.429   3.297   4.156
 4180SOL     OW13438   5.598   3.461   0.726
 4180SOL    HW113439   5.622   3.411   0.642
 4180SOL    HW213440   5.570   3.396   0.796
 4181SOL     OW13441   5.341   0.302   6.132
 4181SOL    HW113442   5.390   0.218   6.157
 4181SOL    HW213443   5.363   0.374   6.197
 4182SOL     OW13444   0.520   6.036   3.854
 4182SOL    HW113445   0.458   6.106   3.889
 4182SOL    HW213446   0.468   5.953   3.831
 4183SOL     OW13447   2.102   1.389   1.428
 4183SOL    HW113448   2.064   1.460   1.488
 4183SOL    HW213449   2.155   1.324   1.483
 4184SOL     OW13450   3.565   0.621   2.244
 4184SOL    HW113451   3.632   0.555   2.209
 4184SOL    HW213452   3.556   0.610   2.343
 4185SOL     OW13453   0.681   3.958   3.855
 4185SOL    HW113454   0.688   3.917   3.946
 4185SOL    HW213455   0.696   3.888   3.785
 4186SOL     OW13456   2.466   5.720   6.770
 4186SOL    HW113457   2.382   5.668   6.785
 4186SOL    HW213458   2.444   5.817   6.764
 4187SOL     OW13459   1.806   3.659   6.994
 4187SOL    HW113460   1.858   3.583   6.955
 4187SOL    HW213461   1.767   3.715   6.921
 4188SOL     OW13462   5.788   0.808   5.117
 4188SOL    HW113463   5.820   0.895   5.156
 4188SOL    HW213464   5.809   0.806   5.019
 4189SOL     OW13465   4.699   5.500   3.409
 4189SOL    HW113466   4.697   5.526   3.505
 4189SOL    HW213467   4.762   5.424   3.396
 4190SOL     OW13468   0.435   6.455   0.860
 4190SOL    HW113469   0.338   6.434   0.862
 4190SOL    HW213470   0.488   6.371   0.870
 4191SOL     OW13471   5.523   4.047   6.782
 4191SOL    HW113472   5.551   4.031   6.876
 4191SOL    HW213473   5.441   4.105   6.780
 4192SOL     OW13474   0.718   1.822   2.578
 4192SOL    HW113475   0.698   1.889   2.649
 4192SOL    HW213476   0.638   1.762   2.565
 4193SOL     OW13477   5.592   0.119   0.122
 4193SOL    HW113478   5.589   0.158   0.030
 4193SOL    HW213479   5.652   0.174   0.180
 4194SOL     OW13480   4.032   0.328   5.269
 4194SOL    HW113481   4.132   0.333   5.270
 4194SOL    HW213482   4.003   0.237   5.238
 4195SOL     OW13483   4.184   6.594   1.251
 4195SOL    HW113484   4.253   6.655   1.212
 4195SOL    HW213485   4.191   6.595   1.351
 4196SOL     OW13486   0.147   2.667   3.851
 4196SOL    HW113487   0.227   2.629   3.805
 4196SOL    HW213488   0.175   2.709   3.937
 4197SOL     OW13489   4.065   6.058   5.535
 4197SOL    HW113490   4.064   6.144   5.484
 4197SOL    HW213491   4.152   6.011   5.519
 4198SOL     OW13492   6.368   0.650   2.519
 4198SOL    HW113493   6.306   0.581   2.480
 4198SOL    HW213494   6.436   0.676   2.451
 4199SOL     OW13495   1.456   3.520   6.431
 4199SOL    HW113496   1.373   3.561   6.470
 4199SOL    HW213497   1.431   3.448   6.367
 4200SOL     OW13498   3.723   0.749   5.448
 4200SOL    HW113499   3.679   0.749   5.358
 4200SOL    HW213500   3.723   0.656   5.484
 4201SOL     OW13501   6.276   0.016   3.651
 4201SOL    HW113502   6.372   0.041   3.635
 4201SOL    HW213503   6.225   0.022   3.565
 4202SOL     OW13504   3.349   5.458   6.626
 4202SOL    HW113505   3.413   5.493   6.695
 4202SOL    HW213506   3.290   5.533   6.595
 4203SOL     OW13507   4.973   4.910   0.450
 4203SOL    HW113508   5.064   4.881   0.421
 4203SOL    HW213509   4.916   4.925   0.369
 4204SOL     OW13510   3.913   3.329   5.515
 4204SOL    HW113511   3.838   3.274   5.552
 4204SOL    HW213512   3.888   3.426   5.518
 4205SOL     OW13513   3.599   5.303   5.172
 4205SOL    HW113514   3.583   5.395   5.208
 4205SOL    HW213515   3.513   5.252   5.171
 4206SOL     OW13516   0.676   1.451   4.940
 4206SOL    HW113517   0.688   1.423   5.036
 4206SOL    HW213518   0.667   1.370   4.883
 4207SOL     OW13519   2.355   2.447   1.265
 4207SOL    HW113520   2.358   2.430   1.166
 4207SOL    HW213521   2.304   2.531   1.283
 4208SOL     OW13522   1.084   3.911   5.416
 4208SOL    HW113523   1.021   3.835   5.400
 4208SOL    HW213524   1.175   3.885   5.383
 4209SOL     OW13525   6.557   5.641   3.110
 4209SOL    HW113526   6.543   5.726   3.059
 4209SOL    HW213527   6.513   5.649   3.200
 4210SOL     OW13528   3.750   2.955   3.583
 4210SOL    HW113529   3.707   2.896   3.652
 4210SOL    HW213530   3.697   2.952   3.499
 4211SOL     OW13531   3.580   1.684   5.215
 4211SOL    HW113532   3.627   1.764   5.177
 4211SOL    HW213533   3.546   1.627   5.141
 4212SOL     OW13534   6.717   1.802   3.907
 4212SOL    HW113535   6.732   1.712   3.867
 4212SOL    HW213536   6.620   1.826   3.899
 4213SOL     OW13537   2.626   0.894   3.506
 4213SOL    HW113538   2.711   0.842   3.498
 4213SOL    HW213539   2.612   0.921   3.601
 4214SOL     OW13540   0.348   5.795   5.065
 4214SOL    HW113541   0.297   5.867   5.018
 4214SOL    HW213542   0.434   5.779   5.017
 4215SOL     OW13543   5.005   0.013   5.506
 4215SOL    HW113544   5.001   0.094   5.447
 4215SOL    HW213545   5.092   0.012   5.555
 4216SOL     OW13546   1.435   0.849   2.297
 4216SOL    HW113547   1.388   0.836   2.384
 4216SOL    HW213548   1.488   0.767   2.275
 4217SOL     OW13549   1.081   7.018   1.685
 4217SOL    HW113550   1.078   6.944   1.618
 4217SOL    HW213551   1.032   0.072   1.649
 4218SOL     OW13552   3.287   0.649   1.160
 4218SOL    HW113553   3.271   0.745   1.138
 4218SOL    HW213554   3.383   0.636   1.187
 4219SOL     OW13555   4.501   6.487   4.419
 4219SOL    HW113556   4.423   6.542   4.449
 4219SOL    HW213557   4.468   6.400   4.382
 4220SOL     OW13558   5.736   2.697   2.383
 4220SOL    HW113559   5.787   2.620   2.345
 4220SOL    HW213560   5.744   2.697   2.482
 4221SOL     OW13561   6.423   4.653   6.693
 4221SOL    HW113562   6.456   4.588   6.761
 4221SOL    HW213563   6.433   4.614   6.601
 4222SOL     OW13564   5.663   1.705   3.719
 4222SOL    HW113565   5.718   1.733   3.640
 4222SOL    HW213566   5.573   1.747   3.714
 4223SOL     OW13567   3.982   3.486   1.122
 4223SOL    HW113568   3.981   3.410   1.057
 4223SOL    HW213569   3.899   3.484   1.177
 4224SOL     OW13570   5.103   4.675   4.990
 4224SOL    HW113571   5.202   4.689   4.999
 4224SOL    HW213572   5.075   4.601   5.051
 4225SOL     OW13573   1.673   1.920   5.640
 4225SOL    HW113574   1.631   1.941   5.729
 4225SOL    HW213575   1.640   1.986   5.572
 4226SOL     OW13576   0.922   6.507   3.833
 4226SOL    HW113577   0.982   6.557   3.770
 4226SOL    HW213578   0.845   6.469   3.782
 4227SOL     OW13579   4.998   6.013   1.701
 4227SOL    HW113580   4.920   5.959   1.668
 4227SOL    HW213581   5.055   6.040   1.623
 4228SOL     OW13582   0.577   6.007   5.159
 4228SOL    HW113583   0.490   6.022   5.112
 4228SOL    HW213584   0.650   6.056   5.111
 4229SOL     OW13585   4.311   6.049   5.813
 4229SOL    HW113586   4.288   6.144   5.791
 4229SOL    HW213587   4.400   6.045   5.858
 4230SOL     OW13588   0.587   6.409   2.962
 4230SOL    HW113589   0.496   6.376   2.937
 4230SOL    HW213590   0.653   6.377   2.894
 4231SOL     OW13591   4.825   0.484   5.479
 4231SOL    HW113592   4.776   0.425   5.415
 4231SOL    HW213593   4.924   0.471   5.468
 4232SOL     OW13594   1.992   5.735   3.732
 4232SOL    HW113595   2.090   5.742   3.719
 4232SOL    HW213596   1.966   5.640   3.749
 4233SOL     OW13597   0.248   6.833   4.818
 4233SOL    HW113598   0.305   6.913   4.803
 4233SOL    HW213599   0.156   6.850   4.784
 4234SOL     OW13600   2.078   5.275   5.304
 4234SOL    HW113601   2.088   5.188   5.256
 4234SOL    HW213602   2.091   5.260   5.402
 4235SOL     OW13603   6.569   4.896   5.360
 4235SOL    HW113604   6.562   4.860   5.453
 4235SOL    HW213605   6.564   4.996   5.362
 4236SOL     OW13606   0.158   4.463   1.373
 4236SOL    HW113607   0.158   4.396   1.299
 4236SOL    HW213608   0.252   4.486   1.398
 4237SOL     OW13609   6.380   3.865   4.437
 4237SOL    HW113610   6.385   3.845   4.339
 4237SOL    HW213611   6.419   3.788   4.488
 4238SOL     OW13612   0.899   0.999   3.513
 4238SOL    HW113613   0.886   0.923   3.577
 4238SOL    HW213614   0.864   0.974   3.423
 4239SOL     OW13615   4.311   1.110   2.425
 4239SOL    HW113616   4.320   1.011   2.408
 4239SOL    HW213617   4.214   1.134   2.428
 4240SOL     OW13618   2.255   4.975   0.100
 4240SOL    HW113619   2.191   4.904   0.129
 4240SOL    HW213620   2.214   5.029   0.027
 4241SOL     OW13621   5.791   1.265   0.096
 4241SOL    HW113622   5.744   1.255   0.184
 4241SOL    HW213623   5.872   1.323   0.108
 4242SOL     OW13624   2.348   1.991   4.166
 4242SOL    HW113625   2.304   1.911   4.126
 4242SOL    HW213626   2.407   1.963   4.241
 4243SOL     OW13627   5.188   1.727   2.616
 4243SOL    HW113628   5.279   1.759   2.641
 4243SOL    HW213629   5.124   1.804   2.614
 4244SOL     OW13630   3.259   3.898   1.493
 4244SOL    HW113631   3.219   3.806   1.498
 4244SOL    HW213632   3.354   3.891   1.462
 4245SOL     OW13633   6.368   1.909   6.706
 4245SOL    HW113634   6.351   1.965   6.787
 4245SOL    HW213635   6.287   1.911   6.647
 4246SOL     OW13636   6.636   4.225   3.162
 4246SOL    HW113637   6.684   4.143   3.192
 4246SOL    HW213638   6.696   4.304   3.174
 4247SOL     OW13639   1.005   6.363   4.035
 4247SOL    HW113640   0.949   6.431   3.988
 4247SOL    HW213641   0.947   6.307   4.094
 4248SOL     OW13642   2.339   1.838   4.667
 4248SOL    HW113643   2.337   1.936   4.683
 4248SOL    HW213644   2.261   1.795   4.712
 4249SOL     OW13645   6.262   3.254   5.220
 4249SOL    HW113646   6.173   3.210   5.215
 4249SOL    HW213647   6.251   3.353   5.224
 4250SOL     OW13648   0.046   4.570   3.045
 4250SOL    HW113649   0.145   4.555   3.045
 4250SOL    HW213650   0.027   4.666   3.023
 4251SOL     OW13651   6.068   5.127   0.204
 4251SOL    HW113652   6.140   5.128   0.273
 4251SOL    HW213653   6.093   5.063   0.131
 4252SOL     OW13654   6.588   6.653   5.416
 4252SOL    HW113655   6.667   6.592   5.426
 4252SOL    HW213656   6.551   6.644   5.324
 4253SOL     OW13657   2.579   0.406   1.825
 4253SOL    HW113658   2.661   0.349   1.835
 4253SOL    HW213659   2.587   0.460   1.741
 4254SOL     OW13660   1.180   2.922   1.602
 4254SOL    HW113661   1.116   2.857   1.642
 4254SOL    HW213662   1.189   2.904   1.504
 4255SOL     OW13663   5.952   2.812   3.172
 4255SOL    HW113664   5.923   2.726   3.215
 4255SOL    HW213665   6.029   2.794   3.111
 4256SOL     OW13666   1.461   6.540   0.823
 4256SOL    HW113667   1.397   6.519   0.897
 4256SOL    HW213668   1.528   6.466   0.815
 4257SOL     OW13669   3.885   0.486   5.117
 4257SOL    HW113670   3.946   0.432   5.175
 4257SOL    HW213671   3.938   0.559   5.074
 4258SOL     OW13672   5.899   6.317   1.796
 4258SOL    HW113673   5.875   6.403   1.840
 4258SOL    HW213674   5.824   6.288   1.737
 4259SOL     OW13675   3.149   0.887   6.538
 4259SOL    HW113676   3.180   0.800   6.576
 4259SOL    HW213677   3.121   0.875   6.443
 4260SOL     OW13678   5.284   6.006   4.297
 4260SOL    HW113679   5.334   6.073   4.242
 4260SOL    HW213680   5.349   5.942   4.339
 4261SOL     OW13681   1.836   0.821   1.800
 4261SOL    HW113682   1.900   0.806   1.875
 4261SOL    HW213683   1.854   0.910   1.758
 4262SOL     OW13684   0.870   4.581   5.600
 4262SOL    HW113685   0.886   4.611   5.506
 4262SOL    HW213686   0.812   4.647   5.647
 4263SOL     OW13687   2.623   6.390   3.810
 4263SOL    HW113688   2.613   6.436   3.898
 4263SOL    HW213689   2.711   6.417   3.769
 4264SOL     OW13690   6.999   1.805   2.426
 4264SOL    HW113691   6.902   1.800   2.401
 4264SOL    HW213692   0.020   1.867   2.363
 4265SOL     OW13693   5.388   1.553   0.037
 4265SOL    HW113694   5.427   1.578   0.126
 4265SOL    HW213695   5.460   1.520   7.003
 4266SOL     OW13696   2.250   5.162   0.692
 4266SOL    HW113697   2.335   5.193   0.734
 4266SOL    HW213698   2.251   5.062   0.683
 4267SOL     OW13699   2.186   4.001   4.739
 4267SOL    HW113700   2.225   4.083   4.696
 4267SOL    HW213701   2.215   3.995   4.834
 4268SOL     OW13702   1.719   6.844   6.779
 4268SOL    HW113703   1.738   6.825   6.875
 4268SOL    HW213704   1.799   6.823   6.724
 4269SOL     OW13705   2.100   1.489   0.760
 4269SOL    HW113706   2.088   1.391   0.774
 4269SOL    HW213707   2.139   1.505   0.669
 4270SOL     OW13708   2.919   3.532   3.583
 4270SOL    HW113709   2.944   3.611   3.526
 4270SOL    HW213710   2.932   3.448   3.531
 4271SOL     OW13711   0.145   0.469   6.194
 4271SOL    HW113712   0.145   0.561   6.232
 4271SOL    HW213713   0.050   0.436   6.187
 4272SOL     OW13714   0.492   4.451   5.116
 4272SOL    HW113715   0.592   4.453   5.123
 4272SOL    HW213716   0.459   4.538   5.080
 4273SOL     OW13717   4.631   6.150   3.894
 4273SOL    HW113718   4.698   6.147   3.819
 4273SOL    HW213719   4.565   6.223   3.877
 4274SOL     OW13720   1.077   0.014   2.746
 4274SOL    HW113721   1.074   0.092   2.684
 4274SOL    HW213722   1.016   0.031   2.823
 4275SOL     OW13723   6.736   1.610   5.760
 4275SOL    HW113724   6.758   1.512   5.763
 4275SOL    HW213725   6.677   1.633   5.838
 4276SOL     OW13726   1.458   4.896   3.119
 4276SOL    HW113727   1.469   4.989   3.086
 4276SOL    HW213728   1.432   4.897   3.216
 4277SOL     OW13729   6.742   4.672   4.359
 4277SOL    HW113730   6.801   4.728   4.301
 4277SOL    HW213731   6.695   4.604   4.302
 4278SOL     OW13732   0.030   0.650   5.043
 4278SOL    HW113733   0.072   0.667   4.954
 4278SOL    HW213734   0.071   0.711   5.111
 4279SOL     OW13735   3.185   6.313   5.360
 4279SOL    HW113736   3.209   6.217   5.373
 4279SOL    HW213737   3.192   6.336   5.263
 4280SOL     OW13738   5.275   1.221   5.519
 4280SOL    HW113739   5.297   1.222   5.422
 4280SOL    HW213740   5.336   1.282   5.568
 4281SOL     OW13741   2.333   4.925   4.468
 4281SOL    HW113742   2.389   4.871   4.405
 4281SOL    HW213743   2.273   4.865   4.520
 4282SOL     OW13744   2.632   2.436   0.032
 4282SOL    HW113745   2.729   2.421   0.049
 4282SOL    HW213746   2.615   2.534   0.018
 4283SOL     OW13747   1.564   0.793   3.928
 4283SOL    HW113748   1.655   0.807   3.890
 4283SOL    HW213749   1.504   0.867   3.897
 4284SOL     OW13750   5.243   5.915   1.845
 4284SOL    HW113751   5.233   5.935   1.942
 4284SOL    HW213752   5.154   5.917   1.801
 4285SOL     OW13753   0.567   0.303   5.976
 4285SOL    HW113754   0.492   0.368   5.990
 4285SOL    HW213755   0.625   0.335   5.901
 4286SOL     OW13756   5.213   5.359   6.730
 4286SOL    HW113757   5.161   5.304   6.795
 4286SOL    HW213758   5.279   5.301   6.683
 4287SOL     OW13759   6.125   0.730   6.099
 4287SOL    HW113760   6.209   0.754   6.147
 4287SOL    HW213761   6.088   0.811   6.054
 4288SOL     OW13762   0.861   5.909   3.048
 4288SOL    HW113763   0.888   5.848   2.974
 4288SOL    HW213764   0.942   5.953   3.087
 4289SOL     OW13765   6.040   3.249   1.029
 4289SOL    HW113766   5.996   3.187   1.094
 4289SOL    HW213767   6.113   3.299   1.076
 4290SOL     OW13768   2.285   6.594   1.108
 4290SOL    HW113769   2.287   6.589   1.008
 4290SOL    HW213770   2.327   6.680   1.138
 4291SOL     OW13771   4.565   3.599   1.705
 4291SOL    HW113772   4.570   3.692   1.668
 4291SOL    HW213773   4.470   3.575   1.723
 4292SOL     OW13774   6.570   4.555   5.734
 4292SOL    HW113775   6.589   4.464   5.697
 4292SOL    HW213776   6.493   4.549   5.798
 4293SOL     OW13777   0.026   3.750   6.928
 4293SOL    HW113778   0.044   3.824   6.863
 4293SOL    HW213779   6.992   3.682   6.885
 4294SOL     OW13780   4.400   2.993   0.277
 4294SOL    HW113781   4.344   3.041   0.209
 4294SOL    HW213782   4.437   3.059   0.342
 4295SOL     OW13783   3.567   6.208   5.006
 4295SOL    HW113784   3.609   6.125   5.042
 4295SOL    HW213785   3.468   6.195   5.000
 4296SOL     OW13786   3.080   1.697   6.905
 4296SOL    HW113787   3.026   1.614   6.916
 4296SOL    HW213788   3.053   1.764   6.975
 4297SOL     OW13789   5.605   0.340   5.871
 4297SOL    HW113790   5.520   0.312   5.827
 4297SOL    HW213791   5.678   0.343   5.803
 4298SOL     OW13792   2.145   5.430   6.670
 4298SOL    HW113793   2.218   5.395   6.612
 4298SOL    HW213794   2.058   5.392   6.639
 4299SOL     OW13795   0.901   2.452   6.916
 4299SOL    HW113796   0.936   2.460   7.010
 4299SOL    HW213797   0.841   2.529   6.897
 4300SOL     OW13798   3.017   1.302   6.382
 4300SOL    HW113799   3.102   1.354   6.372
 4300SOL    HW213800   2.970   1.331   6.465
 4301SOL     OW13801   2.444   1.151   0.551
 4301SOL    HW113802   2.442   1.115   0.644
 4301SOL    HW213803   2.351   1.170   0.520
 4302SOL     OW13804   0.738   6.347   5.501
 4302SOL    HW113805   0.650   6.308   5.473
 4302SOL    HW213806   0.809   6.278   5.492
 4303SOL     OW13807   6.117   4.337   4.263
 4303SOL    HW113808   6.168   4.422   4.250
 4303SOL    HW213809   6.062   4.344   4.346
 4304SOL     OW13810   2.908   3.686   4.176
 4304SOL    HW113811   2.854   3.751   4.122
 4304SOL    HW213812   3.000   3.679   4.137
 4305SOL     OW13813   6.196   1.337   3.721
 4305SOL    HW113814   6.143   1.381   3.794
 4305SOL    HW213815   6.292   1.332   3.749
 4306SOL     OW13816   6.651   3.550   6.576
 4306SOL    HW113817   6.588   3.627   6.576
 4306SOL    HW213818   6.609   3.472   6.623
 4307SOL     OW13819   4.811   4.458   6.337
 4307SOL    HW113820   4.773   4.367   6.320
 4307SOL    HW213821   4.899   4.466   6.290
 4308SOL     OW13822   5.402   5.843   6.086
 4308SOL    HW113823   5.419   5.923   6.144
 4308SOL    HW213824   5.485   5.787   6.082
 4309SOL     OW13825   0.819   0.425   0.093
 4309SOL    HW113826   0.781   0.435   0.185
 4309SOL    HW213827   0.748   0.442   0.026
 4310SOL     OW13828   1.944   2.325   3.543
 4310SOL    HW113829   1.969   2.232   3.517
 4310SOL    HW213830   2.010   2.360   3.609
 4311SOL     OW13831   1.242   5.608   2.796
 4311SOL    HW113832   1.235   5.594   2.894
 4311SOL    HW213833   1.203   5.697   2.772
 4312SOL     OW13834   1.883   5.419   1.591
 4312SOL    HW113835   1.922   5.372   1.670
 4312SOL    HW213836   1.944   5.407   1.512
 4313SOL     OW13837   5.072   1.530   2.146
 4313SOL    HW113838   5.048   1.622   2.115
 4313SOL    HW213839   5.026   1.511   2.233
 4314SOL     OW13840   5.187   2.482   3.576
 4314SOL    HW113841   5.188   2.501   3.674
 4314SOL    HW213842   5.098   2.506   3.538
 4315SOL     OW13843   1.659   0.920   2.141
 4315SOL    HW113844   1.623   0.857   2.072
 4315SOL    HW213845   1.591   0.932   2.213
 4316SOL     OW13846   4.919   0.355   1.179
 4316SOL    HW113847   4.953   0.416   1.250
 4316SOL    HW213848   4.857   0.288   1.220
 4317SOL     OW13849   3.145   0.945   4.799
 4317SOL    HW113850   3.191   1.017   4.852
 4317SOL    HW213851   3.213   0.879   4.768
 4318SOL     OW13852   0.955   3.537   3.412
 4318SOL    HW113853   1.023   3.464   3.411
 4318SOL    HW213854   0.975   3.603   3.339
 4319SOL     OW13855   2.507   2.639   0.468
 4319SOL    HW113856   2.464   2.727   0.486
 4319SOL    HW213857   2.485   2.609   0.376
 4320SOL     OW13858   1.280   5.961   1.804
 4320SOL    HW113859   1.306   5.930   1.713
 4320SOL    HW213860   1.248   5.883   1.858
 4321SOL     OW13861   6.712   0.273   4.322
 4321SOL    HW113862   6.730   0.360   4.275
 4321SOL    HW213863   6.755   0.275   4.412
 4322SOL     OW13864   5.909   0.972   6.869
 4322SOL    HW113865   5.996   0.940   6.830
 4322SOL    HW213866   5.922   1.062   6.911
 4323SOL     OW13867   5.436   3.864   2.068
 4323SOL    HW113868   5.502   3.790   2.052
 4323SOL    HW213869   5.457   3.941   2.007
 4324SOL     OW13870   5.614   4.876   6.985
 4324SOL    HW113871   5.560   4.890   0.042
 4324SOL    HW213872   5.553   4.859   6.908
 4325SOL     OW13873   1.021   0.837   6.909
 4325SOL    HW113874   1.012   0.937   6.909
 4325SOL    HW213875   1.015   0.803   6.815
 4326SOL     OW13876   5.893   2.835   5.231
 4326SOL    HW113877   5.921   2.745   5.265
 4326SOL    HW213878   5.793   2.840   5.227
 4327SOL     OW13879   6.177   5.274   2.546
 4327SOL    HW113880   6.212   5.360   2.583
 4327SOL    HW213881   6.121   5.229   2.616
 4328SOL     OW13882   4.990   4.148   6.219
 4328SOL    HW113883   5.073   4.092   6.219
 4328SOL    HW213884   5.014   4.243   6.242
 4329SOL     OW13885   3.596   2.030   6.170
 4329SOL    HW113886   3.645   1.987   6.094
 4329SOL    HW213887   3.528   2.094   6.133
 4330SOL     OW13888   3.160   0.689   5.230
 4330SOL    HW113889   3.144   0.594   5.205
 4330SOL    HW213890   3.076   0.729   5.267
 4331SOL     OW13891   5.254   3.389   1.190
 4331SOL    HW113892   5.331   3.406   1.251
 4331SOL    HW213893   5.169   3.409   1.238
 4332SOL     OW13894   5.529   4.229   2.276
 4332SOL    HW113895   5.618   4.270   2.253
 4332SOL    HW213896   5.541   4.132   2.298
 4333SOL     OW13897   4.501   1.449   5.229
 4333SOL    HW113898   4.474   1.443   5.326
 4333SOL    HW213899   4.492   1.543   5.198
 4334SOL     OW13900   2.682   1.987   2.624
 4334SOL    HW113901   2.703   1.977   2.526
 4334SOL    HW213902   2.600   2.042   2.635
 4335SOL     OW13903   3.611   4.064   3.465
 4335SOL    HW113904   3.655   4.122   3.397
 4335SOL    HW213905   3.638   4.093   3.557
 4336SOL     OW13906   0.831   6.566   5.865
 4336SOL    HW113907   0.887   6.639   5.826
 4336SOL    HW213908   0.879   6.526   5.943
 4337SOL     OW13909   1.368   4.689   0.113
 4337SOL    HW113910   1.399   4.741   0.033
 4337SOL    HW213911   1.417   4.602   0.117
 4338SOL     OW13912   4.664   5.850   4.439
 4338SOL    HW113913   4.569   5.824   4.457
 4338SOL    HW213914   4.692   5.921   4.504
 4339SOL     OW13915   5.589   3.337   5.177
 4339SOL    HW113916   5.499   3.358   5.139
 4339SOL    HW213917   5.660   3.364   5.112
 4340SOL     OW13918   6.195   4.407   2.765
 4340SOL    HW113919   6.188   4.376   2.860
 4340SOL    HW213920   6.103   4.410   2.724
 4341SOL     OW13921   0.824   4.898   1.870
 4341SOL    HW113922   0.873   4.974   1.913
 4341SOL    HW213923   0.869   4.812   1.894
 4342SOL     OW13924   6.917   2.987   4.303
 4342SOL    HW113925   6.939   2.890   4.309
 4342SOL    HW213926   6.842   3.000   4.238
 4343SOL     OW13927   2.238   6.499   6.389
 4343SOL    HW113928   2.242   6.450   6.302
 4343SOL    HW213929   2.217   6.436   6.463
 4344SOL     OW13930   2.112   5.539   2.926
 4344SOL    HW113931   2.153   5.457   2.887
 4344SOL    HW213932   2.136   5.545   3.023
 4345SOL     OW13933   2.033   3.087   5.670
 4345SOL    HW113934   2.027   3.137   5.756
 4345SOL    HW213935   2.127   3.089   5.636
 4346SOL     OW13936   2.116   3.067   1.857
 4346SOL    HW113937   2.092   3.143   1.916
 4346SOL    HW213938   2.205   3.084   1.815
 4347SOL     OW13939   6.186   1.089   2.054
 4347SOL    HW113940   6.162   1.160   1.987
 4347SOL    HW213941   6.150   1.001   2.022
 4348SOL     OW13942   0.528   3.184   2.445
 4348SOL    HW113943   0.434   3.156   2.464
 4348SOL    HW213944   0.528   3.276   2.405
 4349SOL     OW13945   6.712   1.990   3.206
 4349SOL    HW113946   6.698   2.032   3.296
 4349SOL    HW213947   6.740   1.895   3.217
 4350SOL     OW13948   4.927   1.897   4.299
 4350SOL    HW113949   4.990   1.939   4.364
 4350SOL    HW213950   4.946   1.931   4.207
 4351SOL     OW13951   2.228   6.354   0.764
 4351SOL    HW113952   2.169   6.311   0.832
 4351SOL    HW213953   2.176   6.425   0.716
 4352SOL     OW13954   1.251   2.521   1.628
 4352SOL    HW113955   1.176   2.473   1.582
 4352SOL    HW213956   1.334   2.466   1.623
 4353SOL     OW13957   3.206   4.897   0.643
 4353SOL    HW113958   3.146   4.932   0.572
 4353SOL    HW213959   3.300   4.923   0.623
 4354SOL     OW13960   2.388   6.519   5.844
 4354SOL    HW113961   2.400   6.523   5.745
 4354SOL    HW213962   2.410   6.427   5.877
 4355SOL     OW13963   3.589   6.946   1.945
 4355SOL    HW113964   3.542   6.924   2.030
 4355SOL    HW213965   3.523   6.958   1.872
 4356SOL     OW13966   4.761   4.133   1.894
 4356SOL    HW113967   4.810   4.218   1.873
 4356SOL    HW213968   4.704   4.107   1.816
 4357SOL     OW13969   6.124   0.093   6.979
 4357SOL    HW113970   6.036   0.046   6.976
 4357SOL    HW213971   6.197   0.025   6.991
 4358SOL     OW13972   6.654   6.260   0.714
 4358SOL    HW113973   6.673   6.247   0.617
 4358SOL    HW213974   6.722   6.323   0.752
 4359SOL     OW13975   1.353   1.852   5.258
 4359SOL    HW113976   1.333   1.760   5.293
 4359SOL    HW213977   1.450   1.858   5.236
 4360SOL     OW13978   1.872   3.211   2.691
 4360SOL    HW113979   1.919   3.300   2.689
 4360SOL    HW213980   1.881   3.171   2.782
 4361SOL     OW13981   2.825   2.535   1.692
 4361SOL    HW113982   2.860   2.486   1.772
 4361SOL    HW213983   2.828   2.475   1.613
 4362SOL     OW13984   6.110   3.789   4.414
 4362SOL    HW113985   6.197   3.837   4.401
 4362SOL    HW213986   6.118   3.695   4.383
 4363SOL     OW13987   5.154   2.340   5.770
 4363SOL    HW113988   5.234   2.373   5.821
 4363SOL    HW213989   5.134   2.246   5.797
 4364SOL     OW13990   3.053   3.701   5.329
 4364SOL    HW113991   3.005   3.613   5.336
 4364SOL    HW213992   3.052   3.731   5.233
 4365SOL     OW13993   2.839   1.288   1.936
 4365SOL    HW113994   2.918   1.291   1.998
 4365SOL    HW213995   2.802   1.381   1.925
 4366SOL     OW13996   5.487   6.543   0.209
 4366SOL    HW113997   5.527   6.613   0.268
 4366SOL    HW213998   5.552   6.520   0.136
 4367SOL     OW13999   1.537   4.978   5.437
 4367SOL    HW114000   1.479   5.010   5.363
 4367SOL    HW214001   1.479   4.946   5.513
 4368SOL     OW14002   4.267   5.161   1.110
 4368SOL    HW114003   4.348   5.201   1.067
 4368SOL    HW214004   4.286   5.068   1.139
 4369SOL     OW14005   4.434   5.278   2.565
 4369SOL    HW114006   4.364   5.207   2.563
 4369SOL    HW214007   4.487   5.269   2.650
 4370SOL     OW14008   4.942   4.700   3.066
 4370SOL    HW114009   4.865   4.705   3.002
 4370SOL    HW214010   5.011   4.636   3.031
 4371SOL     OW14011   6.239   0.611   1.722
 4371SOL    HW114012   6.281   0.590   1.810
 4371SOL    HW214013   6.225   0.709   1.713
 4372SOL     OW14014   4.292   0.894   2.803
 4372SOL    HW114015   4.252   0.967   2.746
 4372SOL    HW214016   4.298   0.925   2.898
 4373SOL     OW14017   0.037   2.931   0.054
 4373SOL    HW114018   7.022   3.020   0.074
 4373SOL    HW214019   0.118   2.918   0.112
 4374SOL     OW14020   0.748   1.911   2.124
 4374SOL    HW114021   0.806   1.836   2.092
 4374SOL    HW214022   0.721   1.969   2.047
 4375SOL     OW14023   3.239   0.046   4.286
 4375SOL    HW114024   3.281   0.040   4.377
 4375SOL    HW214025   3.184   6.990   4.270
 4376SOL     OW14026   6.855   0.170   2.578
 4376SOL    HW114027   6.943   0.185   2.533
 4376SOL    HW214028   6.782   0.164   2.509
 4377SOL     OW14029   6.095   4.010   0.416
 4377SOL    HW114030   6.024   3.969   0.358
 4377SOL    HW214031   6.172   4.038   0.359
 4378SOL     OW14032   1.777   1.782   2.727
 4378SOL    HW114033   1.725   1.698   2.712
 4378SOL    HW214034   1.725   1.843   2.788
 4379SOL     OW14035   2.950   1.361   3.874
 4379SOL    HW114036   2.965   1.300   3.952
 4379SOL    HW214037   3.019   1.433   3.875
 4380SOL     OW14038   1.166   0.493   1.414
 4380SOL    HW114039   1.195   0.426   1.482
 4380SOL    HW214040   1.209   0.473   1.326
 4381SOL     OW14041   1.028   6.095   5.125
 4381SOL    HW114042   1.051   6.013   5.178
 4381SOL    HW214043   1.102   6.115   5.061
 4382SOL     OW14044   6.713   3.049   6.206
 4382SOL    HW114045   6.676   3.139   6.181
 4382SOL    HW214046   6.761   3.056   6.293
 4383SOL     OW14047   6.848   3.844   6.269
 4383SOL    HW114048   6.866   3.943   6.268
 4383SOL    HW214049   6.749   3.828   6.269
 4384SOL     OW14050   5.737   1.069   3.881
 4384SOL    HW114051   5.656   1.099   3.830
 4384SOL    HW214052   5.777   1.148   3.929
 4385SOL     OW14053   4.585   2.280   5.238
 4385SOL    HW114054   4.579   2.314   5.145
 4385SOL    HW214055   4.526   2.335   5.298
 4386SOL     OW14056   1.501   3.999   5.251
 4386SOL    HW114057   1.475   4.069   5.319
 4386SOL    HW214058   1.599   3.979   5.261
 4387SOL     OW14059   6.554   2.857   1.845
 4387SOL    HW114060   6.624   2.796   1.809
 4387SOL    HW214061   6.503   2.899   1.769
 4388SOL     OW14062   4.643   2.381   6.100
 4388SOL    HW114063   4.649   2.281   6.092
 4388SOL    HW214064   4.649   2.406   6.196
 4389SOL     OW14065   6.715   3.579   0.853
 4389SOL    HW114066   6.698   3.481   0.852
 4389SOL    HW214067   6.674   3.619   0.935
 4390SOL     OW14068   4.912   0.027   1.425
 4390SOL    HW114069   4.907   0.051   1.522
 4390SOL    HW214070   4.998   7.005   1.407
 4391SOL     OW14071   2.883   4.767   6.274
 4391SOL    HW114072   2.845   4.679   6.303
 4391SOL    HW214073   2.840   4.841   6.326
 4392SOL     OW14074   0.690   1.729   5.011
 4392SOL    HW114075   0.685   1.807   4.949
 4392SOL    HW214076   0.696   1.645   4.958
 4393SOL     OW14077   6.746   0.841   2.260
 4393SOL    HW114078   6.786   0.847   2.168
 4393SOL    HW214079   6.647   0.857   2.254
 4394SOL     OW14080   0.980   6.545   1.441
 4394SOL    HW114081   0.990   6.458   1.391
 4394SOL    HW214082   1.037   6.543   1.522
 4395SOL     OW14083   1.784   0.282   1.502
 4395SOL    HW114084   1.792   0.322   1.411
 4395SOL    HW214085   1.876   0.267   1.540
 4396SOL     OW14086   1.826   1.825   4.300
 4396SOL    HW114087   1.853   1.898   4.363
 4396SOL    HW214088   1.879   1.831   4.216
 4397SOL     OW14089   1.904   3.132   4.454
 4397SOL    HW114090   1.839   3.115   4.380
 4397SOL    HW214091   1.929   3.045   4.497
 4398SOL     OW14092   1.745   3.336   6.818
 4398SOL    HW114093   1.706   3.343   6.726
 4398SOL    HW214094   1.824   3.397   6.825
 4399SOL     OW14095   2.454   6.531   1.945
 4399SOL    HW114096   2.457   6.488   1.855
 4399SOL    HW214097   2.392   6.480   2.005
 4400SOL     OW14098   2.205   6.630   3.605
 4400SOL    HW114099   2.219   6.603   3.510
 4400SOL    HW214100   2.239   6.558   3.665
 4401SOL     OW14101   4.006   6.395   5.087
 4401SOL    HW114102   3.913   6.403   5.050
 4401SOL    HW214103   4.005   6.335   5.167
 4402SOL     OW14104   0.461   0.308   2.560
 4402SOL    HW114105   0.488   0.399   2.592
 4402SOL    HW214106   0.405   0.264   2.630
 4403SOL     OW14107   1.633   6.337   0.848
 4403SOL    HW114108   1.727   6.335   0.882
 4403SOL    HW214109   1.627   6.278   0.767
 4404SOL     OW14110   1.448   5.895   5.176
 4404SOL    HW114111   1.534   5.846   5.194
 4404SOL    HW214112   1.397   5.848   5.104
 4405SOL     OW14113   1.974   4.766   2.551
 4405SOL    HW114114   1.893   4.708   2.549
 4405SOL    HW214115   2.056   4.709   2.562
 4406SOL     OW14116   6.744   3.276   0.892
 4406SOL    HW114117   6.817   3.209   0.902
 4406SOL    HW214118   6.687   3.277   0.975
 4407SOL     OW14119   0.301   5.405   0.711
 4407SOL    HW114120   0.265   5.333   0.652
 4407SOL    HW214121   0.363   5.463   0.658
 4408SOL     OW14122   2.997   6.120   6.524
 4408SOL    HW114123   2.974   6.135   6.428
 4408SOL    HW214124   2.923   6.155   6.581
 4409SOL     OW14125   4.646   1.180   1.750
 4409SOL    HW114126   4.721   1.243   1.731
 4409SOL    HW214127   4.566   1.230   1.781
 4410SOL     OW14128   6.740   5.788   0.566
 4410SOL    HW114129   6.758   5.722   0.639
 4410SOL    HW214130   6.774   5.878   0.593
 4411SOL     OW14131   3.604   4.435   5.416
 4411SOL    HW114132   3.535   4.404   5.350
 4411SOL    HW214133   3.612   4.535   5.412
 4412SOL     OW14134   5.106   6.641   4.204
 4412SOL    HW114135   5.060   6.593   4.279
 4412SOL    HW214136   5.149   6.724   4.239
 4413SOL     OW14137   4.732   5.879   3.834
 4413SOL    HW114138   4.691   5.966   3.860
 4413SOL    HW214139   4.682   5.841   3.756
 4414SOL     OW14140   4.332   5.673   1.460
 4414SOL    HW114141   4.344   5.731   1.380
 4414SOL    HW214142   4.399   5.699   1.530
 4415SOL     OW14143   3.844   3.661   0.797
 4415SOL    HW114144   3.803   3.578   0.836
 4415SOL    HW214145   3.936   3.673   0.836
 4416SOL     OW14146   3.931   1.052   4.420
 4416SOL    HW114147   4.017   1.033   4.372
 4416SOL    HW214148   3.863   0.984   4.393
 4417SOL     OW14149   6.360   2.717   4.474
 4417SOL    HW114150   6.431   2.740   4.407
 4417SOL    HW214151   6.276   2.767   4.452
 4418SOL     OW14152   5.794   1.897   2.133
 4418SOL    HW114153   5.754   1.908   2.042
 4418SOL    HW214154   5.772   1.806   2.168
 4419SOL     OW14155   6.451   0.142   5.900
 4419SOL    HW114156   6.449   0.046   5.929
 4419SOL    HW214157   6.418   0.148   5.805
 4420SOL     OW14158   3.219   1.698   0.856
 4420SOL    HW114159   3.312   1.688   0.893
 4420SOL    HW214160   3.198   1.795   0.845
 4421SOL     OW14161   1.591   2.168   5.528
 4421SOL    HW114162   1.496   2.143   5.508
 4421SOL    HW214163   1.629   2.220   5.452
 4422SOL     OW14164   0.771   4.908   0.048
 4422SOL    HW114165   0.803   4.908   6.979
 4422SOL    HW214166   0.836   4.858   0.105
 4423SOL     OW14167   6.483   4.981   5.965
 4423SOL    HW114168   6.409   4.915   5.951
 4423SOL    HW214169   6.477   5.053   5.896
 4424SOL     OW14170   5.704   5.889   4.497
 4424SOL    HW114171   5.629   5.871   4.561
 4424SOL    HW214172   5.732   5.803   4.454
 4425SOL     OW14173   1.666   5.494   1.094
 4425SOL    HW114174   1.624   5.552   1.164
 4425SOL    HW214175   1.709   5.553   1.024
 4426SOL     OW14176   1.073   0.940   4.004
 4426SOL    HW114177   0.984   0.922   3.963
 4426SOL    HW214178   1.118   0.854   4.027
 4427SOL     OW14179   4.006   6.108   2.461
 4427SOL    HW114180   3.937   6.177   2.441
 4427SOL    HW214181   3.997   6.032   2.396
 4428SOL     OW14182   4.866   0.695   4.409
 4428SOL    HW114183   4.964   0.687   4.389
 4428SOL    HW214184   4.814   0.666   4.329
 4429SOL     OW14185   2.759   6.616   2.898
 4429SOL    HW114186   2.827   6.684   2.869
 4429SOL    HW214187   2.726   6.565   2.819
 4430SOL     OW14188   5.620   5.262   4.331
 4430SOL    HW114189   5.581   5.212   4.253
 4430SOL    HW214190   5.548   5.284   4.396
 4431SOL     OW14191   3.167   0.566   3.684
 4431SOL    HW114192   3.111   0.520   3.753
 4431SOL    HW214193   3.192   0.658   3.716
 4432SOL     OW14194   1.905   3.191   6.448
 4432SOL    HW114195   1.837   3.118   6.456
 4432SOL    HW214196   1.894   3.238   6.360
 4433SOL     OW14197   0.375   2.628   4.865
 4433SOL    HW114198   0.342   2.535   4.877
 4433SOL    HW214199   0.300   2.685   4.832
 4434SOL     OW14200   5.276   1.788   2.291
 4434SOL    HW114201   5.327   1.797   2.206
 4434SOL    HW214202   5.212   1.711   2.285
 4435SOL     OW14203   3.970   3.773   1.516
 4435SOL    HW114204   3.885   3.721   1.521
 4435SOL    HW214205   4.046   3.712   1.491
 4436SOL     OW14206   3.449   1.190   1.533
 4436SOL    HW114207   3.448   1.215   1.629
 4436SOL    HW214208   3.540   1.157   1.508
 4437SOL     OW14209   0.800   3.392   2.897
 4437SOL    HW114210   0.846   3.326   2.957
 4437SOL    HW214211   0.817   3.367   2.801
 4438SOL     OW14212   4.799   6.901   5.610
 4438SOL    HW114213   4.885   6.937   5.576
 4438SOL    HW214214   4.723   6.938   5.556
 4439SOL     OW14215   0.916   4.886   2.962
 4439SOL    HW114216   0.969   4.967   2.937
 4439SOL    HW214217   0.974   4.824   3.015
 4440SOL     OW14218   2.809   4.461   1.101
 4440SOL    HW114219   2.849   4.385   1.152
 4440SOL    HW214220   2.849   4.466   1.010
 4441SOL     OW14221   6.831   1.362   1.129
 4441SOL    HW114222   6.899   1.370   1.056
 4441SOL    HW214223   6.873   1.385   1.217
 4442SOL     OW14224   1.328   5.308   5.730
 4442SOL    HW114225   1.359   5.396   5.696
 4442SOL    HW214226   1.249   5.321   5.790
 4443SOL     OW14227   0.722   4.351   6.364
 4443SOL    HW114228   0.684   4.289   6.295
 4443SOL    HW214229   0.821   4.360   6.350
 4444SOL     OW14230   4.481   4.045   0.384
 4444SOL    HW114231   4.559   4.034   0.323
 4444SOL    HW214232   4.511   4.082   0.472
 4445SOL     OW14233   1.571   5.484   0.162
 4445SOL    HW114234   1.667   5.465   0.141
 4445SOL    HW214235   1.544   5.571   0.120
 4446SOL     OW14236   5.663   1.757   0.283
 4446SOL    HW114237   5.673   1.718   0.374
 4446SOL    HW214238   5.704   1.696   0.216
 4447SOL     OW14239   5.717   4.399   5.219
 4447SOL    HW114240   5.757   4.359   5.302
 4447SOL    HW214241   5.788   4.405   5.148
 4448SOL     OW14242   2.753   6.957   1.298
 4448SOL    HW114243   2.850   6.942   1.319
 4448SOL    HW214244   2.696   6.914   1.368
 4449SOL     OW14245   4.522   1.300   6.381
 4449SOL    HW114246   4.577   1.262   6.455
 4449SOL    HW214247   4.430   1.320   6.415
 4450SOL     OW14248   2.855   1.516   6.687
 4450SOL    HW114249   2.881   1.421   6.671
 4450SOL    HW214250   2.878   1.571   6.607
 4451SOL     OW14251   4.434   4.991   4.393
 4451SOL    HW114252   4.508   5.058   4.387
 4451SOL    HW214253   4.413   4.955   4.302
 4452SOL     OW14254   6.053   5.910   4.792
 4452SOL    HW114255   6.076   5.971   4.868
 4452SOL    HW214256   6.032   5.964   4.710
 4453SOL     OW14257   1.510   2.885   1.893
 4453SOL    HW114258   1.426   2.878   1.947
 4453SOL    HW214259   1.589   2.872   1.953
 4454SOL     OW14260   0.575   1.383   0.152
 4454SOL    HW114261   0.660   1.423   0.119
 4454SOL    HW214262   0.596   1.300   0.205
 4455SOL     OW14263   5.539   5.490   5.162
 4455SOL    HW114264   5.445   5.493   5.195
 4455SOL    HW214265   5.578   5.582   5.164
 4456SOL     OW14266   2.393   5.995   3.417
 4456SOL    HW114267   2.481   5.963   3.453
 4456SOL    HW214268   2.338   6.032   3.492
 4457SOL     OW14269   1.787   1.968   4.707
 4457SOL    HW114270   1.847   1.973   4.787
 4457SOL    HW214271   1.836   2.000   4.626
 4458SOL     OW14272   2.229   3.332   1.451
 4458SOL    HW114273   2.289   3.410   1.469
 4458SOL    HW214274   2.238   3.266   1.526
 4459SOL     OW14275   2.598   1.788   4.127
 4459SOL    HW114276   2.639   1.872   4.162
 4459SOL    HW214277   2.595   1.720   4.200
 4460SOL     OW14278   0.799   3.398   5.176
 4460SOL    HW114279   0.744   3.317   5.197
 4460SOL    HW214280   0.804   3.457   5.257
 4461SOL     OW14281   1.509   1.052   1.025
 4461SOL    HW114282   1.561   1.035   0.941
 4461SOL    HW214283   1.570   1.046   1.104
 4462SOL     OW14284   5.860   4.196   2.455
 4462SOL    HW114285   5.808   4.114   2.480
 4462SOL    HW214286   5.943   4.200   2.510
 4463SOL     OW14287   5.044   1.388   1.343
 4463SOL    HW114288   5.043   1.409   1.245
 4463SOL    HW214289   5.110   1.447   1.389
 4464SOL     OW14290   0.695   5.939   0.297
 4464SOL    HW114291   0.679   5.849   0.258
 4464SOL    HW214292   0.787   5.942   0.337
 4465SOL     OW14293   2.567   5.244   0.432
 4465SOL    HW114294   2.634   5.301   0.478
 4465SOL    HW214295   2.613   5.169   0.384
 4466SOL     OW14296   1.797   2.074   2.916
 4466SOL    HW114297   1.718   2.019   2.889
 4466SOL    HW214298   1.770   2.169   2.925
 4467SOL     OW14299   2.478   5.870   3.779
 4467SOL    HW114300   2.469   5.903   3.873
 4467SOL    HW214301   2.569   5.831   3.766
 4468SOL     OW14302   1.418   4.043   0.993
 4468SOL    HW114303   1.367   4.075   0.913
 4468SOL    HW214304   1.390   4.096   1.073
 4469SOL     OW14305   2.573   0.773   1.272
 4469SOL    HW114306   2.526   0.768   1.360
 4469SOL    HW214307   2.664   0.732   1.280
 4470SOL     OW14308   0.438   1.289   2.492
 4470SOL    HW114309   0.435   1.192   2.465
 4470SOL    HW214310   0.349   1.330   2.473
 4471SOL     OW14311   2.062   3.119   6.803
 4471SOL    HW114312   1.976   3.079   6.772
 4471SOL    HW214313   2.127   3.122   6.727
 4472SOL     OW14314   1.348   2.081   0.660
 4472SOL    HW114315   1.441   2.056   0.632
 4472SOL    HW214316   1.340   2.072   0.759
 4473SOL     OW14317   5.911   3.108   3.459
 4473SOL    HW114318   5.971   3.030   3.475
 4473SOL    HW214319   5.859   3.094   3.374
 4474SOL     OW14320   2.731   0.074   2.386
 4474SOL    HW114321   2.734   0.161   2.335
 4474SOL    HW214322   2.757   0.091   2.481
 4475SOL     OW14323   0.968   3.860   1.362
 4475SOL    HW114324   1.015   3.892   1.444
 4475SOL    HW214325   0.928   3.770   1.380
 4476SOL     OW14326   6.158   1.171   4.340
 4476SOL    HW114327   6.115   1.180   4.250
 4476SOL    HW214328   6.204   1.083   4.346
 4477SOL     OW14329   1.964   0.512   5.509
 4477SOL    HW114330   2.006   0.506   5.600
 4477SOL    HW214331   1.868   0.484   5.516
 4478SOL     OW14332   1.135   0.173   1.311
 4478SOL    HW114333   1.219   0.225   1.298
 4478SOL    HW214334   1.143   0.085   1.265
 4479SOL     OW14335   1.325   1.742   0.426
 4479SOL    HW114336   1.318   1.781   0.518
 4479SOL    HW214337   1.263   1.663   0.419
 4480SOL     OW14338   0.920   3.973   5.058
 4480SOL    HW114339   0.873   3.982   5.146
 4480SOL    HW214340   0.885   3.893   5.009
 4481SOL     OW14341   2.245   5.476   5.181
 4481SOL    HW114342   2.153   5.448   5.208
 4481SOL    HW214343   2.309   5.401   5.195
 4482SOL     OW14344   2.299   3.557   5.853
 4482SOL    HW114345   2.344   3.519   5.772
 4482SOL    HW214346   2.202   3.534   5.850
 4483SOL     OW14347   0.483   2.617   1.957
 4483SOL    HW114348   0.573   2.611   1.915
 4483SOL    HW214349   0.418   2.559   1.907
 4484SOL     OW14350   2.285   2.784   0.186
 4484SOL    HW114351   2.300   2.685   0.196
 4484SOL    HW214352   2.189   2.800   0.164
 4485SOL     OW14353   4.585   2.733   5.186
 4485SOL    HW114354   4.493   2.758   5.215
 4485SOL    HW214355   4.644   2.725   5.266
 4486SOL     OW14356   5.768   5.078   5.458
 4486SOL    HW114357   5.752   4.997   5.513
 4486SOL    HW214358   5.706   5.151   5.487
 4487SOL     OW14359   2.056   2.819   6.923
 4487SOL    HW114360   1.992   2.859   6.857
 4487SOL    HW214361   2.150   2.842   6.896
 4488SOL     OW14362   1.395   3.888   3.914
 4488SOL    HW114363   1.378   3.832   3.994
 4488SOL    HW214364   1.364   3.840   3.832
 4489SOL     OW14365   5.036   5.463   5.111
 4489SOL    HW114366   4.948   5.421   5.134
 4489SOL    HW214367   5.022   5.560   5.090
 4490SOL     OW14368   5.118   2.250   1.134
 4490SOL    HW114369   5.100   2.260   1.232
 4490SOL    HW214370   5.203   2.296   1.111
 4491SOL     OW14371   0.957   3.672   3.168
 4491SOL    HW114372   0.999   3.625   3.090
 4491SOL    HW214373   0.878   3.724   3.137
 4492SOL     OW14374   5.561   1.430   2.065
 4492SOL    HW114375   5.582   1.427   1.967
 4492SOL    HW214376   5.479   1.486   2.080
 4493SOL     OW14377   6.115   6.286   4.494
 4493SOL    HW114378   6.054   6.237   4.432
 4493SOL    HW214379   6.092   6.383   4.496
 4494SOL     OW14380   1.207   0.999   5.748
 4494SOL    HW114381   1.124   0.970   5.796
 4494SOL    HW214382   1.199   0.975   5.651
 4495SOL     OW14383   3.918   6.893   2.612
 4495SOL    HW114384   3.844   6.828   2.630
 4495SOL    HW214385   3.991   6.847   2.563
 4496SOL     OW14386   4.842   6.152   6.942
 4496SOL    HW114387   4.919   6.090   6.926
 4496SOL    HW214388   4.784   6.155   6.860
 4497SOL     OW14389   4.025   2.395   6.792
 4497SOL    HW114390   3.988   2.447   6.869
 4497SOL    HW214391   4.089   2.325   6.827
 4498SOL     OW14392   6.811   5.320   6.484
 4498SOL    HW114393   6.861   5.337   6.399
 4498SOL    HW214394   6.785   5.408   6.525
 4499SOL     OW14395   5.878   2.355   3.537
 4499SOL    HW114396   5.819   2.405   3.473
 4499SOL    HW214397   5.974   2.368   3.510
 4500SOL     OW14398   4.079   4.469   6.648
 4500SOL    HW114399   4.171   4.506   6.648
 4500SOL    HW214400   4.083   4.369   6.644
 4501SOL     OW14401   5.706   2.099   2.410
 4501SOL    HW114402   5.696   2.143   2.320
 4501SOL    HW214403   5.777   2.146   2.462
 4502SOL     OW14404   0.922   4.028   0.123
 4502SOL    HW114405   0.848   4.050   0.059
 4502SOL    HW214406   0.907   4.078   0.209
 4503SOL     OW14407   2.934   6.905   2.350
 4503SOL    HW114408   3.020   6.941   2.314
 4503SOL    HW214409   2.860   6.969   2.329
 4504SOL     OW14410   6.647   2.351   3.947
 4504SOL    HW114411   6.596   2.267   3.928
 4504SOL    HW214412   6.622   2.421   3.880
 4505SOL     OW14413   6.729   4.336   2.257
 4505SOL    HW114414   6.770   4.425   2.277
 4505SOL    HW214415   6.753   4.271   2.330
 4506SOL     OW14416   5.642   2.869   3.601
 4506SOL    HW114417   5.578   2.846   3.527
 4506SOL    HW214418   5.678   2.784   3.641
 4507SOL     OW14419   6.983   2.875   3.984
 4507SOL    HW114420   6.891   2.907   3.962
 4507SOL    HW214421   0.024   2.922   3.926
 4508SOL     OW14422   1.256   4.429   6.902
 4508SOL    HW114423   1.210   4.358   6.850
 4508SOL    HW214424   1.344   4.396   6.935
 4509SOL     OW14425   4.910   2.515   2.619
 4509SOL    HW114426   4.819   2.484   2.647
 4509SOL    HW214427   4.931   2.481   2.528
 4510SOL     OW14428   4.572   1.422   4.153
 4510SOL    HW114429   4.637   1.365   4.203
 4510SOL    HW214430   4.597   1.518   4.164
 4511SOL     OW14431   6.616   3.682   1.107
 4511SOL    HW114432   6.657   3.748   1.169
 4511SOL    HW214433   6.539   3.637   1.153
 4512SOL     OW14434   3.333   1.900   5.792
 4512SOL    HW114435   3.401   1.880   5.722
 4512SOL    HW214436   3.241   1.895   5.752
 4513SOL     OW14437   0.742   6.064   6.398
 4513SOL    HW114438   0.806   6.052   6.474
 4513SOL    HW214439   0.793   6.087   6.315
 4514SOL     OW14440   3.485   3.364   0.242
 4514SOL    HW114441   3.490   3.407   0.152
 4514SOL    HW214442   3.577   3.342   0.273
 4515SOL     OW14443   5.470   1.489   4.825
 4515SOL    HW114444   5.527   1.452   4.898
 4515SOL    HW214445   5.453   1.418   4.757
 4516SOL     OW14446   2.705   0.411   5.559
 4516SOL    HW114447   2.687   0.430   5.462
 4516SOL    HW214448   2.799   0.381   5.571
 4517SOL     OW14449   4.261   6.347   6.683
 4517SOL    HW114450   4.185   6.411   6.695
 4517SOL    HW214451   4.275   6.330   6.585
 4518SOL     OW14452   1.110   6.684   0.929
 4518SOL    HW114453   1.168   6.603   0.932
 4518SOL    HW214454   1.165   6.763   0.900
 4519SOL     OW14455   4.973   6.745   6.927
 4519SOL    HW114456   5.033   6.824   6.916
 4519SOL    HW214457   4.934   6.721   6.838
 4520SOL     OW14458   4.286   5.674   5.463
 4520SOL    HW114459   4.318   5.581   5.447
 4520SOL    HW214460   4.245   5.710   5.379
 4521SOL     OW14461   5.094   1.723   4.949
 4521SOL    HW114462   5.078   1.794   4.880
 4521SOL    HW214463   5.022   1.727   5.018
 4522SOL     OW14464   6.173   4.089   3.267
 4522SOL    HW114465   6.270   4.086   3.291
 4522SOL    HW214466   6.163   4.089   3.168
 4523SOL     OW14467   1.301   3.856   0.202
 4523SOL    HW114468   1.272   3.925   0.136
 4523SOL    HW214469   1.253   3.770   0.183
 4524SOL     OW14470   0.046   3.682   2.158
 4524SOL    HW114471   0.107   3.624   2.212
 4524SOL    HW214472   0.067   3.778   2.177
 4525SOL     OW14473   2.748   1.960   5.700
 4525SOL    HW114474   2.799   2.043   5.725
 4525SOL    HW214475   2.657   1.987   5.666
 4526SOL     OW14476   0.205   0.796   6.578
 4526SOL    HW114477   0.250   0.711   6.605
 4526SOL    HW214478   0.164   0.839   6.658
 4527SOL     OW14479   6.646   0.225   2.930
 4527SOL    HW114480   6.742   0.232   2.957
 4527SOL    HW214481   6.608   0.139   2.965
 4528SOL     OW14482   4.362   0.852   6.369
 4528SOL    HW114483   4.380   0.911   6.448
 4528SOL    HW214484   4.342   0.908   6.289
 4529SOL     OW14485   2.888   1.299   5.649
 4529SOL    HW114486   2.913   1.394   5.668
 4529SOL    HW214487   2.964   1.239   5.674
 4530SOL     OW14488   2.298   6.287   4.427
 4530SOL    HW114489   2.372   6.343   4.464
 4530SOL    HW214490   2.313   6.191   4.450
 4531SOL     OW14491   0.734   4.152   6.207
 4531SOL    HW114492   0.645   4.142   6.163
 4531SOL    HW214493   0.767   4.063   6.237
 4532SOL     OW14494   5.067   0.863   2.746
 4532SOL    HW114495   5.001   0.816   2.687
 4532SOL    HW214496   5.032   0.954   2.769
 4533SOL     OW14497   1.434   1.094   3.089
 4533SOL    HW114498   1.348   1.088   3.139
 4533SOL    HW214499   1.446   1.187   3.054
 4534SOL     OW14500   4.249   2.061   5.186
 4534SOL    HW114501   4.335   2.078   5.138
 4534SOL    HW214502   4.257   1.978   5.241
 4535SOL     OW14503   3.401   1.433   1.252
 4535SOL    HW114504   3.441   1.377   1.325
 4535SOL    HW214505   3.408   1.530   1.276
 4536SOL     OW14506   2.613   1.326   5.633
 4536SOL    HW114507   2.557   1.250   5.666
 4536SOL    HW214508   2.710   1.301   5.638
 4537SOL     OW14509   4.063   3.702   2.772
 4537SOL    HW114510   4.047   3.604   2.762
 4537SOL    HW214511   4.065   3.726   2.869
 4538SOL     OW14512   1.576   2.441   1.774
 4538SOL    HW114513   1.632   2.380   1.718
 4538SOL    HW214514   1.543   2.391   1.854
 4539SOL     OW14515   2.276   5.655   4.583
 4539SOL    HW114516   2.300   5.686   4.491
 4539SOL    HW214517   2.200   5.590   4.577
 4540SOL     OW14518   0.799   1.016   1.073
 4540SOL    HW114519   0.763   0.994   0.982
 4540SOL    HW214520   0.782   1.112   1.093
 4541SOL     OW14521   4.559   1.559   0.074
 4541SOL    HW114522   4.462   1.540   0.057
 4541SOL    HW214523   4.568   1.625   0.149
 4542SOL     OW14524   6.950   1.989   0.851
 4542SOL    HW114525   6.879   1.923   0.874
 4542SOL    HW214526   6.934   2.024   0.758
 4543SOL     OW14527   4.518   2.236   0.803
 4543SOL    HW114528   4.548   2.147   0.837
 4543SOL    HW214529   4.580   2.308   0.835
 4544SOL     OW14530   4.622   5.080   1.080
 4544SOL    HW114531   4.611   5.115   1.173
 4544SOL    HW214532   4.562   5.001   1.066
 4545SOL     OW14533   0.773   4.069   5.308
 4545SOL    HW114534   0.702   3.999   5.304
 4545SOL    HW214535   0.802   4.082   5.403
 4546SOL     OW14536   3.302   0.465   5.882
 4546SOL    HW114537   3.332   0.558   5.860
 4546SOL    HW214538   3.377   0.401   5.867
 4547SOL     OW14539   6.454   0.417   0.247
 4547SOL    HW114540   6.373   0.468   0.277
 4547SOL    HW214541   6.427   0.330   0.206
 4548SOL     OW14542   2.522   2.614   3.515
 4548SOL    HW114543   2.561   2.705   3.503
 4548SOL    HW214544   2.455   2.616   3.590
 4549SOL     OW14545   5.035   4.417   2.710
 4549SOL    HW114546   5.002   4.323   2.710
 4549SOL    HW214547   5.086   4.434   2.626
 4550SOL     OW14548   0.921   4.566   3.821
 4550SOL    HW114549   0.937   4.473   3.853
 4550SOL    HW214550   0.827   4.592   3.843
 4551SOL     OW14551   0.718   3.695   5.281
 4551SOL    HW114552   0.682   3.634   5.211
 4551SOL    HW214553   0.649   3.764   5.303
 4552SOL     OW14554   5.676   2.260   2.150
 4552SOL    HW114555   5.607   2.331   2.167
 4552SOL    HW214556   5.634   2.182   2.103
 4553SOL     OW14557   5.316   4.545   6.427
 4553SOL    HW114558   5.359   4.503   6.507
 4553SOL    HW214559   5.256   4.619   6.457
 4554SOL     OW14560   0.703   6.513   1.162
 4554SOL    HW114561   0.672   6.418   1.172
 4554SOL    HW214562   0.694   6.560   1.250
 4555SOL     OW14563   1.216   1.119   6.795
 4555SOL    HW114564   1.313   1.098   6.779
 4555SOL    HW214565   1.171   1.136   6.708
 4556SOL     OW14566   6.153   3.254   5.524
 4556SOL    HW114567   6.066   3.221   5.484
 4556SOL    HW214568   6.229   3.224   5.466
 4557SOL     OW14569   5.836   5.246   4.964
 4557SOL    HW114570   5.808   5.153   4.989
 4557SOL    HW214571   5.864   5.248   4.868
 4558SOL     OW14572   6.554   3.263   5.174
 4558SOL    HW114573   6.611   3.292   5.251
 4558SOL    HW214574   6.528   3.344   5.121
 4559SOL     OW14575   0.809   3.350   2.616
 4559SOL    HW114576   0.726   3.402   2.595
 4559SOL    HW214577   0.796   3.254   2.591
 4560SOL     OW14578   5.851   4.320   2.231
 4560SOL    HW114579   5.839   4.268   2.316
 4560SOL    HW214580   5.948   4.339   2.217
 4561SOL     OW14581   3.385   1.908   4.121
 4561SOL    HW114582   3.477   1.870   4.105
 4561SOL    HW214583   3.367   1.981   4.055
 4562SOL     OW14584   2.214   6.520   0.349
 4562SOL    HW114585   2.300   6.567   0.371
 4562SOL    HW214586   2.234   6.434   0.303
 4563SOL     OW14587   6.807   3.258   1.485
 4563SOL    HW114588   6.746   3.307   1.547
 4563SOL    HW214589   6.855   3.186   1.536
 4564SOL     OW14590   0.018   4.581   2.001
 4564SOL    HW114591   6.993   4.625   2.076
 4564SOL    HW214592   0.084   4.646   1.964
 4565SOL     OW14593   1.613   1.351   4.332
 4565SOL    HW114594   1.573   1.423   4.275
 4565SOL    HW214595   1.636   1.273   4.275
 4566SOL     OW14596   0.591   3.741   1.157
 4566SOL    HW114597   0.582   3.838   1.183
 4566SOL    HW214598   0.669   3.730   1.095
 4567SOL     OW14599   6.876   0.546   0.228
 4567SOL    HW114600   6.842   0.525   0.137
 4567SOL    HW214601   6.816   0.505   0.297
 4568SOL     OW14602   0.773   4.499   5.105
 4568SOL    HW114603   0.771   4.536   5.013
 4568SOL    HW214604   0.823   4.412   5.105
 4569SOL     OW14605   3.069   0.754   2.558
 4569SOL    HW114606   2.984   0.791   2.523
 4569SOL    HW214607   3.055   0.718   2.651
 4570SOL     OW14608   6.086   6.418   2.440
 4570SOL    HW114609   6.095   6.515   2.418
 4570SOL    HW214610   6.133   6.364   2.371
 4571SOL     OW14611   4.851   2.952   6.533
 4571SOL    HW114612   4.850   3.050   6.552
 4571SOL    HW214613   4.790   2.904   6.597
 4572SOL     OW14614   2.502   1.890   6.251
 4572SOL    HW114615   2.493   1.943   6.336
 4572SOL    HW214616   2.566   1.936   6.190
 4573SOL     OW14617   0.729   0.093   0.700
 4573SOL    HW114618   0.818   0.050   0.688
 4573SOL    HW214619   0.659   0.022   0.713
 4574SOL     OW14620   5.916   4.340   6.982
 4574SOL    HW114621   5.916   4.341   6.882
 4574SOL    HW214622   6.003   4.376   7.015
 4575SOL     OW14623   5.809   0.933   4.532
 4575SOL    HW114624   5.744   0.862   4.561
 4575SOL    HW214625   5.897   0.917   4.578
 4576SOL     OW14626   2.424   4.815   5.176
 4576SOL    HW114627   2.392   4.790   5.085
 4576SOL    HW214628   2.523   4.806   5.180
 4577SOL     OW14629   1.061   2.572   2.967
 4577SOL    HW114630   0.985   2.541   2.910
 4577SOL    HW214631   1.145   2.526   2.938
 4578SOL     OW14632   0.341   0.528   3.745
 4578SOL    HW114633   0.410   0.492   3.683
 4578SOL    HW214634   0.269   0.459   3.759
 4579SOL     OW14635   4.760   1.197   1.434
 4579SOL    HW114636   4.802   1.256   1.502
 4579SOL    HW214637   4.830   1.159   1.374
 4580SOL     OW14638   5.615   4.355   0.776
 4580SOL    HW114639   5.566   4.270   0.753
 4580SOL    HW214640   5.710   4.347   0.745
 4581SOL     OW14641   2.934   6.457   2.100
 4581SOL    HW114642   2.929   6.357   2.089
 4581SOL    HW214643   2.878   6.500   2.030
 4582SOL     OW14644   4.660   0.606   3.121
 4582SOL    HW114645   4.625   0.699   3.110
 4582SOL    HW214646   4.604   0.542   3.067
 4583SOL     OW14647   2.149   1.037   6.683
 4583SOL    HW114648   2.102   0.969   6.627
 4583SOL    HW214649   2.194   1.103   6.624
 4584SOL     OW14650   1.838   6.647   5.839
 4584SOL    HW114651   1.792   6.571   5.885
 4584SOL    HW214652   1.800   6.657   5.746
 4585SOL     OW14653   1.818   3.922   3.381
 4585SOL    HW114654   1.752   3.980   3.332
 4585SOL    HW214655   1.843   3.966   3.467
 4586SOL     OW14656   4.865   4.228   0.632
 4586SOL    HW114657   4.893   4.180   0.549
 4586SOL    HW214658   4.810   4.167   0.689
 4587SOL     OW14659   3.540   3.452   4.579
 4587SOL    HW114660   3.501   3.394   4.507
 4587SOL    HW214661   3.635   3.425   4.595
 4588SOL     OW14662   3.246   3.403   5.478
 4588SOL    HW114663   3.273   3.499   5.470
 4588SOL    HW214664   3.328   3.347   5.493
 4589SOL     OW14665   5.683   5.942   1.959
 4589SOL    HW114666   5.770   5.944   1.910
 4589SOL    HW214667   5.608   5.945   1.893
 4590SOL     OW14668   3.483   6.228   1.685
 4590SOL    HW114669   3.561   6.277   1.724
 4590SOL    HW214670   3.504   6.200   1.592
 4591SOL     OW14671   1.908   0.919   4.916
 4591SOL    HW114672   1.936   1.014   4.928
 4591SOL    HW214673   1.847   0.912   4.837
 4592SOL     OW14674   2.637   1.950   3.468
 4592SOL    HW114675   2.573   1.878   3.496
 4592SOL    HW214676   2.616   2.034   3.518
 4593SOL     OW14677   6.599   5.458   2.752
 4593SOL    HW114678   6.665   5.490   2.685
 4593SOL    HW214679   6.641   5.458   2.843
 4594SOL     OW14680   2.845   0.033   2.933
 4594SOL    HW114681   2.856   0.081   3.020
 4594SOL    HW214682   2.918   6.993   2.921
 4595SOL     OW14683   4.973   2.710   5.785
 4595SOL    HW114684   4.926   2.665   5.709
 4595SOL    HW214685   5.072   2.695   5.776
 4596SOL     OW14686   0.111   1.125   2.296
 4596SOL    HW114687   0.059   1.209   2.313
 4596SOL    HW214688   0.157   1.133   2.207
 4597SOL     OW14689   2.498   4.965   6.986
 4597SOL    HW114690   2.487   5.000   6.893
 4597SOL    HW214691   2.409   4.961   0.005
 4598SOL     OW14692   2.099   5.255   0.458
 4598SOL    HW114693   2.096   5.248   0.558
 4598SOL    HW214694   2.163   5.188   0.422
 4599SOL     OW14695   1.807   3.563   2.047
 4599SOL    HW114696   1.786   3.499   1.973
 4599SOL    HW214697   1.895   3.538   2.088
 4600SOL     OW14698   0.377   6.825   5.969
 4600SOL    HW114699   0.445   6.825   5.897
 4600SOL    HW214700   0.357   6.920   5.997
 4601SOL     OW14701   0.729   1.009   4.612
 4601SOL    HW114702   0.721   0.915   4.645
 4601SOL    HW214703   0.813   1.019   4.559
 4602SOL     OW14704   2.792   0.034   6.126
 4602SOL    HW114705   2.807   0.079   6.214
 4602SOL    HW214706   2.695   0.010   6.117
 4603SOL     OW14707   3.760   6.100   0.946
 4603SOL    HW114708   3.824   6.025   0.928
 4603SOL    HW214709   3.699   6.111   0.867
 4604SOL     OW14710   4.903   6.959   5.957
 4604SOL    HW114711   4.996   6.992   5.943
 4604SOL    HW214712   4.898   6.912   6.046
 4605SOL     OW14713   2.044   0.259   1.621
 4605SOL    HW114714   2.121   0.207   1.656
 4605SOL    HW214715   2.073   0.352   1.599
 4606SOL     OW14716   0.222   6.631   2.507
 4606SOL    HW114717   0.174   6.548   2.477
 4606SOL    HW214718   0.165   6.711   2.488
 4607SOL     OW14719   2.126   3.524   3.312
 4607SOL    HW114720   2.060   3.599   3.317
 4607SOL    HW214721   2.218   3.562   3.308
 4608SOL     OW14722   0.329   3.231   4.069
 4608SOL    HW114723   0.307   3.329   4.069
 4608SOL    HW214724   0.252   3.179   4.104
 4609SOL     OW14725   4.813   5.638   6.670
 4609SOL    HW114726   4.835   5.644   6.572
 4609SOL    HW214727   4.849   5.553   6.707
 4610SOL     OW14728   5.127   1.835   6.619
 4610SOL    HW114729   5.071   1.752   6.629
 4610SOL    HW214730   5.174   1.832   6.531
 4611SOL     OW14731   0.310   0.962   5.782
 4611SOL    HW114732   0.242   0.906   5.830
 4611SOL    HW214733   0.362   0.904   5.719
 4612SOL     OW14734   2.166   6.462   2.062
 4612SOL    HW114735   2.141   6.388   2.125
 4612SOL    HW214736   2.088   6.524   2.052
 4613SOL     OW14737   1.707   5.175   2.578
 4613SOL    HW114738   1.777   5.171   2.649
 4613SOL    HW214739   1.723   5.103   2.510
 4614SOL     OW14740   6.810   3.298   3.960
 4614SOL    HW114741   6.820   3.383   3.908
 4614SOL    HW214742   6.781   3.320   4.054
 4615SOL     OW14743   0.998   0.757   1.434
 4615SOL    HW114744   0.989   0.772   1.335
 4615SOL    HW214745   1.033   0.665   1.451
 4616SOL     OW14746   6.190   2.501   4.755
 4616SOL    HW114747   6.261   2.510   4.824
 4616SOL    HW214748   6.102   2.528   4.794
 4617SOL     OW14749   1.167   2.236   2.295
 4617SOL    HW114750   1.241   2.300   2.275
 4617SOL    HW214751   1.103   2.278   2.359
 4618SOL     OW14752   2.741   3.609   5.281
 4618SOL    HW114753   2.814   3.558   5.325
 4618SOL    HW214754   2.781   3.674   5.215
 4619SOL     OW14755   2.960   6.660   3.692
 4619SOL    HW114756   2.950   6.759   3.704
 4619SOL    HW214757   2.890   6.627   3.629
 4620SOL     OW14758   0.540   5.186   1.514
 4620SOL    HW114759   0.585   5.168   1.426
 4620SOL    HW214760   0.585   5.132   1.585
 4621SOL     OW14761   5.002   0.386   2.139
 4621SOL    HW114762   4.920   0.407   2.086
 4621SOL    HW214763   5.082   0.397   2.080
 4622SOL     OW14764   4.546   4.782   0.938
 4622SOL    HW114765   4.640   4.782   0.903
 4622SOL    HW214766   4.483   4.766   0.862
 4623SOL     OW14767   4.095   5.577   1.169
 4623SOL    HW114768   4.005   5.620   1.152
 4623SOL    HW214769   4.130   5.608   1.257
 4624SOL     OW14770   3.934   1.250   3.266
 4624SOL    HW114771   3.924   1.248   3.365
 4624SOL    HW214772   3.983   1.333   3.240
 4625SOL     OW14773   2.416   5.884   1.649
 4625SOL    HW114774   2.424   5.785   1.636
 4625SOL    HW214775   2.336   5.903   1.706
 4626SOL     OW14776   4.137   3.859   1.735
 4626SOL    HW114777   4.057   3.862   1.675
 4626SOL    HW214778   4.175   3.951   1.743
 4627SOL     OW14779   0.183   6.033   5.213
 4627SOL    HW114780   0.118   6.059   5.142
 4627SOL    HW214781   0.143   5.962   5.271
 4628SOL     OW14782   4.706   4.811   3.394
 4628SOL    HW114783   4.742   4.719   3.377
 4628SOL    HW214784   4.637   4.833   3.324
 4629SOL     OW14785   2.607   5.103   6.125
 4629SOL    HW114786   2.545   5.057   6.061
 4629SOL    HW214787   2.627   5.195   6.092
 4630SOL     OW14788   1.631   5.586   2.681
 4630SOL    HW114789   1.709   5.541   2.723
 4630SOL    HW214790   1.599   5.660   2.740
 4631SOL     OW14791   1.064   6.991   3.575
 4631SOL    HW114792   1.158   7.024   3.572
 4631SOL    HW214793   1.041   6.964   3.668
 4632SOL     OW14794   2.462   5.581   2.760
 4632SOL    HW114795   2.468   5.611   2.855
 4632SOL    HW214796   2.552   5.551   2.728
 4633SOL     OW14797   5.206   1.317   4.288
 4633SOL    HW114798   5.119   1.361   4.265
 4633SOL    HW214799   5.274   1.387   4.310
 4634SOL     OW14800   2.943   3.767   4.871
 4634SOL    HW114801   2.956   3.849   4.927
 4634SOL    HW214802   2.982   3.688   4.918
 4635SOL     OW14803   4.231   4.708   1.237
 4635SOL    HW114804   4.255   4.612   1.251
 4635SOL    HW214805   4.133   4.716   1.224
 4636SOL     OW14806   1.918   4.781   0.954
 4636SOL    HW114807   1.841   4.719   0.938
 4636SOL    HW214808   1.969   4.750   1.035
 4637SOL     OW14809   1.056   6.740   0.315
 4637SOL    HW114810   1.088   6.788   0.397
 4637SOL    HW214811   0.974   6.785   0.280
 4638SOL     OW14812   3.494   5.025   6.627
 4638SOL    HW114813   3.471   5.102   6.686
 4638SOL    HW214814   3.594   5.016   6.623
 4639SOL     OW14815   2.835   2.240   6.440
 4639SOL    HW114816   2.813   2.254   6.343
 4639SOL    HW214817   2.921   2.188   6.448
 4640SOL     OW14818   5.934   2.563   4.946
 4640SOL    HW114819   5.937   2.661   4.966
 4640SOL    HW214820   5.840   2.536   4.925
 4641SOL     OW14821   1.930   6.874   3.617
 4641SOL    HW114822   1.879   6.792   3.643
 4641SOL    HW214823   1.879   6.955   3.646
 4642SOL     OW14824   1.738   1.006   3.804
 4642SOL    HW114825   1.651   0.974   3.766
 4642SOL    HW214826   1.805   1.012   3.730
 4643SOL     OW14827   6.200   2.018   0.300
 4643SOL    HW114828   6.207   2.060   0.390
 4643SOL    HW214829   6.118   1.962   0.295
 4644SOL     OW14830   6.951   1.068   5.986
 4644SOL    HW114831   6.892   0.989   6.004
 4644SOL    HW214832   6.956   1.125   6.068
 4645SOL     OW14833   1.387   0.530   3.993
 4645SOL    HW114834   1.438   0.572   3.918
 4645SOL    HW214835   1.441   0.533   4.076
 4646SOL     OW14836   2.500   4.895   4.832
 4646SOL    HW114837   2.538   4.820   4.777
 4646SOL    HW214838   2.403   4.879   4.846
 4647SOL     OW14839   1.602   0.315   3.117
 4647SOL    HW114840   1.638   0.226   3.092
 4647SOL    HW214841   1.505   0.320   3.092
 4648SOL     OW14842   2.941   0.814   4.023
 4648SOL    HW114843   2.933   0.716   4.040
 4648SOL    HW214844   2.856   0.849   3.985
 4649SOL     OW14845   5.527   0.961   1.248
 4649SOL    HW114846   5.477   0.934   1.166
 4649SOL    HW214847   5.599   1.026   1.223
 4650SOL     OW14848   4.513   5.956   1.462
 4650SOL    HW114849   4.541   5.872   1.509
 4650SOL    HW214850   4.575   6.031   1.487
 4651SOL     OW14851   6.149   3.768   6.336
 4651SOL    HW114852   6.103   3.793   6.250
 4651SOL    HW214853   6.214   3.839   6.362
 4652SOL     OW14854   6.763   6.039   4.389
 4652SOL    HW114855   6.831   6.088   4.335
 4652SOL    HW214856   6.772   6.066   4.485
 4653SOL     OW14857   4.803   5.606   0.318
 4653SOL    HW114858   4.886   5.660   0.331
 4653SOL    HW214859   4.822   5.530   0.255
 4654SOL     OW14860   6.953   6.859   5.333
 4654SOL    HW114861   6.950   6.766   5.370
 4654SOL    HW214862   6.984   6.857   5.238
 4655SOL     OW14863   4.863   3.716   1.871
 4655SOL    HW114864   4.797   3.737   1.799
 4655SOL    HW214865   4.829   3.640   1.926
 4656SOL     OW14866   0.812   0.441   1.556
 4656SOL    HW114867   0.801   0.526   1.608
 4656SOL    HW214868   0.762   0.448   1.470
 4657SOL     OW14869   5.628   6.007   1.549
 4657SOL    HW114870   5.631   5.952   1.466
 4657SOL    HW214871   5.711   6.063   1.554
 4658SOL     OW14872   3.010   2.786   5.658
 4658SOL    HW114873   3.018   2.870   5.604
 4658SOL    HW214874   2.914   2.769   5.679
 4659SOL     OW14875   3.506   4.293   1.519
 4659SOL    HW114876   3.464   4.383   1.506
 4659SOL    HW214877   3.437   4.229   1.556
 4660SOL     OW14878   1.493   0.015   4.286
 4660SOL    HW114879   1.542   7.016   4.203
 4660SOL    HW214880   1.408   6.989   4.292
 4661SOL     OW14881   2.590   4.794   5.635
 4661SOL    HW114882   2.498   4.796   5.673
 4661SOL    HW214883   2.603   4.711   5.582
 4662SOL     OW14884   2.809   0.023   5.111
 4662SOL    HW114885   2.906   0.007   5.089
 4662SOL    HW214886   2.798   0.025   5.211
 4663SOL     OW14887   1.109   6.623   6.985
 4663SOL    HW114888   1.168   6.603   0.037
 4663SOL    HW214889   1.069   6.714   6.995
 4664SOL     OW14890   6.756   0.348   0.884
 4664SOL    HW114891   6.845   0.350   0.839
 4664SOL    HW214892   6.729   0.253   0.901
 4665SOL     OW14893   2.117   0.834   6.500
 4665SOL    HW114894   2.180   0.773   6.453
 4665SOL    HW214895   2.079   0.899   6.435
 4666SOL     OW14896   2.041   2.280   6.747
 4666SOL    HW114897   2.078   2.295   6.655
 4666SOL    HW214898   2.023   2.183   6.760
 4667SOL     OW14899   6.229   4.161   2.280
 4667SOL    HW114900   6.228   4.061   2.285
 4667SOL    HW214901   6.316   4.191   2.241
 4668SOL     OW14902   3.899   1.956   5.068
 4668SOL    HW114903   3.930   2.051   5.078
 4668SOL    HW214904   3.959   1.896   5.120
 4669SOL     OW14905   5.149   6.979   0.113
 4669SOL    HW114906   5.072   6.928   0.151
 4669SOL    HW214907   5.195   0.003   0.186
 4670SOL     OW14908   1.203   3.132   0.213
 4670SOL    HW114909   1.190   3.196   0.289
 4670SOL    HW214910   1.250   3.050   0.246
 4671SOL     OW14911   0.326   3.580   0.107
 4671SOL    HW114912   0.346   3.638   0.029
 4671SOL    HW214913   0.383   3.498   0.103
 4672SOL     OW14914   4.474   4.662   6.125
 4672SOL    HW114915   4.493   4.590   6.058
 4672SOL    HW214916   4.446   4.745   6.077
 4673SOL     OW14917   5.520   0.301   6.955
 4673SOL    HW114918   5.434   0.265   6.919
 4673SOL    HW214919   5.522   0.400   6.943
 4674SOL     OW14920   6.359   1.384   0.514
 4674SOL    HW114921   6.457   1.381   0.534
 4674SOL    HW214922   6.322   1.291   0.518
 4675SOL     OW14923   4.035   0.362   6.525
 4675SOL    HW114924   3.975   0.284   6.545
 4675SOL    HW214925   4.088   0.385   6.606
 4676SOL     OW14926   0.636   6.678   4.402
 4676SOL    HW114927   0.654   6.612   4.475
 4676SOL    HW214928   0.569   6.640   4.338
 4677SOL     OW14929   2.835   0.640   6.753
 4677SOL    HW114930   2.819   0.689   6.667
 4677SOL    HW214931   2.749   0.599   6.784
 4678SOL     OW14932   1.920   5.247   2.186
 4678SOL    HW114933   1.954   5.242   2.280
 4678SOL    HW214934   1.983   5.302   2.131
 4679SOL     OW14935   3.043   1.616   6.026
 4679SOL    HW114936   3.109   1.640   5.954
 4679SOL    HW214937   3.035   1.516   6.031
 4680SOL     OW14938   2.384   5.677   1.088
 4680SOL    HW114939   2.300   5.625   1.105
 4680SOL    HW214940   2.399   5.742   1.162
 4681SOL     OW14941   6.507   6.231   4.187
 4681SOL    HW114942   6.466   6.140   4.179
 4681SOL    HW214943   6.528   6.250   4.283
 4682SOL     OW14944   4.402   5.624   6.797
 4682SOL    HW114945   4.484   5.612   6.742
 4682SOL    HW214946   4.337   5.551   6.776
 4683SOL     OW14947   5.831   4.470   2.551
 4683SOL    HW114948   5.823   4.469   2.650
 4683SOL    HW214949   5.822   4.377   2.515
 4684SOL     OW14950   0.759   2.433   4.590
 4684SOL    HW114951   0.707   2.434   4.505
 4684SOL    HW214952   0.731   2.510   4.647
 4685SOL     OW14953   6.564   5.636   4.647
 4685SOL    HW114954   6.634   5.603   4.711
 4685SOL    HW214955   6.491   5.568   4.640
 4686SOL     OW14956   5.090   5.472   0.300
 4686SOL    HW114957   5.169   5.412   0.292
 4686SOL    HW214958   5.036   5.446   0.381
 4687SOL     OW14959   6.487   4.250   5.002
 4687SOL    HW114960   6.414   4.274   4.938
 4687SOL    HW214961   6.559   4.319   4.999
 4688SOL     OW14962   0.728   3.417   6.958
 4688SOL    HW114963   0.668   3.463   6.893
 4688SOL    HW214964   0.758   3.329   6.920
 4689SOL     OW14965   6.323   0.590   5.928
 4689SOL    HW114966   6.248   0.623   5.986
 4689SOL    HW214967   6.373   0.518   5.976
 4690SOL     OW14968   1.222   1.097   0.060
 4690SOL    HW114969   1.137   1.058   0.093
 4690SOL    HW214970   1.222   1.099   6.986
 4691SOL     OW14971   2.616   3.934   1.120
 4691SOL    HW114972   2.543   3.881   1.163
 4691SOL    HW214973   2.576   4.012   1.071
 4692SOL     OW14974   7.009   4.984   2.635
 4692SOL    HW114975   7.022   5.056   2.703
 4692SOL    HW214976   6.947   4.914   2.671
 4693SOL     OW14977   0.374   1.402   5.089
 4693SOL    HW114978   0.294   1.405   5.150
 4693SOL    HW214979   0.361   1.467   5.014
 4694SOL     OW14980   3.118   0.548   0.337
 4694SOL    HW114981   3.192   0.491   0.373
 4694SOL    HW214982   3.151   0.598   0.256
 4695SOL     OW14983   3.676   3.267   1.776
 4695SOL    HW114984   3.633   3.211   1.846
 4695SOL    HW214985   3.775   3.273   1.793
 4696SOL     OW14986   1.273   4.259   5.693
 4696SOL    HW114987   1.326   4.245   5.609
 4696SOL    HW214988   1.177   4.275   5.669
 4697SOL     OW14989   1.620   3.468   0.968
 4697SOL    HW114990   1.627   3.426   1.058
 4697SOL    HW214991   1.686   3.425   0.906
 4698SOL     OW14992   4.924   4.745   2.315
 4698SOL    HW114993   4.903   4.650   2.337
 4698SOL    HW214994   4.839   4.797   2.308
 4699SOL     OW14995   0.348   6.618   2.261
 4699SOL    HW114996   0.266   6.591   2.211
 4699SOL    HW214997   0.327   6.626   2.358
 4700SOL     OW14998   5.497   1.899   1.690
 4700SOL    HW114999   5.521   1.939   1.602
 4700SOL    HW215000   5.398   1.895   1.699
 4701SOL     OW15001   0.927   1.264   0.143
 4701SOL    HW115002   0.961   1.296   0.055
 4701SOL    HW215003   0.958   1.171   0.160
 4702SOL     OW15004   4.609   4.175   6.249
 4702SOL    HW115005   4.647   4.083   6.243
 4702SOL    HW215006   4.510   4.169   6.264
 4703SOL     OW15007   0.774   2.120   2.809
 4703SOL    HW115008   0.729   2.203   2.777
 4703SOL    HW215009   0.840   2.089   2.741
 4704SOL     OW15010   0.188   6.036   0.861
 4704SOL    HW115011   0.239   6.000   0.939
 4704SOL    HW215012   0.213   5.986   0.778
 4705SOL     OW15013   3.268   2.974   3.420
 4705SOL    HW115014   3.178   3.015   3.405
 4705SOL    HW215015   3.259   2.893   3.478
 4706SOL     OW15016   3.728   5.715   6.674
 4706SOL    HW115017   3.725   5.693   6.577
 4706SOL    HW215018   3.822   5.710   6.707
 4707SOL     OW15019   2.207   5.443   0.929
 4707SOL    HW115020   2.244   5.369   0.873
 4707SOL    HW215021   2.149   5.502   0.872
 4708SOL     OW15022   2.922   2.847   0.553
 4708SOL    HW115023   2.927   2.798   0.641
 4708SOL    HW215024   3.010   2.839   0.506
 4709SOL     OW15025   3.903   5.296   4.844
 4709SOL    HW115026   3.938   5.321   4.934
 4709SOL    HW215027   3.820   5.242   4.854
 4710SOL     OW15028   4.641   1.544   6.308
 4710SOL    HW115029   4.603   1.636   6.319
 4710SOL    HW215030   4.574   1.477   6.339
 4711SOL     OW15031   3.838   0.360   2.432
 4711SOL    HW115032   3.864   0.431   2.366
 4711SOL    HW215033   3.752   0.317   2.404
 4712SOL     OW15034   2.385   4.477   1.415
 4712SOL    HW115035   2.478   4.453   1.441
 4712SOL    HW215036   2.363   4.568   1.452
 4713SOL     OW15037   3.347   4.509   1.526
 4713SOL    HW115038   3.290   4.522   1.607
 4713SOL    HW215039   3.301   4.548   1.446
 4714SOL     OW15040   1.930   1.714   0.598
 4714SOL    HW115041   1.852   1.652   0.608
 4714SOL    HW215042   2.008   1.664   0.562
 4715SOL     OW15043   6.788   3.496   2.328
 4715SOL    HW115044   6.806   3.587   2.365
 4715SOL    HW215045   6.699   3.497   2.281
 4716SOL     OW15046   3.901   4.590   6.247
 4716SOL    HW115047   3.869   4.542   6.328
 4716SOL    HW215048   3.830   4.587   6.176
 4717SOL     OW15049   0.948   5.893   2.009
 4717SOL    HW115050   0.908   5.875   2.099
 4717SOL    HW215051   1.044   5.865   2.010
 4718SOL     OW15052   5.267   1.844   6.406
 4718SOL    HW115053   5.287   1.818   6.312
 4718SOL    HW215054   5.313   1.930   6.428
 4719SOL     OW15055   4.941   3.674   3.003
 4719SOL    HW115056   4.914   3.698   3.096
 4719SOL    HW215057   5.008   3.599   3.005
 4720SOL     OW15058   2.043   7.020   5.511
 4720SOL    HW115059   2.054   7.009   5.610
 4720SOL    HW215060   2.130   0.021   5.470
 4721SOL     OW15061   0.587   2.280   2.004
 4721SOL    HW115062   0.488   2.274   2.000
 4721SOL    HW215063   0.615   2.318   2.092
 4722SOL     OW15064   1.758   5.894   6.962
 4722SOL    HW115065   1.839   5.850   6.923
 4722SOL    HW215066   1.785   5.953   0.012
 4723SOL     OW15067   2.433   6.267   5.853
 4723SOL    HW115068   2.463   6.201   5.784
 4723SOL    HW215069   2.451   6.231   5.945
 4724SOL     OW15070   4.291   6.534   2.617
 4724SOL    HW115071   4.314   6.469   2.545
 4724SOL    HW215072   4.197   6.564   2.606
 4725SOL     OW15073   5.310   6.298   3.124
 4725SOL    HW115074   5.314   6.335   3.217
 4725SOL    HW215075   5.221   6.318   3.084
 4726SOL     OW15076   0.938   3.598   6.943
 4726SOL    HW115077   0.873   3.534   6.903
 4726SOL    HW215078   0.895   3.646   7.019
 4727SOL     OW15079   6.907   5.803   6.984
 4727SOL    HW115080   6.933   5.899   6.998
 4727SOL    HW215081   6.973   5.760   6.921
 4728SOL     OW15082   5.356   1.520   1.026
 4728SOL    HW115083   5.290   1.505   0.953
 4728SOL    HW215084   5.422   1.590   0.998
 4729SOL     OW15085   1.692   0.970   3.075
 4729SOL    HW115086   1.761   1.042   3.067
 4729SOL    HW215087   1.601   1.012   3.080
 4730SOL     OW15088   2.484   6.077   5.615
 4730SOL    HW115089   2.492   6.160   5.560
 4730SOL    HW215090   2.506   5.998   5.559
 4731SOL     OW15091   6.017   0.480   5.342
 4731SOL    HW115092   6.080   0.547   5.381
 4731SOL    HW215093   5.955   0.447   5.412
 4732SOL     OW15094   6.926   3.419   6.470
 4732SOL    HW115095   6.932   3.327   6.431
 4732SOL    HW215096   6.903   3.412   6.567
 4733SOL     OW15097   0.840   3.854   3.418
 4733SOL    HW115098   0.937   3.829   3.426
 4733SOL    HW215099   0.796   3.796   3.350
 4734SOL     OW15100   5.503   2.812   6.576
 4734SOL    HW115101   5.429   2.778   6.635
 4734SOL    HW215102   5.588   2.766   6.600
 4735SOL     OW15103   1.447   4.905   3.402
 4735SOL    HW115104   1.497   4.820   3.419
 4735SOL    HW215105   1.368   4.911   3.463
 4736SOL     OW15106   0.300   1.088   6.510
 4736SOL    HW115107   0.324   0.999   6.548
 4736SOL    HW215108   0.359   1.107   6.431
 4737SOL     OW15109   2.305   4.893   2.243
 4737SOL    HW115110   2.351   4.871   2.329
 4737SOL    HW215111   2.373   4.901   2.170
 4738SOL     OW15112   6.777   5.973   1.420
 4738SOL    HW115113   6.727   6.042   1.368
 4738SOL    HW215114   6.875   5.983   1.404
 4739SOL     OW15115   4.552   0.265   2.118
 4739SOL    HW115116   4.589   0.216   2.197
 4739SOL    HW215117   4.467   0.311   2.144
 4740SOL     OW15118   0.314   1.236   2.738
 4740SOL    HW115119   0.357   1.145   2.744
 4740SOL    HW215120   0.380   1.301   2.700
 4741SOL     OW15121   3.762   2.406   1.478
 4741SOL    HW115122   3.695   2.345   1.521
 4741SOL    HW215123   3.813   2.454   1.549
 4742SOL     OW15124   2.283   6.598   7.011
 4742SOL    HW115125   2.258   6.691   0.010
 4742SOL    HW215126   2.379   6.581   0.011
 4743SOL     OW15127   1.752   3.717   2.253
 4743SOL    HW115128   1.828   3.699   2.315
 4743SOL    HW215129   1.764   3.663   2.169
 4744SOL     OW15130   2.250   5.769   0.757
 4744SOL    HW115131   2.289   5.721   0.678
 4744SOL    HW215132   2.159   5.733   0.776
 4745SOL     OW15133   2.882   3.382   0.202
 4745SOL    HW115134   2.949   3.403   0.132
 4745SOL    HW215135   2.859   3.466   0.252
 4746SOL     OW15136   4.483   5.278   4.118
 4746SOL    HW115137   4.393   5.244   4.089
 4746SOL    HW215138   4.531   5.316   4.039
 4747SOL     OW15139   1.254   2.599   0.737
 4747SOL    HW115140   1.341   2.618   0.782
 4747SOL    HW215141   1.241   2.500   0.728
 4748SOL     OW15142   1.779   6.763   2.068
 4748SOL    HW115143   1.875   6.754   2.042
 4748SOL    HW215144   1.734   6.675   2.059
 4749SOL     OW15145   2.275   6.891   0.309
 4749SOL    HW115146   2.358   6.917   0.260
 4749SOL    HW215147   2.211   6.850   0.244
 4750SOL     OW15148   6.203   4.406   5.455
 4750SOL    HW115149   6.273   4.376   5.390
 4750SOL    HW215150   6.201   4.506   5.457
 4751SOL     OW15151   4.931   1.973   2.413
 4751SOL    HW115152   5.018   1.998   2.370
 4751SOL    HW215153   4.858   2.031   2.377
 4752SOL     OW15154   4.536   1.276   0.261
 4752SOL    HW115155   4.576   1.366   0.274
 4752SOL    HW215156   4.603   1.206   0.288
 4753SOL     OW15157   1.422   6.684   4.981
 4753SOL    HW115158   1.439   6.603   5.037
 4753SOL    HW215159   1.417   6.657   4.884
 4754SOL     OW15160   4.296   4.092   5.798
 4754SOL    HW115161   4.333   4.182   5.820
 4754SOL    HW215162   4.354   4.021   5.836
 4755SOL     OW15163   1.520   0.664   1.278
 4755SOL    HW115164   1.506   0.605   1.198
 4755SOL    HW215165   1.435   0.712   1.299
 4756SOL     OW15166   6.660   4.500   0.041
 4756SOL    HW115167   6.674   4.469   6.973
 4756SOL    HW215168   6.710   4.586   0.055
 4757SOL     OW15169   1.392   2.754   1.640
 4757SOL    HW115170   1.340   2.674   1.610
 4757SOL    HW215171   1.330   2.829   1.661
 4758SOL     OW15172   1.599   0.207   3.552
 4758SOL    HW115173   1.637   0.283   3.499
 4758SOL    HW215174   1.523   0.239   3.608
 4759SOL     OW15175   0.870   5.249   0.070
 4759SOL    HW115176   0.896   5.307   0.147
 4759SOL    HW215177   0.952   5.208   0.030
 4760SOL     OW15178   1.290   6.914   0.872
 4760SOL    HW115179   1.265   6.990   0.813
 4760SOL    HW215180   1.390   6.908   0.879
 4761SOL     OW15181   0.116   0.010   0.643
 4761SOL    HW115182   0.027   0.042   0.612
 4761SOL    HW215183   0.188   0.067   0.602
 4762SOL     OW15184   1.595   5.743   1.985
 4762SOL    HW115185   1.600   5.698   1.896
 4762SOL    HW215186   1.591   5.842   1.972
 4763SOL     OW15187   4.865   6.016   1.967
 4763SOL    HW115188   4.863   5.928   2.015
 4763SOL    HW215189   4.885   6.001   1.870
 4764SOL     OW15190   4.779   3.605   5.395
 4764SOL    HW115191   4.727   3.560   5.468
 4764SOL    HW215192   4.726   3.602   5.310
 4765SOL     OW15193   3.188   0.792   5.681
 4765SOL    HW115194   3.198   0.784   5.582
 4765SOL    HW215195   3.130   0.718   5.715
 4766SOL     OW15196   5.817   6.936   4.407
 4766SOL    HW115197   5.775   6.961   4.320
 4766SOL    HW215198   5.797   6.840   4.427
 4767SOL     OW15199   2.595   5.515   4.937
 4767SOL    HW115200   2.605   5.578   5.014
 4767SOL    HW215201   2.573   5.424   4.971
 4768SOL     OW15202   4.467   2.883   6.377
 4768SOL    HW115203   4.396   2.813   6.383
 4768SOL    HW215204   4.538   2.853   6.314
 4769SOL     OW15205   2.864   6.297   1.000
 4769SOL    HW115206   2.955   6.266   0.974
 4769SOL    HW215207   2.870   6.389   1.038
 4770SOL     OW15208   6.767   2.050   5.709
 4770SOL    HW115209   6.866   2.057   5.723
 4770SOL    HW215210   6.728   1.987   5.776
 4771SOL     OW15211   2.343   0.261   4.963
 4771SOL    HW115212   2.301   0.172   4.943
 4771SOL    HW215213   2.307   0.330   4.899
 4772SOL     OW15214   3.000   5.068   0.798
 4772SOL    HW115215   2.958   5.055   0.708
 4772SOL    HW215216   3.007   4.980   0.845
 4773SOL     OW15217   2.202   6.064   4.706
 4773SOL    HW115218   2.130   6.037   4.770
 4773SOL    HW215219   2.172   6.144   4.655
 4774SOL     OW15220   2.223   4.203   0.788
 4774SOL    HW115221   2.279   4.267   0.736
 4774SOL    HW215222   2.263   4.112   0.784
 4775SOL     OW15223   5.251   6.452   4.656
 4775SOL    HW115224   5.155   6.467   4.678
 4775SOL    HW215225   5.283   6.523   4.593
 4776SOL     OW15226   1.432   0.461   5.229
 4776SOL    HW115227   1.349   0.419   5.265
 4776SOL    HW215228   1.506   0.394   5.228
 4777SOL     OW15229   1.259   5.135   0.656
 4777SOL    HW115230   1.241   5.142   0.558
 4777SOL    HW215231   1.175   5.110   0.704
 4778SOL     OW15232   0.806   2.471   4.986
 4778SOL    HW115233   0.808   2.483   5.086
 4778SOL    HW215234   0.897   2.445   4.954
 4779SOL     OW15235   5.939   0.548   4.181
 4779SOL    HW115236   5.947   0.555   4.082
 4779SOL    HW215237   6.018   0.499   4.218
 4780SOL     OW15238   5.621   2.616   5.595
 4780SOL    HW115239   5.553   2.543   5.590
 4780SOL    HW215240   5.626   2.651   5.688
 4781SOL     OW15241   2.545   5.762   2.362
 4781SOL    HW115242   2.564   5.823   2.285
 4781SOL    HW215243   2.495   5.682   2.329
 4782SOL     OW15244   5.499   5.410   5.913
 4782SOL    HW115245   5.427   5.384   5.849
 4782SOL    HW215246   5.542   5.495   5.882
 4783SOL     OW15247   5.525   4.048   0.353
 4783SOL    HW115248   5.566   4.001   0.275
 4783SOL    HW215249   5.523   4.146   0.337
 4784SOL     OW15250   5.908   2.337   6.470
 4784SOL    HW115251   5.810   2.320   6.474
 4784SOL    HW215252   5.947   2.294   6.389
 4785SOL     OW15253   0.232   6.236   3.187
 4785SOL    HW115254   0.298   6.162   3.176
 4785SOL    HW215255   0.282   6.322   3.200
 4786SOL     OW15256   2.700   6.909   1.037
 4786SOL    HW115257   2.653   6.980   0.985
 4786SOL    HW215258   2.705   6.936   1.133
 4787SOL     OW15259   4.504   2.179   4.246
 4787SOL    HW115260   4.452   2.174   4.160
 4787SOL    HW215261   4.599   2.202   4.225
 4788SOL     OW15262   5.950   5.790   6.956
 4788SOL    HW115263   6.028   5.769   6.897
 4788SOL    HW215264   5.943   5.719   0.000
 4789SOL     OW15265   4.777   2.135   2.243
 4789SOL    HW115266   4.702   2.081   2.282
 4789SOL    HW215267   4.804   2.096   2.155
 4790SOL     OW15268   5.505   1.638   5.455
 4790SOL    HW115269   5.601   1.619   5.475
 4790SOL    HW215270   5.471   1.572   5.389
 4791SOL     OW15271   0.381   2.995   0.955
 4791SOL    HW115272   0.411   3.031   0.866
 4791SOL    HW215273   0.460   2.986   1.016
 4792SOL     OW15274   1.576   4.539   5.008
 4792SOL    HW115275   1.668   4.559   4.976
 4792SOL    HW215276   1.541   4.458   4.961
 4793SOL     OW15277   1.399   4.513   5.937
 4793SOL    HW115278   1.371   4.427   5.895
 4793SOL    HW215279   1.476   4.496   5.999
 4794SOL     OW15280   4.948   0.317   3.734
 4794SOL    HW115281   5.015   0.341   3.804
 4794SOL    HW215282   4.992   0.313   3.645
 4795SOL     OW15283   0.309   1.803   4.228
 4795SOL    HW115284   0.331   1.725   4.286
 4795SOL    HW215285   0.348   1.789   4.137
 4796SOL     OW15286   3.783   1.194   5.838
 4796SOL    HW115287   3.771   1.110   5.891
 4796SOL    HW215288   3.869   1.189   5.787
 4797SOL     OW15289   0.402   5.391   4.686
 4797SOL    HW115290   0.423   5.403   4.589
 4797SOL    HW215291   0.330   5.456   4.712
 4798SOL     OW15292   5.469   5.217   6.647
 4798SOL    HW115293   5.528   5.136   6.643
 4798SOL    HW215294   5.506   5.281   6.714
 4799SOL     OW15295   3.137   2.377   6.279
 4799SOL    HW115296   3.145   2.386   6.379
 4799SOL    HW215297   3.070   2.306   6.257
 4800SOL     OW15298   2.426   4.780   0.717
 4800SOL    HW115299   2.473   4.695   0.692
 4800SOL    HW215300   2.408   4.781   0.815
 4801SOL     OW15301   4.656   2.649   1.102
 4801SOL    HW115302   4.717   2.713   1.149
 4801SOL    HW215303   4.561   2.678   1.115
 4802SOL     OW15304   6.823   6.143   2.015
 4802SOL    HW115305   6.754   6.187   2.073
 4802SOL    HW215306   6.779   6.104   1.935
 4803SOL     OW15307   5.669   4.861   0.350
 4803SOL    HW115308   5.706   4.954   0.345
 4803SOL    HW215309   5.745   4.795   0.348
 4804SOL     OW15310   5.265   1.670   0.505
 4804SOL    HW115311   5.225   1.584   0.473
 4804SOL    HW215312   5.205   1.746   0.483
 4805SOL     OW15313   6.676   1.898   1.822
 4805SOL    HW115314   6.744   1.830   1.848
 4805SOL    HW215315   6.713   1.990   1.836
 4806SOL     OW15316   1.500   3.567   2.717
 4806SOL    HW115317   1.432   3.605   2.653
 4806SOL    HW215318   1.589   3.564   2.672
 4807SOL     OW15319   1.128   3.379   6.801
 4807SOL    HW115320   1.178   3.337   6.877
 4807SOL    HW215321   1.150   3.477   6.797
 4808SOL     OW15322   3.971   5.932   0.980
 4808SOL    HW115323   3.986   5.885   1.066
 4808SOL    HW215324   3.970   5.865   0.905
 4809SOL     OW15325   3.469   4.802   1.566
 4809SOL    HW115326   3.458   4.709   1.601
 4809SOL    HW215327   3.394   4.823   1.504
 4810SOL     OW15328   0.817   4.020   4.295
 4810SOL    HW115329   0.907   3.978   4.312
 4810SOL    HW215330   0.778   4.050   4.382
 4811SOL     OW15331   3.401   3.697   4.574
 4811SOL    HW115332   3.472   3.627   4.584
 4811SOL    HW215333   3.443   3.784   4.548
 4812SOL     OW15334   0.636   6.532   1.645
 4812SOL    HW115335   0.595   6.443   1.667
 4812SOL    HW215336   0.605   6.600   1.711
 4813SOL     OW15337   5.993   1.468   0.135
 4813SOL    HW115338   6.031   1.525   0.208
 4813SOL    HW215339   6.067   1.437   0.075
 4814SOL     OW15340   6.720   4.182   2.016
 4814SOL    HW115341   6.700   4.254   1.949
 4814SOL    HW215342   6.728   4.223   2.107
 4815SOL     OW15343   5.593   5.214   3.082
 4815SOL    HW115344   5.497   5.200   3.104
 4815SOL    HW215345   5.601   5.271   3.000
 4816SOL     OW15346   1.909   6.644   1.333
 4816SOL    HW115347   1.815   6.613   1.317
 4816SOL    HW215348   1.924   6.730   1.285
 4817SOL     OW15349   3.568   0.743   2.010
 4817SOL    HW115350   3.478   0.739   1.968
 4817SOL    HW215351   3.562   0.715   2.106
 4818SOL     OW15352   2.740   0.513   4.233
 4818SOL    HW115353   2.687   0.560   4.163
 4818SOL    HW215354   2.703   0.420   4.245
 4819SOL     OW15355   2.731   2.149   0.900
 4819SOL    HW115356   2.787   2.074   0.933
 4819SOL    HW215357   2.723   2.218   0.972
 4820SOL     OW15358   0.222   3.232   1.710
 4820SOL    HW115359   0.273   3.312   1.743
 4820SOL    HW215360   0.161   3.259   1.636
 4821SOL     OW15361   6.261   5.537   1.871
 4821SOL    HW115362   6.291   5.484   1.792
 4821SOL    HW215363   6.161   5.535   1.877
 4822SOL     OW15364   1.628   3.806   3.732
 4822SOL    HW115365   1.620   3.707   3.736
 4822SOL    HW215366   1.585   3.846   3.812
 4823SOL     OW15367   1.016   6.893   3.864
 4823SOL    HW115368   0.950   6.967   3.855
 4823SOL    HW215369   0.980   6.822   3.924
 4824SOL     OW15370   5.171   1.912   3.197
 4824SOL    HW115371   5.208   1.919   3.104
 4824SOL    HW215372   5.084   1.960   3.202
 4825SOL     OW15373   1.425   3.034   4.407
 4825SOL    HW115374   1.350   3.098   4.389
 4825SOL    HW215375   1.500   3.052   4.344
 4826SOL     OW15376   0.457   6.584   0.196
 4826SOL    HW115377   0.492   6.508   0.142
 4826SOL    HW215378   0.508   6.591   0.282
 4827SOL     OW15379   4.937   0.854   1.627
 4827SOL    HW115380   4.868   0.873   1.558
 4827SOL    HW215381   4.957   0.937   1.679
 4828SOL     OW15382   5.651   4.019   1.708
 4828SOL    HW115383   5.620   4.055   1.796
 4828SOL    HW215384   5.667   4.094   1.644
 4829SOL     OW15385   3.619   0.219   6.060
 4829SOL    HW115386   3.624   0.132   6.010
 4829SOL    HW215387   3.534   0.222   6.113
 4830SOL     OW15388   4.652   6.011   3.525
 4830SOL    HW115389   4.746   6.014   3.557
 4830SOL    HW215390   4.619   6.104   3.509
 4831SOL     OW15391   6.800   5.029   5.006
 4831SOL    HW115392   6.796   5.125   5.035
 4831SOL    HW215393   6.881   5.014   4.950
 4832SOL     OW15394   3.471   2.592   6.185
 4832SOL    HW115395   3.468   2.517   6.251
 4832SOL    HW215396   3.408   2.664   6.214
 4833SOL     OW15397   4.639   1.686   2.925
 4833SOL    HW115398   4.720   1.676   2.983
 4833SOL    HW215399   4.665   1.677   2.829
 4834SOL     OW15400   3.910   0.495   0.701
 4834SOL    HW115401   3.990   0.555   0.704
 4834SOL    HW215402   3.937   0.402   0.725
 4835SOL     OW15403   1.902   0.071   6.387
 4835SOL    HW115404   1.936   0.158   6.352
 4835SOL    HW215405   1.827   0.087   6.451
 4836SOL     OW15406   4.354   1.900   3.661
 4836SOL    HW115407   4.447   1.878   3.632
 4836SOL    HW215408   4.341   1.873   3.756
 4837SOL     OW15409   3.242   2.662   1.739
 4837SOL    HW115410   3.318   2.619   1.690
 4837SOL    HW215411   3.166   2.598   1.744
 4838SOL     OW15412   3.605   4.901   2.196
 4838SOL    HW115413   3.508   4.920   2.178
 4838SOL    HW215414   3.645   4.856   2.116
 4839SOL     OW15415   0.355   4.751   5.179
 4839SOL    HW115416   0.404   4.811   5.242
 4839SOL    HW215417   0.288   4.697   5.229
 4840SOL     OW15418   6.050   6.587   6.663
 4840SOL    HW115419   6.059   6.601   6.762
 4840SOL    HW215420   6.114   6.647   6.615
 4841SOL     OW15421   3.532   5.729   1.588
 4841SOL    HW115422   3.615   5.770   1.551
 4841SOL    HW215423   3.455   5.792   1.575
 4842SOL     OW15424   3.548   5.477   1.990
 4842SOL    HW115425   3.492   5.396   1.971
 4842SOL    HW215426   3.603   5.499   1.909
 4843SOL     OW15427   6.378   3.929   0.294
 4843SOL    HW115428   6.405   3.845   0.247
 4843SOL    HW215429   6.441   3.947   0.369
 4844SOL     OW15430   6.967   4.170   7.026
 4844SOL    HW115431   7.023   4.215   0.069
 4844SOL    HW215432   6.891   4.122   0.045
 4845SOL     OW15433   6.522   5.344   4.327
 4845SOL    HW115434   6.427   5.316   4.339
 4845SOL    HW215435   6.575   5.268   4.291
 4846SOL     OW15436   0.189   3.924   0.551
 4846SOL    HW115437   0.283   3.903   0.575
 4846SOL    HW215438   0.127   3.876   0.613
 4847SOL     OW15439   3.617   2.119   5.786
 4847SOL    HW115440   3.526   2.159   5.796
 4847SOL    HW215441   3.619   2.060   5.706
 4848SOL     OW15442   1.777   1.598   4.112
 4848SOL    HW115443   1.772   1.676   4.173
 4848SOL    HW215444   1.859   1.545   4.132
 4849SOL     OW15445   1.598   6.513   6.720
 4849SOL    HW115446   1.533   6.587   6.706
 4849SOL    HW215447   1.551   6.436   6.764
 4850SOL     OW15448   3.102   0.543   1.924
 4850SOL    HW115449   3.004   0.525   1.918
 4850SOL    HW215450   3.131   0.542   2.019
 4851SOL     OW15451   3.732   6.580   5.301
 4851SOL    HW115452   3.694   6.489   5.318
 4851SOL    HW215453   3.695   6.616   5.214
 4852SOL     OW15454   1.712   0.265   0.045
 4852SOL    HW115455   1.762   0.332   0.099
 4852SOL    HW215456   1.772   0.226   7.001
 4853SOL     OW15457   3.679   1.591   2.560
 4853SOL    HW115458   3.653   1.591   2.464
 4853SOL    HW215459   3.717   1.502   2.584
 4854SOL     OW15460   4.722   5.965   2.499
 4854SOL    HW115461   4.717   6.064   2.513
 4854SOL    HW215462   4.638   5.922   2.534
 4855SOL     OW15463   5.506   2.023   1.986
 4855SOL    HW115464   5.579   2.012   1.918
 4855SOL    HW215465   5.448   2.100   1.959
 4856SOL     OW15466   2.285   4.716   3.119
 4856SOL    HW115467   2.283   4.810   3.154
 4856SOL    HW215468   2.334   4.657   3.183
 4857SOL     OW15469   1.458   1.569   6.143
 4857SOL    HW115470   1.383   1.534   6.201
 4857SOL    HW215471   1.545   1.545   6.185
 4858SOL     OW15472   1.712   1.246   3.965
 4858SOL    HW115473   1.705   1.166   3.906
 4858SOL    HW215474   1.787   1.233   4.030
 4859SOL     OW15475   1.466   6.059   4.417
 4859SOL    HW115476   1.443   6.082   4.323
 4859SOL    HW215477   1.382   6.044   4.469
 4860SOL     OW15478   4.110   5.432   2.033
 4860SOL    HW115479   4.107   5.369   2.111
 4860SOL    HW215480   4.051   5.510   2.051
 4861SOL     OW15481   5.328   5.338   0.265
 4861SOL    HW115482   5.374   5.272   0.206
 4861SOL    HW215483   5.324   5.302   0.358
 4862SOL     OW15484   2.332   5.201   4.409
 4862SOL    HW115485   2.341   5.107   4.443
 4862SOL    HW215486   2.418   5.229   4.368
 4863SOL     OW15487   5.518   4.740   0.539
 4863SOL    HW115488   5.480   4.829   0.566
 4863SOL    HW215489   5.587   4.753   0.468
 4864SOL     OW15490   3.504   1.249   4.095
 4864SOL    HW115491   3.599   1.266   4.068
 4864SOL    HW215492   3.447   1.326   4.068
 4865SOL     OW15493   2.197   0.496   4.838
 4865SOL    HW115494   2.108   0.496   4.882
 4865SOL    HW215495   2.244   0.582   4.857
 4866SOL     OW15496   6.644   3.875   1.300
 4866SOL    HW115497   6.578   3.945   1.325
 4866SOL    HW215498   6.666   3.819   1.379
 4867SOL     OW15499   4.706   5.551   2.374
 4867SOL    HW115500   4.619   5.595   2.398
 4867SOL    HW215501   4.781   5.616   2.387
 4868SOL     OW15502   6.575   4.776   2.337
 4868SOL    HW115503   6.627   4.783   2.422
 4868SOL    HW215504   6.639   4.767   2.260
 4869SOL     OW15505   1.223   1.783   0.804
 4869SOL    HW115506   1.174   1.696   0.801
 4869SOL    HW215507   1.164   1.855   0.840
 4870SOL     OW15508   0.576   6.294   1.745
 4870SOL    HW115509   0.622   6.232   1.682
 4870SOL    HW215510   0.624   6.295   1.832
 4871SOL     OW15511   0.886   0.519   4.432
 4871SOL    HW115512   0.975   0.484   4.401
 4871SOL    HW215513   0.880   0.511   4.531
 4872SOL     OW15514   6.523   6.789   3.144
 4872SOL    HW115515   6.463   6.722   3.101
 4872SOL    HW215516   6.481   6.820   3.230
 4873SOL     OW15517   6.992   5.757   4.522
 4873SOL    HW115518   0.058   5.729   4.497
 4873SOL    HW215519   6.974   5.732   4.618
 4874SOL     OW15520   5.188   3.116   2.595
 4874SOL    HW115521   5.242   3.178   2.538
 4874SOL    HW215522   5.174   3.030   2.547
 4875SOL     OW15523   5.273   0.258   6.816
 4875SOL    HW115524   5.186   0.260   6.866
 4875SOL    HW215525   5.255   0.268   6.718
 4876SOL     OW15526   6.952   1.422   3.883
 4876SOL    HW115527   6.947   1.345   3.820
 4876SOL    HW215528   6.990   1.501   3.836
 4877SOL     OW15529   0.447   2.357   5.502
 4877SOL    HW115530   0.494   2.445   5.509
 4877SOL    HW215531   0.348   2.371   5.496
 4878SOL     OW15532   6.504   1.928   2.283
 4878SOL    HW115533   6.420   1.874   2.291
 4878SOL    HW215534   6.494   1.995   2.210
 4879SOL     OW15535   4.444   2.367   1.881
 4879SOL    HW115536   4.424   2.348   1.977
 4879SOL    HW215537   4.454   2.280   1.831
 4880SOL     OW15538   6.313   3.738   6.909
 4880SOL    HW115539   6.287   3.649   6.872
 4880SOL    HW215540   6.349   3.726   7.001
 4881SOL     OW15541   1.831   1.926   0.433
 4881SOL    HW115542   1.871   1.842   0.470
 4881SOL    HW215543   1.899   1.999   0.435
 4882SOL     OW15544   3.949   2.200   5.448
 4882SOL    HW115545   3.939   2.185   5.546
 4882SOL    HW215546   3.858   2.213   5.407
 4883SOL     OW15547   5.401   3.942   1.427
 4883SOL    HW115548   5.378   4.038   1.412
 4883SOL    HW215549   5.499   3.934   1.446
 4884SOL     OW15550   3.835   5.045   0.718
 4884SOL    HW115551   3.768   5.037   0.644
 4884SOL    HW215552   3.876   5.136   0.715
 4885SOL     OW15553   2.465   4.262   1.872
 4885SOL    HW115554   2.466   4.234   1.968
 4885SOL    HW215555   2.383   4.315   1.853
 4886SOL     OW15556   3.229   0.028   1.521
 4886SOL    HW115557   3.312   0.030   1.466
 4886SOL    HW215558   3.157   7.005   1.472
 4887SOL     OW15559   0.963   6.283   1.667
 4887SOL    HW115560   0.877   6.241   1.636
 4887SOL    HW215561   0.955   6.383   1.662
 4888SOL     OW15562   2.637   0.366   2.838
 4888SOL    HW115563   2.630   0.291   2.904
 4888SOL    HW215564   2.724   0.413   2.850
 4889SOL     OW15565   6.705   1.739   5.111
 4889SOL    HW115566   6.693   1.818   5.051
 4889SOL    HW215567   6.615   1.704   5.138
 4890SOL     OW15568   0.856   1.878   5.884
 4890SOL    HW115569   0.849   1.962   5.938
 4890SOL    HW215570   0.945   1.835   5.902
 4891SOL     OW15571   2.788   4.763   6.707
 4891SOL    HW115572   2.847   4.841   6.687
 4891SOL    HW215573   2.778   4.754   6.806
 4892SOL     OW15574   5.488   5.729   2.041
 4892SOL    HW115575   5.586   5.750   2.034
 4892SOL    HW215576   5.436   5.797   1.991
 4893SOL     OW15577   6.531   3.516   2.200
 4893SOL    HW115578   6.483   3.583   2.256
 4893SOL    HW215579   6.496   3.519   2.106
 4894SOL     OW15580   3.542   0.026   2.597
 4894SOL    HW115581   3.499   7.002   2.672
 4894SOL    HW215582   3.562   0.120   2.627
 4895SOL     OW15583   0.978   5.042   3.337
 4895SOL    HW115584   1.021   5.005   3.420
 4895SOL    HW215585   1.049   5.085   3.280
 4896SOL     OW15586   2.506   4.855   2.475
 4896SOL    HW115587   2.541   4.783   2.414
 4896SOL    HW215588   2.570   4.869   2.550
 4897SOL     OW15589   1.881   5.914   5.604
 4897SOL    HW115590   1.884   5.815   5.607
 4897SOL    HW215591   1.819   5.949   5.674
 4898SOL     OW15592   4.209   0.923   5.012
 4898SOL    HW115593   4.307   0.905   5.002
 4898SOL    HW215594   4.196   1.012   5.056
 4899SOL     OW15595   6.250   5.027   3.143
 4899SOL    HW115596   6.321   4.956   3.152
 4899SOL    HW215597   6.280   5.095   3.077
 4900SOL     OW15598   3.931   6.159   5.780
 4900SOL    HW115599   3.992   6.106   5.721
 4900SOL    HW215600   3.861   6.100   5.819
 4901SOL     OW15601   1.860   1.722   5.307
 4901SOL    HW115602   1.881   1.633   5.266
 4901SOL    HW215603   1.811   1.709   5.393
 4902SOL     OW15604   1.420   0.887   5.893
 4902SOL    HW115605   1.330   0.920   5.866
 4902SOL    HW215606   1.425   0.788   5.878
 4903SOL     OW15607   4.382   5.847   1.254
 4903SOL    HW115608   4.452   5.807   1.195
 4903SOL    HW215609   4.425   5.916   1.313
 4904SOL     OW15610   1.766   1.118   5.714
 4904SOL    HW115611   1.706   1.040   5.730
 4904SOL    HW215612   1.769   1.176   5.795
 4905SOL     OW15613   2.184   0.802   3.517
 4905SOL    HW115614   2.220   0.751   3.595
 4905SOL    HW215615   2.149   0.738   3.449
 4906SOL     OW15616   4.796   3.171   5.636
 4906SOL    HW115617   4.850   3.202   5.714
 4906SOL    HW215618   4.756   3.082   5.656
 4907SOL     OW15619   4.739   1.211   1.114
 4907SOL    HW115620   4.713   1.308   1.110
 4907SOL    HW215621   4.805   1.197   1.188
 4908SOL     OW15622   4.999   6.972   0.464
 4908SOL    HW115623   4.947   6.952   0.381
 4908SOL    HW215624   4.991   6.896   0.528
 4909SOL     OW15625   6.884   4.536   3.903
 4909SOL    HW115626   6.815   4.596   3.862
 4909SOL    HW215627   6.955   4.517   3.836
 4910SOL     OW15628   5.722   0.805   4.003
 4910SOL    HW115629   5.822   0.804   4.004
 4910SOL    HW215630   5.690   0.884   3.952
 4911SOL     OW15631   1.808   3.446   3.486
 4911SOL    HW115632   1.837   3.456   3.391
 4911SOL    HW215633   1.875   3.392   3.536
 4912SOL     OW15634   5.541   1.851   5.623
 4912SOL    HW115635   5.522   1.775   5.561
 4912SOL    HW215636   5.456   1.884   5.663
 4913SOL     OW15637   5.469   3.550   5.544
 4913SOL    HW115638   5.391   3.530   5.603
 4913SOL    HW215639   5.443   3.620   5.477
 4914SOL     OW15640   4.298   0.189   5.660
 4914SOL    HW115641   4.380   0.211   5.607
 4914SOL    HW215642   4.233   0.139   5.602
 4915SOL     OW15643   2.655   6.602   5.253
 4915SOL    HW115644   2.565   6.645   5.255
 4915SOL    HW215645   2.676   6.564   5.343
 4916SOL     OW15646   0.083   0.682   4.012
 4916SOL    HW115647   0.098   0.584   4.022
 4916SOL    HW215648   0.118   0.712   3.924
 4917SOL     OW15649   3.971   5.796   0.729
 4917SOL    HW115650   4.060   5.841   0.731
 4917SOL    HW215651   3.902   5.861   0.696
 4918SOL     OW15652   6.241   6.237   2.592
 4918SOL    HW115653   6.171   6.297   2.554
 4918SOL    HW215654   6.198   6.167   2.649
 4919SOL     OW15655   3.796   2.894   2.272
 4919SOL    HW115656   3.815   2.913   2.176
 4919SOL    HW215657   3.844   2.811   2.300
 4920SOL     OW15658   5.213   0.401   5.020
 4920SOL    HW115659   5.306   0.408   4.983
 4920SOL    HW215660   5.160   0.337   4.965
 4921SOL     OW15661   1.775   4.974   0.379
 4921SOL    HW115662   1.810   4.924   0.300
 4921SOL    HW215663   1.821   4.942   0.462
 4922SOL     OW15664   3.335   2.079   4.963
 4922SOL    HW115665   3.276   2.158   4.982
 4922SOL    HW215666   3.319   2.047   4.870
 4923SOL     OW15667   2.268   1.602   2.809
 4923SOL    HW115668   2.266   1.696   2.775
 4923SOL    HW215669   2.239   1.540   2.736
 4924SOL     OW15670   2.326   2.148   4.912
 4924SOL    HW115671   2.244   2.091   4.903
 4924SOL    HW215672   2.303   2.243   4.893
 4925SOL     OW15673   4.545   0.496   2.867
 4925SOL    HW115674   4.493   0.554   2.805
 4925SOL    HW215675   4.642   0.521   2.864
 4926SOL     OW15676   5.556   2.085   1.493
 4926SOL    HW115677   5.500   2.158   1.532
 4926SOL    HW215678   5.545   2.084   1.394
 4927SOL     OW15679   3.175   3.110   6.035
 4927SOL    HW115680   3.245   3.167   5.992
 4927SOL    HW215681   3.178   3.018   5.995
 4928SOL     OW15682   1.489   0.924   0.093
 4928SOL    HW115683   1.580   0.965   0.097
 4928SOL    HW215684   1.432   0.977   0.030
 4929SOL     OW15685   6.766   6.916   3.567
 4929SOL    HW115686   6.845   6.953   3.616
 4929SOL    HW215687   6.793   6.895   3.473
 4930SOL     OW15688   5.773   6.765   2.396
 4930SOL    HW115689   5.760   6.812   2.483
 4930SOL    HW215690   5.773   6.833   2.322
 4931SOL     OW15691   6.470   6.243   1.771
 4931SOL    HW115692   6.512   6.325   1.809
 4931SOL    HW215693   6.451   6.257   1.674
 4932SOL     OW15694   3.707   3.830   3.319
 4932SOL    HW115695   3.713   3.917   3.367
 4932SOL    HW215696   3.612   3.811   3.296
 4933SOL     OW15697   2.297   6.540   3.352
 4933SOL    HW115698   2.353   6.488   3.416
 4933SOL    HW215699   2.257   6.478   3.284
 4934SOL     OW15700   3.667   5.778   2.709
 4934SOL    HW115701   3.649   5.873   2.737
 4934SOL    HW215702   3.585   5.740   2.667
 4935SOL     OW15703   2.039   2.001   6.789
 4935SOL    HW115704   2.134   2.029   6.806
 4935SOL    HW215705   1.984   2.020   6.871
 4936SOL     OW15706   2.906   4.860   0.932
 4936SOL    HW115707   2.882   4.794   0.862
 4936SOL    HW215708   2.948   4.812   1.009
 4937SOL     OW15709   5.072   3.386   5.003
 4937SOL    HW115710   5.091   3.293   4.972
 4937SOL    HW215711   5.101   3.451   4.934
 4938SOL     OW15712   3.186   5.384   5.876
 4938SOL    HW115713   3.156   5.446   5.804
 4938SOL    HW215714   3.250   5.317   5.838
 4939SOL     OW15715   5.231   2.020   5.109
 4939SOL    HW115716   5.217   1.975   5.021
 4939SOL    HW215717   5.268   1.954   5.175
 4940SOL     OW15718   1.208   0.913   5.047
 4940SOL    HW115719   1.190   0.818   5.072
 4940SOL    HW215720   1.238   0.918   4.952
 4941SOL     OW15721   3.283   1.802   6.355
 4941SOL    HW115722   3.325   1.772   6.440
 4941SOL    HW215723   3.224   1.730   6.319
 4942SOL     OW15724   4.782   3.322   5.274
 4942SOL    HW115725   4.876   3.300   5.297
 4942SOL    HW215726   4.780   3.408   5.224
 4943SOL     OW15727   4.196   2.188   6.850
 4943SOL    HW115728   4.164   2.112   6.793
 4943SOL    HW215729   4.142   2.193   6.933
 4944SOL     OW15730   2.127   3.793   3.085
 4944SOL    HW115731   2.069   3.777   3.165
 4944SOL    HW215732   2.206   3.848   3.112
 4945SOL     OW15733   0.945   0.433   3.707
 4945SOL    HW115734   0.897   0.353   3.670
 4945SOL    HW215735   1.016   0.402   3.770
 4946SOL     OW15736   0.899   2.978   0.960
 4946SOL    HW115737   0.919   3.075   0.973
 4946SOL    HW215738   0.984   2.926   0.963
 4947SOL     OW15739   0.824   6.684   0.730
 4947SOL    HW115740   0.755   6.612   0.727
 4947SOL    HW215741   0.841   6.710   0.825
 4948SOL     OW15742   2.823   0.852   2.473
 4948SOL    HW115743   2.795   0.914   2.399
 4948SOL    HW215744   2.742   0.807   2.511
 4949SOL     OW15745   4.629   0.680   5.426
 4949SOL    HW115746   4.706   0.625   5.459
 4949SOL    HW215747   4.543   0.632   5.445
 4950SOL     OW15748   2.709   5.705   3.765
 4950SOL    HW115749   2.760   5.688   3.681
 4950SOL    HW215750   2.761   5.766   3.825
 4951SOL     OW15751   4.726   1.282   4.396
 4951SOL    HW115752   4.801   1.323   4.448
 4951SOL    HW215753   4.647   1.268   4.456
 4952SOL     OW15754   0.173   6.408   5.221
 4952SOL    HW115755   0.233   6.337   5.185
 4952SOL    HW215756   0.228   6.486   5.252
 4953SOL     OW15757   2.438   5.408   1.918
 4953SOL    HW115758   2.478   5.362   1.996
 4953SOL    HW215759   2.393   5.341   1.858
 4954SOL     OW15760   4.673   4.530   6.887
 4954SOL    HW115761   4.716   4.564   6.803
 4954SOL    HW215762   4.605   4.461   6.864
 4955SOL     OW15763   1.964   5.757   6.864
 4955SOL    HW115764   1.966   5.662   6.894
 4955SOL    HW215765   1.943   5.762   6.767
 4956SOL     OW15766   3.698   6.841   5.394
 4956SOL    HW115767   3.701   6.747   5.360
 4956SOL    HW215768   3.752   6.900   5.333
 4957SOL     OW15769   0.065   1.640   3.803
 4957SOL    HW115770   0.083   1.732   3.838
 4957SOL    HW215771   0.150   1.599   3.771
 4958SOL     OW15772   0.643   6.430   6.305
 4958SOL    HW115773   0.739   6.421   6.331
 4958SOL    HW215774   0.632   6.507   6.242
 4959SOL     OW15775   1.025   0.705   6.666
 4959SOL    HW115776   1.070   0.619   6.692
 4959SOL    HW215777   0.995   0.699   6.570
 4960SOL     OW15778   3.416   6.610   4.045
 4960SOL    HW115779   3.417   6.535   3.978
 4960SOL    HW215780   3.492   6.672   4.027
 4961SOL     OW15781   5.431   0.946   5.015
 4961SOL    HW115782   5.525   0.930   4.986
 4961SOL    HW215783   5.381   0.860   5.015
 4962SOL     OW15784   5.502   3.235   1.960
 4962SOL    HW115785   5.479   3.219   2.056
 4962SOL    HW215786   5.419   3.256   1.909
 4963SOL     OW15787   0.001   5.842   1.501
 4963SOL    HW115788   7.013   5.882   1.592
 4963SOL    HW215789   6.985   5.751   1.498
 4964SOL     OW15790   3.521   5.649   2.984
 4964SOL    HW115791   3.606   5.694   3.013
 4964SOL    HW215792   3.498   5.577   3.050
 4965SOL     OW15793   0.634   0.011   4.886
 4965SOL    HW115794   0.621   6.950   4.839
 4965SOL    HW215795   0.569   0.078   4.851
 4966SOL     OW15796   2.457   5.972   4.760
 4966SOL    HW115797   2.361   5.997   4.761
 4966SOL    HW215798   2.466   5.874   4.743
 4967SOL     OW15799   4.171   2.700   6.726
 4967SOL    HW115800   4.075   2.685   6.700
 4967SOL    HW215801   4.187   2.659   6.816
 4968SOL     OW15802   5.027   3.407   3.468
 4968SOL    HW115803   5.016   3.402   3.369
 4968SOL    HW215804   4.979   3.487   3.503
 4969SOL     OW15805   1.295   1.070   2.194
 4969SOL    HW115806   1.348   1.136   2.247
 4969SOL    HW215807   1.326   0.978   2.214
 4970SOL     OW15808   1.172   2.534   4.914
 4970SOL    HW115809   1.205   2.627   4.932
 4970SOL    HW215810   1.190   2.509   4.819
 4971SOL     OW15811   6.373   5.999   4.185
 4971SOL    HW115812   6.380   5.931   4.112
 4971SOL    HW215813   6.287   5.986   4.234
 4972SOL     OW15814   2.606   3.309   0.121
 4972SOL    HW115815   2.580   3.405   0.113
 4972SOL    HW215816   2.705   3.301   0.113
 4973SOL     OW15817   6.075   6.215   2.000
 4973SOL    HW115818   6.009   6.230   1.927
 4973SOL    HW215819   6.089   6.117   2.012
 4974SOL     OW15820   5.953   5.342   1.789
 4974SOL    HW115821   5.940   5.263   1.849
 4974SOL    HW215822   5.952   5.312   1.694
 4975SOL     OW15823   6.124   6.104   1.040
 4975SOL    HW115824   6.106   6.044   0.962
 4975SOL    HW215825   6.213   6.147   1.029
 4976SOL     OW15826   3.399   0.615   4.387
 4976SOL    HW115827   3.342   0.604   4.305
 4976SOL    HW215828   3.354   0.679   4.450
 4977SOL     OW15829   4.836   3.666   0.642
 4977SOL    HW115830   4.819   3.701   0.550
 4977SOL    HW215831   4.799   3.574   0.650
 4978SOL     OW15832   6.173   3.919   5.650
 4978SOL    HW115833   6.120   3.876   5.578
 4978SOL    HW215834   6.189   4.015   5.628
 4979SOL     OW15835   0.181   2.091   5.068
 4979SOL    HW115836   0.260   2.035   5.090
 4979SOL    HW215837   0.175   2.104   4.969
 4980SOL     OW15838   3.636   6.260   2.468
 4980SOL    HW115839   3.637   6.161   2.458
 4980SOL    HW215840   3.542   6.293   2.473
 4981SOL     OW15841   4.330   6.834   5.522
 4981SOL    HW115842   4.386   6.860   5.601
 4981SOL    HW215843   4.390   6.806   5.447
 4982SOL     OW15844   2.211   1.754   0.233
 4982SOL    HW115845   2.255   1.754   0.143
 4982SOL    HW215846   2.242   1.675   0.285
 4983SOL     OW15847   5.817   3.357   3.896
 4983SOL    HW115848   5.813   3.267   3.852
 4983SOL    HW215849   5.853   3.347   3.989
 4984SOL     OW15850   5.426   3.840   4.578
 4984SOL    HW115851   5.384   3.776   4.515
 4984SOL    HW215852   5.377   3.839   4.665
 4985SOL     OW15853   6.121   5.187   3.755
 4985SOL    HW115854   6.162   5.272   3.721
 4985SOL    HW215855   6.157   5.166   3.846
 4986SOL     OW15856   6.453   4.559   3.079
 4986SOL    HW115857   6.418   4.485   3.136
 4986SOL    HW215858   6.378   4.597   3.024
 4987SOL     OW15859   0.572   2.829   0.724
 4987SOL    HW115860   0.556   2.914   0.675
 4987SOL    HW215861   0.533   2.753   0.671
 4988SOL     OW15862   0.194   1.867   3.905
 4988SOL    HW115863   0.284   1.844   3.943
 4988SOL    HW215864   0.166   1.957   3.938
 4989SOL     OW15865   5.848   1.782   1.465
 4989SOL    HW115866   5.812   1.723   1.538
 4989SOL    HW215867   5.946   1.794   1.478
 4990SOL     OW15868   0.812   2.518   6.274
 4990SOL    HW115869   0.730   2.464   6.255
 4990SOL    HW215870   0.788   2.593   6.336
 4991SOL     OW15871   0.744   2.978   4.123
 4991SOL    HW115872   0.748   2.900   4.061
 4991SOL    HW215873   0.690   3.051   4.082
 4992SOL     OW15874   3.747   0.498   4.658
 4992SOL    HW115875   3.726   0.497   4.560
 4992SOL    HW215876   3.662   0.496   4.711
 4993SOL     OW15877   2.855   5.225   3.736
 4993SOL    HW115878   2.856   5.131   3.768
 4993SOL    HW215879   2.948   5.255   3.714
 4994SOL     OW15880   1.288   6.841   2.882
 4994SOL    HW115881   1.272   6.925   2.934
 4994SOL    HW215882   1.201   6.798   2.860
 4995SOL     OW15883   6.699   2.761   6.243
 4995SOL    HW115884   6.703   2.855   6.211
 4995SOL    HW215885   6.791   2.726   6.258
 4996SOL     OW15886   6.956   1.143   1.392
 4996SOL    HW115887   6.956   1.110   1.298
 4996SOL    HW215888   6.891   1.090   1.446
 4997SOL     OW15889   6.793   2.206   3.034
 4997SOL    HW115890   6.817   2.182   2.940
 4997SOL    HW215891   6.762   2.125   3.082
 4998SOL     OW15892   1.805   4.857   5.252
 4998SOL    HW115893   1.754   4.912   5.186
 4998SOL    HW215894   1.841   4.776   5.207
 4999SOL     OW15895   4.953   5.702   1.445
 4999SOL    HW115896   4.894   5.622   1.461
 4999SOL    HW215897   5.040   5.671   1.406
 5000SOL     OW15898   0.922   0.481   4.701
 5000SOL    HW115899   0.837   0.488   4.752
 5000SOL    HW215900   0.986   0.551   4.734
 5001SOL     OW15901   2.044   3.830   6.273
 5001SOL    HW115902   1.998   3.919   6.281
 5001SOL    HW215903   2.033   3.796   6.180
 5002SOL     OW15904   1.253   2.103   3.423
 5002SOL    HW115905   1.209   2.014   3.430
 5002SOL    HW215906   1.239   2.155   3.507
 5003SOL     OW15907   0.419   6.697   3.360
 5003SOL    HW115908   0.414   6.765   3.287
 5003SOL    HW215909   0.495   6.720   3.421
 5004SOL     OW15910   2.557   5.558   5.861
 5004SOL    HW115911   2.618   5.490   5.902
 5004SOL    HW215912   2.483   5.580   5.925
 5005SOL     OW15913   3.547   2.239   0.681
 5005SOL    HW115914   3.568   2.323   0.731
 5005SOL    HW215915   3.627   2.179   0.680
 5006SOL     OW15916   5.809   0.052   5.367
 5006SOL    HW115917   5.863   7.010   5.318
 5006SOL    HW215918   5.777   0.121   5.303
 5007SOL     OW15919   3.489   0.685   6.049
 5007SOL    HW115920   3.550   0.608   6.067
 5007SOL    HW215921   3.480   0.698   5.950
 5008SOL     OW15922   6.005   1.330   3.278
 5008SOL    HW115923   6.031   1.399   3.344
 5008SOL    HW215924   5.922   1.283   3.310
 5009SOL     OW15925   1.433   5.902   1.586
 5009SOL    HW115926   1.482   5.919   1.500
 5009SOL    HW215927   1.411   5.805   1.592
 5010SOL     OW15928   3.679   4.156   3.988
 5010SOL    HW115929   3.608   4.091   3.961
 5010SOL    HW215930   3.659   4.190   4.081
 5011SOL     OW15931   2.072   3.262   2.082
 5011SOL    HW115932   2.118   3.344   2.048
 5011SOL    HW215933   2.078   3.260   2.182
 5012SOL     OW15934   6.220   2.551   5.720
 5012SOL    HW115935   6.258   2.462   5.695
 5012SOL    HW215936   6.277   2.624   5.683
 5013SOL     OW15937   4.619   0.850   6.271
 5013SOL    HW115938   4.698   0.852   6.334
 5013SOL    HW215939   4.547   0.793   6.310
 5014SOL     OW15940   6.290   5.810   1.015
 5014SOL    HW115941   6.207   5.836   0.965
 5014SOL    HW215942   6.353   5.888   1.018
 5015SOL     OW15943   4.755   1.678   3.413
 5015SOL    HW115944   4.751   1.579   3.428
 5015SOL    HW215945   4.703   1.701   3.331
 5016SOL     OW15946   1.963   1.475   2.823
 5016SOL    HW115947   1.989   1.515   2.911
 5016SOL    HW215948   1.868   1.445   2.828
 5017SOL     OW15949   2.610   2.271   0.351
 5017SOL    HW115950   2.648   2.214   0.278
 5017SOL    HW215951   2.510   2.267   0.347
 5018SOL     OW15952   0.099   4.203   2.357
 5018SOL    HW115953   0.053   4.248   2.434
 5018SOL    HW215954   0.090   4.104   2.366
 5019SOL     OW15955   2.479   3.815   0.389
 5019SOL    HW115956   2.504   3.820   0.486
 5019SOL    HW215957   2.562   3.806   0.334
 5020SOL     OW15958   5.642   5.737   6.206
 5020SOL    HW115959   5.681   5.683   6.132
 5020SOL    HW215960   5.698   5.818   6.223
 5021SOL     OW15961   1.297   4.750   6.052
 5021SOL    HW115962   1.200   4.730   6.067
 5021SOL    HW215963   1.344   4.669   6.019
 5022SOL     OW15964   2.085   6.498   0.597
 5022SOL    HW115965   1.995   6.542   0.600
 5022SOL    HW215966   2.128   6.517   0.509
 5023SOL     OW15967   6.135   2.729   0.779
 5023SOL    HW115968   6.172   2.807   0.829
 5023SOL    HW215969   6.107   2.657   0.843
 5024SOL     OW15970   0.158   3.973   3.345
 5024SOL    HW115971   0.091   3.920   3.397
 5024SOL    HW215972   0.234   3.998   3.406
 5025SOL     OW15973   4.755   1.775   2.455
 5025SOL    HW115974   4.698   1.758   2.535
 5025SOL    HW215975   4.818   1.851   2.475
 5026SOL     OW15976   6.115   5.678   5.649
 5026SOL    HW115977   6.020   5.705   5.629
 5026SOL    HW215978   6.152   5.738   5.720
 5027SOL     OW15979   0.290   6.611   2.907
 5027SOL    HW115980   0.354   6.557   2.852
 5027SOL    HW215981   0.280   6.702   2.868
 5028SOL     OW15982   0.103   5.925   1.967
 5028SOL    HW115983   0.157   5.930   2.051
 5028SOL    HW215984   0.022   5.869   1.983
 5029SOL     OW15985   6.853   2.498   2.244
 5029SOL    HW115986   6.768   2.537   2.278
 5029SOL    HW215987   6.876   2.417   2.298
 5030SOL     OW15988   0.329   0.028   0.261
 5030SOL    HW115989   0.264   0.104   0.265
 5030SOL    HW215990   0.308   6.996   0.183
 5031SOL     OW15991   5.749   0.951   4.273
 5031SOL    HW115992   5.820   0.961   4.204
 5031SOL    HW215993   5.791   0.941   4.363
 5032SOL     OW15994   1.794   5.305   0.715
 5032SOL    HW115995   1.761   5.263   0.630
 5032SOL    HW215996   1.875   5.255   0.747
 5033SOL     OW15997   2.946   5.119   5.328
 5033SOL    HW115998   2.859   5.135   5.375
 5033SOL    HW215999   3.011   5.079   5.392
 5034SOL     OW16000   6.545   2.744   2.279
 5034SOL    HW116001   6.503   2.664   2.322
 5034SOL    HW216002   6.552   2.818   2.346
 5035SOL     OW16003   4.985   5.383   0.524
 5035SOL    HW116004   5.052   5.417   0.590
 5035SOL    HW216005   4.955   5.291   0.551
 5036SOL     OW16006   1.372   6.085   6.595
 5036SOL    HW116007   1.430   6.042   6.665
 5036SOL    HW216008   1.397   6.050   6.505
 5037SOL     OW16009   4.094   1.829   3.258
 5037SOL    HW116010   4.082   1.835   3.357
 5037SOL    HW216011   4.016   1.871   3.212
 5038SOL     OW16012   1.508   6.020   5.555
 5038SOL    HW116013   1.551   6.082   5.489
 5038SOL    HW216014   1.410   6.040   5.560
 5039SOL     OW16015   2.597   3.190   5.468
 5039SOL    HW116016   2.530   3.185   5.542
 5039SOL    HW216017   2.573   3.126   5.396
 5040SOL     OW16018   2.490   3.493   6.774
 5040SOL    HW116019   2.564   3.430   6.750
 5040SOL    HW216020   2.528   3.582   6.799
 5041SOL     OW16021   0.791   4.506   1.619
 5041SOL    HW116022   0.760   4.419   1.583
 5041SOL    HW216023   0.867   4.540   1.562
 5042SOL     OW16024   6.630   3.098   6.707
 5042SOL    HW116025   6.627   2.999   6.698
 5042SOL    HW216026   6.623   3.140   6.616
 5043SOL     OW16027   3.439   1.451   4.371
 5043SOL    HW116028   3.341   1.456   4.388
 5043SOL    HW216029   3.469   1.356   4.381
 5044SOL     OW16030   6.293   6.054   3.612
 5044SOL    HW116031   6.262   6.133   3.560
 5044SOL    HW216032   6.235   6.042   3.693
 5045SOL     OW16033   6.224   3.322   0.231
 5045SOL    HW116034   6.312   3.363   0.256
 5045SOL    HW216035   6.193   3.262   0.304
 5046SOL     OW16036   3.859   3.078   4.803
 5046SOL    HW116037   3.927   3.148   4.822
 5046SOL    HW216038   3.842   3.024   4.886
 5047SOL     OW16039   5.775   1.031   2.770
 5047SOL    HW116040   5.850   1.020   2.836
 5047SOL    HW216041   5.703   0.965   2.790
 5048SOL     OW16042   6.682   2.289   1.668
 5048SOL    HW116043   6.675   2.385   1.695
 5048SOL    HW216044   6.730   2.238   1.739
 5049SOL     OW16045   0.956   1.977   2.638
 5049SOL    HW116046   0.885   1.917   2.601
 5049SOL    HW216047   1.009   1.926   2.706
 5050SOL     OW16048   0.106   1.708   1.992
 5050SOL    HW116049   0.186   1.684   2.047
 5050SOL    HW216050   0.098   1.646   1.914
 5051SOL     OW16051   2.832   4.006   1.280
 5051SOL    HW116052   2.903   3.935   1.285
 5051SOL    HW216053   2.748   3.966   1.242
 5052SOL     OW16054   3.886   4.641   0.870
 5052SOL    HW116055   3.878   4.670   0.774
 5052SOL    HW216056   3.893   4.541   0.873
 5053SOL     OW16057   2.310   3.945   1.936
 5053SOL    HW116058   2.250   4.015   1.897
 5053SOL    HW216059   2.261   3.892   2.004
 5054SOL     OW16060   3.468   5.970   5.228
 5054SOL    HW116061   3.550   6.014   5.265
 5054SOL    HW216062   3.387   6.024   5.255
 5055SOL     OW16063   0.626   1.947   4.828
 5055SOL    HW116064   0.704   2.010   4.823
 5055SOL    HW216065   0.543   1.993   4.796
 5056SOL     OW16066   0.098   4.410   6.341
 5056SOL    HW116067   0.107   4.312   6.362
 5056SOL    HW216068   0.188   4.454   6.347
 5057SOL     OW16069   1.087   5.642   3.208
 5057SOL    HW116070   1.011   5.656   3.145
 5057SOL    HW216071   1.108   5.728   3.254
 5058SOL     OW16072   4.119   4.393   0.007
 5058SOL    HW116073   4.208   4.351   0.024
 5058SOL    HW216074   4.063   4.331   6.979
 5059SOL     OW16075   3.827   2.094   4.809
 5059SOL    HW116076   3.864   2.071   4.899
 5059SOL    HW216077   3.730   2.119   4.817
 5060SOL     OW16078   0.253   3.248   5.670
 5060SOL    HW116079   0.295   3.222   5.756
 5060SOL    HW216080   0.324   3.277   5.606
 5061SOL     OW16081   3.036   3.607   4.427
 5061SOL    HW116082   3.030   3.678   4.497
 5061SOL    HW216083   2.986   3.635   4.345
 5062SOL     OW16084   4.607   1.527   2.191
 5062SOL    HW116085   4.644   1.609   2.148
 5062SOL    HW216086   4.513   1.513   2.160
 5063SOL     OW16087   1.878   6.318   1.736
 5063SOL    HW116088   1.896   6.416   1.734
 5063SOL    HW216089   1.964   6.268   1.742
 5064SOL     OW16090   4.748   5.353   0.820
 5064SOL    HW116091   4.717   5.418   0.750
 5064SOL    HW216092   4.686   5.275   0.821
 5065SOL     OW16093   1.762   0.617   3.638
 5065SOL    HW116094   1.756   0.613   3.538
 5065SOL    HW216095   1.857   0.607   3.666
 5066SOL     OW16096   2.141   4.430   2.077
 5066SOL    HW116097   2.142   4.529   2.096
 5066SOL    HW216098   2.054   4.392   2.106
 5067SOL     OW16099   3.975   2.109   1.601
 5067SOL    HW116100   4.003   2.030   1.655
 5067SOL    HW216101   3.889   2.088   1.554
 5068SOL     OW16102   3.511   6.224   0.766
 5068SOL    HW116103   3.466   6.311   0.786
 5068SOL    HW216104   3.559   6.230   0.679
 5069SOL     OW16105   2.404   3.688   6.549
 5069SOL    HW116106   2.459   3.688   6.633
 5069SOL    HW216107   2.343   3.767   6.549
 5070SOL     OW16108   6.158   2.883   3.815
 5070SOL    HW116109   6.203   2.972   3.828
 5070SOL    HW216110   6.225   2.810   3.823
 5071SOL     OW16111   3.938   1.194   4.112
 5071SOL    HW116112   3.994   1.213   4.193
 5071SOL    HW216113   3.882   1.275   4.090
 5072SOL     OW16114   1.369   0.802   0.964
 5072SOL    HW116115   1.405   0.881   1.012
 5072SOL    HW216116   1.269   0.802   0.968
 5073SOL     OW16117   2.664   5.959   2.188
 5073SOL    HW116118   2.752   5.975   2.233
 5073SOL    HW216119   2.615   6.045   2.179
 5074SOL     OW16120   3.261   1.674   1.652
 5074SOL    HW116121   3.358   1.671   1.675
 5074SOL    HW216122   3.240   1.603   1.585
 5075SOL     OW16123   0.974   3.016   0.072
 5075SOL    HW116124   0.964   2.916   0.065
 5075SOL    HW216125   1.065   3.038   0.108
 5076SOL     OW16126   5.489   0.556   0.247
 5076SOL    HW116127   5.483   0.612   0.330
 5076SOL    HW216128   5.428   0.477   0.255
 5077SOL     OW16129   1.558   3.994   4.687
 5077SOL    HW116130   1.634   4.000   4.622
 5077SOL    HW216131   1.575   3.918   4.751
 5078SOL     OW16132   0.485   1.334   4.075
 5078SOL    HW116133   0.419   1.400   4.112
 5078SOL    HW216134   0.441   1.244   4.068
 5079SOL     OW16135   1.942   2.005   5.989
 5079SOL    HW116136   1.930   2.102   6.011
 5079SOL    HW216137   1.853   1.959   5.990
 5080SOL     OW16138   5.934   5.485   5.818
 5080SOL    HW116139   5.899   5.439   5.736
 5080SOL    HW216140   5.996   5.423   5.866
 5081SOL     OW16141   3.052   5.517   4.997
 5081SOL    HW116142   3.020   5.564   4.915
 5081SOL    HW216143   3.151   5.508   4.994
 5082SOL     OW16144   4.619   6.705   0.322
 5082SOL    HW116145   4.551   6.635   0.298
 5082SOL    HW216146   4.701   6.691   0.267
 5083SOL     OW16147   2.891   0.829   2.000
 5083SOL    HW116148   2.864   0.735   1.979
 5083SOL    HW216149   2.984   0.829   2.037
 5084SOL     OW16150   1.006   5.330   5.281
 5084SOL    HW116151   1.020   5.365   5.373
 5084SOL    HW216152   0.911   5.300   5.271
 5085SOL     OW16153   1.398   3.281   5.871
 5085SOL    HW116154   1.443   3.194   5.851
 5085SOL    HW216155   1.331   3.301   5.801
 5086SOL     OW16156   0.702   4.609   2.814
 5086SOL    HW116157   0.615   4.598   2.766
 5086SOL    HW216158   0.686   4.643   2.906
 5087SOL     OW16159   6.830   5.464   2.249
 5087SOL    HW116160   6.796   5.386   2.301
 5087SOL    HW216161   6.930   5.459   2.241
 5088SOL     OW16162   4.509   5.883   2.644
 5088SOL    HW116163   4.543   5.793   2.671
 5088SOL    HW216164   4.448   5.918   2.715
 5089SOL     OW16165   6.028   4.106   4.556
 5089SOL    HW116166   5.994   4.200   4.555
 5089SOL    HW216167   5.997   4.058   4.475
 5090SOL     OW16168   1.858   0.032   3.949
 5090SOL    HW116169   1.765   0.022   3.984
 5090SOL    HW216170   1.922   0.040   4.026
 5091SOL     OW16171   6.650   0.185   0.115
 5091SOL    HW116172   6.560   0.171   0.154
 5091SOL    HW216173   6.692   0.097   0.094
 5092SOL     OW16174   3.925   3.519   4.318
 5092SOL    HW116175   3.962   3.605   4.285
 5092SOL    HW216176   3.993   3.472   4.375
 5093SOL     OW16177   2.267   0.973   2.883
 5093SOL    HW116178   2.357   0.973   2.927
 5093SOL    HW216179   2.273   0.922   2.796
 5094SOL     OW16180   2.874   5.387   6.941
 5094SOL    HW116181   2.801   5.382   7.009
 5094SOL    HW216182   2.913   5.479   6.940
 5095SOL     OW16183   0.685   1.446   3.923
 5095SOL    HW116184   0.608   1.413   3.978
 5095SOL    HW216185   0.758   1.377   3.923
 5096SOL     OW16186   5.977   3.834   6.564
 5096SOL    HW116187   5.933   3.761   6.616
 5096SOL    HW216188   6.015   3.796   6.480
 5097SOL     OW16189   6.858   6.664   0.063
 5097SOL    HW116190   6.918   6.726   0.011
 5097SOL    HW216191   6.831   6.707   0.149
 5098SOL     OW16192   3.931   2.242   1.828
 5098SOL    HW116193   3.946   2.197   1.740
 5098SOL    HW216194   3.833   2.243   1.848
 5099SOL     OW16195   0.012   5.985   1.233
 5099SOL    HW116196   0.025   6.075   1.276
 5099SOL    HW216197   0.044   5.914   1.296
 5100SOL     OW16198   4.740   5.116   2.962
 5100SOL    HW116199   4.648   5.117   3.001
 5100SOL    HW216200   4.804   5.156   3.028
 5101SOL     OW16201   3.765   0.327   4.877
 5101SOL    HW116202   3.782   0.363   4.785
 5101SOL    HW216203   3.788   0.397   4.945
 5102SOL     OW16204   4.761   5.835   4.098
 5102SOL    HW116205   4.772   5.861   4.002
 5102SOL    HW216206   4.850   5.838   4.144
 5103SOL     OW16207   0.639   0.455   4.697
 5103SOL    HW116208   0.664   0.365   4.661
 5103SOL    HW216209   0.540   0.460   4.708
 5104SOL     OW16210   3.299   6.276   1.957
 5104SOL    HW116211   3.344   6.230   1.880
 5104SOL    HW216212   3.343   6.249   2.042
 5105SOL     OW16213   3.061   3.380   7.013
 5105SOL    HW116214   3.116   3.296   7.018
 5105SOL    HW216215   3.120   3.458   6.994
 5106SOL     OW16216   4.014   1.908   0.945
 5106SOL    HW116217   3.956   1.842   0.992
 5106SOL    HW216218   4.012   1.996   0.993
 5107SOL     OW16219   5.511   3.180   1.380
 5107SOL    HW116220   5.566   3.263   1.373
 5107SOL    HW216221   5.545   3.124   1.456
 5108SOL     OW16222   4.581   4.064   5.690
 5108SOL    HW116223   4.510   4.049   5.622
 5108SOL    HW216224   4.579   3.990   5.758
 5109SOL     OW16225   1.910   2.829   1.390
 5109SOL    HW116226   1.851   2.882   1.330
 5109SOL    HW216227   1.926   2.739   1.349
 5110SOL     OW16228   0.125   0.215   6.104
 5110SOL    HW116229   0.145   0.281   6.176
 5110SOL    HW216230   0.204   0.205   6.044
 5111SOL     OW16231   0.914   6.464   5.028
 5111SOL    HW116232   0.976   6.453   5.106
 5111SOL    HW216233   0.921   6.557   4.992
 5112SOL     OW16234   0.426   6.787   2.698
 5112SOL    HW116235   0.417   6.826   2.607
 5112SOL    HW216236   0.523   6.771   2.718
 5113SOL     OW16237   1.577   5.127   0.489
 5113SOL    HW116238   1.616   5.040   0.459
 5113SOL    HW216239   1.542   5.117   0.582
 5114SOL     OW16240   3.406   6.973   0.802
 5114SOL    HW116241   3.433   6.990   0.708
 5114SOL    HW216242   3.329   0.007   0.826
 5115SOL     OW16243   2.280   3.589   1.496
 5115SOL    HW116244   2.187   3.622   1.515
 5115SOL    HW216245   2.344   3.631   1.561
 5116SOL     OW16246   2.918   6.355   6.787
 5116SOL    HW116247   2.987   6.386   6.722
 5116SOL    HW216248   2.939   6.261   6.815
 5117SOL     OW16249   0.982   3.165   4.409
 5117SOL    HW116250   0.992   3.185   4.311
 5117SOL    HW216251   0.901   3.107   4.423
 5118SOL     OW16252   6.041   6.872   0.802
 5118SOL    HW116253   6.065   6.805   0.872
 5118SOL    HW216254   6.085   6.847   0.716
 5119SOL     OW16255   5.148   1.831   0.996
 5119SOL    HW116256   5.161   1.906   0.931
 5119SOL    HW216257   5.138   1.745   0.947
 5120SOL     OW16258   4.802   0.224   4.989
 5120SOL    HW116259   4.892   0.254   4.957
 5120SOL    HW216260   4.731   0.286   4.955
 5121SOL     OW16261   3.444   3.697   0.296
 5121SOL    HW116262   3.531   3.718   0.340
 5121SOL    HW216263   3.431   3.598   0.292
 5122SOL     OW16264   3.661   5.235   3.270
 5122SOL    HW116265   3.592   5.235   3.197
 5122SOL    HW216266   3.637   5.303   3.339
 5123SOL     OW16267   5.494   2.396   2.439
 5123SOL    HW116268   5.470   2.301   2.420
 5123SOL    HW216269   5.489   2.450   2.354
 5124SOL     OW16270   2.069   6.340   3.374
 5124SOL    HW116271   2.099   6.351   3.280
 5124SOL    HW216272   1.996   6.406   3.393
 5125SOL     OW16273   0.462   1.820   3.983
 5125SOL    HW116274   0.531   1.755   4.014
 5125SOL    HW216275   0.503   1.887   3.922
 5126SOL     OW16276   1.180   6.291   0.102
 5126SOL    HW116277   1.171   6.335   0.012
 5126SOL    HW216278   1.124   6.208   0.105
 5127SOL     OW16279   2.146   5.670   0.104
 5127SOL    HW116280   2.180   5.576   0.112
 5127SOL    HW216281   2.068   5.682   0.165
 5128SOL     OW16282   6.978   6.049   0.990
 5128SOL    HW116283   0.043   6.041   0.949
 5128SOL    HW216284   6.982   6.026   1.087
 5129SOL     OW16285   4.944   6.475   1.499
 5129SOL    HW116286   4.995   6.428   1.571
 5129SOL    HW216287   4.920   6.568   1.529
 5130SOL     OW16288   6.965   4.825   2.993
 5130SOL    HW116289   6.921   4.818   2.904
 5130SOL    HW216290   0.032   4.860   2.982
 5131SOL     OW16291   1.261   3.744   3.723
 5131SOL    HW116292   1.195   3.705   3.787
 5131SOL    HW216293   1.268   3.684   3.643
 5132SOL     OW16294   3.719   3.902   6.143
 5132SOL    HW116295   3.661   3.923   6.064
 5132SOL    HW216296   3.810   3.875   6.112
 5133SOL     OW16297   3.422   5.214   0.283
 5133SOL    HW116298   3.416   5.116   0.299
 5133SOL    HW216299   3.505   5.235   0.232
 5134SOL     OW16300   0.497   2.888   1.598
 5134SOL    HW116301   0.401   2.913   1.591
 5134SOL    HW216302   0.508   2.817   1.667
 5135SOL     OW16303   6.610   1.931   5.984
 5135SOL    HW116304   6.646   1.892   6.069
 5135SOL    HW216305   6.552   2.009   6.005
 5136SOL     OW16306   5.127   0.548   4.680
 5136SOL    HW116307   5.061   0.569   4.608
 5136SOL    HW216308   5.215   0.590   4.657
 5137SOL     OW16309   6.049   3.231   6.447
 5137SOL    HW116310   6.132   3.228   6.503
 5137SOL    HW216311   6.066   3.183   6.361
 5138SOL     OW16312   3.758   3.316   6.742
 5138SOL    HW116313   3.858   3.314   6.740
 5138SOL    HW216314   3.725   3.389   6.681
 5139SOL     OW16315   1.597   6.996   4.005
 5139SOL    HW116316   1.567   0.064   3.993
 5139SOL    HW216317   1.565   6.940   3.928
 5140SOL     OW16318   2.360   1.544   0.337
 5140SOL    HW116319   2.424   1.590   0.398
 5140SOL    HW216320   2.411   1.481   0.278
 5141SOL     OW16321   5.827   3.477   1.077
 5141SOL    HW116322   5.923   3.479   1.048
 5141SOL    HW216323   5.793   3.383   1.073
 5142SOL     OW16324   5.670   1.955   4.292
 5142SOL    HW116325   5.728   2.036   4.289
 5142SOL    HW216326   5.722   1.877   4.325
 5143SOL     OW16327   1.288   3.874   4.239
 5143SOL    HW116328   1.214   3.877   4.172
 5143SOL    HW216329   1.355   3.805   4.211
 5144SOL     OW16330   1.785   6.797   6.113
 5144SOL    HW116331   1.690   6.766   6.112
 5144SOL    HW216332   1.800   6.865   6.041
 5145SOL     OW16333   2.592   5.212   6.378
 5145SOL    HW116334   2.670   5.255   6.423
 5145SOL    HW216335   2.614   5.191   6.283
 5146SOL     OW16336   4.548   3.666   6.572
 5146SOL    HW116337   4.531   3.609   6.492
 5146SOL    HW216338   4.470   3.658   6.635
 5147SOL     OW16339   6.838   3.993   1.841
 5147SOL    HW116340   6.808   4.064   1.905
 5147SOL    HW216341   6.858   4.035   1.752
 5148SOL     OW16342   0.676   5.984   0.852
 5148SOL    HW116343   0.725   5.897   0.854
 5148SOL    HW216344   0.656   6.008   0.757
 5149SOL     OW16345   5.807   0.054   3.533
 5149SOL    HW116346   5.892   0.057   3.480
 5149SOL    HW216347   5.825   0.013   3.623
 5150SOL     OW16348   1.924   6.033   4.055
 5150SOL    HW116349   2.017   6.064   4.078
 5150SOL    HW216350   1.858   6.081   4.113
 5151SOL     OW16351   5.478   0.760   6.782
 5151SOL    HW116352   5.562   0.718   6.816
 5151SOL    HW216353   5.486   0.859   6.787
 5152SOL     OW16354   2.603   4.644   6.990
 5152SOL    HW116355   2.620   4.736   6.956
 5152SOL    HW216356   2.514   4.641   0.010
 5153SOL     OW16357   2.040   1.720   6.727
 5153SOL    HW116358   2.017   1.814   6.751
 5153SOL    HW216359   2.045   1.710   6.628
 5154SOL     OW16360   2.046   3.450   6.105
 5154SOL    HW116361   2.130   3.458   6.158
 5154SOL    HW216362   1.971   3.423   6.165
 5155SOL     OW16363   4.416   6.567   2.026
 5155SOL    HW116364   4.401   6.470   2.004
 5155SOL    HW216365   4.466   6.611   1.952
 5156SOL     OW16366   6.805   2.425   6.392
 5156SOL    HW116367   6.723   2.405   6.339
 5156SOL    HW216368   6.779   2.467   6.480
 5157SOL     OW16369   4.793   3.054   3.424
 5157SOL    HW116370   4.799   2.955   3.440
 5157SOL    HW216371   4.717   3.073   3.362
 5158SOL     OW16372   3.009   2.089   1.455
 5158SOL    HW116373   3.100   2.060   1.485
 5158SOL    HW216374   2.955   2.008   1.432
 5159SOL     OW16375   1.387   3.939   5.004
 5159SOL    HW116376   1.401   3.993   5.087
 5159SOL    HW216377   1.445   3.857   5.007
 5160SOL     OW16378   1.512   4.261   4.495
 5160SOL    HW116379   1.602   4.229   4.524
 5160SOL    HW216380   1.441   4.211   4.545
 5161SOL     OW16381   1.441   4.254   5.406
 5161SOL    HW116382   1.470   4.349   5.397
 5161SOL    HW216383   1.366   4.236   5.342
 5162SOL     OW16384   0.181   5.173   4.269
 5162SOL    HW116385   0.107   5.153   4.334
 5162SOL    HW216386   0.269   5.158   4.313
 5163SOL     OW16387   4.404   5.023   1.697
 5163SOL    HW116388   4.503   5.018   1.714
 5163SOL    HW216389   4.377   4.952   1.632
 5164SOL     OW16390   5.644   2.413   5.935
 5164SOL    HW116391   5.669   2.346   6.004
 5164SOL    HW216392   5.661   2.376   5.843
 5165SOL     OW16393   5.582   4.883   4.751
 5165SOL    HW116394   5.675   4.916   4.736
 5165SOL    HW216395   5.526   4.902   4.671
 5166SOL     OW16396   1.903   5.056   1.895
 5166SOL    HW116397   1.836   4.982   1.903
 5166SOL    HW216398   1.935   5.063   1.801
 5167SOL     OW16399   6.251   6.892   5.290
 5167SOL    HW116400   6.261   6.860   5.385
 5167SOL    HW216401   6.292   6.982   5.280
 5168SOL     OW16402   4.581   2.632   3.727
 5168SOL    HW116403   4.622   2.619   3.637
 5168SOL    HW216404   4.511   2.562   3.742
 5169SOL     OW16405   3.550   3.479   6.570
 5169SOL    HW116406   3.452   3.486   6.554
 5169SOL    HW216407   3.596   3.446   6.488
 5170SOL     OW16408   6.806   4.389   6.216
 5170SOL    HW116409   6.888   4.421   6.264
 5170SOL    HW216410   6.822   4.388   6.118
 5171SOL     OW16411   2.502   4.497   4.495
 5171SOL    HW116412   2.414   4.494   4.543
 5171SOL    HW216413   2.564   4.430   4.535
 5172SOL     OW16414   1.065   3.141   1.700
 5172SOL    HW116415   0.999   3.181   1.637
 5172SOL    HW216416   1.096   3.052   1.665
 5173SOL     OW16417   6.121   4.086   6.726
 5173SOL    HW116418   6.117   4.024   6.804
 5173SOL    HW216419   6.171   4.043   6.652
 5174SOL     OW16420   1.648   4.679   4.535
 5174SOL    HW116421   1.559   4.637   4.517
 5174SOL    HW216422   1.669   4.744   4.463
 5175SOL     OW16423   2.061   4.363   7.010
 5175SOL    HW116424   2.102   4.400   0.067
 5175SOL    HW216425   2.020   4.274   0.003
 5176SOL     OW16426   3.949   3.175   0.422
 5176SOL    HW116427   4.014   3.167   0.347
 5176SOL    HW216428   3.899   3.089   0.433
 5177SOL     OW16429   4.555   0.159   5.585
 5177SOL    HW116430   4.617   0.184   5.659
 5177SOL    HW216431   4.557   0.060   5.571
 5178SOL     OW16432   2.373   2.276   1.493
 5178SOL    HW116433   2.351   2.352   1.432
 5178SOL    HW216434   2.400   2.310   1.583
 5179SOL     OW16435   5.024   6.073   4.979
 5179SOL    HW116436   5.072   6.027   4.905
 5179SOL    HW216437   5.051   6.169   4.982
 5180SOL     OW16438   3.449   2.299   6.560
 5180SOL    HW116439   3.437   2.212   6.608
 5180SOL    HW216440   3.443   2.374   6.626
 5181SOL     OW16441   3.709   0.600   3.128
 5181SOL    HW116442   3.650   0.653   3.068
 5181SOL    HW216443   3.712   0.505   3.096
 5182SOL     OW16444   5.608   4.758   1.654
 5182SOL    HW116445   5.572   4.807   1.733
 5182SOL    HW216446   5.545   4.686   1.627
 5183SOL     OW16447   4.803   0.059   1.678
 5183SOL    HW116448   4.724   0.104   1.719
 5183SOL    HW216449   4.802   6.988   1.702
 5184SOL     OW16450   0.809   1.825   4.197
 5184SOL    HW116451   0.782   1.912   4.156
 5184SOL    HW216452   0.744   1.754   4.169
 5185SOL     OW16453   3.879   6.876   2.936
 5185SOL    HW116454   3.901   6.959   2.988
 5185SOL    HW216455   3.962   6.838   2.895
 5186SOL     OW16456   6.650   4.255   0.935
 5186SOL    HW116457   6.677   4.197   1.012
 5186SOL    HW216458   6.696   4.224   0.852
 5187SOL     OW16459   6.594   0.984   3.639
 5187SOL    HW116460   6.553   1.011   3.727
 5187SOL    HW216461   6.547   1.032   3.565
 5188SOL     OW16462   0.602   4.924   0.271
 5188SOL    HW116463   0.683   4.934   0.214
 5188SOL    HW216464   0.578   4.827   0.279
 5189SOL     OW16465   4.730   4.931   6.697
 5189SOL    HW116466   4.684   4.879   6.624
 5189SOL    HW216467   4.779   4.868   6.756
 5190SOL     OW16468   0.981   2.138   4.414
 5190SOL    HW116469   1.064   2.104   4.458
 5190SOL    HW216470   0.907   2.072   4.428
 5191SOL     OW16471   3.283   0.988   1.517
 5191SOL    HW116472   3.213   0.986   1.588
 5191SOL    HW216473   3.336   1.072   1.525
 5192SOL     OW16474   5.045   5.369   2.650
 5192SOL    HW116475   5.018   5.279   2.614
 5192SOL    HW216476   4.983   5.395   2.724
 5193SOL     OW16477   4.306   4.697   3.726
 5193SOL    HW116478   4.374   4.764   3.758
 5193SOL    HW216479   4.219   4.713   3.771
 5194SOL     OW16480   5.296   0.351   5.657
 5194SOL    HW116481   5.259   0.340   5.750
 5194SOL    HW216482   5.242   0.418   5.608
 5195SOL     OW16483   6.319   6.905   4.397
 5195SOL    HW116484   6.401   6.898   4.340
 5195SOL    HW216485   6.344   6.893   4.493
 5196SOL     OW16486   0.671   4.142   1.767
 5196SOL    HW116487   0.767   4.141   1.794
 5196SOL    HW216488   0.641   4.236   1.754
 5197SOL     OW16489   1.552   5.866   4.063
 5197SOL    HW116490   1.519   5.960   4.075
 5197SOL    HW216491   1.563   5.846   3.966
 5198SOL     OW16492   2.758   6.882   4.565
 5198SOL    HW116493   2.775   6.910   4.660
 5198SOL    HW216494   2.669   6.837   4.559
 5199SOL     OW16495   2.438   5.413   1.374
 5199SOL    HW116496   2.355   5.429   1.320
 5199SOL    HW216497   2.514   5.390   1.313
 5200SOL     OW16498   0.986   1.744   5.144
 5200SOL    HW116499   0.903   1.713   5.097
 5200SOL    HW216500   1.059   1.677   5.131
 5201SOL     OW16501   5.832   5.051   4.399
 5201SOL    HW116502   5.772   5.116   4.354
 5201SOL    HW216503   5.927   5.071   4.376
 5202SOL     OW16504   5.344   3.338   6.948
 5202SOL    HW116505   5.363   3.244   6.920
 5202SOL    HW216506   5.317   3.339   0.018
 5203SOL     OW16507   1.549   0.641   6.426
 5203SOL    HW116508   1.457   0.639   6.388
 5203SOL    HW216509   1.586   0.549   6.429
 5204SOL     OW16510   3.394   6.261   6.413
 5204SOL    HW116511   3.330   6.278   6.337
 5204SOL    HW216512   3.345   6.220   6.490
 5205SOL     OW16513   6.634   5.817   1.237
 5205SOL    HW116514   6.702   5.858   1.298
 5205SOL    HW216515   6.634   5.718   1.248
 5206SOL     OW16516   0.919   4.620   5.326
 5206SOL    HW116517   0.928   4.521   5.334
 5206SOL    HW216518   0.998   4.657   5.277
 5207SOL     OW16519   6.905   0.177   3.963
 5207SOL    HW116520   6.917   0.084   3.997
 5207SOL    HW216521   6.808   0.193   3.943
 5208SOL     OW16522   4.548   2.782   0.203
 5208SOL    HW116523   4.496   2.855   0.248
 5208SOL    HW216524   4.595   2.727   0.272
 5209SOL     OW16525   4.602   6.840   3.294
 5209SOL    HW116526   4.539   6.918   3.299
 5209SOL    HW216527   4.695   6.873   3.280
 5210SOL     OW16528   5.079   4.605   1.346
 5210SOL    HW116529   5.004   4.653   1.301
 5210SOL    HW216530   5.100   4.521   1.296
 5211SOL     OW16531   4.717   2.041   4.461
 5211SOL    HW116532   4.736   1.968   4.395
 5211SOL    HW216533   4.757   2.126   4.429
 5212SOL     OW16534   1.410   2.070   0.953
 5212SOL    HW116535   1.425   2.145   1.018
 5212SOL    HW216536   1.495   2.019   0.942
 5213SOL     OW16537   4.033   3.690   1.917
 5213SOL    HW116538   4.060   3.760   1.851
 5213SOL    HW216539   4.040   3.726   2.010
 5214SOL     OW16540   5.750   4.167   6.447
 5214SOL    HW116541   5.688   4.098   6.483
 5214SOL    HW216542   5.699   4.227   6.385
 5215SOL     OW16543   0.089   3.083   4.911
 5215SOL    HW116544   0.117   3.100   4.816
 5215SOL    HW216545   0.003   3.032   4.912
 5216SOL     OW16546   5.524   5.292   1.010
 5216SOL    HW116547   5.530   5.371   0.949
 5216SOL    HW216548   5.585   5.306   1.089
 5217SOL     OW16549   3.738   5.776   4.170
 5217SOL    HW116550   3.770   5.693   4.124
 5217SOL    HW216551   3.739   5.762   4.269
 5218SOL     OW16552   0.732   0.886   0.814
 5218SOL    HW116553   0.742   0.858   0.718
 5218SOL    HW216554   0.636   0.907   0.832
 5219SOL     OW16555   3.029   1.837   4.734
 5219SOL    HW116556   2.973   1.895   4.675
 5219SOL    HW216557   2.969   1.778   4.788
 5220SOL     OW16558   2.297   5.554   3.519
 5220SOL    HW116559   2.241   5.479   3.485
 5220SOL    HW216560   2.239   5.622   3.565
 5221SOL     OW16561   6.950   0.412   1.649
 5221SOL    HW116562   6.999   0.326   1.631
 5221SOL    HW216563   7.014   0.489   1.639
 5222SOL     OW16564   4.591   4.683   1.684
 5222SOL    HW116565   4.548   4.675   1.595
 5222SOL    HW216566   4.595   4.593   1.728
 5223SOL     OW16567   0.303   3.081   0.520
 5223SOL    HW116568   0.332   3.141   0.445
 5223SOL    HW216569   0.289   3.135   0.603
 5224SOL     OW16570   1.031   1.810   4.610
 5224SOL    HW116571   1.027   1.891   4.669
 5224SOL    HW216572   0.971   1.823   4.531
 5225SOL     OW16573   6.293   1.085   4.662
 5225SOL    HW116574   6.281   1.182   4.640
 5225SOL    HW216575   6.380   1.053   4.625
 5226SOL     OW16576   0.337   5.666   3.538
 5226SOL    HW116577   0.342   5.568   3.556
 5226SOL    HW216578   0.408   5.713   3.590
 5227SOL     OW16579   6.965   3.769   6.015
 5227SOL    HW116580   6.929   3.678   6.033
 5227SOL    HW216581   6.977   3.818   6.102
 5228SOL     OW16582   1.072   2.920   6.578
 5228SOL    HW116583   1.110   2.834   6.544
 5228SOL    HW216584   1.129   2.955   6.652
 5229SOL     OW16585   3.590   6.472   6.822
 5229SOL    HW116586   3.569   6.568   6.806
 5229SOL    HW216587   3.603   6.425   6.735
 5230SOL     OW16588   6.746   6.789   2.307
 5230SOL    HW116589   6.785   6.795   2.399
 5230SOL    HW216590   6.646   6.790   2.313
 5231SOL     OW16591   5.255   1.638   2.943
 5231SOL    HW116592   5.328   1.593   2.994
 5231SOL    HW216593   5.292   1.718   2.896
 5232SOL     OW16594   1.662   3.930   6.286
 5232SOL    HW116595   1.748   3.981   6.277
 5232SOL    HW216596   1.625   3.911   6.195
 5233SOL     OW16597   3.197   1.299   2.496
 5233SOL    HW116598   3.148   1.271   2.413
 5233SOL    HW216599   3.220   1.396   2.490
 5234SOL     OW16600   1.688   2.629   0.625
 5234SOL    HW116601   1.787   2.617   0.628
 5234SOL    HW216602   1.652   2.590   0.540
 5235SOL     OW16603   2.056   1.886   0.763
 5235SOL    HW116604   1.986   1.822   0.733
 5235SOL    HW216605   2.091   1.859   0.852
 5236SOL     OW16606   3.342   4.942   2.111
 5236SOL    HW116607   3.347   5.036   2.077
 5236SOL    HW216608   3.250   4.906   2.097
 5237SOL     OW16609   1.606   1.780   4.591
 5237SOL    HW116610   1.636   1.689   4.618
 5237SOL    HW216611   1.672   1.848   4.624
 5238SOL     OW16612   1.129   4.773   3.086
 5238SOL    HW116613   1.149   4.853   3.144
 5238SOL    HW216614   1.201   4.704   3.099
 5239SOL     OW16615   3.304   4.072   1.158
 5239SOL    HW116616   3.358   3.990   1.176
 5239SOL    HW216617   3.289   4.081   1.059
 5240SOL     OW16618   2.748   2.818   5.684
 5240SOL    HW116619   2.697   2.764   5.618
 5240SOL    HW216620   2.721   2.792   5.777
 5241SOL     OW16621   1.385   5.693   2.199
 5241SOL    HW116622   1.452   5.690   2.124
 5241SOL    HW216623   1.410   5.766   2.263
 5242SOL     OW16624   4.884   0.777   1.256
 5242SOL    HW116625   4.891   0.831   1.172
 5242SOL    HW216626   4.817   0.819   1.318
 5243SOL     OW16627   2.270   6.596   1.543
 5243SOL    HW116628   2.202   6.579   1.614
 5243SOL    HW216629   2.237   6.562   1.455
 5244SOL     OW16630   5.161   3.178   0.552
 5244SOL    HW116631   5.122   3.247   0.491
 5244SOL    HW216632   5.131   3.087   0.522
 5245SOL     OW16633   3.788   4.369   0.277
 5245SOL    HW116634   3.801   4.321   0.190
 5245SOL    HW216635   3.864   4.432   0.292
 5246SOL     OW16636   6.814   2.709   1.864
 5246SOL    HW116637   6.841   2.774   1.793
 5246SOL    HW216638   6.839   2.745   1.953
 5247SOL     OW16639   3.873   1.528   5.400
 5247SOL    HW116640   3.869   1.570   5.310
 5247SOL    HW216641   3.969   1.512   5.425
 5248SOL     OW16642   0.073   1.928   2.969
 5248SOL    HW116643   0.089   1.843   3.019
 5248SOL    HW216644   0.130   1.930   2.887
 5249SOL     OW16645   0.963   4.788   0.228
 5249SOL    HW116646   0.995   4.834   0.311
 5249SOL    HW216647   1.035   4.792   0.159
 5250SOL     OW16648   1.864   5.249   0.310
 5250SOL    HW116649   1.838   5.153   0.316
 5250SOL    HW216650   1.945   5.266   0.367
 5251SOL     OW16651   0.963   4.617   1.199
 5251SOL    HW116652   1.041   4.646   1.255
 5251SOL    HW216653   0.878   4.647   1.243
 5252SOL     OW16654   3.028   6.657   2.288
 5252SOL    HW116655   2.993   6.572   2.249
 5252SOL    HW216656   2.964   6.731   2.269
 5253SOL     OW16657   5.746   4.145   4.780
 5253SOL    HW116658   5.725   4.209   4.706
 5253SOL    HW216659   5.696   4.171   4.862
 5254SOL     OW16660   5.777   0.320   3.227
 5254SOL    HW116661   5.721   0.238   3.233
 5254SOL    HW216662   5.774   0.356   3.134
 5255SOL     OW16663   5.136   2.052   4.445
 5255SOL    HW116664   5.234   2.059   4.433
 5255SOL    HW216665   5.094   2.142   4.435
 5256SOL     OW16666   4.750   0.832   2.947
 5256SOL    HW116667   4.752   0.797   2.854
 5256SOL    HW216668   4.839   0.871   2.970
 5257SOL     OW16669   4.471   0.416   0.109
 5257SOL    HW116670   4.407   0.340   0.111
 5257SOL    HW216671   4.563   0.382   0.091
 5258SOL     OW16672   5.906   1.905   2.813
 5258SOL    HW116673   5.853   1.978   2.858
 5258SOL    HW216674   5.881   1.902   2.716
 5259SOL     OW16675   5.147   5.793   2.819
 5259SOL    HW116676   5.184   5.721   2.759
 5259SOL    HW216677   5.072   5.756   2.872
 5260SOL     OW16678   3.228   5.378   0.172
 5260SOL    HW116679   3.279   5.309   0.224
 5260SOL    HW216680   3.204   5.341   0.082
 5261SOL     OW16681   0.204   5.069   1.090
 5261SOL    HW116682   0.264   5.143   1.061
 5261SOL    HW216683   0.138   5.049   1.017
 5262SOL     OW16684   2.692   0.760   2.764
 5262SOL    HW116685   2.775   0.790   2.811
 5262SOL    HW216686   2.695   0.661   2.751
 5263SOL     OW16687   1.864   1.179   3.078
 5263SOL    HW116688   1.945   1.190   3.019
 5263SOL    HW216689   1.841   1.266   3.120
 5264SOL     OW16690   6.830   2.119   1.814
 5264SOL    HW116691   6.919   2.075   1.802
 5264SOL    HW216692   6.820   2.146   1.910
 5265SOL     OW16693   5.808   2.777   4.555
 5265SOL    HW116694   5.807   2.750   4.651
 5265SOL    HW216695   5.756   2.862   4.543
 5266SOL     OW16696   2.181   6.671   0.836
 5266SOL    HW116697   2.158   6.611   0.760
 5266SOL    HW216698   2.256   6.731   0.809
 5267SOL     OW16699   4.189   2.275   4.592
 5267SOL    HW116700   4.196   2.261   4.690
 5267SOL    HW216701   4.251   2.349   4.564
 5268SOL     OW16702   5.368   0.719   0.040
 5268SOL    HW116703   5.393   0.634   0.089
 5268SOL    HW216704   5.405   0.716   6.974
 5269SOL     OW16705   0.474   6.834   2.377
 5269SOL    HW116706   0.557   6.864   2.329
 5269SOL    HW216707   0.455   6.739   2.354
 5270SOL     OW16708   5.781   1.670   0.520
 5270SOL    HW116709   5.729   1.746   0.561
 5270SOL    HW216710   5.812   1.608   0.593
 5271SOL     OW16711   6.496   5.319   4.886
 5271SOL    HW116712   6.452   5.331   4.797
 5271SOL    HW216713   6.588   5.281   4.873
 5272SOL     OW16714   4.192   6.168   0.998
 5272SOL    HW116715   4.154   6.257   1.025
 5272SOL    HW216716   4.123   6.097   1.009
 5273SOL     OW16717   1.015   3.002   2.903
 5273SOL    HW116718   1.114   3.018   2.902
 5273SOL    HW216719   0.982   2.992   2.809
 5274SOL     OW16720   4.640   6.755   2.569
 5274SOL    HW116721   4.644   6.789   2.475
 5274SOL    HW216722   4.724   6.705   2.591
 5275SOL     OW16723   2.577   0.398   0.932
 5275SOL    HW116724   2.670   0.433   0.928
 5275SOL    HW216725   2.522   0.455   0.994
 5276SOL     OW16726   2.312   7.005   1.934
 5276SOL    HW116727   2.307   0.021   1.844
 5276SOL    HW216728   2.224   7.015   1.980
 5277SOL     OW16729   3.205   1.049   2.607
 5277SOL    HW116730   3.139   1.022   2.536
 5277SOL    HW216731   3.214   1.149   2.608
 5278SOL     OW16732   4.254   4.628   3.096
 5278SOL    HW116733   4.175   4.669   3.051
 5278SOL    HW216734   4.224   4.579   3.178
 5279SOL     OW16735   2.736   5.482   0.969
 5279SOL    HW116736   2.790   5.425   0.907
 5279SOL    HW216737   2.643   5.490   0.935
 5280SOL     OW16738   2.745   6.473   5.009
 5280SOL    HW116739   2.679   6.471   4.933
 5280SOL    HW216740   2.704   6.519   5.088
 5281SOL     OW16741   6.899   1.522   2.750
 5281SOL    HW116742   6.846   1.587   2.803
 5281SOL    HW216743   6.912   1.438   2.803
 5282SOL     OW16744   2.372   1.930   3.733
 5282SOL    HW116745   2.420   1.858   3.682
 5282SOL    HW216746   2.313   1.981   3.671
 5283SOL     OW16747   5.518   5.561   0.874
 5283SOL    HW116748   5.549   5.515   0.791
 5283SOL    HW216749   5.435   5.614   0.853
 5284SOL     OW16750   5.627   4.505   3.003
 5284SOL    HW116751   5.597   4.550   3.087
 5284SOL    HW216752   5.662   4.574   2.939
 5285SOL     OW16753   3.266   5.053   3.787
 5285SOL    HW116754   3.180   5.010   3.816
 5285SOL    HW216755   3.331   5.052   3.863
 5286SOL     OW16756   2.273   4.144   1.177
 5286SOL    HW116757   2.290   4.179   1.270
 5286SOL    HW216758   2.175   4.138   1.161
 5287SOL     OW16759   2.713   1.216   0.567
 5287SOL    HW116760   2.748   1.308   0.587
 5287SOL    HW216761   2.621   1.223   0.529
 5288SOL     OW16762   3.488   0.070   1.332
 5288SOL    HW116763   3.565   0.054   1.393
 5288SOL    HW216764   3.478   0.168   1.316
 5289SOL     OW16765   0.704   5.275   0.467
 5289SOL    HW116766   0.664   5.183   0.461
 5289SOL    HW216767   0.644   5.341   0.422
 5290SOL     OW16768   3.615   5.915   6.861
 5290SOL    HW116769   3.679   5.975   6.909
 5290SOL    HW216770   3.664   5.840   6.818
 5291SOL     OW16771   1.708   4.758   5.568
 5291SOL    HW116772   1.700   4.786   5.473
 5291SOL    HW216773   1.684   4.661   5.577
 5292SOL     OW16774   4.933   2.778   6.797
 5292SOL    HW116775   4.918   2.877   6.793
 5292SOL    HW216776   4.987   2.757   6.878
 5293SOL     OW16777   0.793   0.775   4.355
 5293SOL    HW116778   0.838   0.696   4.398
 5293SOL    HW216779   0.758   0.749   4.265
 5294SOL     OW16780   5.686   2.838   6.219
 5294SOL    HW116781   5.609   2.901   6.229
 5294SOL    HW216782   5.657   2.758   6.167
 5295SOL     OW16783   5.233   1.159   2.993
 5295SOL    HW116784   5.207   1.221   2.920
 5295SOL    HW216785   5.231   1.207   3.080
 5296SOL     OW16786   1.956   4.283   0.719
 5296SOL    HW116787   1.946   4.373   0.677
 5296SOL    HW216788   2.053   4.257   0.719
 5297SOL     OW16789   2.135   1.313   1.152
 5297SOL    HW116790   2.119   1.326   1.250
 5297SOL    HW216791   2.073   1.243   1.117
 5298SOL     OW16792   6.486   4.608   1.897
 5298SOL    HW116793   6.451   4.588   1.988
 5298SOL    HW216794   6.560   4.544   1.874
 5299SOL     OW16795   2.668   0.473   1.558
 5299SOL    HW116796   2.653   0.561   1.512
 5299SOL    HW216797   2.759   0.438   1.535
 5300SOL     OW16798   0.264   6.346   3.733
 5300SOL    HW116799   0.242   6.326   3.638
 5300SOL    HW216800   0.203   6.418   3.767
 5301SOL     OW16801   4.290   1.575   6.644
 5301SOL    HW116802   4.222   1.541   6.710
 5301SOL    HW216803   4.376   1.525   6.656
 5302SOL     OW16804   6.785   4.462   3.213
 5302SOL    HW116805   6.770   4.553   3.253
 5302SOL    HW216806   6.857   4.467   3.144
 5303SOL     OW16807   6.979   4.836   3.627
 5303SOL    HW116808   0.036   4.796   3.665
 5303SOL    HW216809   6.899   4.789   3.663
 5304SOL     OW16810   5.114   1.753   5.866
 5304SOL    HW116811   5.126   1.689   5.942
 5304SOL    HW216812   5.023   1.795   5.872
 5305SOL     OW16813   2.204   0.770   3.895
 5305SOL    HW116814   2.273   0.722   3.841
 5305SOL    HW216815   2.240   0.858   3.925
 5306SOL     OW16816   2.696   6.751   6.062
 5306SOL    HW116817   2.602   6.749   6.030
 5306SOL    HW216818   2.758   6.759   5.984
 5307SOL     OW16819   4.432   6.665   6.009
 5307SOL    HW116820   4.409   6.705   5.921
 5307SOL    HW216821   4.415   6.732   6.081
 5308SOL     OW16822   6.839   0.704   3.365
 5308SOL    HW116823   6.928   0.750   3.370
 5308SOL    HW216824   6.789   0.719   3.450
 5309SOL     OW16825   3.876   3.925   3.990
 5309SOL    HW116826   3.914   3.910   3.898
 5309SOL    HW216827   3.829   4.013   3.992
 5310SOL     OW16828   5.556   2.421   1.249
 5310SOL    HW116829   5.568   2.499   1.312
 5310SOL    HW216830   5.640   2.366   1.249
 5311SOL     OW16831   2.338   5.229   6.809
 5311SOL    HW116832   2.306   5.307   6.754
 5311SOL    HW216833   2.386   5.262   6.890
 5312SOL     OW16834   0.898   4.157   3.107
 5312SOL    HW116835   0.918   4.255   3.102
 5312SOL    HW216836   0.978   4.108   3.143
 5313SOL     OW16837   1.330   5.778   6.412
 5313SOL    HW116838   1.275   5.707   6.457
 5313SOL    HW216839   1.410   5.798   6.468
 5314SOL     OW16840   4.217   5.348   6.672
 5314SOL    HW116841   4.275   5.375   6.595
 5314SOL    HW216842   4.196   5.250   6.665
 5315SOL     OW16843   5.801   3.771   1.696
 5315SOL    HW116844   5.751   3.857   1.691
 5315SOL    HW216845   5.840   3.760   1.788
 5316SOL     OW16846   0.171   4.931   4.668
 5316SOL    HW116847   0.124   4.843   4.669
 5316SOL    HW216848   0.210   4.947   4.577
 5317SOL     OW16849   5.243   0.561   2.433
 5317SOL    HW116850   5.264   0.648   2.477
 5317SOL    HW216851   5.165   0.518   2.480
 5318SOL     OW16852   6.841   2.585   4.617
 5318SOL    HW116853   6.894   2.599   4.700
 5318SOL    HW216854   6.744   2.576   4.641
 5319SOL     OW16855   5.339   0.096   0.270
 5319SOL    HW116856   5.361   0.193   0.282
 5319SOL    HW216857   5.416   0.049   0.229
 5320SOL     OW16858   5.496   3.749   6.689
 5320SOL    HW116859   5.425   3.692   6.729
 5320SOL    HW216860   5.493   3.840   6.731
 5321SOL     OW16861   1.909   5.643   5.501
 5321SOL    HW116862   1.847   5.683   5.433
 5321SOL    HW216863   1.869   5.558   5.536
 5322SOL     OW16864   4.016   5.723   6.289
 5322SOL    HW116865   4.014   5.669   6.374
 5322SOL    HW216866   3.931   5.710   6.239
 5323SOL     OW16867   4.158   1.756   0.494
 5323SOL    HW116868   4.188   1.848   0.467
 5323SOL    HW216869   4.186   1.690   0.424
 5324SOL     OW16870   4.128   2.915   1.472
 5324SOL    HW116871   4.088   2.950   1.557
 5324SOL    HW216872   4.110   2.979   1.397
 5325SOL     OW16873   5.142   6.445   1.951
 5325SOL    HW116874   5.228   6.419   1.908
 5325SOL    HW216875   5.159   6.473   2.045
 5326SOL     OW16876   6.640   5.702   1.876
 5326SOL    HW116877   6.642   5.750   1.788
 5326SOL    HW216878   6.551   5.715   1.919
 5327SOL     OW16879   6.580   6.596   4.178
 5327SOL    HW116880   6.582   6.537   4.098
 5327SOL    HW216881   6.579   6.692   4.149
 5328SOL     OW16882   3.758   3.796   0.095
 5328SOL    HW116883   3.811   3.734   0.036
 5328SOL    HW216884   3.793   3.889   0.086
 5329SOL     OW16885   0.607   4.634   0.826
 5329SOL    HW116886   0.519   4.586   0.834
 5329SOL    HW216887   0.681   4.570   0.844
 5330SOL     OW16888   3.949   4.038   1.426
 5330SOL    HW116889   3.945   3.944   1.459
 5330SOL    HW216890   3.867   4.087   1.456
 5331SOL     OW16891   4.363   2.345   0.483
 5331SOL    HW116892   4.344   2.436   0.447
 5331SOL    HW216893   4.343   2.343   0.581
 5332SOL     OW16894   5.913   4.704   0.384
 5332SOL    HW116895   5.979   4.735   0.316
 5332SOL    HW216896   5.938   4.739   0.474
 5333SOL     OW16897   1.510   0.931   3.654
 5333SOL    HW116898   1.522   0.854   3.592
 5333SOL    HW216899   1.415   0.933   3.687
 5334SOL     OW16900   4.509   4.549   3.173
 5334SOL    HW116901   4.481   4.564   3.079
 5334SOL    HW216902   4.429   4.550   3.233
 5335SOL     OW16903   0.021   4.873   1.188
 5335SOL    HW116904   0.032   4.800   1.255
 5335SOL    HW216905   0.110   4.910   1.164
 5336SOL     OW16906   1.784   2.262   4.161
 5336SOL    HW116907   1.849   2.330   4.196
 5336SOL    HW216908   1.695   2.305   4.149
 5337SOL     OW16909   6.921   4.328   1.094
 5337SOL    HW116910   6.869   4.265   1.152
 5337SOL    HW216911   6.862   4.403   1.065
 5338SOL     OW16912   6.508   3.408   0.325
 5338SOL    HW116913   6.525   3.450   0.236
 5338SOL    HW216914   6.564   3.454   0.395
 5339SOL     OW16915   6.181   2.431   2.708
 5339SOL    HW116916   6.150   2.384   2.626
 5339SOL    HW216917   6.280   2.418   2.719
 5340SOL     OW16918   5.545   3.080   2.789
 5340SOL    HW116919   5.540   3.005   2.855
 5340SOL    HW216920   5.584   3.047   2.703
 5341SOL     OW16921   4.416   5.064   3.553
 5341SOL    HW116922   4.512   5.074   3.579
 5341SOL    HW216923   4.406   5.075   3.454
 5342SOL     OW16924   5.799   0.239   5.153
 5342SOL    HW116925   5.721   0.216   5.094
 5342SOL    HW216926   5.798   0.338   5.171
 5343SOL     OW16927   3.867   3.599   5.451
 5343SOL    HW116928   3.949   3.645   5.485
 5343SOL    HW216929   3.884   3.564   5.359
 5344SOL     OW16930   0.294   1.789   6.308
 5344SOL    HW116931   0.226   1.813   6.377
 5344SOL    HW216932   0.337   1.872   6.273
 5345SOL     OW16933   5.238   1.313   7.014
 5345SOL    HW116934   5.298   1.393   7.026
 5345SOL    HW216935   5.243   1.282   6.919
 5346SOL     OW16936   2.610   5.289   3.880
 5346SOL    HW116937   2.580   5.380   3.852
 5346SOL    HW216938   2.699   5.270   3.841
 5347SOL     OW16939   6.433   2.143   3.951
 5347SOL    HW116940   6.427   2.097   3.863
 5347SOL    HW216941   6.446   2.075   4.023
 5348SOL     OW16942   5.493   2.495   4.013
 5348SOL    HW116943   5.559   2.559   3.973
 5348SOL    HW216944   5.401   2.519   3.981
 5349SOL     OW16945   0.771   3.022   2.037
 5349SOL    HW116946   0.754   3.005   2.134
 5349SOL    HW216947   0.769   2.935   1.988
 5350SOL     OW16948   2.617   6.834   5.706
 5350SOL    HW116949   2.570   6.826   5.793
 5350SOL    HW216950   2.668   6.920   5.702
 5351SOL     OW16951   0.504   5.521   1.569
 5351SOL    HW116952   0.583   5.471   1.531
 5351SOL    HW216953   0.491   5.494   1.664
 5352SOL     OW16954   1.932   3.877   3.956
 5352SOL    HW116955   1.943   3.886   4.055
 5352SOL    HW216956   1.934   3.968   3.914
 5353SOL     OW16957   4.687   5.667   3.123
 5353SOL    HW116958   4.681   5.616   3.209
 5353SOL    HW216959   4.654   5.760   3.137
 5354SOL     OW16960   4.227   5.618   0.558
 5354SOL    HW116961   4.169   5.567   0.622
 5354SOL    HW216962   4.249   5.707   0.597
 5355SOL     OW16963   5.001   4.790   5.208
 5355SOL    HW116964   5.076   4.797   5.273
 5355SOL    HW216965   5.037   4.776   5.116
 5356SOL     OW16966   0.435   4.953   1.186
 5356SOL    HW116967   0.345   4.994   1.174
 5356SOL    HW216968   0.428   4.853   1.177
 5357SOL     OW16969   4.998   4.929   2.037
 5357SOL    HW116970   4.944   4.884   2.108
 5357SOL    HW216971   4.937   4.964   1.966
 5358SOL     OW16972   4.398   1.407   0.524
 5358SOL    HW116973   4.307   1.447   0.512
 5358SOL    HW216974   4.414   1.338   0.453
 5359SOL     OW16975   1.827   1.982   6.538
 5359SOL    HW116976   1.793   2.076   6.527
 5359SOL    HW216977   1.887   1.976   6.617
 5360SOL     OW16978   5.597   4.433   3.398
 5360SOL    HW116979   5.528   4.374   3.358
 5360SOL    HW216980   5.579   4.445   3.496
 5361SOL     OW16981   3.243   5.988   2.772
 5361SOL    HW116982   3.288   5.899   2.763
 5361SOL    HW216983   3.312   6.060   2.780
 5362SOL     OW16984   5.577   0.151   1.767
 5362SOL    HW116985   5.535   0.130   1.679
 5362SOL    HW216986   5.506   0.168   1.835
 5363SOL     OW16987   5.741   4.985   4.953
 5363SOL    HW116988   5.777   4.984   4.860
 5363SOL    HW216989   5.658   4.929   4.957
 5364SOL     OW16990   4.969   0.930   2.277
 5364SOL    HW116991   4.985   0.840   2.236
 5364SOL    HW216992   5.007   1.001   2.217
 5365SOL     OW16993   3.360   3.064   4.082
 5365SOL    HW116994   3.403   3.116   4.008
 5365SOL    HW216995   3.425   2.997   4.117
 5366SOL     OW16996   6.372   6.575   1.880
 5366SOL    HW116997   6.310   6.505   1.843
 5366SOL    HW216998   6.443   6.595   1.812
 5367SOL     OW16999   0.113   6.391   1.537
 5367SOL    HW117000   0.039   6.437   1.586
 5367SOL    HW217001   0.179   6.356   1.604
 5368SOL     OW17002   6.779   5.745   3.628
 5368SOL    HW117003   6.849   5.754   3.557
 5368SOL    HW217004   6.804   5.804   3.706
 5369SOL     OW17005   2.919   5.584   1.772
 5369SOL    HW117006   2.995   5.525   1.799
 5369SOL    HW217007   2.901   5.651   1.844
 5370SOL     OW17008   2.881   3.808   1.544
 5370SOL    HW117009   2.916   3.814   1.450
 5370SOL    HW217010   2.889   3.714   1.576
 5371SOL     OW17011   6.601   5.157   5.344
 5371SOL    HW117012   6.695   5.191   5.334
 5371SOL    HW217013   6.537   5.233   5.329
 5372SOL     OW17014   0.896   0.038   2.364
 5372SOL    HW117015   0.831   0.114   2.376
 5372SOL    HW217016   0.987   0.075   2.347
 5373SOL     OW17017   3.677   0.489   6.116
 5373SOL    HW117018   3.694   0.480   6.214
 5373SOL    HW217019   3.643   0.403   6.080
 5374SOL     OW17020   3.123   5.252   1.408
 5374SOL    HW117021   3.106   5.187   1.334
 5374SOL    HW217022   3.145   5.341   1.371
 5375SOL     OW17023   0.394   5.937   4.736
 5375SOL    HW117024   0.408   5.944   4.637
 5375SOL    HW217025   0.462   5.874   4.775
 5376SOL     OW17026   0.710   1.666   0.021
 5376SOL    HW117027   0.642   1.729   0.057
 5376SOL    HW217028   0.741   1.698   6.957
 5377SOL     OW17029   2.337   0.476   3.433
 5377SOL    HW117030   2.346   0.524   3.345
 5377SOL    HW217031   2.259   0.414   3.429
 5378SOL     OW17032   5.678   0.651   1.900
 5378SOL    HW117033   5.603   0.675   1.838
 5378SOL    HW217034   5.645   0.586   1.968
 5379SOL     OW17035   0.842   3.229   6.256
 5379SOL    HW117036   0.796   3.270   6.336
 5379SOL    HW217037   0.780   3.163   6.213
 5380SOL     OW17038   4.722   0.190   1.289
 5380SOL    HW117039   4.780   0.127   1.341
 5380SOL    HW217040   4.680   0.141   1.212
 5381SOL     OW17041   4.630   6.283   2.667
 5381SOL    HW117042   4.535   6.252   2.659
 5381SOL    HW217043   4.649   6.349   2.594
 5382SOL     OW17044   3.821   1.743   1.826
 5382SOL    HW117045   3.766   1.813   1.871
 5382SOL    HW217046   3.878   1.697   1.894
 5383SOL     OW17047   2.264   2.997   4.439
 5383SOL    HW117048   2.213   3.040   4.513
 5383SOL    HW217049   2.253   2.898   4.444
 5384SOL     OW17050   4.545   6.109   5.490
 5384SOL    HW117051   4.633   6.091   5.535
 5384SOL    HW217052   4.475   6.049   5.530
 5385SOL     OW17053   5.403   2.461   5.595
 5385SOL    HW117054   5.319   2.496   5.553
 5385SOL    HW217055   5.429   2.374   5.553
 5386SOL     OW17056   6.877   3.737   4.099
 5386SOL    HW117057   6.903   3.798   4.024
 5386SOL    HW217058   6.882   3.787   4.186
 5387SOL     OW17059   1.933   1.511   2.567
 5387SOL    HW117060   1.908   1.414   2.570
 5387SOL    HW217061   1.948   1.545   2.660
 5388SOL     OW17062   0.697   6.839   2.724
 5388SOL    HW117063   0.654   6.929   2.736
 5388SOL    HW217064   0.724   6.829   2.628
 5389SOL     OW17065   4.401   1.736   4.062
 5389SOL    HW117066   4.434   1.710   4.153
 5389SOL    HW217067   4.330   1.805   4.071
 5390SOL     OW17068   6.741   3.084   3.590
 5390SOL    HW117069   6.651   3.051   3.561
 5390SOL    HW217070   6.748   3.182   3.573
 5391SOL     OW17071   2.408   2.543   0.214
 5391SOL    HW117072   2.472   2.522   0.141
 5391SOL    HW217073   2.374   2.458   0.255
 5392SOL     OW17074   5.444   1.785   3.431
 5392SOL    HW117075   5.344   1.782   3.425
 5392SOL    HW217076   5.482   1.811   3.342
 5393SOL     OW17077   3.766   1.883   5.500
 5393SOL    HW117078   3.789   1.849   5.409
 5393SOL    HW217079   3.826   1.842   5.568
 5394SOL     OW17080   1.833   0.384   1.027
 5394SOL    HW117081   1.822   0.322   0.949
 5394SOL    HW217082   1.902   0.453   1.005
 5395SOL     OW17083   5.505   2.124   1.239
 5395SOL    HW117084   5.500   2.222   1.223
 5395SOL    HW217085   5.480   2.076   1.154
 5396SOL     OW17086   5.842   5.196   3.421
 5396SOL    HW117087   5.938   5.226   3.424
 5396SOL    HW217088   5.809   5.181   3.514
 5397SOL     OW17089   6.242   1.294   3.165
 5397SOL    HW117090   6.257   1.322   3.070
 5397SOL    HW217091   6.150   1.322   3.193
 5398SOL     OW17092   4.941   2.027   3.216
 5398SOL    HW117093   4.851   1.995   3.245
 5398SOL    HW217094   4.975   2.096   3.281
 5399SOL     OW17095   2.518   0.214   5.538
 5399SOL    HW117096   2.567   0.299   5.555
 5399SOL    HW217097   2.464   0.189   5.618
 5400SOL     OW17098   3.664   3.258   1.513
 5400SOL    HW117099   3.667   3.292   1.607
 5400SOL    HW217100   3.579   3.287   1.470
 5401SOL     OW17101   5.928   4.367   1.694
 5401SOL    HW117102   5.848   4.328   1.649
 5401SOL    HW217103   5.959   4.448   1.644
 5402SOL     OW17104   1.909   0.089   1.062
 5402SOL    HW117105   1.837   0.122   1.123
 5402SOL    HW217106   1.907   0.141   0.977
 5403SOL     OW17107   5.122   3.576   0.373
 5403SOL    HW117108   5.118   3.666   0.331
 5403SOL    HW217109   5.101   3.584   0.471
 5404SOL     OW17110   6.246   1.118   1.287
 5404SOL    HW117111   6.304   1.196   1.309
 5404SOL    HW217112   6.207   1.081   1.372
 5405SOL     OW17113   5.078   5.977   6.867
 5405SOL    HW117114   5.102   5.884   6.896
 5405SOL    HW217115   5.070   5.980   6.767
 5406SOL     OW17116   2.826   0.210   4.083
 5406SOL    HW117117   2.860   0.218   4.177
 5406SOL    HW217118   2.863   0.127   4.041
 5407SOL     OW17119   1.712   0.574   1.855
 5407SOL    HW117120   1.787   0.640   1.841
 5407SOL    HW217121   1.667   0.556   1.768
 5408SOL     OW17122   2.604   2.447   4.539
 5408SOL    HW117123   2.566   2.363   4.500
 5408SOL    HW217124   2.662   2.423   4.617
 5409SOL     OW17125   1.444   2.575   1.232
 5409SOL    HW117126   1.355   2.537   1.208
 5409SOL    HW217127   1.455   2.665   1.190
 5410SOL     OW17128   0.830   2.415   0.982
 5410SOL    HW117129   0.846   2.420   0.884
 5410SOL    HW217130   0.779   2.495   1.012
 5411SOL     OW17131   3.767   4.990   6.639
 5411SOL    HW117132   3.820   5.055   6.586
 5411SOL    HW217133   3.777   4.899   6.600
 5412SOL     OW17134   0.300   2.344   5.932
 5412SOL    HW117135   0.216   2.381   5.891
 5412SOL    HW217136   0.277   2.296   6.017
 5413SOL     OW17137   6.725   6.929   4.479
 5413SOL    HW117138   6.710   7.018   4.437
 5413SOL    HW217139   6.747   6.862   4.408
 5414SOL     OW17140   6.328   3.870   5.340
 5414SOL    HW117141   6.386   3.878   5.422
 5414SOL    HW217142   6.240   3.914   5.357
 5415SOL     OW17143   3.553   0.361   0.620
 5415SOL    HW117144   3.588   0.454   0.608
 5415SOL    HW217145   3.616   0.296   0.578
 5416SOL     OW17146   3.390   5.190   5.755
 5416SOL    HW117147   3.411   5.199   5.853
 5416SOL    HW217148   3.348   5.101   5.738
 5417SOL     OW17149   4.278   6.278   3.598
 5417SOL    HW117150   4.235   6.226   3.524
 5417SOL    HW217151   4.254   6.375   3.589
 5418SOL     OW17152   6.377   3.991   4.899
 5418SOL    HW117153   6.355   4.017   4.805
 5418SOL    HW217154   6.388   4.072   4.955
 5419SOL     OW17155   4.144   0.012   6.335
 5419SOL    HW117156   4.076   7.018   6.406
 5419SOL    HW217157   4.104   0.074   6.267
 5420SOL     OW17158   0.967   1.030   1.555
 5420SOL    HW117159   0.941   1.008   1.649
 5420SOL    HW217160   0.977   0.945   1.503
 5421SOL     OW17161   3.714   5.560   2.395
 5421SOL    HW117162   3.676   5.471   2.368
 5421SOL    HW217163   3.639   5.622   2.417
 5422SOL     OW17164   2.575   6.551   4.024
 5422SOL    HW117165   2.598   6.627   4.084
 5422SOL    HW217166   2.566   6.467   4.078
 5423SOL     OW17167   6.451   6.338   2.374
 5423SOL    HW117168   6.409   6.416   2.420
 5423SOL    HW217169   6.380   6.269   2.356
 5424SOL     OW17170   4.309   4.220   5.448
 5424SOL    HW117171   4.222   4.227   5.399
 5424SOL    HW217172   4.339   4.125   5.450
 5425SOL     OW17173   0.415   3.647   5.921
 5425SOL    HW117174   0.393   3.554   5.951
 5425SOL    HW217175   0.331   3.694   5.896
 5426SOL     OW17176   5.617   5.225   2.592
 5426SOL    HW117177   5.583   5.135   2.621
 5426SOL    HW217178   5.574   5.249   2.504
 5427SOL     OW17179   4.730   2.396   6.401
 5427SOL    HW117180   4.769   2.311   6.366
 5427SOL    HW217181   4.801   2.467   6.402
 5428SOL     OW17182   0.115   5.616   3.152
 5428SOL    HW117183   0.143   5.521   3.168
 5428SOL    HW217184   0.055   5.619   3.072
 5429SOL     OW17185   2.915   0.143   3.669
 5429SOL    HW117186   2.889   0.065   3.726
 5429SOL    HW217187   3.011   0.135   3.644
 5430SOL     OW17188   2.583   3.727   6.332
 5430SOL    HW117189   2.552   3.698   6.241
 5430SOL    HW217190   2.514   3.705   6.400
 5431SOL     OW17191   3.460   5.259   6.027
 5431SOL    HW117192   3.399   5.195   6.074
 5431SOL    HW217193   3.553   5.248   6.063
 5432SOL     OW17194   5.224   5.185   0.534
 5432SOL    HW117195   5.138   5.159   0.579
 5432SOL    HW217196   5.297   5.191   0.602
 5433SOL     OW17197   1.603   6.831   1.145
 5433SOL    HW117198   1.681   6.891   1.163
 5433SOL    HW217199   1.581   6.833   1.048
 5434SOL     OW17200   5.137   0.672   4.399
 5434SOL    HW117201   5.196   0.699   4.475
 5434SOL    HW217202   5.155   0.576   4.376
 5435SOL     OW17203   6.763   3.892   0.970
 5435SOL    HW117204   6.796   3.808   1.014
 5435SOL    HW217205   6.749   3.875   0.873
 5436SOL     OW17206   1.360   4.384   2.564
 5436SOL    HW117207   1.274   4.406   2.518
 5436SOL    HW217208   1.426   4.458   2.548
 5437SOL     OW17209   3.727   5.943   0.643
 5437SOL    HW117210   3.637   5.934   0.685
 5437SOL    HW217211   3.717   5.969   0.547
 5438SOL     OW17212   4.721   4.638   2.888
 5438SOL    HW117213   4.625   4.666   2.879
 5438SOL    HW217214   4.726   4.538   2.894
 5439SOL     OW17215   1.190   4.855   1.411
 5439SOL    HW117216   1.106   4.897   1.377
 5439SOL    HW217217   1.193   4.760   1.382
 5440SOL     OW17218   5.809   5.905   3.711
 5440SOL    HW117219   5.897   5.862   3.728
 5440SOL    HW217220   5.822   5.986   3.653
 5441SOL     OW17221   4.679   2.083   3.680
 5441SOL    HW117222   4.661   2.132   3.595
 5441SOL    HW217223   4.657   1.986   3.669
 5442SOL     OW17224   5.036   7.005   4.875
 5442SOL    HW117225   4.982   7.001   4.960
 5442SOL    HW217226   5.133   7.008   4.898
 5443SOL     OW17227   4.626   0.156   4.652
 5443SOL    HW117228   4.617   0.229   4.720
 5443SOL    HW217229   4.556   0.168   4.582
 5444SOL     OW17230   7.008   0.826   4.643
 5444SOL    HW117231   6.932   0.848   4.705
 5444SOL    HW217232   6.974   0.770   4.568
 5445SOL     OW17233   5.226   5.429   5.291
 5445SOL    HW117234   5.201   5.477   5.376
 5445SOL    HW217235   5.158   5.449   5.221
 5446SOL     OW17236   1.042   4.509   5.848
 5446SOL    HW117237   1.001   4.459   5.772
 5446SOL    HW217238   1.100   4.446   5.901
 5447SOL     OW17239   1.156   1.505   0.346
 5447SOL    HW117240   1.061   1.483   0.326
 5447SOL    HW217241   1.208   1.515   0.261
 5448SOL     OW17242   4.541   5.444   2.983
 5448SOL    HW117243   4.590   5.528   3.005
 5448SOL    HW217244   4.462   5.433   3.044
 5449SOL     OW17245   2.978   1.809   2.036
 5449SOL    HW117246   2.993   1.780   1.942
 5449SOL    HW217247   3.058   1.860   2.069
 5450SOL     OW17248   3.920   5.557   1.655
 5450SOL    HW117249   3.995   5.622   1.655
 5450SOL    HW217250   3.915   5.512   1.566
 5451SOL     OW17251   0.943   0.157   3.239
 5451SOL    HW117252   0.949   0.063   3.272
 5451SOL    HW217253   1.035   0.197   3.235
 5452SOL     OW17254   2.124   4.873   1.897
 5452SOL    HW117255   2.046   4.924   1.933
 5452SOL    HW217256   2.134   4.892   1.799
 5453SOL     OW17257   5.807   4.287   3.055
 5453SOL    HW117258   5.812   4.253   3.149
 5453SOL    HW217259   5.721   4.336   3.042
 5454SOL     OW17260   5.868   5.059   3.691
 5454SOL    HW117261   5.967   5.064   3.693
 5454SOL    HW217262   5.840   4.967   3.662
 5455SOL     OW17263   0.317   1.643   2.753
 5455SOL    HW117264   0.223   1.607   2.751
 5455SOL    HW217265   0.381   1.569   2.772
 5456SOL     OW17266   5.456   1.021   6.793
 5456SOL    HW117267   5.488   1.075   6.871
 5456SOL    HW217268   5.451   1.080   6.712
 5457SOL     OW17269   6.226   2.531   0.283
 5457SOL    HW117270   6.317   2.551   0.319
 5457SOL    HW217271   6.190   2.449   0.327
 5458SOL     OW17272   6.363   4.712   0.693
 5458SOL    HW117273   6.396   4.618   0.687
 5458SOL    HW217274   6.384   4.760   0.608
 5459SOL     OW17275   2.052   4.436   5.506
 5459SOL    HW117276   2.133   4.398   5.551
 5459SOL    HW217277   2.014   4.510   5.562
 5460SOL     OW17278   2.114   0.136   0.116
 5460SOL    HW117279   2.030   0.090   0.145
 5460SOL    HW217280   2.091   0.227   0.081
 5461SOL     OW17281   6.821   1.372   6.615
 5461SOL    HW117282   6.891   1.387   6.544
 5461SOL    HW217283   6.821   1.275   6.640
 5462SOL     OW17284   5.730   5.605   6.615
 5462SOL    HW117285   5.643   5.591   6.568
 5462SOL    HW217286   5.714   5.650   6.703
 5463SOL     OW17287   7.019   2.739   0.567
 5463SOL    HW117288   6.989   2.815   0.509
 5463SOL    HW217289   0.076   2.766   0.617
 5464SOL     OW17290   6.710   6.405   5.438
 5464SOL    HW117291   6.791   6.348   5.450
 5464SOL    HW217292   6.658   6.373   5.358
 5465SOL     OW17293   6.923   6.544   3.645
 5465SOL    HW117294   6.844   6.512   3.592
 5465SOL    HW217295   6.961   6.626   3.602
 5466SOL     OW17296   5.580   2.841   5.233
 5466SOL    HW117297   5.536   2.919   5.278
 5466SOL    HW217298   5.517   2.763   5.233
 5467SOL     OW17299   5.629   3.906   3.595
 5467SOL    HW117300   5.646   3.860   3.508
 5467SOL    HW217301   5.614   4.004   3.579
 5468SOL     OW17302   6.964   1.326   2.315
 5468SOL    HW117303   6.885   1.322   2.377
 5468SOL    HW217304   6.966   1.414   2.268
 5469SOL     OW17305   2.133   1.200   5.232
 5469SOL    HW117306   2.174   1.167   5.147
 5469SOL    HW217307   2.194   1.265   5.277
 5470SOL     OW17308   3.755   5.285   4.114
 5470SOL    HW117309   3.771   5.285   4.213
 5470SOL    HW217310   3.672   5.233   4.094
 5471SOL     OW17311   4.864   6.990   2.582
 5471SOL    HW117312   4.773   6.996   2.539
 5471SOL    HW217313   4.898   6.896   2.575
 5472SOL     OW17314   3.021   1.351   6.074
 5472SOL    HW117315   3.053   1.280   6.011
 5472SOL    HW217316   2.971   1.308   6.149
 5473SOL     OW17317   2.649   4.334   1.439
 5473SOL    HW117318   2.593   4.253   1.422
 5473SOL    HW217319   2.740   4.320   1.399
 5474SOL     OW17320   0.709   5.500   3.484
 5474SOL    HW117321   0.758   5.414   3.470
 5474SOL    HW217322   0.625   5.482   3.535
 5475SOL     OW17323   7.004   1.976   6.446
 5475SOL    HW117324   6.954   2.056   6.481
 5475SOL    HW217325   0.071   1.976   6.483
 5476SOL     OW17326   2.544   6.224   6.133
 5476SOL    HW117327   2.594   6.200   6.216
 5476SOL    HW217328   2.449   6.247   6.155
 5477SOL     OW17329   2.125   5.664   4.300
 5477SOL    HW117330   2.163   5.717   4.225
 5477SOL    HW217331   2.111   5.723   4.379
 5478SOL     OW17332   5.570   4.753   6.507
 5478SOL    HW117333   5.589   4.849   6.526
 5478SOL    HW217334   5.601   4.731   6.415
 5479SOL     OW17335   4.192   1.986   4.504
 5479SOL    HW117336   4.106   1.981   4.453
 5479SOL    HW217337   4.183   2.054   4.577
 5480SOL     OW17338   6.236   4.598   5.103
 5480SOL    HW117339   6.186   4.680   5.131
 5480SOL    HW217340   6.171   4.526   5.077
 5481SOL     OW17341   4.621   1.129   6.167
 5481SOL    HW117342   4.568   1.198   6.217
 5481SOL    HW217343   4.598   1.038   6.201
 5482SOL     OW17344   3.976   3.262   1.752
 5482SOL    HW117345   3.982   3.331   1.681
 5482SOL    HW217346   4.065   3.253   1.798
 5483SOL     OW17347   6.886   3.507   6.120
 5483SOL    HW117348   6.950   3.443   6.163
 5483SOL    HW217349   6.806   3.518   6.180
 5484SOL     OW17350   6.935   6.476   4.256
 5484SOL    HW117351   6.873   6.416   4.305
 5484SOL    HW217352   7.009   6.422   4.215
 5485SOL     OW17353   3.840   6.851   4.876
 5485SOL    HW117354   3.890   6.828   4.959
 5485SOL    HW217355   3.799   6.767   4.838
 5486SOL     OW17356   0.901   0.529   3.150
 5486SOL    HW117357   0.823   0.590   3.158
 5486SOL    HW217358   0.900   0.462   3.224
 5487SOL     OW17359   6.286   4.510   0.396
 5487SOL    HW117360   6.265   4.467   0.484
 5487SOL    HW217361   6.211   4.494   0.331
 5488SOL     OW17362   5.125   2.138   7.003
 5488SOL    HW117363   5.200   2.072   7.001
 5488SOL    HW217364   5.162   2.231   7.001
 5489SOL     OW17365   1.769   4.600   2.533
 5489SOL    HW117366   1.765   4.572   2.437
 5489SOL    HW217367   1.740   4.523   2.591
 5490SOL     OW17368   3.252   1.135   6.953
 5490SOL    HW117369   3.311   1.185   7.017
 5490SOL    HW217370   3.290   1.044   6.938
 5491SOL     OW17371   1.718   4.658   0.581
 5491SOL    HW117372   1.769   4.578   0.551
 5491SOL    HW217373   1.780   4.735   0.595
 5492SOL     OW17374   0.827   2.188   6.921
 5492SOL    HW117375   0.837   2.287   6.924
 5492SOL    HW217376   0.733   2.164   6.897
 5493SOL     OW17377   3.723   3.208   5.667
 5493SOL    HW117378   3.795   3.218   5.736
 5493SOL    HW217379   3.673   3.123   5.684
 5494SOL     OW17380   6.618   3.366   1.674
 5494SOL    HW117381   6.540   3.332   1.727
 5494SOL    HW217382   6.697   3.376   1.733
 5495SOL     OW17383   3.833   3.982   1.957
 5495SOL    HW117384   3.908   4.014   1.899
 5495SOL    HW217385   3.871   3.945   2.042
 5496SOL     OW17386   3.757   6.240   1.944
 5496SOL    HW117387   3.800   6.254   1.855
 5496SOL    HW217388   3.762   6.324   1.998
 5497SOL     OW17389   0.195   1.135   3.086
 5497SOL    HW117390   0.285   1.156   3.123
 5497SOL    HW217391   0.151   1.219   3.056
 5498SOL     OW17392   4.850   1.159   6.037
 5498SOL    HW117393   4.831   1.243   5.987
 5498SOL    HW217394   4.768   1.130   6.087
 5499SOL     OW17395   6.974   1.227   3.682
 5499SOL    HW117396   7.001   1.297   3.615
 5499SOL    HW217397   6.970   1.138   3.637
 5500SOL     OW17398   2.705   5.109   0.936
 5500SOL    HW117399   2.790   5.093   0.885
 5500SOL    HW217400   2.711   5.065   1.025
 5501SOL     OW17401   2.559   6.951   2.104
 5501SOL    HW117402   2.580   0.000   2.167
 5501SOL    HW217403   2.469   6.965   2.063
 5502SOL     OW17404   5.851   4.104   5.665
 5502SOL    HW117405   5.850   4.004   5.663
 5502SOL    HW217406   5.872   4.136   5.757
 5503SOL     OW17407   0.963   4.764   3.580
 5503SOL    HW117408   0.916   4.852   3.582
 5503SOL    HW217409   0.918   4.701   3.643
 5504SOL     OW17410   3.554   1.325   5.163
 5504SOL    HW117411   3.642   1.306   5.206
 5504SOL    HW217412   3.516   1.240   5.125
 5505SOL     OW17413   2.565   5.724   5.113
 5505SOL    HW117414   2.468   5.738   5.129
 5505SOL    HW217415   2.604   5.672   5.188
 5506SOL     OW17416   6.660   0.652   4.886
 5506SOL    HW117417   6.689   0.601   4.967
 5506SOL    HW217418   6.566   0.628   4.864
 5507SOL     OW17419   2.274   6.780   3.221
 5507SOL    HW117420   2.205   6.774   3.149
 5507SOL    HW217421   2.294   6.688   3.255
 5508SOL     OW17422   2.236   0.707   6.280
 5508SOL    HW117423   2.328   0.704   6.240
 5508SOL    HW217424   2.169   0.708   6.206
 5509SOL     OW17425   5.840   6.387   0.252
 5509SOL    HW117426   5.868   6.473   0.208
 5509SOL    HW217427   5.822   6.404   0.349
 5510SOL     OW17428   4.659   0.104   6.190
 5510SOL    HW117429   4.629   0.173   6.124
 5510SOL    HW217430   4.698   0.149   6.270
 5511SOL     OW17431   0.465   0.610   2.653
 5511SOL    HW117432   0.414   0.694   2.639
 5511SOL    HW217433   0.559   0.621   2.620
 5512SOL     OW17434   6.682   2.032   0.451
 5512SOL    HW117435   6.614   1.960   0.468
 5512SOL    HW217436   6.712   2.028   0.356
 5513SOL     OW17437   4.428   4.628   4.518
 5513SOL    HW117438   4.528   4.619   4.525
 5513SOL    HW217439   4.388   4.630   4.609
 5514SOL     OW17440   5.864   4.752   3.137
 5514SOL    HW117441   5.937   4.792   3.192
 5514SOL    HW217442   5.785   4.813   3.138
 5515SOL     OW17443   6.804   2.775   2.139
 5515SOL    HW117444   6.831   2.689   2.183
 5515SOL    HW217445   6.719   2.808   2.180
 5516SOL     OW17446   1.726   2.706   0.153
 5516SOL    HW117447   1.704   2.610   0.171
 5516SOL    HW217448   1.732   2.755   0.240
 5517SOL     OW17449   3.022   2.307   1.270
 5517SOL    HW117450   3.038   2.215   1.308
 5517SOL    HW217451   3.017   2.373   1.345
 5518SOL     OW17452   5.242   4.938   6.461
 5518SOL    HW117453   5.314   4.984   6.408
 5518SOL    HW217454   5.155   4.985   6.448
 5519SOL     OW17455   5.235   3.879   2.894
 5519SOL    HW117456   5.218   3.885   2.993
 5519SOL    HW217457   5.225   3.784   2.865
 5520SOL     OW17458   1.654   4.127   2.623
 5520SOL    HW117459   1.746   4.098   2.595
 5520SOL    HW217460   1.654   4.226   2.637
 5521SOL     OW17461   4.998   6.305   1.758
 5521SOL    HW117462   4.986   6.206   1.754
 5521SOL    HW217463   5.047   6.329   1.842
 5522SOL     OW17464   2.631   3.234   1.671
 5522SOL    HW117465   2.605   3.182   1.590
 5522SOL    HW217466   2.592   3.326   1.666
 5523SOL     OW17467   3.479   6.658   3.104
 5523SOL    HW117468   3.393   6.643   3.152
 5523SOL    HW217469   3.463   6.652   3.005
 5524SOL     OW17470   0.569   5.793   4.861
 5524SOL    HW117471   0.646   5.822   4.919
 5524SOL    HW217472   0.598   5.717   4.803
 5525SOL     OW17473   6.770   5.002   0.028
 5525SOL    HW117474   6.739   5.004   0.123
 5525SOL    HW217475   6.868   4.983   0.024
 5526SOL     OW17476   6.515   3.510   3.785
 5526SOL    HW117477   6.496   3.444   3.712
 5526SOL    HW217478   6.442   3.577   3.790
 5527SOL     OW17479   0.775   2.588   1.846
 5527SOL    HW117480   0.847   2.636   1.796
 5527SOL    HW217481   0.767   2.494   1.811
 5528SOL     OW17482   6.953   2.767   5.152
 5528SOL    HW117483   0.025   2.748   5.162
 5528SOL    HW217484   6.903   2.728   5.229
 5529SOL     OW17485   2.515   0.522   4.770
 5529SOL    HW117486   2.569   0.555   4.693
 5529SOL    HW217487   2.453   0.594   4.802
 5530SOL     OW17488   0.180   2.613   0.975
 5530SOL    HW117489   0.101   2.596   1.034
 5530SOL    HW217490   0.251   2.661   1.027
 5531SOL     OW17491   4.114   3.433   4.750
 5531SOL    HW117492   4.161   3.511   4.792
 5531SOL    HW217493   4.080   3.372   4.822
 5532SOL     OW17494   1.643   0.702   0.449
 5532SOL    HW117495   1.670   0.672   0.357
 5532SOL    HW217496   1.607   0.795   0.444
 5533SOL     OW17497   2.743   0.771   3.195
 5533SOL    HW117498   2.823   0.747   3.140
 5533SOL    HW217499   2.709   0.860   3.166
 5534SOL     OW17500   1.117   3.029   6.830
 5534SOL    HW117501   1.178   3.107   6.839
 5534SOL    HW217502   1.153   2.952   6.883
 5535SOL     OW17503   6.792   3.199   3.170
 5535SOL    HW117504   6.756   3.276   3.118
 5535SOL    HW217505   6.777   3.214   3.268
 5536SOL     OW17506   2.324   0.628   4.183
 5536SOL    HW117507   2.236   0.669   4.209
 5536SOL    HW217508   2.367   0.588   4.264
 5537SOL     OW17509   3.570   0.124   4.721
 5537SOL    HW117510   3.620   0.209   4.738
 5537SOL    HW217511   3.565   0.071   4.805
 5538SOL     OW17512   4.050   0.532   5.550
 5538SOL    HW117513   4.003   0.484   5.476
 5538SOL    HW217514   4.090   0.465   5.613
 5539SOL     OW17515   0.640   1.524   2.248
 5539SOL    HW117516   0.571   1.594   2.233
 5539SOL    HW217517   0.704   1.555   2.319
 5540SOL     OW17518   5.011   2.998   1.242
 5540SOL    HW117519   5.006   3.079   1.184
 5540SOL    HW217520   5.088   3.007   1.304
 5541SOL     OW17521   5.213   3.147   5.557
 5541SOL    HW117522   5.234   3.082   5.485
 5541SOL    HW217523   5.194   3.099   5.642
 5542SOL     OW17524   5.732   5.209   6.410
 5542SOL    HW117525   5.636   5.235   6.396
 5542SOL    HW217526   5.790   5.269   6.356
 5543SOL     OW17527   2.481   5.377   7.003
 5543SOL    HW117528   2.511   5.449   6.940
 5543SOL    HW217529   2.555   5.354   0.040
 5544SOL     OW17530   5.567   5.183   6.113
 5544SOL    HW117531   5.534   5.216   6.024
 5544SOL    HW217532   5.516   5.101   6.138
 5545SOL     OW17533   4.175   1.153   2.692
 5545SOL    HW117534   4.262   1.201   2.694
 5545SOL    HW217535   4.126   1.176   2.607
 5546SOL     OW17536   0.729   6.507   4.597
 5546SOL    HW117537   0.733   6.431   4.662
 5546SOL    HW217538   0.804   6.571   4.616
 5547SOL     OW17539   3.756   1.624   5.647
 5547SOL    HW117540   3.793   1.606   5.555
 5547SOL    HW217541   3.737   1.537   5.692
 5548SOL     OW17542   6.512   4.305   6.171
 5548SOL    HW117543   6.438   4.370   6.190
 5548SOL    HW217544   6.600   4.348   6.194
 5549SOL     OW17545   3.819   3.040   1.397
 5549SOL    HW117546   3.765   3.103   1.453
 5549SOL    HW217547   3.841   2.959   1.451
 5550SOL     OW17548   2.483   4.450   3.125
 5550SOL    HW117549   2.537   4.531   3.102
 5550SOL    HW217550   2.453   4.406   3.041
 5551SOL     OW17551   1.700   6.279   2.695
 5551SOL    HW117552   1.638   6.203   2.711
 5551SOL    HW217553   1.664   6.337   2.622
 5552SOL     OW17554   6.123   0.186   6.023
 5552SOL    HW117555   6.183   0.161   5.948
 5552SOL    HW217556   6.146   0.131   6.104
 5553SOL     OW17557   4.472   6.817   6.821
 5553SOL    HW117558   4.503   6.849   6.911
 5553SOL    HW217559   4.500   6.882   6.751
 5554SOL     OW17560   4.741   3.400   1.735
 5554SOL    HW117561   4.683   3.482   1.732
 5554SOL    HW217562   4.691   3.323   1.694
 5555SOL     OW17563   0.974   3.509   2.298
 5555SOL    HW117564   0.973   3.487   2.396
 5555SOL    HW217565   1.049   3.572   2.279
 5556SOL     OW17566   6.259   0.912   3.874
 5556SOL    HW117567   6.168   0.916   3.832
 5556SOL    HW217568   6.292   0.818   3.870
 5557SOL     OW17569   4.351   5.441   1.966
 5557SOL    HW117570   4.369   5.407   1.874
 5557SOL    HW217571   4.253   5.444   1.982
 5558SOL     OW17572   3.694   3.748   0.385
 5558SOL    HW117573   3.719   3.774   0.291
 5558SOL    HW217574   3.777   3.730   0.438
 5559SOL     OW17575   1.178   0.324   2.084
 5559SOL    HW117576   1.166   0.265   2.004
 5559SOL    HW217577   1.207   0.415   2.054
 5560SOL     OW17578   6.959   5.592   1.495
 5560SOL    HW117579   7.022   5.578   1.571
 5560SOL    HW217580   6.925   5.503   1.463
 5561SOL     OW17581   2.817   0.675   4.749
 5561SOL    HW117582   2.867   0.675   4.836
 5561SOL    HW217583   2.739   0.737   4.755
 5562SOL     OW17584   4.372   3.746   0.606
 5562SOL    HW117585   4.438   3.817   0.580
 5562SOL    HW217586   4.352   3.689   0.527
 5563SOL     OW17587   2.821   5.075   3.039
 5563SOL    HW117588   2.844   4.989   2.993
 5563SOL    HW217589   2.895   5.140   3.026
 5564SOL     OW17590   4.842   6.829   6.232
 5564SOL    HW117591   4.773   6.898   6.253
 5564SOL    HW217592   4.854   6.770   6.312
 5565SOL     OW17593   4.046   2.574   6.366
 5565SOL    HW117594   4.096   2.503   6.415
 5565SOL    HW217595   3.953   2.581   6.403
 5566SOL     OW17596   2.105   4.363   0.305
 5566SOL    HW117597   2.149   4.286   0.351
 5566SOL    HW217598   2.165   4.443   0.310
 5567SOL     OW17599   0.286   3.860   2.193
 5567SOL    HW117600   0.349   3.859   2.116
 5567SOL    HW217601   0.206   3.915   2.170
 5568SOL     OW17602   4.535   0.903   3.090
 5568SOL    HW117603   4.608   0.895   3.022
 5568SOL    HW217604   4.481   0.985   3.072
 5569SOL     OW17605   2.036   1.957   2.622
 5569SOL    HW117606   2.132   1.961   2.650
 5569SOL    HW217607   1.988   1.888   2.676
 5570SOL     OW17608   6.510   3.009   3.489
 5570SOL    HW117609   6.484   2.981   3.581
 5570SOL    HW217610   6.464   2.950   3.422
 5571SOL     OW17611   6.723   5.701   2.225
 5571SOL    HW117612   6.759   5.611   2.247
 5571SOL    HW217613   6.794   5.756   2.181
 5572SOL     OW17614   1.382   4.315   4.916
 5572SOL    HW117615   1.477   4.285   4.929
 5572SOL    HW217616   1.339   4.258   4.845
 5573SOL     OW17617   1.691   5.788   5.384
 5573SOL    HW117618   1.761   5.836   5.331
 5573SOL    HW217619   1.633   5.854   5.430
 5574SOL     OW17620   0.301   3.191   0.766
 5574SOL    HW117621   0.369   3.252   0.725
 5574SOL    HW217622   0.290   3.213   0.863
 5575SOL     OW17623   6.814   0.880   0.779
 5575SOL    HW117624   6.757   0.804   0.810
 5575SOL    HW217625   6.775   0.917   0.694
 5576SOL     OW17626   1.341   4.157   2.193
 5576SOL    HW117627   1.268   4.163   2.262
 5576SOL    HW217628   1.346   4.064   2.159
 5577SOL     OW17629   2.302   2.944   6.823
 5577SOL    HW117630   2.368   3.002   6.870
 5577SOL    HW217631   2.345   2.901   6.743
 5578SOL     OW17632   3.415   4.019   2.046
 5578SOL    HW117633   3.424   4.047   2.142
 5578SOL    HW217634   3.467   4.082   1.988
 5579SOL     OW17635   0.445   3.920   0.648
 5579SOL    HW117636   0.525   3.922   0.587
 5579SOL    HW217637   0.475   3.899   0.741
 5580SOL     OW17638   4.583   1.799   5.618
 5580SOL    HW117639   4.652   1.772   5.551
 5580SOL    HW217640   4.600   1.752   5.704
 5581SOL     OW17641   1.149   0.703   1.814
 5581SOL    HW117642   1.096   0.629   1.773
 5581SOL    HW217643   1.100   0.739   1.894
 5582SOL     OW17644   2.660   4.292   6.489
 5582SOL    HW117645   2.651   4.305   6.588
 5582SOL    HW217646   2.751   4.322   6.459
 5583SOL     OW17647   4.306   0.623   2.776
 5583SOL    HW117648   4.291   0.718   2.805
 5583SOL    HW217649   4.219   0.573   2.780
 5584SOL     OW17650   6.487   3.627   4.450
 5584SOL    HW117651   6.532   3.603   4.364
 5584SOL    HW217652   6.422   3.555   4.474
 5585SOL     OW17653   5.254   5.778   3.256
 5585SOL    HW117654   5.272   5.874   3.236
 5585SOL    HW217655   5.331   5.722   3.226
 5586SOL     OW17656   0.243   4.013   5.807
 5586SOL    HW117657   0.220   3.917   5.818
 5586SOL    HW217658   0.229   4.061   5.894
 5587SOL     OW17659   4.463   0.274   0.489
 5587SOL    HW117660   4.400   0.304   0.561
 5587SOL    HW217661   4.417   0.281   0.400
 5588SOL     OW17662   2.597   5.881   3.013
 5588SOL    HW117663   2.595   5.930   3.100
 5588SOL    HW217664   2.532   5.923   2.950
 5589SOL     OW17665   6.332   3.884   6.021
 5589SOL    HW117666   6.241   3.881   5.979
 5589SOL    HW217667   6.356   3.793   6.054
 5590SOL     OW17668   6.738   6.599   3.886
 5590SOL    HW117669   6.788   6.570   3.804
 5590SOL    HW217670   6.709   6.518   3.937
 5591SOL     OW17671   6.869   2.197   1.468
 5591SOL    HW117672   6.941   2.165   1.529
 5591SOL    HW217673   6.784   2.210   1.520
 5592SOL     OW17674   2.328   5.749   3.288
 5592SOL    HW117675   2.311   5.845   3.310
 5592SOL    HW217676   2.347   5.698   3.372
 5593SOL     OW17677   6.883   2.901   6.710
 5593SOL    HW117678   6.981   2.891   6.690
 5593SOL    HW217679   6.869   2.893   6.809
 5594SOL     OW17680   4.748   0.568   4.881
 5594SOL    HW117681   4.796   0.611   4.957
 5594SOL    HW217682   4.685   0.634   4.840
 5595SOL     OW17683   0.923   1.402   4.659
 5595SOL    HW117684   0.951   1.477   4.718
 5595SOL    HW217685   1.003   1.345   4.637
 5596SOL     OW17686   3.738   6.639   2.841
 5596SOL    HW117687   3.711   6.643   2.745
 5596SOL    HW217688   3.812   6.705   2.858
 5597SOL     OW17689   4.411   2.430   4.511
 5597SOL    HW117690   4.456   2.516   4.536
 5597SOL    HW217691   4.469   2.353   4.538
 5598SOL     OW17692   5.430   3.702   4.265
 5598SOL    HW117693   5.348   3.684   4.320
 5598SOL    HW217694   5.410   3.688   4.169
 5599SOL     OW17695   1.039   1.522   4.386
 5599SOL    HW117696   1.082   1.436   4.416
 5599SOL    HW217697   1.008   1.573   4.466
 5600SOL     OW17698   0.833   1.033   1.812
 5600SOL    HW117699   0.854   0.955   1.872
 5600SOL    HW217700   0.895   1.109   1.835
 5601SOL     OW17701   2.338   1.094   5.023
 5601SOL    HW117702   2.328   1.000   5.057
 5601SOL    HW217703   2.431   1.108   4.990
 5602SOL     OW17704   6.129   1.965   1.243
 5602SOL    HW117705   6.229   1.974   1.246
 5602SOL    HW217706   6.099   1.960   1.148
 5603SOL     OW17707   5.670   1.953   6.646
 5603SOL    HW117708   5.627   1.875   6.692
 5603SOL    HW217709   5.608   2.032   6.650
 5604SOL     OW17710   6.166   2.049   4.557
 5604SOL    HW117711   6.210   1.986   4.493
 5604SOL    HW217712   6.222   2.131   4.567
 5605SOL     OW17713   0.463   0.469   5.031
 5605SOL    HW117714   0.487   0.560   4.997
 5605SOL    HW217715   0.547   0.419   5.054
 5606SOL     OW17716   4.680   6.959   0.383
 5606SOL    HW117717   4.683   6.971   0.482
 5606SOL    HW217718   4.646   6.867   0.362
 5607SOL     OW17719   5.333   0.773   2.587
 5607SOL    HW117720   5.430   0.748   2.584
 5607SOL    HW217721   5.318   0.836   2.663
 5608SOL     OW17722   4.772   6.994   5.135
 5608SOL    HW117723   4.687   6.960   5.093
 5608SOL    HW217724   4.794   0.058   5.098
 5609SOL     OW17725   3.118   5.941   1.034
 5609SOL    HW117726   3.170   5.857   1.017
 5609SOL    HW217727   3.039   5.920   1.091
 5610SOL     OW17728   4.630   6.670   0.742
 5610SOL    HW117729   4.642   6.595   0.677
 5610SOL    HW217730   4.535   6.670   0.775
 5611SOL     OW17731   0.729   5.336   2.369
 5611SOL    HW117732   0.780   5.409   2.323
 5611SOL    HW217733   0.789   5.259   2.386
 5612SOL     OW17734   3.660   1.702   6.732
 5612SOL    HW117735   3.722   1.683   6.657
 5612SOL    HW217736   3.668   1.798   6.758
 5613SOL     OW17737   5.537   3.801   3.896
 5613SOL    HW117738   5.589   3.730   3.943
 5613SOL    HW217739   5.450   3.763   3.864
 5614SOL     OW17740   4.617   2.631   4.604
 5614SOL    HW117741   4.584   2.714   4.648
 5614SOL    HW217742   4.635   2.649   4.507
 5615SOL     OW17743   0.157   1.196   4.616
 5615SOL    HW117744   0.185   1.156   4.704
 5615SOL    HW217745   0.238   1.226   4.566
 5616SOL     OW17746   2.468   1.986   5.066
 5616SOL    HW117747   2.432   2.050   4.999
 5616SOL    HW217748   2.393   1.931   5.103
 5617SOL     OW17749   3.154   0.233   6.467
 5617SOL    HW117750   3.210   0.268   6.392
 5617SOL    HW217751   3.207   0.168   6.521
 5618SOL     OW17752   0.323   4.164   3.940
 5618SOL    HW117753   0.397   4.147   3.875
 5618SOL    HW217754   0.332   4.256   3.978
 5619SOL     OW17755   2.844   3.957   6.073
 5619SOL    HW117756   2.821   4.030   6.138
 5619SOL    HW217757   2.852   3.996   5.982
 5620SOL     OW17758   3.447   2.888   0.890
 5620SOL    HW117759   3.386   2.967   0.894
 5620SOL    HW217760   3.516   2.896   0.963
 5621SOL     OW17761   0.992   2.645   6.111
 5621SOL    HW117762   0.991   2.736   6.154
 5621SOL    HW217763   0.951   2.579   6.174
 5622SOL     OW17764   4.629   0.294   6.000
 5622SOL    HW117765   4.529   0.291   5.999
 5622SOL    HW217766   4.663   0.298   5.906
 5623SOL     OW17767   2.172   5.962   5.665
 5623SOL    HW117768   2.081   6.001   5.656
 5623SOL    HW217769   2.241   6.033   5.653
 5624SOL     OW17770   1.113   4.565   3.395
 5624SOL    HW117771   1.059   4.644   3.425
 5624SOL    HW217772   1.059   4.482   3.402
 5625SOL     OW17773   6.611   1.749   4.268
 5625SOL    HW117774   6.668   1.755   4.350
 5625SOL    HW217775   6.663   1.706   4.194
 5626SOL     OW17776   2.883   6.425   4.109
 5626SOL    HW117777   2.978   6.442   4.134
 5626SOL    HW217778   2.824   6.492   4.153
 5627SOL     OW17779   1.007   5.758   6.553
 5627SOL    HW117780   1.039   5.665   6.534
 5627SOL    HW217781   0.965   5.761   6.644
 5628SOL     OW17782   1.630   2.796   6.939
 5628SOL    HW117783   1.566   2.869   6.965
 5628SOL    HW217784   1.698   2.784   7.012
 5629SOL     OW17785   3.163   3.836   2.477
 5629SOL    HW117786   3.090   3.869   2.417
 5629SOL    HW217787   3.126   3.818   2.568
 5630SOL     OW17788   2.061   4.706   1.200
 5630SOL    HW117789   2.101   4.726   1.289
 5630SOL    HW217790   2.119   4.641   1.151
 5631SOL     OW17791   4.408   2.143   0.222
 5631SOL    HW117792   4.452   2.225   0.257
 5631SOL    HW217793   4.438   2.126   0.128
 5632SOL     OW17794   3.584   3.107   6.060
 5632SOL    HW117795   3.515   3.179   6.050
 5632SOL    HW217796   3.562   3.050   6.139
 5633SOL     OW17797   6.908   3.140   4.535
 5633SOL    HW117798   6.926   3.066   4.470
 5633SOL    HW217799   6.815   3.174   4.520
 5634SOL     OW17800   1.978   5.650   5.045
 5634SOL    HW117801   2.063   5.653   4.992
 5634SOL    HW217802   1.965   5.736   5.093
 5635SOL     OW17803   2.273   3.827   5.314
 5635SOL    HW117804   2.326   3.870   5.240
 5635SOL    HW217805   2.193   3.883   5.334
 5636SOL     OW17806   3.788   6.662   3.491
 5636SOL    HW117807   3.824   6.626   3.405
 5636SOL    HW217808   3.827   6.753   3.508
 5637SOL     OW17809   5.061   6.560   3.460
 5637SOL    HW117810   4.977   6.518   3.425
 5637SOL    HW217811   5.085   6.640   3.404
 5638SOL     OW17812   5.920   3.984   1.477
 5638SOL    HW117813   5.944   4.004   1.572
 5638SOL    HW217814   5.946   3.890   1.456
 5639SOL     OW17815   0.602   0.423   6.946
 5639SOL    HW117816   0.638   0.389   6.859
 5639SOL    HW217817   0.514   0.468   6.930
 5640SOL     OW17818   2.967   0.525   3.947
 5640SOL    HW117819   2.890   0.568   3.899
 5640SOL    HW217820   2.946   0.428   3.961
 5641SOL     OW17821   0.419   5.100   5.289
 5641SOL    HW117822   0.334   5.110   5.340
 5641SOL    HW217823   0.448   5.004   5.292
 5642SOL     OW17824   1.945   6.898   5.812
 5642SOL    HW117825   1.950   6.800   5.794
 5642SOL    HW217826   1.856   6.933   5.782
 5643SOL     OW17827   4.820   0.901   4.896
 5643SOL    HW117828   4.802   0.898   4.798
 5643SOL    HW217829   4.879   0.824   4.921
 5644SOL     OW17830   3.290   0.195   5.154
 5644SOL    HW117831   3.236   0.112   5.140
 5644SOL    HW217832   3.302   0.241   5.066
 5645SOL     OW17833   6.413   4.337   3.862
 5645SOL    HW117834   6.510   4.315   3.852
 5645SOL    HW217835   6.359   4.255   3.846
 5646SOL     OW17836   1.820   5.296   3.285
 5646SOL    HW117837   1.784   5.304   3.193
 5646SOL    HW217838   1.863   5.206   3.297
 5647SOL     OW17839   5.269   6.658   1.054
 5647SOL    HW117840   5.214   6.630   1.133
 5647SOL    HW217841   5.218   6.643   0.970
 5648SOL     OW17842   2.255   6.102   2.985
 5648SOL    HW117843   2.187   6.037   3.018
 5648SOL    HW217844   2.329   6.109   3.051
 5649SOL     OW17845   1.272   6.895   3.953
 5649SOL    HW117846   1.336   6.852   3.889
 5649SOL    HW217847   1.185   6.912   3.907
 5650SOL     OW17848   1.506   4.629   1.478
 5650SOL    HW117849   1.485   4.685   1.398
 5650SOL    HW217850   1.511   4.533   1.451
 5651SOL     OW17851   1.468   0.891   0.390
 5651SOL    HW117852   1.416   0.807   0.406
 5651SOL    HW217853   1.476   0.907   0.291
 5652SOL     OW17854   6.776   5.800   0.995
 5652SOL    HW117855   6.858   5.742   0.997
 5652SOL    HW217856   6.744   5.816   1.088
 5653SOL     OW17857   0.696   6.021   6.827
 5653SOL    HW117858   0.693   6.079   6.746
 5653SOL    HW217859   0.749   5.938   6.807
 5654SOL     OW17860   1.449   5.674   4.350
 5654SOL    HW117861   1.440   5.625   4.437
 5654SOL    HW217862   1.544   5.702   4.337
 5655SOL     OW17863   0.294   3.012   3.373
 5655SOL    HW117864   0.287   2.943   3.300
 5655SOL    HW217865   0.242   3.093   3.346
 5656SOL     OW17866   6.836   4.160   6.317
 5656SOL    HW117867   6.819   4.250   6.277
 5656SOL    HW217868   6.751   4.126   6.359
 5657SOL     OW17869   4.725   4.495   5.151
 5657SOL    HW117870   4.803   4.539   5.107
 5657SOL    HW217871   4.737   4.395   5.148
 5658SOL     OW17872   2.924   3.369   5.779
 5658SOL    HW117873   3.017   3.350   5.746
 5658SOL    HW217874   2.918   3.341   5.875
 5659SOL     OW17875   3.594   4.072   5.918
 5659SOL    HW117876   3.662   4.016   5.870
 5659SOL    HW217877   3.503   4.034   5.903
 5660SOL     OW17878   4.218   6.752   6.662
 5660SOL    HW117879   4.298   6.729   6.608
 5660SOL    HW217880   4.245   6.765   6.758
 5661SOL     OW17881   1.065   5.293   4.783
 5661SOL    HW117882   1.107   5.254   4.865
 5661SOL    HW217883   1.134   5.340   4.729
 5662SOL     OW17884   2.360   0.047   2.372
 5662SOL    HW117885   2.277   7.025   2.345
 5662SOL    HW217886   2.429   7.007   2.402
 5663SOL     OW17887   1.952   2.128   0.778
 5663SOL    HW117888   1.935   2.031   0.759
 5663SOL    HW217889   2.030   2.138   0.839
 5664SOL     OW17890   6.166   3.488   4.259
 5664SOL    HW117891   6.262   3.509   4.241
 5664SOL    HW217892   6.158   3.394   4.291
 5665SOL     OW17893   1.160   5.759   0.289
 5665SOL    HW117894   1.084   5.821   0.306
 5665SOL    HW217895   1.201   5.732   0.376
 5666SOL     OW17896   6.006   0.585   3.907
 5666SOL    HW117897   6.101   0.555   3.917
 5666SOL    HW217898   5.997   0.635   3.821
 5667SOL     OW17899   1.593   5.213   4.845
 5667SOL    HW117900   1.499   5.188   4.820
 5667SOL    HW217901   1.615   5.302   4.803
 5668SOL     OW17902   6.169   2.746   3.011
 5668SOL    HW117903   6.117   2.765   2.927
 5668SOL    HW217904   6.173   2.648   3.027
 5669SOL     OW17905   6.878   5.056   0.533
 5669SOL    HW117906   6.909   5.112   0.610
 5669SOL    HW217907   6.786   5.084   0.506
 5670SOL     OW17908   1.586   3.380   3.949
 5670SOL    HW117909   1.632   3.360   4.036
 5670SOL    HW217910   1.489   3.356   3.957
 5671SOL     OW17911   6.134   5.418   5.513
 5671SOL    HW117912   6.118   5.338   5.572
 5671SOL    HW217913   6.143   5.500   5.570
 5672SOL     OW17914   4.763   4.233   5.113
 5672SOL    HW117915   4.844   4.220   5.171
 5672SOL    HW217916   4.710   4.148   5.110
 5673SOL     OW17917   1.160   6.100   1.163
 5673SOL    HW117918   1.106   6.130   1.085
 5673SOL    HW217919   1.147   6.002   1.178
 5674SOL     OW17920   1.977   5.038   4.859
 5674SOL    HW117921   1.941   5.026   4.766
 5674SOL    HW217922   2.053   5.102   4.857
 5675SOL     OW17923   4.120   2.186   0.089
 5675SOL    HW117924   4.179   2.256   0.129
 5675SOL    HW217925   4.148   2.096   0.124
 5676SOL     OW17926   2.894   1.704   2.272
 5676SOL    HW117927   2.924   1.715   2.177
 5676SOL    HW217928   2.974   1.700   2.332
 5677SOL     OW17929   0.323   0.743   0.121
 5677SOL    HW117930   0.344   0.645   0.124
 5677SOL    HW217931   0.224   0.755   0.107
 5678SOL     OW17932   4.431   0.912   1.784
 5678SOL    HW117933   4.392   0.833   1.735
 5678SOL    HW217934   4.482   0.969   1.719
 5679SOL     OW17935   5.463   1.794   4.143
 5679SOL    HW117936   5.546   1.848   4.155
 5679SOL    HW217937   5.465   1.715   4.204
 5680SOL     OW17938   1.325   5.149   6.622
 5680SOL    HW117939   1.366   5.070   6.669
 5680SOL    HW217940   1.226   5.141   6.626
 5681SOL     OW17941   0.403   4.185   2.393
 5681SOL    HW117942   0.456   4.269   2.403
 5681SOL    HW217943   0.341   4.175   2.470
 5682SOL     OW17944   2.204   5.677   4.005
 5682SOL    HW117945   2.149   5.628   3.938
 5682SOL    HW217946   2.290   5.706   3.963
 5683SOL     OW17947   4.040   2.481   5.994
 5683SOL    HW117948   4.134   2.458   6.018
 5683SOL    HW217949   3.980   2.405   6.020
 5684SOL     OW17950   1.889   3.680   6.448
 5684SOL    HW117951   1.808   3.663   6.392
 5684SOL    HW217952   1.946   3.749   6.403
 5685SOL     OW17953   2.336   2.344   3.108
 5685SOL    HW117954   2.390   2.362   3.190
 5685SOL    HW217955   2.296   2.430   3.076
 5686SOL     OW17956   3.191   1.094   4.554
 5686SOL    HW117957   3.285   1.125   4.567
 5686SOL    HW217958   3.175   1.011   4.607
 5687SOL     OW17959   1.106   5.933   6.065
 5687SOL    HW117960   1.093   5.837   6.041
 5687SOL    HW217961   1.198   5.946   6.103
 5688SOL     OW17962   2.088   2.929   3.101
 5688SOL    HW117963   2.131   2.915   3.190
 5688SOL    HW217964   2.040   2.845   3.074
 5689SOL     OW17965   2.173   0.246   1.979
 5689SOL    HW117966   2.089   0.247   1.925
 5689SOL    HW217967   2.162   0.184   2.057
 5690SOL     OW17968   0.856   4.995   6.497
 5690SOL    HW117969   0.810   4.910   6.522
 5690SOL    HW217970   0.938   5.006   6.553
 5691SOL     OW17971   3.930   1.214   2.844
 5691SOL    HW117972   3.917   1.159   2.926
 5691SOL    HW217973   3.977   1.159   2.775
 5692SOL     OW17974   4.900   4.698   1.147
 5692SOL    HW117975   4.875   4.603   1.132
 5692SOL    HW217976   4.903   4.746   1.059
 5693SOL     OW17977   4.461   0.189   1.501
 5693SOL    HW117978   4.495   0.278   1.530
 5693SOL    HW217979   4.369   0.176   1.535
 5694SOL     OW17980   0.252   7.022   2.508
 5694SOL    HW117981   0.334   7.014   2.451
 5694SOL    HW217982   0.222   0.091   2.509
 5695SOL     OW17983   0.969   0.782   2.678
 5695SOL    HW117984   0.921   0.748   2.760
 5695SOL    HW217985   1.039   0.716   2.651
 5696SOL     OW17986   1.160   0.188   4.220
 5696SOL    HW117987   1.108   0.104   4.204
 5696SOL    HW217988   1.214   0.179   4.304
 5697SOL     OW17989   5.869   2.451   2.265
 5697SOL    HW117990   5.920   2.515   2.209
 5697SOL    HW217991   5.795   2.411   2.211
 5698SOL     OW17992   1.667   4.031   4.118
 5698SOL    HW117993   1.665   3.935   4.147
 5698SOL    HW217994   1.582   4.052   4.068
 5699SOL     OW17995   1.957   2.710   2.982
 5699SOL    HW117996   1.868   2.669   3.000
 5699SOL    HW217997   1.957   2.751   2.890
 5700SOL     OW17998   6.566   0.221   3.268
 5700SOL    HW117999   6.563   0.131   3.225
 5700SOL    HW218000   6.655   0.263   3.251
 5701SOL     OW18001   6.759   0.666   1.485
 5701SOL    HW118002   6.696   0.591   1.505
 5701SOL    HW218003   6.852   0.630   1.478
 5702SOL     OW18004   1.590   6.446   4.434
 5702SOL    HW118005   1.637   6.359   4.445
 5702SOL    HW218006   1.649   6.520   4.469
 5703SOL     OW18007   0.048   4.288   6.756
 5703SOL    HW118008   0.049   4.300   6.855
 5703SOL    HW218009   0.054   4.377   6.711
 5704SOL     OW18010   4.990   4.238   3.583
 5704SOL    HW118011   4.904   4.247   3.534
 5704SOL    HW218012   4.972   4.229   3.681
 5705SOL     OW18013   5.926   5.617   0.141
 5705SOL    HW118014   5.882   5.635   0.228
 5705SOL    HW218015   5.966   5.525   0.142
 5706SOL     OW18016   5.141   3.059   1.786
 5706SOL    HW118017   5.042   3.045   1.776
 5706SOL    HW218018   5.158   3.119   1.863
 5707SOL     OW18019   6.162   0.408   0.995
 5707SOL    HW118020   6.165   0.309   0.984
 5707SOL    HW218021   6.212   0.434   1.078
 5708SOL     OW18022   5.190   6.254   2.703
 5708SOL    HW118023   5.238   6.242   2.616
 5708SOL    HW218024   5.251   6.295   2.770
 5709SOL     OW18025   0.321   0.851   2.674
 5709SOL    HW118026   0.380   0.926   2.702
 5709SOL    HW218027   0.242   0.846   2.734
 5710SOL     OW18028   2.943   2.013   0.622
 5710SOL    HW118029   2.919   1.958   0.702
 5710SOL    HW218030   3.038   1.996   0.596
 5711SOL     OW18031   4.830   0.441   1.911
 5711SOL    HW118032   4.866   0.531   1.889
 5711SOL    HW218033   4.732   0.447   1.928
 5712SOL     OW18034   6.459   6.759   0.209
 5712SOL    HW118035   6.477   6.754   0.307
 5712SOL    HW218036   6.516   6.830   0.168
 5713SOL     OW18037   3.532   5.040   0.781
 5713SOL    HW118038   3.444   5.050   0.828
 5713SOL    HW218039   3.519   4.984   0.699
 5714SOL     OW18040   6.880   6.397   0.818
 5714SOL    HW118041   6.857   6.456   0.740
 5714SOL    HW218042   6.966   6.349   0.800
 5715SOL     OW18043   6.763   0.154   2.147
 5715SOL    HW118044   6.735   0.216   2.075
 5715SOL    HW218045   6.759   0.059   2.114
 5716SOL     OW18046   0.570   5.711   6.161
 5716SOL    HW118047   0.515   5.790   6.188
 5716SOL    HW218048   0.661   5.718   6.202
 5717SOL     OW18049   2.351   5.011   1.924
 5717SOL    HW118050   2.325   5.092   1.871
 5717SOL    HW218051   2.273   4.950   1.933
 5718SOL     OW18052   0.820   3.538   0.296
 5718SOL    HW118053   0.910   3.499   0.276
 5718SOL    HW218054   0.796   3.605   0.226
 5719SOL     OW18055   3.117   3.851   0.979
 5719SOL    HW118056   3.137   3.838   1.076
 5719SOL    HW218057   3.166   3.784   0.925
 5720SOL     OW18058   1.693   6.790   4.999
 5720SOL    HW118059   1.621   6.721   5.006
 5720SOL    HW218060   1.719   6.821   5.091
 5721SOL     OW18061   6.078   4.223   0.907
 5721SOL    HW118062   5.996   4.182   0.869
 5721SOL    HW218063   6.055   4.273   0.991
 5722SOL     OW18064   0.176   2.331   5.465
 5722SOL    HW118065   0.130   2.280   5.392
 5722SOL    HW218066   0.132   2.420   5.476
 5723SOL     OW18067   4.113   3.569   0.083
 5723SOL    HW118068   4.095   3.564   0.182
 5723SOL    HW218069   4.206   3.602   0.068
 5724SOL     OW18070   6.354   2.789   3.407
 5724SOL    HW118071   6.439   2.736   3.411
 5724SOL    HW218072   6.329   2.805   3.312
 5725SOL     OW18073   6.587   5.178   3.836
 5725SOL    HW118074   6.543   5.257   3.880
 5725SOL    HW218075   6.686   5.184   3.848
 5726SOL     OW18076   6.087   4.850   3.939
 5726SOL    HW118077   5.995   4.887   3.954
 5726SOL    HW218078   6.097   4.821   3.844
 5727SOL     OW18079   0.156   2.756   4.778
 5727SOL    HW118080   0.171   2.802   4.690
 5727SOL    HW218081   0.078   2.798   4.825
 5728SOL     OW18082   5.276   6.007   5.253
 5728SOL    HW118083   5.331   6.056   5.321
 5728SOL    HW218084   5.325   5.926   5.222
 5729SOL     OW18085   1.224   2.337   6.107
 5729SOL    HW118086   1.294   2.273   6.139
 5729SOL    HW218087   1.138   2.318   6.155
 5730SOL     OW18088   6.648   4.355   6.590
 5730SOL    HW118089   6.596   4.272   6.610
 5730SOL    HW218090   6.711   4.374   6.665
 5731SOL     OW18091   6.693   6.465   1.730
 5731SOL    HW118092   6.649   6.550   1.701
 5731SOL    HW218093   6.768   6.444   1.667
 5732SOL     OW18094   1.046   6.940   3.291
 5732SOL    HW118095   1.105   6.876   3.242
 5732SOL    HW218096   1.058   6.928   3.389
 5733SOL     OW18097   4.252   6.514   5.288
 5733SOL    HW118098   4.156   6.530   5.312
 5733SOL    HW218099   4.301   6.480   5.369
 5734SOL     OW18100   1.261   6.782   5.178
 5734SOL    HW118101   1.195   6.821   5.114
 5734SOL    HW218102   1.322   6.719   5.129
 5735SOL     OW18103   2.913   1.139   1.276
 5735SOL    HW118104   2.902   1.046   1.310
 5735SOL    HW218105   2.859   1.151   1.193
 5736SOL     OW18106   0.594   4.303   7.026
 5736SOL    HW118107   0.600   4.331   0.096
 5736SOL    HW218108   0.503   4.268   7.006
 5737SOL     OW18109   5.482   6.439   6.750
 5737SOL    HW118110   5.556   6.501   6.726
 5737SOL    HW218111   5.413   6.489   6.804
 5738SOL     OW18112   1.541   3.379   0.012
 5738SOL    HW118113   1.598   3.367   0.093
 5738SOL    HW218114   1.600   3.396   6.958
 5739SOL     OW18115   1.709   0.867   6.847
 5739SOL    HW118116   1.725   0.823   6.936
 5739SOL    HW218117   1.767   0.825   6.778
 5740SOL     OW18118   4.383   5.922   0.243
 5740SOL    HW118119   4.380   5.979   0.325
 5740SOL    HW218120   4.307   5.858   0.244
 5741SOL     OW18121   6.634   5.776   4.432
 5741SOL    HW118122   6.706   5.845   4.436
 5741SOL    HW218123   6.605   5.754   4.525
 5742SOL     OW18124   5.478   6.342   2.147
 5742SOL    HW118125   5.507   6.301   2.233
 5742SOL    HW218126   5.557   6.358   2.089
 5743SOL     OW18127   2.433   6.882   4.724
 5743SOL    HW118128   2.465   6.790   4.700
 5743SOL    HW218129   2.437   6.895   4.823
 5744SOL     OW18130   5.083   1.119   0.487
 5744SOL    HW118131   5.102   1.090   0.393
 5744SOL    HW218132   5.014   1.191   0.486
 5745SOL     OW18133   1.841   1.597   4.441
 5745SOL    HW118134   1.745   1.570   4.444
 5745SOL    HW218135   1.849   1.687   4.397
 5746SOL     OW18136   4.999   1.054   0.220
 5746SOL    HW118137   5.036   0.965   0.191
 5746SOL    HW218138   5.073   1.121   0.224
 5747SOL     OW18139   0.122   5.736   2.676
 5747SOL    HW118140   0.219   5.711   2.681
 5747SOL    HW218141   0.113   5.834   2.662
 5748SOL     OW18142   2.596   4.925   1.786
 5748SOL    HW118143   2.498   4.923   1.802
 5748SOL    HW218144   2.641   4.858   1.845
 5749SOL     OW18145   2.260   1.595   4.167
 5749SOL    HW118146   2.168   1.582   4.128
 5749SOL    HW218147   2.304   1.671   4.120
 5750SOL     OW18148   6.414   4.942   4.406
 5750SOL    HW118149   6.472   4.996   4.467
 5750SOL    HW218150   6.419   4.979   4.314
 5751SOL     OW18151   2.167   2.980   5.170
 5751SOL    HW118152   2.263   2.980   5.141
 5751SOL    HW218153   2.127   2.890   5.153
 5752SOL     OW18154   6.748   0.218   5.936
 5752SOL    HW118155   6.649   0.226   5.923
 5752SOL    HW218156   6.767   0.146   6.003
 5753SOL     OW18157   3.457   3.202   6.379
 5753SOL    HW118158   3.368   3.246   6.365
 5753SOL    HW218159   3.525   3.246   6.320
 5754SOL     OW18160   5.802   4.956   2.411
 5754SOL    HW118161   5.710   4.974   2.445
 5754SOL    HW218162   5.815   5.001   2.323
 5755SOL     OW18163   3.003   3.885   6.444
 5755SOL    HW118164   2.999   3.851   6.538
 5755SOL    HW218165   3.074   3.956   6.437
 5756SOL     OW18166   6.792   4.778   3.233
 5756SOL    HW118167   6.813   4.866   3.276
 5756SOL    HW218168   6.825   4.779   3.138
 5757SOL     OW18169   5.956   5.928   1.580
 5757SOL    HW118170   5.893   5.850   1.572
 5757SOL    HW218171   5.999   5.945   1.492
 5758SOL     OW18172   2.642   2.323   5.004
 5758SOL    HW118173   2.710   2.249   5.008
 5758SOL    HW218174   2.689   2.410   4.991
 5759SOL     OW18175   5.268   1.852   6.131
 5759SOL    HW118176   5.347   1.887   6.082
 5759SOL    HW218177   5.255   1.755   6.110
 5760SOL     OW18178   1.894   5.675   2.244
 5760SOL    HW118179   1.822   5.661   2.313
 5760SOL    HW218180   1.864   5.639   2.156
 5761SOL     OW18181   5.488   0.296   4.816
 5761SOL    HW118182   5.510   0.391   4.793
 5761SOL    HW218183   5.465   0.245   4.733
 5762SOL     OW18184   5.799   6.932   0.916
 5762SOL    HW118185   5.887   6.901   0.879
 5762SOL    HW218186   5.729   6.863   0.898
 5763SOL     OW18187   1.195   0.145   0.315
 5763SOL    HW118188   1.185   0.244   0.324
 5763SOL    HW218189   1.115   0.099   0.353
 5764SOL     OW18190   5.586   4.543   5.520
 5764SOL    HW118191   5.686   4.539   5.514
 5764SOL    HW218192   5.556   4.638   5.509
 5765SOL     OW18193   6.768   4.278   6.857
 5765SOL    HW118194   6.845   4.242   6.910
 5765SOL    HW218195   6.688   4.218   6.871
 5766SOL     OW18196   3.451   1.455   2.085
 5766SOL    HW118197   3.500   1.416   2.008
 5766SOL    HW218198   3.359   1.482   2.056
 5767SOL     OW18199   0.848   6.235   0.689
 5767SOL    HW118200   0.927   6.180   0.716
 5767SOL    HW218201   0.790   6.181   0.629
 5768SOL     OW18202   6.673   0.844   3.159
 5768SOL    HW118203   6.598   0.779   3.164
 5768SOL    HW218204   6.741   0.822   3.230
 5769SOL     OW18205   2.863   6.289   3.240
 5769SOL    HW118206   2.919   6.327   3.166
 5769SOL    HW218207   2.905   6.313   3.328
 5770SOL     OW18208   6.922   6.844   0.997
 5770SOL    HW118209   6.853   6.807   1.059
 5770SOL    HW218210   6.993   6.775   0.983
 5771SOL     OW18211   1.072   0.726   1.160
 5771SOL    HW118212   1.028   0.660   1.100
 5771SOL    HW218213   1.077   0.815   1.113
 5772SOL     OW18214   6.311   2.858   0.456
 5772SOL    HW118215   6.389   2.910   0.493
 5772SOL    HW218216   6.329   2.760   0.467
 5773SOL     OW18217   5.557   6.482   4.070
 5773SOL    HW118218   5.522   6.425   3.996
 5773SOL    HW218219   5.643   6.443   4.104
 5774SOL     OW18220   2.254   4.436   3.273
 5774SOL    HW118221   2.327   4.435   3.206
 5774SOL    HW218222   2.254   4.524   3.321
 5775SOL     OW18223   0.237   6.768   0.324
 5775SOL    HW118224   0.299   6.746   0.400
 5775SOL    HW218225   0.272   6.726   0.240
 5776SOL     OW18226   5.485   0.484   6.296
 5776SOL    HW118227   5.471   0.470   6.394
 5776SOL    HW218228   5.527   0.573   6.281
 5777SOL     OW18229   5.970   0.942   4.057
 5777SOL    HW118230   5.997   1.038   4.055
 5777SOL    HW218231   6.007   0.895   3.976
 5778SOL     OW18232   1.378   6.668   3.083
 5778SOL    HW118233   1.415   6.582   3.049
 5778SOL    HW218234   1.363   6.731   3.007
 5779SOL     OW18235   3.676   1.088   1.376
 5779SOL    HW118236   3.617   1.067   1.298
 5779SOL    HW218237   3.770   1.061   1.355
 5780SOL     OW18238   6.947   4.381   1.517
 5780SOL    HW118239   7.022   4.400   1.454
 5780SOL    HW218240   6.883   4.459   1.517
 5781SOL     OW18241   1.924   4.049   4.742
 5781SOL    HW118242   1.921   4.149   4.753
 5781SOL    HW218243   2.018   4.020   4.727
 5782SOL     OW18244   1.877   1.035   1.639
 5782SOL    HW118245   1.876   0.984   1.554
 5782SOL    HW218246   1.946   1.107   1.634
 5783SOL     OW18247   1.409   0.167   1.239
 5783SOL    HW118248   1.466   0.240   1.202
 5783SOL    HW218249   1.393   0.097   1.169
 5784SOL     OW18250   0.952   6.092   0.093
 5784SOL    HW118251   0.930   6.008   0.044
 5784SOL    HW218252   0.875   6.156   0.086
 5785SOL     OW18253   1.408   0.913   0.641
 5785SOL    HW118254   1.443   0.922   0.548
 5785SOL    HW218255   1.472   0.956   0.705
 5786SOL     OW18256   1.881   3.295   1.513
 5786SOL    HW118257   1.915   3.201   1.521
 5786SOL    HW218258   1.932   3.354   1.575
 5787SOL     OW18259   5.716   2.441   4.633
 5787SOL    HW118260   5.731   2.461   4.730
 5787SOL    HW218261   5.771   2.362   4.606
 5788SOL     OW18262   3.291   0.716   2.388
 5788SOL    HW118263   3.213   0.734   2.448
 5788SOL    HW218264   3.351   0.649   2.432
 5789SOL     OW18265   4.186   4.134   0.581
 5789SOL    HW118266   4.199   4.068   0.655
 5789SOL    HW218267   4.262   4.127   0.517
 5790SOL     OW18268   5.836   5.258   4.686
 5790SOL    HW118269   5.806   5.323   4.616
 5790SOL    HW218270   5.805   5.166   4.662
 5791SOL     OW18271   3.788   1.359   2.625
 5791SOL    HW118272   3.834   1.328   2.708
 5791SOL    HW218273   3.795   1.288   2.555
 5792SOL     OW18274   4.939   4.052   3.159
 5792SOL    HW118275   4.895   4.141   3.172
 5792SOL    HW218276   4.986   4.051   3.071
 5793SOL     OW18277   5.308   2.288   5.173
 5793SOL    HW118278   5.385   2.287   5.236
 5793SOL    HW218279   5.309   2.204   5.119
 5794SOL     OW18280   3.101   6.607   5.730
 5794SOL    HW118281   3.124   6.514   5.699
 5794SOL    HW218282   3.092   6.667   5.651
 5795SOL     OW18283   1.316   5.145   1.881
 5795SOL    HW118284   1.229   5.183   1.849
 5795SOL    HW218285   1.391   5.187   1.829
 5796SOL     OW18286   4.528   1.403   6.063
 5796SOL    HW118287   4.590   1.448   6.127
 5796SOL    HW218288   4.578   1.376   5.981
 5797SOL     OW18289   5.219   2.395   6.972
 5797SOL    HW118290   5.311   2.365   6.995
 5797SOL    HW218291   5.172   2.427   0.028
 5798SOL     OW18292   1.773   3.617   5.294
 5798SOL    HW118293   1.837   3.562   5.240
 5798SOL    HW218294   1.682   3.611   5.254
 5799SOL     OW18295   1.586   6.343   3.527
 5799SOL    HW118296   1.632   6.256   3.547
 5799SOL    HW218297   1.490   6.337   3.554
 5800SOL     OW18298   0.129   6.687   1.023
 5800SOL    HW118299   0.205   6.741   1.059
 5800SOL    HW218300   0.137   6.593   1.057
 5801SOL     OW18301   2.462   2.452   2.425
 5801SOL    HW118302   2.488   2.518   2.495
 5801SOL    HW218303   2.397   2.386   2.464
 5802SOL     OW18304   0.054   1.617   2.589
 5802SOL    HW118305   7.020   1.596   2.666
 5802SOL    HW218306   0.021   1.700   2.543
 5803SOL     OW18307   0.904   5.487   4.438
 5803SOL    HW118308   0.995   5.519   4.413
 5803SOL    HW218309   0.865   5.433   4.363
 5804SOL     OW18310   5.844   7.001   3.791
 5804SOL    HW118311   5.822   6.909   3.822
 5804SOL    HW218312   5.831   0.040   3.866
 5805SOL     OW18313   2.702   3.177   0.753
 5805SOL    HW118314   2.691   3.091   0.702
 5805SOL    HW218315   2.678   3.254   0.694
 5806SOL     OW18316   0.781   3.392   3.274
 5806SOL    HW118317   0.853   3.455   3.303
 5806SOL    HW218318   0.818   3.329   3.205
 5807SOL     OW18319   1.173   6.339   0.518
 5807SOL    HW118320   1.107   6.347   0.443
 5807SOL    HW218321   1.184   6.427   0.563
 5808SOL     OW18322   5.748   1.159   4.694
 5808SOL    HW118323   5.761   1.111   4.607
 5808SOL    HW218324   5.779   1.254   4.685
 5809SOL     OW18325   0.492   2.679   6.218
 5809SOL    HW118326   0.406   2.641   6.252
 5809SOL    HW218327   0.504   2.654   6.122
 5810SOL     OW18328   4.144   6.486   4.672
 5810SOL    HW118329   4.149   6.386   4.677
 5810SOL    HW218330   4.054   6.513   4.639
 5811SOL     OW18331   2.669   3.431   6.059
 5811SOL    HW118332   2.761   3.468   6.050
 5811SOL    HW218333   2.674   3.334   6.084
 5812SOL     OW18334   5.914   3.405   0.557
 5812SOL    HW118335   5.880   3.333   0.618
 5812SOL    HW218336   5.848   3.480   0.553
 5813SOL     OW18337   4.553   6.654   1.224
 5813SOL    HW118338   4.489   6.661   1.301
 5813SOL    HW218339   4.623   6.724   1.233
 5814SOL     OW18340   5.454   1.777   2.070
 5814SOL    HW118341   5.539   1.763   2.122
 5814SOL    HW218342   5.464   1.859   2.013
 5815SOL     OW18343   6.446   1.096   3.872
 5815SOL    HW118344   6.381   1.021   3.883
 5815SOL    HW218345   6.449   1.149   3.956
 5816SOL     OW18346   0.138   4.106   3.080
 5816SOL    HW118347   0.222   4.128   3.031
 5816SOL    HW218348   0.159   4.039   3.152
 5817SOL     OW18349   5.268   4.341   4.027
 5817SOL    HW118350   5.187   4.354   3.970
 5817SOL    HW218351   5.296   4.245   4.022
 5818SOL     OW18352   1.937   0.244   4.750
 5818SOL    HW118353   1.898   0.334   4.765
 5818SOL    HW218354   2.035   0.246   4.769
 5819SOL     OW18355   4.459   4.994   6.788
 5819SOL    HW118356   4.433   4.902   6.819
 5819SOL    HW218357   4.554   4.994   6.759
 5820SOL     OW18358   6.179   4.991   2.856
 5820SOL    HW118359   6.096   5.029   2.895
 5820SOL    HW218360   6.224   4.933   2.923
 5821SOL     OW18361   6.450   0.811   1.553
 5821SOL    HW118362   6.390   0.854   1.621
 5821SOL    HW218363   6.501   0.882   1.504
 5822SOL     OW18364   1.402   2.646   2.293
 5822SOL    HW118365   1.329   2.715   2.293
 5822SOL    HW218366   1.485   2.686   2.255
 5823SOL     OW18367   2.424   6.387   3.575
 5823SOL    HW118368   2.457   6.396   3.668
 5823SOL    HW218369   2.365   6.306   3.568
 5824SOL     OW18370   0.913   0.045   2.044
 5824SOL    HW118371   0.894   0.029   2.141
 5824SOL    HW218372   1.010   0.064   2.032
 5825SOL     OW18373   6.297   0.515   4.095
 5825SOL    HW118374   6.307   0.445   4.024
 5825SOL    HW218375   6.230   0.484   4.163
 5826SOL     OW18376   0.249   6.584   4.938
 5826SOL    HW118377   0.241   6.657   4.871
 5826SOL    HW218378   0.192   6.507   4.910
 5827SOL     OW18379   2.111   4.395   5.102
 5827SOL    HW118380   2.141   4.360   5.191
 5827SOL    HW218381   2.165   4.351   5.030
 5828SOL     OW18382   4.762   0.055   4.226
 5828SOL    HW118383   4.738   0.099   4.140
 5828SOL    HW218384   4.681   0.048   4.284
 5829SOL     OW18385   2.436   0.937   3.948
 5829SOL    HW118386   2.387   1.018   3.981
 5829SOL    HW218387   2.489   0.897   4.023
 5830SOL     OW18388   3.811   5.930   4.992
 5830SOL    HW118389   3.900   5.950   4.950
 5830SOL    HW218390   3.781   5.839   4.964
 5831SOL     OW18391   1.437   1.307   5.640
 5831SOL    HW118392   1.378   1.368   5.587
 5831SOL    HW218393   1.444   1.340   5.734
 5832SOL     OW18394   3.354   4.904   1.068
 5832SOL    HW118395   3.448   4.902   1.101
 5832SOL    HW218396   3.305   4.979   1.114
 5833SOL     OW18397   3.820   3.595   5.912
 5833SOL    HW118398   3.885   3.670   5.898
 5833SOL    HW218399   3.862   3.508   5.883
 5834SOL     OW18400   6.225   4.357   6.790
 5834SOL    HW118401   6.225   4.378   6.692
 5834SOL    HW218402   6.168   4.276   6.806
 5835SOL     OW18403   5.565   1.023   2.575
 5835SOL    HW118404   5.506   0.974   2.639
 5835SOL    HW218405   5.635   1.073   2.625
 5836SOL     OW18406   4.017   6.882   1.665
 5836SOL    HW118407   4.058   6.948   1.727
 5836SOL    HW218408   3.979   6.930   1.586
 5837SOL     OW18409   3.772   4.227   0.049
 5837SOL    HW118410   3.766   4.310   7.021
 5837SOL    HW218411   3.680   4.198   0.076
 5838SOL     OW18412   2.562   1.936   0.817
 5838SOL    HW118413   2.633   1.870   0.791
 5838SOL    HW218414   2.601   2.028   0.815
 5839SOL     OW18415   1.277   2.069   1.447
 5839SOL    HW118416   1.344   2.064   1.373
 5839SOL    HW218417   1.312   2.019   1.526
 5840SOL     OW18418   0.941   3.146   2.320
 5840SOL    HW118419   0.963   3.181   2.410
 5840SOL    HW218420   0.845   3.116   2.318
 5841SOL     OW18421   5.142   1.444   0.410
 5841SOL    HW118422   5.070   1.412   0.472
 5841SOL    HW218423   5.168   1.370   0.348
 5842SOL     OW18424   3.093   1.448   0.884
 5842SOL    HW118425   3.112   1.545   0.895
 5842SOL    HW218426   2.995   1.434   0.872
 5843SOL     OW18427   1.795   2.998   1.149
 5843SOL    HW118428   1.885   3.032   1.175
 5843SOL    HW218429   1.725   3.060   1.185
 5844SOL     OW18430   0.691   0.758   4.740
 5844SOL    HW118431   0.652   0.730   4.828
 5844SOL    HW218432   0.643   0.712   4.666
 5845SOL     OW18433   0.793   5.896   1.732
 5845SOL    HW118434   0.821   5.833   1.659
 5845SOL    HW218435   0.844   5.875   1.815
 5846SOL     OW18436   6.491   3.549   5.642
 5846SOL    HW118437   6.449   3.625   5.690
 5846SOL    HW218438   6.455   3.544   5.549
 5847SOL     OW18439   2.968   3.205   0.570
 5847SOL    HW118440   2.906   3.131   0.595
 5847SOL    HW218441   2.980   3.206   0.471
 5848SOL     OW18442   2.110   6.008   3.564
 5848SOL    HW118443   2.044   6.047   3.500
 5848SOL    HW218444   2.164   6.081   3.605
 5849SOL     OW18445   2.607   5.914   5.422
 5849SOL    HW118446   2.680   5.866   5.471
 5849SOL    HW218447   2.625   5.910   5.324
 5850SOL     OW18448   0.874   2.039   1.587
 5850SOL    HW118449   0.903   2.031   1.492
 5850SOL    HW218450   0.836   1.952   1.618
 5851SOL     OW18451   5.526   2.928   4.673
 5851SOL    HW118452   5.456   2.954   4.739
 5851SOL    HW218453   5.526   2.828   4.661
 5852SOL     OW18454   5.160   5.172   3.444
 5852SOL    HW118455   5.237   5.195   3.385
 5852SOL    HW218456   5.141   5.074   3.438
 5853SOL     OW18457   3.874   4.899   5.507
 5853SOL    HW118458   3.808   4.920   5.579
 5853SOL    HW218459   3.887   4.979   5.449
 5854SOL     OW18460   2.444   4.922   6.270
 5854SOL    HW118461   2.421   4.903   6.174
 5854SOL    HW218462   2.540   4.950   6.276
 5855SOL     OW18463   2.092   2.391   3.763
 5855SOL    HW118464   2.076   2.488   3.785
 5855SOL    HW218465   2.040   2.334   3.826
 5856SOL     OW18466   1.729   0.505   2.949
 5856SOL    HW118467   1.652   0.506   2.885
 5856SOL    HW218468   1.708   0.445   3.026
 5857SOL     OW18469   0.416   4.398   6.421
 5857SOL    HW118470   0.397   4.306   6.456
 5857SOL    HW218471   0.414   4.463   6.497
 5858SOL     OW18472   1.686   2.137   3.211
 5858SOL    HW118473   1.692   2.153   3.309
 5858SOL    HW218474   1.686   2.225   3.162
 5859SOL     OW18475   6.238   7.012   2.655
 5859SOL    HW118476   6.266   6.951   2.729
 5859SOL    HW218477   6.314   0.046   2.629
 5860SOL     OW18478   0.176   3.021   3.852
 5860SOL    HW118479   0.197   2.988   3.760
 5860SOL    HW218480   0.261   3.041   3.901
 5861SOL     OW18481   5.569   1.278   5.064
 5861SOL    HW118482   5.581   1.200   5.003
 5861SOL    HW218483   5.655   1.296   5.113
 5862SOL     OW18484   0.070   5.278   3.176
 5862SOL    HW118485   7.021   5.248   3.117
 5862SOL    HW218486   0.151   5.298   3.120
 5863SOL     OW18487   3.728   0.199   5.143
 5863SOL    HW118488   3.654   0.256   5.179
 5863SOL    HW218489   3.752   0.230   5.051
 5864SOL     OW18490   3.300   4.142   3.134
 5864SOL    HW118491   3.395   4.170   3.121
 5864SOL    HW218492   3.263   4.108   3.048
 5865SOL     OW18493   6.019   1.026   5.516
 5865SOL    HW118494   5.923   1.051   5.513
 5865SOL    HW218495   6.054   1.011   5.424
 5866SOL     OW18496   4.096   3.257   2.145
 5866SOL    HW118497   4.076   3.351   2.174
 5866SOL    HW218498   4.063   3.193   2.215
 5867SOL     OW18499   2.835   2.343   1.486
 5867SOL    HW118500   2.891   2.264   1.508
 5867SOL    HW218501   2.790   2.329   1.397
 5868SOL     OW18502   0.522   1.649   6.384
 5868SOL    HW118503   0.447   1.707   6.351
 5868SOL    HW218504   0.499   1.553   6.371
 5869SOL     OW18505   1.216   4.814   4.481
 5869SOL    HW118506   1.190   4.734   4.428
 5869SOL    HW218507   1.196   4.799   4.577
 5870SOL     OW18508   4.364   4.958   5.253
 5870SOL    HW118509   4.376   4.949   5.352
 5870SOL    HW218510   4.418   4.888   5.207
 5871SOL     OW18511   3.369   3.477   2.909
 5871SOL    HW118512   3.344   3.514   2.820
 5871SOL    HW218513   3.335   3.538   2.981
 5872SOL     OW18514   4.365   6.686   2.266
 5872SOL    HW118515   4.429   6.757   2.296
 5872SOL    HW218516   4.391   6.655   2.174
 5873SOL     OW18517   3.549   4.879   2.653
 5873SOL    HW118518   3.502   4.865   2.566
 5873SOL    HW218519   3.485   4.867   2.728
 5874SOL     OW18520   2.001   4.355   5.813
 5874SOL    HW118521   2.041   4.441   5.781
 5874SOL    HW218522   1.935   4.322   5.745
 5875SOL     OW18523   3.558   1.514   0.230
 5875SOL    HW118524   3.547   1.532   0.132
 5875SOL    HW218525   3.522   1.592   0.282
 5876SOL     OW18526   3.572   3.143   2.003
 5876SOL    HW118527   3.555   3.113   2.097
 5876SOL    HW218528   3.485   3.163   1.958
 5877SOL     OW18529   6.012   5.571   1.170
 5877SOL    HW118530   5.987   5.613   1.257
 5877SOL    HW218531   5.930   5.553   1.116
 5878SOL     OW18532   1.835   4.878   2.823
 5878SOL    HW118533   1.737   4.859   2.810
 5878SOL    HW218534   1.888   4.824   2.757
 5879SOL     OW18535   6.771   3.973   0.039
 5879SOL    HW118536   6.811   3.888   0.074
 5879SOL    HW218537   6.734   3.956   6.973
 5880SOL     OW18538   2.912   6.564   1.439
 5880SOL    HW118539   2.851   6.616   1.498
 5880SOL    HW218540   3.005   6.599   1.449
 5881SOL     OW18541   0.654   4.591   3.890
 5881SOL    HW118542   0.617   4.666   3.835
 5881SOL    HW218543   0.628   4.604   3.986
 5882SOL     OW18544   5.211   0.555   1.206
 5882SOL    HW118545   5.261   0.473   1.235
 5882SOL    HW218546   5.170   0.600   1.285
 5883SOL     OW18547   6.408   2.398   6.388
 5883SOL    HW118548   6.456   2.469   6.439
 5883SOL    HW218549   6.424   2.410   6.290
 5884SOL     OW18550   0.827   0.906   3.279
 5884SOL    HW118551   0.794   0.847   3.205
 5884SOL    HW218552   0.907   0.956   3.248
 5885SOL     OW18553   6.600   6.540   1.084
 5885SOL    HW118554   6.655   6.599   1.144
 5885SOL    HW218555   6.657   6.467   1.048
 5886SOL     OW18556   0.719   2.766   5.095
 5886SOL    HW118557   0.755   2.785   5.186
 5886SOL    HW218558   0.634   2.714   5.103
 5887SOL     OW18559   3.351   0.927   4.303
 5887SOL    HW118560   3.268   0.951   4.252
 5887SOL    HW218561   3.426   0.914   4.239
 5888SOL     OW18562   1.780   6.409   2.950
 5888SOL    HW118563   1.791   6.373   2.857
 5888SOL    HW218564   1.855   6.472   2.969
 5889SOL     OW18565   2.261   0.363   1.152
 5889SOL    HW118566   2.321   0.440   1.173
 5889SOL    HW218567   2.243   0.361   1.054
 5890SOL     OW18568   1.771   6.550   5.194
 5890SOL    HW118569   1.807   6.522   5.283
 5890SOL    HW218570   1.822   6.629   5.160
 5891SOL     OW18571   4.072   2.915   6.966
 5891SOL    HW118572   4.102   2.963   6.883
 5891SOL    HW218573   3.986   2.955   6.998
 5892SOL     OW18574   0.709   6.251   1.217
 5892SOL    HW118575   0.806   6.234   1.236
 5892SOL    HW218576   0.654   6.219   1.294
 5893SOL     OW18577   1.285   2.187   3.833
 5893SOL    HW118578   1.359   2.243   3.870
 5893SOL    HW218579   1.312   2.091   3.834
 5894SOL     OW18580   1.454   4.478   3.435
 5894SOL    HW118581   1.443   4.402   3.500
 5894SOL    HW218582   1.547   4.514   3.443
 5895SOL     OW18583   5.144   2.871   4.710
 5895SOL    HW118584   5.210   2.797   4.693
 5895SOL    HW218585   5.055   2.831   4.731
 5896SOL     OW18586   3.777   2.320   6.336
 5896SOL    HW118587   3.678   2.306   6.342
 5896SOL    HW218588   3.821   2.281   6.417
 5897SOL     OW18589   3.878   0.783   0.662
 5897SOL    HW118590   3.807   0.713   0.666
 5897SOL    HW218591   3.856   0.856   0.727
 5898SOL     OW18592   1.305   0.333   1.631
 5898SOL    HW118593   1.364   0.348   1.710
 5898SOL    HW218594   1.324   0.243   1.592
 5899SOL     OW18595   5.577   6.972   5.068
 5899SOL    HW118596   5.490   6.965   5.020
 5899SOL    HW218597   5.640   0.004   5.017
 5900SOL     OW18598   5.031   4.976   3.054
 5900SOL    HW118599   5.008   4.879   3.051
 5900SOL    HW218600   4.969   5.026   2.993
 5901SOL     OW18601   2.195   6.292   6.586
 5901SOL    HW118602   2.264   6.305   6.657
 5901SOL    HW218603   2.117   6.243   6.624
 5902SOL     OW18604   6.863   2.463   0.881
 5902SOL    HW118605   6.786   2.433   0.825
 5902SOL    HW218606   6.881   2.560   0.864
 5903SOL     OW18607   6.018   4.436   0.315
 5903SOL    HW118608   5.973   4.526   0.321
 5903SOL    HW218609   5.954   4.365   0.344
 5904SOL     OW18610   0.533   3.432   2.300
 5904SOL    HW118611   0.443   3.451   2.262
 5904SOL    HW218612   0.545   3.484   2.384
 5905SOL     OW18613   6.829   6.123   2.739
 5905SOL    HW118614   6.820   6.026   2.764
 5905SOL    HW218615   6.828   6.131   2.640
 5906SOL     OW18616   5.789   1.294   4.030
 5906SOL    HW118617   5.692   1.287   4.052
 5906SOL    HW218618   5.817   1.390   4.030
 5907SOL     OW18619   0.967   6.189   0.986
 5907SOL    HW118620   0.870   6.165   0.980
 5907SOL    HW218621   0.975   6.286   1.010
 5908SOL     OW18622   0.889   2.423   5.629
 5908SOL    HW118623   0.988   2.414   5.618
 5908SOL    HW218624   0.868   2.513   5.667
 5909SOL     OW18625   1.369   6.152   0.458
 5909SOL    HW118626   1.372   6.178   0.361
 5909SOL    HW218627   1.304   6.211   0.506
 5910SOL     OW18628   1.197   2.460   3.449
 5910SOL    HW118629   1.120   2.449   3.385
 5910SOL    HW218630   1.208   2.377   3.503
 5911SOL     OW18631   6.491   5.832   6.695
 5911SOL    HW118632   6.587   5.818   6.719
 5911SOL    HW218633   6.475   5.929   6.678
 5912SOL     OW18634   6.467   1.426   5.857
 5912SOL    HW118635   6.545   1.362   5.855
 5912SOL    HW218636   6.488   1.502   5.917
 5913SOL     OW18637   5.504   3.081   0.284
 5913SOL    HW118638   5.552   3.141   0.220
 5913SOL    HW218639   5.411   3.066   0.252
 5914SOL     OW18640   0.910   6.467   6.347
 5914SOL    HW118641   0.959   6.473   6.260
 5914SOL    HW218642   0.942   6.388   6.398
 5915SOL     OW18643   3.436   6.954   0.531
 5915SOL    HW118644   3.350   6.902   0.538
 5915SOL    HW218645   3.501   6.902   0.476
 5916SOL     OW18646   0.967   6.590   1.714
 5916SOL    HW118647   1.042   6.645   1.752
 5916SOL    HW218648   0.898   6.575   1.785
 5917SOL     OW18649   3.393   4.418   6.567
 5917SOL    HW118650   3.427   4.330   6.535
 5917SOL    HW218651   3.331   4.456   6.498
 5918SOL     OW18652   2.446   5.875   5.918
 5918SOL    HW118653   2.356   5.885   5.874
 5918SOL    HW218654   2.518   5.886   5.850
 5919SOL     OW18655   3.432   3.487   3.194
 5919SOL    HW118656   3.439   3.587   3.188
 5919SOL    HW218657   3.510   3.452   3.246
 5920SOL     OW18658   5.936   1.034   6.180
 5920SOL    HW118659   5.990   1.001   6.102
 5920SOL    HW218660   5.879   1.110   6.151
 5921SOL     OW18661   3.936   4.675   6.803
 5921SOL    HW118662   3.844   4.683   6.764
 5921SOL    HW218663   3.987   4.603   6.756
 5922SOL     OW18664   6.685   4.009   3.758
 5922SOL    HW118665   6.606   3.976   3.810
 5922SOL    HW218666   6.679   4.109   3.750
 5923SOL     OW18667   6.271   1.479   1.899
 5923SOL    HW118668   6.332   1.464   1.977
 5923SOL    HW218669   6.325   1.502   1.818
 5924SOL     OW18670   5.449   7.003   3.053
 5924SOL    HW118671   5.435   7.016   2.955
 5924SOL    HW218672   5.362   7.017   3.101
 5925SOL     OW18673   4.504   5.516   1.256
 5925SOL    HW118674   4.476   5.500   1.351
 5925SOL    HW218675   4.604   5.516   1.250
 5926SOL     OW18676   3.916   4.888   3.266
 5926SOL    HW118677   3.873   4.954   3.327
 5926SOL    HW218678   3.970   4.823   3.319
 5927SOL     OW18679   1.826   3.839   1.870
 5927SOL    HW118680   1.859   3.753   1.910
 5927SOL    HW218681   1.882   3.862   1.790
 5928SOL     OW18682   4.385   0.572   0.954
 5928SOL    HW118683   4.447   0.594   0.879
 5928SOL    HW218684   4.400   0.478   0.984
 5929SOL     OW18685   6.675   0.476   5.353
 5929SOL    HW118686   6.628   0.545   5.409
 5929SOL    HW218687   6.708   0.519   5.269
 5930SOL     OW18688   1.337   3.024   1.362
 5930SOL    HW118689   1.395   3.073   1.297
 5930SOL    HW218690   1.286   2.952   1.314
 5931SOL     OW18691   5.529   6.123   2.822
 5931SOL    HW118692   5.439   6.080   2.824
 5931SOL    HW218693   5.552   6.157   2.913
 5932SOL     OW18694   3.258   6.967   6.529
 5932SOL    HW118695   3.321   6.915   6.587
 5932SOL    HW218696   3.295   6.972   6.436
 5933SOL     OW18697   0.199   5.664   4.438
 5933SOL    HW118698   0.259   5.726   4.388
 5933SOL    HW218699   0.169   5.590   4.377
 5934SOL     OW18700   3.471   3.897   5.634
 5934SOL    HW118701   3.559   3.880   5.679
 5934SOL    HW218702   3.398   3.856   5.687
 5935SOL     OW18703   0.377   6.006   5.613
 5935SOL    HW118704   0.458   5.971   5.566
 5935SOL    HW218705   0.354   5.945   5.689
 5936SOL     OW18706   3.162   3.084   2.758
 5936SOL    HW118707   3.179   3.037   2.672
 5936SOL    HW218708   3.248   3.093   2.809
 5937SOL     OW18709   0.124   2.558   2.082
 5937SOL    HW118710   0.102   2.526   1.990
 5937SOL    HW218711   0.085   2.649   2.096
 5938SOL     OW18712   5.895   5.448   5.143
 5938SOL    HW118713   5.865   5.366   5.094
 5938SOL    HW218714   5.938   5.512   5.078
 5939SOL     OW18715   3.639   6.517   4.234
 5939SOL    HW118716   3.737   6.494   4.238
 5939SOL    HW218717   3.629   6.615   4.218
 5940SOL     OW18718   4.883   5.223   3.153
 5940SOL    HW118719   4.927   5.300   3.107
 5940SOL    HW218720   4.844   5.255   3.240
 5941SOL     OW18721   6.233   2.402   2.226
 5941SOL    HW118722   6.146   2.373   2.266
 5941SOL    HW218723   6.250   2.352   2.141
 5942SOL     OW18724   6.196   3.198   5.807
 5942SOL    HW118725   6.275   3.256   5.828
 5942SOL    HW218726   6.158   3.225   5.718
 5943SOL     OW18727   4.085   3.109   0.199
 5943SOL    HW118728   4.112   3.167   0.122
 5943SOL    HW218729   4.066   3.017   0.166
 5944SOL     OW18730   0.310   3.016   0.202
 5944SOL    HW118731   0.387   3.027   0.139
 5944SOL    HW218732   0.312   3.089   0.270
 5945SOL     OW18733   0.491   6.167   4.887
 5945SOL    HW118734   0.457   6.092   4.830
 5945SOL    HW218735   0.585   6.147   4.914
 5946SOL     OW18736   3.842   4.469   6.479
 5946SOL    HW118737   3.769   4.418   6.525
 5946SOL    HW218738   3.918   4.483   6.542
 5947SOL     OW18739   3.131   3.045   4.803
 5947SOL    HW118740   3.079   2.965   4.833
 5947SOL    HW218741   3.068   3.120   4.785
 5948SOL     OW18742   4.900   4.147   2.208
 5948SOL    HW118743   4.966   4.208   2.165
 5948SOL    HW218744   4.882   4.069   2.147
 5949SOL     OW18745   5.707   5.354   1.230
 5949SOL    HW118746   5.716   5.335   1.327
 5949SOL    HW218747   5.783   5.311   1.181
 5950SOL     OW18748   5.085   2.241   5.389
 5950SOL    HW118749   5.158   2.217   5.324
 5950SOL    HW218750   5.001   2.259   5.340
 5951SOL     OW18751   0.797   5.409   5.041
 5951SOL    HW118752   0.800   5.315   5.009
 5951SOL    HW218753   0.820   5.471   4.966
 5952SOL     OW18754   4.434   5.005   2.181
 5952SOL    HW118755   4.472   5.066   2.251
 5952SOL    HW218756   4.379   4.935   2.226
 5953SOL     OW18757   6.330   2.885   5.025
 5953SOL    HW118758   6.371   2.808   5.072
 5953SOL    HW218759   6.320   2.864   4.928
 5954SOL     OW18760   0.459   5.546   5.613
 5954SOL    HW118761   0.432   5.556   5.517
 5954SOL    HW218762   0.383   5.574   5.671
 5955SOL     OW18763   4.835   4.936   1.278
 5955SOL    HW118764   4.834   4.848   1.232
 5955SOL    HW218765   4.849   5.009   1.211
 5956SOL     OW18766   5.300   2.639   4.253
 5956SOL    HW118767   5.385   2.589   4.234
 5956SOL    HW218768   5.299   2.724   4.200
 5957SOL     OW18769   0.962   1.101   3.107
 5957SOL    HW118770   1.008   1.050   3.034
 5957SOL    HW218771   0.908   1.175   3.067
 5958SOL     OW18772   3.524   0.092   2.998
 5958SOL    HW118773   3.502   0.028   2.923
 5958SOL    HW218774   3.586   0.047   3.062
 5959SOL     OW18775   4.866   2.308   5.243
 5959SOL    HW118776   4.776   2.269   5.223
 5959SOL    HW218777   4.872   2.399   5.200
 5960SOL     OW18778   3.211   6.632   4.899
 5960SOL    HW118779   3.124   6.647   4.852
 5960SOL    HW218780   3.243   6.538   4.881
 5961SOL     OW18781   3.974   1.941   2.404
 5961SOL    HW118782   3.915   2.010   2.362
 5961SOL    HW218783   3.923   1.892   2.475
 5962SOL     OW18784   4.703   6.126   6.323
 5962SOL    HW118785   4.783   6.156   6.271
 5962SOL    HW218786   4.719   6.140   6.420
 5963SOL     OW18787   3.520   4.668   6.567
 5963SOL    HW118788   3.454   4.737   6.537
 5963SOL    HW218789   3.477   4.578   6.563
 5964SOL     OW18790   2.168   0.475   2.851
 5964SOL    HW118791   2.218   0.495   2.767
 5964SOL    HW218792   2.224   0.418   2.911
 5965SOL     OW18793   1.831   0.508   6.748
 5965SOL    HW118794   1.868   0.415   6.748
 5965SOL    HW218795   1.741   0.508   6.792
 5966SOL     OW18796   1.683   6.992   5.729
 5966SOL    HW118797   1.593   6.988   5.772
 5966SOL    HW218798   1.673   7.006   5.630
 5967SOL     OW18799   2.405   2.315   5.149
 5967SOL    HW118800   2.496   2.331   5.110
 5967SOL    HW218801   2.350   2.262   5.084
 5968SOL     OW18802   5.664   2.473   0.022
 5968SOL    HW118803   5.718   2.432   0.096
 5968SOL    HW218804   5.725   2.521   6.985
 5969SOL     OW18805   5.226   0.199   6.479
 5969SOL    HW118806   5.196   0.283   6.434
 5969SOL    HW218807   5.146   0.145   6.505
 5970SOL     OW18808   0.160   4.260   0.501
 5970SOL    HW118809   0.251   4.300   0.491
 5970SOL    HW218810   0.168   4.161   0.513
 5971SOL     OW18811   5.727   0.232   2.405
 5971SOL    HW118812   5.685   0.322   2.407
 5971SOL    HW218813   5.775   0.220   2.318
 5972SOL     OW18814   5.108   5.189   6.997
 5972SOL    HW118815   5.183   5.124   6.986
 5972SOL    HW218816   5.021   5.141   6.984
 5973SOL     OW18817   2.051   3.400   2.782
 5973SOL    HW118818   2.067   3.482   2.839
 5973SOL    HW218819   2.063   3.318   2.838
 5974SOL     OW18820   4.488   0.917   6.975
 5974SOL    HW118821   4.472   0.819   6.976
 5974SOL    HW218822   4.406   0.964   6.941
 5975SOL     OW18823   5.084   4.912   0.771
 5975SOL    HW118824   5.097   4.816   0.746
 5975SOL    HW218825   5.171   4.951   0.802
 5976SOL     OW18826   3.743   3.706   5.654
 5976SOL    HW118827   3.790   3.672   5.573
 5976SOL    HW218828   3.723   3.629   5.715
 5977SOL     OW18829   0.604   5.717   0.170
 5977SOL    HW118830   0.574   5.626   0.196
 5977SOL    HW218831   0.654   5.712   0.083
 5978SOL     OW18832   3.667   5.188   0.161
 5978SOL    HW118833   3.753   5.141   0.177
 5978SOL    HW218834   3.667   5.226   0.068
 5979SOL     OW18835   6.096   0.475   2.142
 5979SOL    HW118836   6.034   0.399   2.124
 5979SOL    HW218837   6.177   0.467   2.085
 5980SOL     OW18838   3.306   2.849   2.001
 5980SOL    HW118839   3.397   2.846   2.041
 5980SOL    HW218840   3.299   2.783   1.927
 5981SOL     OW18841   4.724   2.582   0.323
 5981SOL    HW118842   4.738   2.564   0.226
 5981SOL    HW218843   4.734   2.497   0.375
 5982SOL     OW18844   5.276   2.228   2.138
 5982SOL    HW118845   5.260   2.326   2.152
 5982SOL    HW218846   5.295   2.211   2.041
 5983SOL     OW18847   0.411   0.613   4.069
 5983SOL    HW118848   0.367   0.557   3.999
 5983SOL    HW218849   0.349   0.625   4.147
 5984SOL     OW18850   5.751   6.344   3.363
 5984SOL    HW118851   5.676   6.406   3.340
 5984SOL    HW218852   5.830   6.363   3.305
 5985SOL     OW18853   6.265   2.272   3.607
 5985SOL    HW118854   6.237   2.337   3.677
 5985SOL    HW218855   6.349   2.226   3.635
 5986SOL     OW18856   4.055   3.800   5.544
 5986SOL    HW118857   4.119   3.808   5.468
 5986SOL    HW218858   4.011   3.888   5.560
 5987SOL     OW18859   6.766   0.886   4.769
 5987SOL    HW118860   6.706   0.814   4.806
 5987SOL    HW218861   6.714   0.943   4.705
 5988SOL     OW18862   2.930   1.249   6.658
 5988SOL    HW118863   2.989   1.186   6.709
 5988SOL    HW218864   2.846   1.201   6.633
 5989SOL     OW18865   1.088   5.496   6.546
 5989SOL    HW118866   1.055   5.476   6.638
 5989SOL    HW218867   1.174   5.447   6.530
 5990SOL     OW18868   4.288   3.990   0.992
 5990SOL    HW118869   4.261   3.923   1.061
 5990SOL    HW218870   4.254   3.962   0.902
 5991SOL     OW18871   3.904   5.743   0.200
 5991SOL    HW118872   3.990   5.783   0.167
 5991SOL    HW218873   3.830   5.808   0.188
 5992SOL     OW18874   3.044   0.354   2.365
 5992SOL    HW118875   3.097   0.346   2.450
 5992SOL    HW218876   2.955   0.394   2.385
 5993SOL     OW18877   6.386   3.689   6.559
 5993SOL    HW118878   6.354   3.712   6.651
 5993SOL    HW218879   6.361   3.594   6.539
 5994SOL     OW18880   6.941   3.315   1.168
 5994SOL    HW118881   6.951   3.287   1.072
 5994SOL    HW218882   7.009   3.267   1.224
 5995SOL     OW18883   4.053   3.179   1.340
 5995SOL    HW118884   3.971   3.124   1.357
 5995SOL    HW218885   4.062   3.194   1.241
 5996SOL     OW18886   2.426   5.794   1.333
 5996SOL    HW118887   2.342   5.840   1.359
 5996SOL    HW218888   2.449   5.724   1.400
 5997SOL     OW18889   6.866   6.856   3.319
 5997SOL    HW118890   6.917   6.813   3.393
 5997SOL    HW218891   6.907   6.830   3.231
 5998SOL     OW18892   5.456   0.692   1.728
 5998SOL    HW118893   5.494   0.738   1.648
 5998SOL    HW218894   5.356   0.696   1.726
 5999SOL     OW18895   3.985   3.304   0.873
 5999SOL    HW118896   4.036   3.306   0.787
 5999SOL    HW218897   3.889   3.281   0.854
 6000SOL     OW18898   0.552   5.478   0.366
 6000SOL    HW118899   0.517   5.531   0.443
 6000SOL    HW218900   0.476   5.440   0.314
 6001SOL     OW18901   5.349   5.884   6.391
 6001SOL    HW118902   5.262   5.834   6.389
 6001SOL    HW218903   5.355   5.935   6.477
 6002SOL     OW18904   6.747   6.913   4.750
 6002SOL    HW118905   6.714   6.911   4.655
 6002SOL    HW218906   6.752   7.008   4.781
 6003SOL     OW18907   6.496   2.493   4.544
 6003SOL    HW118908   6.510   2.440   4.460
 6003SOL    HW218909   6.440   2.573   4.524
 6004SOL     OW18910   5.811   2.569   3.234
 6004SOL    HW118911   5.881   2.503   3.258
 6004SOL    HW218912   5.751   2.585   3.313
 6005SOL     OW18913   5.111   4.240   4.995
 6005SOL    HW118914   5.057   4.206   5.073
 6005SOL    HW218915   5.080   4.194   4.912
 6006SOL     OW18916   3.530   0.332   5.228
 6006SOL    HW118917   3.442   0.287   5.219
 6006SOL    HW218918   3.522   0.408   5.293
 6007SOL     OW18919   0.366   3.961   6.827
 6007SOL    HW118920   0.437   4.002   6.770
 6007SOL    HW218921   0.287   4.022   6.832
 6008SOL     OW18922   1.960   4.624   5.706
 6008SOL    HW118923   1.874   4.666   5.678
 6008SOL    HW218924   2.036   4.687   5.689
 6009SOL     OW18925   5.044   6.025   3.271
 6009SOL    HW118926   4.970   6.065   3.216
 6009SOL    HW218927   5.021   6.032   3.368
 6010SOL     OW18928   0.312   4.129   4.540
 6010SOL    HW118929   0.258   4.044   4.539
 6010SOL    HW218930   0.335   4.155   4.446
 6011SOL     OW18931   4.688   2.054   2.962
 6011SOL    HW118932   4.767   2.031   2.906
 6011SOL    HW218933   4.605   2.048   2.906
 6012SOL     OW18934   5.762   0.305   6.720
 6012SOL    HW118935   5.696   0.232   6.737
 6012SOL    HW218936   5.838   0.297   6.786
 6013SOL     OW18937   5.047   1.257   2.487
 6013SOL    HW118938   5.042   1.157   2.496
 6013SOL    HW218939   4.955   1.294   2.475
 6014SOL     OW18940   3.300   3.287   3.743
 6014SOL    HW118941   3.211   3.251   3.772
 6014SOL    HW218942   3.296   3.387   3.742
 6015SOL     OW18943   6.139   2.850   4.516
 6015SOL    HW118944   6.063   2.787   4.534
 6015SOL    HW218945   6.115   2.941   4.549
 6016SOL     OW18946   4.830   1.657   5.527
 6016SOL    HW118947   4.920   1.694   5.547
 6016SOL    HW218948   4.833   1.607   5.440
 6017SOL     OW18949   0.200   3.958   4.904
 6017SOL    HW118950   0.264   3.903   4.849
 6017SOL    HW218951   0.157   4.027   4.846
 6018SOL     OW18952   3.151   1.473   4.415
 6018SOL    HW118953   3.075   1.502   4.357
 6018SOL    HW218954   3.141   1.513   4.506
 6019SOL     OW18955   1.083   3.865   5.954
 6019SOL    HW118956   1.171   3.849   5.998
 6019SOL    HW218957   1.041   3.947   5.992
 6020SOL     OW18958   1.294   5.203   1.114
 6020SOL    HW118959   1.386   5.208   1.076
 6020SOL    HW218960   1.279   5.112   1.152
 6021SOL     OW18961   4.402   0.443   2.557
 6021SOL    HW118962   4.383   0.348   2.581
 6021SOL    HW218963   4.357   0.504   2.623
 6022SOL     OW18964   6.386   1.923   3.232
 6022SOL    HW118965   6.414   1.933   3.136
 6022SOL    HW218966   6.296   1.964   3.244
 6023SOL     OW18967   5.227   0.329   1.629
 6023SOL    HW118968   5.139   0.286   1.650
 6023SOL    HW218969   5.301   0.264   1.645
 6024SOL     OW18970   0.744   4.955   0.846
 6024SOL    HW118971   0.672   5.017   0.816
 6024SOL    HW218972   0.720   4.861   0.821
 6025SOL     OW18973   2.712   1.260   3.770
 6025SOL    HW118974   2.794   1.280   3.825
 6025SOL    HW218975   2.721   1.304   3.680
 6026SOL     OW18976   6.359   4.485   4.614
 6026SOL    HW118977   6.334   4.424   4.540
 6026SOL    HW218978   6.369   4.578   4.579
 6027SOL     OW18979   6.138   3.403   6.051
 6027SOL    HW118980   6.109   3.309   6.065
 6027SOL    HW218981   6.169   3.442   6.137
 6028SOL     OW18982   5.398   5.062   1.416
 6028SOL    HW118983   5.464   4.987   1.420
 6028SOL    HW218984   5.364   5.071   1.322
 6029SOL     OW18985   2.213   6.920   3.452
 6029SOL    HW118986   2.225   6.860   3.373
 6029SOL    HW218987   2.150   6.994   3.428
 6030SOL     OW18988   4.925   3.647   4.833
 6030SOL    HW118989   4.912   3.721   4.766
 6030SOL    HW218990   4.866   3.663   4.912
 6031SOL     OW18991   1.387   6.075   4.099
 6031SOL    HW118992   1.320   6.002   4.114
 6031SOL    HW218993   1.339   6.161   4.078
 6032SOL     OW18994   3.294   5.859   3.977
 6032SOL    HW118995   3.382   5.812   3.979
 6032SOL    HW218996   3.306   5.954   4.005
 6033SOL     OW18997   2.494   2.499   2.709
 6033SOL    HW118998   2.401   2.460   2.709
 6033SOL    HW218999   2.560   2.426   2.693
 6034SOL     OW19000   1.080   0.132   6.254
 6034SOL    HW119001   1.072   0.040   6.214
 6034SOL    HW219002   1.083   0.125   6.353
 6035SOL     OW19003   0.713   1.096   2.623
 6035SOL    HW119004   0.742   1.189   2.646
 6035SOL    HW219005   0.780   1.053   2.563
 6036SOL     OW19006   6.307   4.690   1.698
 6036SOL    HW119007   6.361   4.721   1.620
 6036SOL    HW219008   6.368   4.663   1.772
 6037SOL     OW19009   3.943   1.337   0.676
 6037SOL    HW119010   3.876   1.294   0.736
 6037SOL    HW219011   4.032   1.338   0.721
 6038SOL     OW19012   0.301   2.450   6.762
 6038SOL    HW119013   0.350   2.499   6.834
 6038SOL    HW219014   0.227   2.507   6.728
 6039SOL     OW19015   4.085   3.319   3.910
 6039SOL    HW119016   4.062   3.223   3.928
 6039SOL    HW219017   4.100   3.332   3.812
 6040SOL     OW19018   1.773   1.502   0.627
 6040SOL    HW119019   1.767   1.404   0.643
 6040SOL    HW219020   1.713   1.527   0.551
 6041SOL     OW19021   2.991   3.017   5.514
 6041SOL    HW119022   2.926   3.093   5.508
 6041SOL    HW219023   3.039   3.007   5.427
 6042SOL     OW19024   4.428   6.140   2.900
 6042SOL    HW119025   4.415   6.041   2.894
 6042SOL    HW219026   4.364   6.179   2.965
 6043SOL     OW19027   1.270   0.965   3.803
 6043SOL    HW119028   1.249   0.870   3.776
 6043SOL    HW219029   1.218   0.988   3.885
 6044SOL     OW19030   2.039   1.580   1.918
 6044SOL    HW119031   1.984   1.520   1.975
 6044SOL    HW219032   2.134   1.579   1.949
 6045SOL     OW19033   4.831   3.017   3.868
 6045SOL    HW119034   4.830   3.026   3.768
 6045SOL    HW219035   4.884   3.092   3.907
 6046SOL     OW19036   2.921   2.622   1.185
 6046SOL    HW119037   3.019   2.617   1.167
 6046SOL    HW219038   2.897   2.713   1.219
 6047SOL     OW19039   5.584   2.387   0.897
 6047SOL    HW119040   5.566   2.338   0.812
 6047SOL    HW219041   5.672   2.357   0.935
 6048SOL     OW19042   5.253   4.950   5.146
 6048SOL    HW119043   5.258   5.018   5.219
 6048SOL    HW219044   5.250   4.996   5.057
 6049SOL     OW19045   5.623   4.338   6.288
 6049SOL    HW119046   5.605   4.430   6.252
 6049SOL    HW219047   5.562   4.272   6.244
 6050SOL     OW19048   3.011   5.426   0.411
 6050SOL    HW119049   3.088   5.397   0.468
 6050SOL    HW219050   3.027   5.398   0.316
 6051SOL     OW19051   0.393   0.992   2.450
 6051SOL    HW119052   0.468   0.936   2.414
 6051SOL    HW219053   0.339   0.938   2.514
 6052SOL     OW19054   5.416   0.414   0.971
 6052SOL    HW119055   5.350   0.446   0.902
 6052SOL    HW219056   5.433   0.486   1.037
 6053SOL     OW19057   4.513   0.724   6.059
 6053SOL    HW119058   4.542   0.799   6.117
 6053SOL    HW219059   4.418   0.739   6.030
 6054SOL     OW19060   3.727   5.008   0.956
 6054SOL    HW119061   3.632   5.028   0.931
 6054SOL    HW219062   3.786   5.019   0.876
 6055SOL     OW19063   3.320   4.869   6.497
 6055SOL    HW119064   3.387   4.925   6.546
 6055SOL    HW219065   3.245   4.928   6.466
 6056SOL     OW19066   5.863   2.989   4.803
 6056SOL    HW119067   5.771   2.971   4.837
 6056SOL    HW219068   5.914   2.903   4.797
 6057SOL     OW19069   5.571   0.457   2.389
 6057SOL    HW119070   5.603   0.535   2.443
 6057SOL    HW219071   5.572   0.481   2.292
 6058SOL     OW19072   6.248   3.656   0.385
 6058SOL    HW119073   6.157   3.680   0.352
 6058SOL    HW219074   6.240   3.589   0.459
 6059SOL     OW19075   5.027   4.031   5.525
 6059SOL    HW119076   4.928   4.023   5.515
 6059SOL    HW219077   5.070   3.942   5.509
 6060SOL     OW19078   3.276   3.088   0.293
 6060SOL    HW119079   3.304   3.118   0.384
 6060SOL    HW219080   3.349   3.106   0.227
 6061SOL     OW19081   4.499   4.999   0.049
 6061SOL    HW119082   4.558   4.922   0.071
 6061SOL    HW219083   4.514   5.026   6.980
 6062SOL     OW19084   2.585   1.758   6.662
 6062SOL    HW119085   2.657   1.826   6.679
 6062SOL    HW219086   2.621   1.667   6.684
 6063SOL     OW19087   3.835   4.392   5.245
 6063SOL    HW119088   3.775   4.430   5.316
 6063SOL    HW219089   3.781   4.370   5.164
 6064SOL     OW19090   0.582   0.302   0.872
 6064SOL    HW119091   0.612   0.285   0.778
 6064SOL    HW219092   0.619   0.232   0.932
 6065SOL     OW19093   1.284   5.213   1.552
 6065SOL    HW119094   1.368   5.184   1.597
 6065SOL    HW219095   1.209   5.214   1.619
 6066SOL     OW19096   5.195   1.187   3.690
 6066SOL    HW119097   5.153   1.254   3.752
 6066SOL    HW219098   5.131   1.111   3.675
 6067SOL     OW19099   5.730   0.460   6.144
 6067SOL    HW119100   5.706   0.446   6.048
 6067SOL    HW219101   5.656   0.428   6.203
 6068SOL     OW19102   5.090   2.248   4.975
 6068SOL    HW119103   4.996   2.213   4.981
 6068SOL    HW219104   5.148   2.199   5.040
 6069SOL     OW19105   6.757   2.981   5.934
 6069SOL    HW119106   6.737   3.071   5.894
 6069SOL    HW219107   6.735   2.984   6.032
 6070SOL     OW19108   3.657   2.199   1.617
 6070SOL    HW119109   3.672   2.233   1.710
 6070SOL    HW219110   3.622   2.105   1.621
 6071SOL     OW19111   0.279   6.282   4.332
 6071SOL    HW119112   0.216   6.296   4.409
 6071SOL    HW219113   0.229   6.293   4.246
 6072SOL     OW19114   6.718   1.828   0.786
 6072SOL    HW119115   6.683   1.789   0.871
 6072SOL    HW219116   6.730   1.756   0.718
 6073SOL     OW19117   4.790   2.867   1.199
 6073SOL    HW119118   4.743   2.918   1.272
 6073SOL    HW219119   4.889   2.879   1.208
 6074SOL     OW19120   1.732   0.226   2.137
 6074SOL    HW119121   1.797   0.301   2.122
 6074SOL    HW219122   1.639   0.260   2.123
 6075SOL     OW19123   4.636   6.925   5.968
 6075SOL    HW119124   4.613   6.986   6.043
 6075SOL    HW219125   4.736   6.916   5.962
 6076SOL     OW19126   2.515   5.521   3.695
 6076SOL    HW119127   2.436   5.569   3.657
 6076SOL    HW219128   2.583   5.588   3.725
 6077SOL     OW19129   5.796   6.498   0.939
 6077SOL    HW119130   5.772   6.545   1.024
 6077SOL    HW219131   5.861   6.424   0.959
 6078SOL     OW19132   4.387   4.424   0.805
 6078SOL    HW119133   4.397   4.329   0.832
 6078SOL    HW219134   4.350   4.429   0.712
 6079SOL     OW19135   4.840   4.563   6.637
 6079SOL    HW119136   4.812   4.495   6.569
 6079SOL    HW219137   4.939   4.561   6.648
 6080SOL     OW19138   0.708   5.119   1.727
 6080SOL    HW119139   0.714   5.198   1.788
 6080SOL    HW219140   0.747   5.039   1.772
 6081SOL     OW19141   0.754   3.281   5.778
 6081SOL    HW119142   0.753   3.308   5.682
 6081SOL    HW219143   0.829   3.327   5.825
 6082SOL     OW19144   3.289   0.148   1.907
 6082SOL    HW119145   3.335   0.086   1.844
 6082SOL    HW219146   3.197   0.170   1.873
 6083SOL     OW19147   5.654   6.558   6.964
 6083SOL    HW119148   5.673   6.460   6.973
 6083SOL    HW219149   5.672   6.587   6.870
 6084SOL     OW19150   0.523   5.946   2.280
 6084SOL    HW119151   0.530   6.021   2.215
 6084SOL    HW219152   0.611   5.932   2.326
 6085SOL     OW19153   6.107   6.012   6.326
 6085SOL    HW119154   6.121   6.007   6.425
 6085SOL    HW219155   6.054   6.094   6.303
 6086SOL     OW19156   3.876   2.932   6.553
 6086SOL    HW119157   3.799   2.996   6.550
 6086SOL    HW219158   3.906   2.912   6.460
 6087SOL     OW19159   5.335   6.148   0.734
 6087SOL    HW119160   5.244   6.130   0.696
 6087SOL    HW219161   5.337   6.119   0.830
 6088SOL     OW19162   5.760   6.205   5.365
 6088SOL    HW119163   5.733   6.210   5.269
 6088SOL    HW219164   5.816   6.285   5.388
 6089SOL     OW19165   6.575   2.365   2.148
 6089SOL    HW119166   6.496   2.359   2.087
 6089SOL    HW219167   6.543   2.387   2.240
 6090SOL     OW19168   2.802   5.129   4.384
 6090SOL    HW119169   2.735   5.197   4.354
 6090SOL    HW219170   2.754   5.046   4.414
 6091SOL     OW19171   2.506   1.451   0.916
 6091SOL    HW119172   2.574   1.513   0.956
 6091SOL    HW219173   2.414   1.487   0.931
 6092SOL     OW19174   4.407   0.623   2.036
 6092SOL    HW119175   4.317   0.667   2.041
 6092SOL    HW219176   4.454   0.633   2.123
 6093SOL     OW19177   2.469   1.803   2.135
 6093SOL    HW119178   2.391   1.818   2.074
 6093SOL    HW219179   2.552   1.840   2.094
 6094SOL     OW19180   1.430   6.421   3.851
 6094SOL    HW119181   1.530   6.422   3.843
 6094SOL    HW219182   1.392   6.364   3.778
 6095SOL     OW19183   4.650   5.282   6.728
 6095SOL    HW119184   4.735   5.336   6.722
 6095SOL    HW219185   4.628   5.266   6.824
 6096SOL     OW19186   5.615   6.220   2.343
 6096SOL    HW119187   5.713   6.235   2.361
 6096SOL    HW219188   5.580   6.152   2.408
 6097SOL     OW19189   1.046   5.569   1.753
 6097SOL    HW119190   1.008   5.651   1.711
 6097SOL    HW219191   1.142   5.559   1.728
 6098SOL     OW19192   6.260   0.659   5.655
 6098SOL    HW119193   6.177   0.713   5.639
 6098SOL    HW219194   6.289   0.670   5.750
 6099SOL     OW19195   4.340   6.346   5.824
 6099SOL    HW119196   4.425   6.339   5.773
 6099SOL    HW219197   4.360   6.361   5.921
 6100SOL     OW19198   0.449   5.786   1.545
 6100SOL    HW119199   0.470   5.842   1.625
 6100SOL    HW219200   0.465   5.689   1.567
 6101SOL     OW19201   6.024   2.749   2.781
 6101SOL    HW119202   5.930   2.728   2.753
 6101SOL    HW219203   6.075   2.787   2.703
 6102SOL     OW19204   4.052   5.587   2.932
 6102SOL    HW119205   4.076   5.497   2.967
 6102SOL    HW219206   3.963   5.584   2.888
 6103SOL     OW19207   6.177   1.426   1.094
 6103SOL    HW119208   6.112   1.350   1.098
 6103SOL    HW219209   6.187   1.467   1.184
 6104SOL     OW19210   5.892   1.437   5.177
 6104SOL    HW119211   5.962   1.507   5.167
 6104SOL    HW219212   5.841   1.452   5.261
 6105SOL     OW19213   2.565   5.440   5.563
 6105SOL    HW119214   2.491   5.486   5.514
 6105SOL    HW219215   2.578   5.482   5.652
 6106SOL     OW19216   1.173   4.653   0.595
 6106SOL    HW119217   1.270   4.654   0.573
 6106SOL    HW219218   1.128   4.730   0.550
 6107SOL     OW19219   4.661   5.538   4.084
 6107SOL    HW119220   4.725   5.494   4.147
 6107SOL    HW219221   4.666   5.637   4.095
 6108SOL     OW19222   1.240   1.911   3.045
 6108SOL    HW119223   1.278   1.834   3.096
 6108SOL    HW219224   1.294   1.993   3.064
 6109SOL     OW19225   5.149   0.907   4.239
 6109SOL    HW119226   5.150   0.976   4.312
 6109SOL    HW219227   5.149   0.815   4.279
 6110SOL     OW19228   1.501   2.507   6.664
 6110SOL    HW119229   1.501   2.578   6.594
 6110SOL    HW219230   1.591   2.463   6.667
 6111SOL     OW19231   1.301   3.294   1.656
 6111SOL    HW119232   1.310   3.363   1.728
 6111SOL    HW219233   1.222   3.236   1.674
 6112SOL     OW19234   4.182   0.363   2.024
 6112SOL    HW119235   4.203   0.409   2.110
 6112SOL    HW219236   4.108   0.298   2.039
 6113SOL     OW19237   2.609   3.985   6.663
 6113SOL    HW119238   2.612   3.978   6.564
 6113SOL    HW219239   2.703   3.985   6.700
 6114SOL     OW19240   5.072   2.912   2.474
 6114SOL    HW119241   5.047   2.944   2.383
 6114SOL    HW219242   4.997   2.929   2.538
 6115SOL     OW19243   0.384   1.751   5.381
 6115SOL    HW119244   0.363   1.654   5.392
 6115SOL    HW219245   0.358   1.781   5.289
 6116SOL     OW19246   4.249   2.313   5.476
 6116SOL    HW119247   4.244   2.269   5.566
 6116SOL    HW219248   4.238   2.412   5.487
 6117SOL     OW19249   1.146   1.401   3.171
 6117SOL    HW119250   1.186   1.341   3.102
 6117SOL    HW219251   1.047   1.410   3.154
 6118SOL     OW19252   5.709   1.672   1.679
 6118SOL    HW119253   5.709   1.588   1.733
 6118SOL    HW219254   5.627   1.725   1.701
 6119SOL     OW19255   0.275   2.747   0.295
 6119SOL    HW119256   0.298   2.844   0.289
 6119SOL    HW219257   0.198   2.734   0.357
 6120SOL     OW19258   1.749   6.680   5.571
 6120SOL    HW119259   1.758   6.599   5.512
 6120SOL    HW219260   1.661   6.678   5.617
 6121SOL     OW19261   0.580   4.282   5.554
 6121SOL    HW119262   0.581   4.347   5.478
 6121SOL    HW219263   0.563   4.190   5.518
 6122SOL     OW19264   5.241   5.671   6.219
 6122SOL    HW119265   5.315   5.731   6.190
 6122SOL    HW219266   5.262   5.577   6.193
 6123SOL     OW19267   5.379   0.956   5.432
 6123SOL    HW119268   5.357   1.020   5.359
 6123SOL    HW219269   5.476   0.935   5.431
 6124SOL     OW19270   1.456   6.806   5.364
 6124SOL    HW119271   1.471   6.719   5.410
 6124SOL    HW219272   1.390   6.793   5.290
 6125SOL     OW19273   2.528   3.564   0.062
 6125SOL    HW119274   2.447   3.578   0.119
 6125SOL    HW219275   2.499   3.545   6.994
 6126SOL     OW19276   0.923   2.034   5.549
 6126SOL    HW119277   0.837   2.020   5.498
 6126SOL    HW219278   1.000   2.017   5.488
 6127SOL     OW19279   4.192   1.087   1.449
 6127SOL    HW119280   4.283   1.079   1.491
 6127SOL    HW219281   4.201   1.092   1.350
 6128SOL     OW19282   5.828   5.442   0.562
 6128SOL    HW119283   5.796   5.529   0.527
 6128SOL    HW219284   5.926   5.448   0.580
 6129SOL     OW19285   1.656   4.430   3.093
 6129SOL    HW119286   1.597   4.490   3.148
 6129SOL    HW219287   1.747   4.470   3.086
 6130SOL     OW19288   6.474   2.367   2.758
 6130SOL    HW119289   6.516   2.276   2.752
 6130SOL    HW219290   6.543   2.433   2.787
 6131SOL     OW19291   1.026   2.362   2.057
 6131SOL    HW119292   1.080   2.320   2.131
 6131SOL    HW219293   0.995   2.452   2.086
 6132SOL     OW19294   3.416   1.732   6.599
 6132SOL    HW119295   3.494   1.680   6.634
 6132SOL    HW219296   3.333   1.704   6.647
 6133SOL     OW19297   1.103   2.205   3.188
 6133SOL    HW119298   1.173   2.216   3.258
 6133SOL    HW219299   1.146   2.205   3.097
 6134SOL     OW19300   4.704   6.916   6.557
 6134SOL    HW119301   4.650   6.909   6.473
 6134SOL    HW219302   4.666   6.988   6.615
 6135SOL     OW19303   5.877   6.647   0.135
 6135SOL    HW119304   5.803   6.652   0.068
 6135SOL    HW219305   5.875   6.727   0.194
 6136SOL     OW19306   1.517   2.252   1.153
 6136SOL    HW119307   1.475   2.326   1.205
 6136SOL    HW219308   1.605   2.226   1.194
 6137SOL     OW19309   0.865   4.038   2.554
 6137SOL    HW119310   0.842   3.972   2.482
 6137SOL    HW219311   0.948   4.009   2.601
 6138SOL     OW19312   3.409   0.354   2.046
 6138SOL    HW119313   3.351   0.388   2.120
 6138SOL    HW219314   3.366   0.275   2.003
 6139SOL     OW19315   0.846   6.778   5.270
 6139SOL    HW119316   0.797   6.701   5.311
 6139SOL    HW219317   0.784   6.856   5.259
 6140SOL     OW19318   0.679   0.739   3.138
 6140SOL    HW119319   0.634   0.738   3.048
 6140SOL    HW219320   0.610   0.726   3.209
 6141SOL     OW19321   0.932   0.527   5.958
 6141SOL    HW119322   0.900   0.575   5.876
 6141SOL    HW219323   0.954   0.432   5.934
 6142SOL     OW19324   0.652   0.496   5.656
 6142SOL    HW119325   0.559   0.464   5.673
 6142SOL    HW219326   0.671   0.576   5.713
 6143SOL     OW19327   0.095   4.389   0.735
 6143SOL    HW119328   0.058   4.308   0.782
 6143SOL    HW219329   0.147   4.360   0.655
 6144SOL     OW19330   5.108   4.323   3.153
 6144SOL    HW119331   5.128   4.387   3.080
 6144SOL    HW219332   5.053   4.247   3.117
 6145SOL     OW19333   5.903   4.634   4.122
 6145SOL    HW119334   5.966   4.673   4.056
 6145SOL    HW219335   5.933   4.542   4.148
 6146SOL     OW19336   3.671   6.713   4.001
 6146SOL    HW119337   3.746   6.660   3.963
 6146SOL    HW219338   3.663   6.800   3.952
 6147SOL     OW19339   1.912   2.964   4.711
 6147SOL    HW119340   1.818   2.995   4.696
 6147SOL    HW219341   1.911   2.885   4.772
 6148SOL     OW19342   3.817   5.097   6.334
 6148SOL    HW119343   3.860   5.186   6.352
 6148SOL    HW219344   3.888   5.029   6.315
 6149SOL     OW19345   2.051   7.005   2.048
 6149SOL    HW119346   1.982   6.984   2.117
 6149SOL    HW219347   2.009   0.029   1.972
 6150SOL     OW19348   6.443   4.176   6.629
 6150SOL    HW119349   6.470   4.172   6.725
 6150SOL    HW219350   6.385   4.256   6.614
 6151SOL     OW19351   5.274   5.032   4.153
 6151SOL    HW119352   5.234   5.042   4.062
 6151SOL    HW219353   5.248   4.944   4.192
 6152SOL     OW19354   0.905   5.882   4.655
 6152SOL    HW119355   0.863   5.815   4.593
 6152SOL    HW219356   0.931   5.837   4.741
 6153SOL     OW19357   4.992   5.300   0.900
 6153SOL    HW119358   5.063   5.354   0.856
 6153SOL    HW219359   4.904   5.319   0.859
 6154SOL     OW19360   5.475   3.631   3.545
 6154SOL    HW119361   5.527   3.655   3.463
 6154SOL    HW219362   5.536   3.585   3.611
 6155SOL     OW19363   2.815   1.052   2.894
 6155SOL    HW119364   2.862   0.965   2.885
 6155SOL    HW219365   2.870   1.124   2.851
 6156SOL     OW19366   5.121   3.902   1.692
 6156SOL    HW119367   5.134   3.923   1.788
 6156SOL    HW219368   5.048   3.960   1.654
 6157SOL     OW19369   0.713   2.155   3.400
 6157SOL    HW119370   0.649   2.153   3.323
 6157SOL    HW219371   0.665   2.183   3.483
 6158SOL     OW19372   3.109   2.277   6.664
 6158SOL    HW119373   3.113   2.219   6.583
 6158SOL    HW219374   3.159   2.232   6.739
 6159SOL     OW19375   5.421   3.724   0.569
 6159SOL    HW119376   5.497   3.659   0.580
 6159SOL    HW219377   5.374   3.735   0.656
 6160SOL     OW19378   7.011   0.058   6.844
 6160SOL    HW119379   7.014   0.151   6.807
 6160SOL    HW219380   6.986   7.021   6.771
 6161SOL     OW19381   5.170   1.693   6.980
 6161SOL    HW119382   5.246   1.630   6.993
 6161SOL    HW219383   5.180   1.771   0.017
 6162SOL     OW19384   6.127   6.666   3.714
 6162SOL    HW119385   6.182   6.587   3.741
 6162SOL    HW219386   6.077   6.701   3.794
 6163SOL     OW19387   5.447   5.663   2.305
 6163SOL    HW119388   5.479   5.672   2.211
 6163SOL    HW219389   5.394   5.745   2.330
 6164SOL     OW19390   3.195   4.047   4.598
 6164SOL    HW119391   3.200   4.142   4.630
 6164SOL    HW219392   3.171   4.046   4.501
 6165SOL     OW19393   3.982   2.150   6.073
 6165SOL    HW119394   4.064   2.199   6.045
 6165SOL    HW219395   3.904   2.213   6.073
 6166SOL     OW19396   6.252   1.735   0.111
 6166SOL    HW119397   6.227   1.709   0.018
 6166SOL    HW219398   6.232   1.660   0.174
 6167SOL     OW19399   1.055   4.374   2.907
 6167SOL    HW119400   1.024   4.426   2.987
 6167SOL    HW219401   1.152   4.353   2.917
 6168SOL     OW19402   0.134   2.362   3.188
 6168SOL    HW119403   0.085   2.285   3.146
 6168SOL    HW219404   0.232   2.344   3.188
 6169SOL     OW19405   0.829   1.128   6.208
 6169SOL    HW119406   0.850   1.135   6.111
 6169SOL    HW219407   0.890   1.062   6.252
 6170SOL     OW19408   3.490   4.177   6.451
 6170SOL    HW119409   3.483   4.216   6.360
 6170SOL    HW219410   3.483   4.077   6.446
 6171SOL     OW19411   1.332   3.467   1.883
 6171SOL    HW119412   1.247   3.450   1.933
 6171SOL    HW219413   1.375   3.550   1.918
 6172SOL     OW19414   0.084   0.199   2.435
 6172SOL    HW119415   0.121   0.291   2.447
 6172SOL    HW219416   0.081   0.176   2.337
 6173SOL     OW19417   0.052   5.083   2.396
 6173SOL    HW119418   0.069   5.009   2.331
 6173SOL    HW219419   0.020   5.045   2.483
 6174SOL     OW19420   6.250   4.657   2.948
 6174SOL    HW119421   6.171   4.611   2.988
 6174SOL    HW219422   6.230   4.683   2.854
 6175SOL     OW19423   5.233   0.232   2.669
 6175SOL    HW119424   5.141   0.260   2.640
 6175SOL    HW219425   5.297   0.306   2.651
 6176SOL     OW19426   6.299   3.164   6.600
 6176SOL    HW119427   6.340   3.090   6.547
 6176SOL    HW219428   6.240   3.125   6.671
 6177SOL     OW19429   5.197   1.609   1.415
 6177SOL    HW119430   5.179   1.652   1.503
 6177SOL    HW219431   5.194   1.678   1.342
 6178SOL     OW19432   5.107   5.308   1.612
 6178SOL    HW119433   5.032   5.245   1.633
 6178SOL    HW219434   5.105   5.385   1.675
 6179SOL     OW19435   0.258   3.791   5.150
 6179SOL    HW119436   0.260   3.838   5.062
 6179SOL    HW219437   0.184   3.828   5.207
 6180SOL     OW19438   3.131   6.788   6.189
 6180SOL    HW119439   3.118   6.693   6.217
 6180SOL    HW219440   3.112   6.797   6.091
 6181SOL     OW19441   4.710   6.500   0.506
 6181SOL    HW119442   4.678   6.576   0.449
 6181SOL    HW219443   4.681   6.414   0.465
 6182SOL     OW19444   5.343   5.366   5.689
 6182SOL    HW119445   5.422   5.408   5.644
 6182SOL    HW219446   5.273   5.347   5.620
 6183SOL     OW19447   1.956   0.375   3.038
 6183SOL    HW119448   1.906   0.450   2.995
 6183SOL    HW219449   2.041   0.358   2.987
 6184SOL     OW19450   2.131   6.601   5.847
 6184SOL    HW119451   2.094   6.612   5.939
 6184SOL    HW219452   2.227   6.576   5.852
 6185SOL     OW19453   1.616   4.164   0.120
 6185SOL    HW119454   1.581   4.088   0.174
 6185SOL    HW219455   1.626   4.136   0.025
 6186SOL     OW19456   5.753   0.188   3.912
 6186SOL    HW119457   5.778   0.267   3.857
 6186SOL    HW219458   5.661   0.158   3.887
 6187SOL     OW19459   4.883   4.704   4.097
 6187SOL    HW119460   4.827   4.733   4.019
 6187SOL    HW219461   4.884   4.604   4.103
 6188SOL     OW19462   2.651   5.960   1.276
 6188SOL    HW119463   2.589   5.909   1.337
 6188SOL    HW219464   2.648   5.919   1.184
 6189SOL     OW19465   4.558   4.468   3.728
 6189SOL    HW119466   4.511   4.530   3.791
 6189SOL    HW219467   4.561   4.377   3.768
 6190SOL     OW19468   5.754   3.521   5.886
 6190SOL    HW119469   5.832   3.581   5.867
 6190SOL    HW219470   5.672   3.558   5.843
 6191SOL     OW19471   5.086   2.933   0.735
 6191SOL    HW119472   5.017   3.005   0.743
 6191SOL    HW219473   5.080   2.871   0.813
 6192SOL     OW19474   3.938   3.696   0.517
 6192SOL    HW119475   3.967   3.791   0.504
 6192SOL    HW219476   3.892   3.687   0.605
 6193SOL     OW19477   4.047   0.741   2.480
 6193SOL    HW119478   4.014   0.735   2.574
 6193SOL    HW219479   3.972   0.771   2.420
 6194SOL     OW19480   1.938   6.653   0.027
 6194SOL    HW119481   1.931   6.639   6.954
 6194SOL    HW219482   1.862   6.710   0.057
 6195SOL     OW19483   3.733   5.607   5.461
 6195SOL    HW119484   3.774   5.525   5.502
 6195SOL    HW219485   3.782   5.688   5.494
 6196SOL     OW19486   6.346   2.300   0.632
 6196SOL    HW119487   6.326   2.255   0.718
 6196SOL    HW219488   6.316   2.396   0.636
 6197SOL     OW19489   4.721   3.506   0.291
 6197SOL    HW119490   4.784   3.432   0.268
 6197SOL    HW219491   4.767   3.594   0.283
 6198SOL     OW19492   3.457   5.428   2.780
 6198SOL    HW119493   3.540   5.374   2.793
 6198SOL    HW219494   3.456   5.503   2.846
 6199SOL     OW19495   7.026   0.141   1.539
 6199SOL    HW119496   6.942   0.138   1.484
 6199SOL    HW219497   0.074   0.181   1.485
 6200SOL     OW19498   2.428   1.290   6.344
 6200SOL    HW119499   2.402   1.340   6.262
 6200SOL    HW219500   2.526   1.274   6.345
 6201SOL     OW19501   2.410   4.246   5.802
 6201SOL    HW119502   2.501   4.205   5.795
 6201SOL    HW219503   2.374   4.231   5.894
 6202SOL     OW19504   3.448   1.695   1.334
 6202SOL    HW119505   3.466   1.783   1.290
 6202SOL    HW219506   3.525   1.671   1.393
 6203SOL     OW19507   5.315   0.258   3.678
 6203SOL    HW119508   5.329   0.340   3.622
 6203SOL    HW219509   5.245   0.200   3.635
 6204SOL     OW19510   0.753   5.155   5.201
 6204SOL    HW119511   0.728   5.139   5.106
 6204SOL    HW219512   0.673   5.189   5.251
 6205SOL     OW19513   5.848   6.914   6.696
 6205SOL    HW119514   5.904   6.955   6.623
 6205SOL    HW219515   5.759   6.959   6.699
 6206SOL     OW19516   6.607   0.381   2.713
 6206SOL    HW119517   6.579   0.309   2.651
 6206SOL    HW219518   6.638   0.341   2.799
 6207SOL     OW19519   1.615   3.780   4.842
 6207SOL    HW119520   1.682   3.814   4.908
 6207SOL    HW219521   1.655   3.704   4.790
 6208SOL     OW19522   6.222   7.013   6.243
 6208SOL    HW119523   6.317   7.017   6.272
 6208SOL    HW219524   6.203   6.923   6.202
 6209SOL     OW19525   4.366   5.892   6.878
 6209SOL    HW119526   4.382   5.817   6.813
 6209SOL    HW219527   4.318   5.966   6.831
 6210SOL     OW19528   5.290   4.692   3.605
 6210SOL    HW119529   5.266   4.712   3.510
 6210SOL    HW219530   5.226   4.626   3.643
 6211SOL     OW19531   2.894   6.709   5.152
 6211SOL    HW119532   2.842   6.654   5.087
 6211SOL    HW219533   2.879   6.673   5.245
 6212SOL     OW19534   0.822   5.237   3.109
 6212SOL    HW119535   0.827   5.139   3.128
 6212SOL    HW219536   0.899   5.264   3.050
 6213SOL     OW19537   5.255   6.874   6.344
 6213SOL    HW119538   5.175   6.913   6.392
 6213SOL    HW219539   5.295   6.944   6.285
 6214SOL     OW19540   6.118   5.164   3.397
 6214SOL    HW119541   6.109   5.077   3.349
 6214SOL    HW219542   6.208   5.203   3.379
 6215SOL     OW19543   3.316   1.508   6.739
 6215SOL    HW119544   3.224   1.495   6.777
 6215SOL    HW219545   3.347   1.422   6.699
 6216SOL     OW19546   6.346   2.278   1.986
 6216SOL    HW119547   6.313   2.183   1.988
 6216SOL    HW219548   6.366   2.304   1.892
 6217SOL     OW19549   5.991   3.056   2.135
 6217SOL    HW119550   6.017   2.970   2.092
 6217SOL    HW219551   6.053   3.076   2.211
 6218SOL     OW19552   3.396   4.957   4.404
 6218SOL    HW119553   3.305   4.929   4.373
 6218SOL    HW219554   3.388   5.007   4.490
 6219SOL     OW19555   0.387   1.314   4.533
 6219SOL    HW119556   0.438   1.328   4.448
 6219SOL    HW219557   0.420   1.379   4.602
 6220SOL     OW19558   1.446   4.624   5.656
 6220SOL    HW119559   1.463   4.580   5.745
 6220SOL    HW219560   1.353   4.662   5.655
 6221SOL     OW19561   5.768   5.309   5.629
 6221SOL    HW119562   5.776   5.368   5.549
 6221SOL    HW219563   5.673   5.278   5.637
 6222SOL     OW19564   0.733   6.677   1.428
 6222SOL    HW119565   0.830   6.671   1.449
 6222SOL    HW219566   0.681   6.621   1.492
 6223SOL     OW19567   0.239   3.448   4.563
 6223SOL    HW119568   0.217   3.353   4.585
 6223SOL    HW219569   0.163   3.488   4.512
 6224SOL     OW19570   1.836   1.946   6.270
 6224SOL    HW119571   1.820   1.960   6.368
 6224SOL    HW219572   1.932   1.967   6.249
 6225SOL     OW19573   2.908   3.055   1.511
 6225SOL    HW119574   2.973   3.126   1.483
 6225SOL    HW219575   2.916   3.039   1.609
 6226SOL     OW19576   5.075   1.521   4.109
 6226SOL    HW119577   5.144   1.487   4.046
 6226SOL    HW219578   4.985   1.517   4.066
 6227SOL     OW19579   3.599   4.919   6.354
 6227SOL    HW119580   3.663   4.995   6.337
 6227SOL    HW219581   3.517   4.954   6.399
 6228SOL     OW19582   7.004   2.383   2.441
 6228SOL    HW119583   0.018   2.439   2.368
 6228SOL    HW219584   0.019   2.292   2.440
 6229SOL     OW19585   1.192   2.688   2.597
 6229SOL    HW119586   1.214   2.696   2.500
 6229SOL    HW219587   1.265   2.729   2.651
 6230SOL     OW19588   1.468   1.104   4.523
 6230SOL    HW119589   1.499   1.123   4.616
 6230SOL    HW219590   1.538   1.052   4.475
 6231SOL     OW19591   6.729   4.619   1.476
 6231SOL    HW119592   6.686   4.676   1.546
 6231SOL    HW219593   6.812   4.663   1.443
 6232SOL     OW19594   6.374   1.793   0.754
 6232SOL    HW119595   6.313   1.759   0.682
 6232SOL    HW219596   6.325   1.792   0.841
 6233SOL     OW19597   5.497   1.319   0.294
 6233SOL    HW119598   5.585   1.279   0.320
 6233SOL    HW219599   5.500   1.418   0.310
 6234SOL     OW19600   0.350   1.153   5.480
 6234SOL    HW119601   0.339   1.252   5.479
 6234SOL    HW219602   0.323   1.118   5.570
 6235SOL     OW19603   1.482   0.329   2.151
 6235SOL    HW119604   1.460   0.275   2.232
 6235SOL    HW219605   1.409   0.395   2.134
 6236SOL     OW19606   0.957   5.348   0.335
 6236SOL    HW119607   0.982   5.436   0.374
 6236SOL    HW219608   0.872   5.316   0.378
 6237SOL     OW19609   3.670   6.477   0.409
 6237SOL    HW119610   3.596   6.505   0.348
 6237SOL    HW219611   3.750   6.451   0.355
 6238SOL     OW19612   4.410   4.860   3.258
 6238SOL    HW119613   4.372   4.810   3.336
 6238SOL    HW219614   4.428   4.796   3.184
 6239SOL     OW19615   2.905   6.796   1.641
 6239SOL    HW119616   2.823   6.770   1.693
 6239SOL    HW219617   2.960   6.859   1.696
 6240SOL     OW19618   2.901   2.421   0.007
 6240SOL    HW119619   2.996   2.449   0.019
 6240SOL    HW219620   2.892   2.371   6.947
 6241SOL     OW19621   2.617   1.020   2.717
 6241SOL    HW119622   2.606   0.925   2.745
 6241SOL    HW219623   2.668   1.070   2.788
 6242SOL     OW19624   5.398   1.029   3.422
 6242SOL    HW119625   5.465   1.071   3.483
 6242SOL    HW219626   5.442   0.953   3.372
 6243SOL     OW19627   5.590   6.745   3.046
 6243SOL    HW119628   5.572   6.675   2.977
 6243SOL    HW219629   5.514   6.810   3.050
 6244SOL     OW19630   1.648   2.246   1.521
 6244SOL    HW119631   1.689   2.178   1.460
 6244SOL    HW219632   1.560   2.276   1.484
 6245SOL     OW19633   3.012   4.670   1.490
 6245SOL    HW119634   2.927   4.623   1.513
 6245SOL    HW219635   3.073   4.669   1.570
 6246SOL     OW19636   2.896   2.574   6.276
 6246SOL    HW119637   2.848   2.652   6.315
 6246SOL    HW219638   2.987   2.566   6.318
 6247SOL     OW19639   0.757   6.269   3.301
 6247SOL    HW119640   0.673   6.221   3.325
 6247SOL    HW219641   0.737   6.366   3.284
 6248SOL     OW19642   1.980   3.703   1.176
 6248SOL    HW119643   1.885   3.703   1.209
 6248SOL    HW219644   2.004   3.612   1.144
 6249SOL     OW19645   0.701   4.577   0.443
 6249SOL    HW119646   0.762   4.607   0.369
 6249SOL    HW219647   0.750   4.582   0.530
 6250SOL     OW19648   6.467   5.851   0.521
 6250SOL    HW119649   6.470   5.875   0.424
 6250SOL    HW219650   6.559   5.831   0.554
 6251SOL     OW19651   3.605   6.780   0.392
 6251SOL    HW119652   3.563   6.695   0.360
 6251SOL    HW219653   3.698   6.787   0.354
 6252SOL     OW19654   1.802   6.603   4.519
 6252SOL    HW119655   1.883   6.612   4.461
 6252SOL    HW219656   1.805   6.673   4.591
 6253SOL     OW19657   2.130   3.860   2.447
 6253SOL    HW119658   2.128   3.760   2.447
 6253SOL    HW219659   2.115   3.894   2.355
 6254SOL     OW19660   5.463   0.637   0.569
 6254SOL    HW119661   5.477   0.729   0.606
 6254SOL    HW219662   5.367   0.612   0.576
 6255SOL     OW19663   1.822   1.033   1.332
 6255SOL    HW119664   1.726   1.015   1.309
 6255SOL    HW219665   1.836   1.132   1.340
 6256SOL     OW19666   3.745   4.894   3.062
 6256SOL    HW119667   3.819   4.876   3.126
 6256SOL    HW219668   3.781   4.897   2.969
 6257SOL     OW19669   5.839   2.273   0.982
 6257SOL    HW119670   5.939   2.273   0.987
 6257SOL    HW219671   5.801   2.241   1.069
 6258SOL     OW19672   4.640   0.106   3.503
 6258SOL    HW119673   4.646   0.165   3.583
 6258SOL    HW219674   4.715   0.127   3.440
 6259SOL     OW19675   2.683   1.624   1.028
 6259SOL    HW119676   2.625   1.696   1.066
 6259SOL    HW219677   2.778   1.639   1.058
 6260SOL     OW19678   3.061   4.103   0.294
 6260SOL    HW119679   3.137   4.108   0.359
 6260SOL    HW219680   3.096   4.087   0.202
 6261SOL     OW19681   2.866   0.130   6.355
 6261SOL    HW119682   2.919   0.056   6.398
 6261SOL    HW219683   2.849   0.202   6.422
 6262SOL     OW19684   2.022   4.112   1.070
 6262SOL    HW119685   2.028   4.120   0.971
 6262SOL    HW219686   1.927   4.125   1.099
 6263SOL     OW19687   0.390   0.350   5.698
 6263SOL    HW119688   0.358   0.432   5.744
 6263SOL    HW219689   0.322   0.322   5.629
 6264SOL     OW19690   1.553   6.812   0.871
 6264SOL    HW119691   1.643   6.820   0.828
 6264SOL    HW219692   1.511   6.725   0.845
 6265SOL     OW19693   3.280   3.760   1.211
 6265SOL    HW119694   3.335   3.727   1.135
 6265SOL    HW219695   3.295   3.701   1.291
 6266SOL     OW19696   4.327   0.989   4.716
 6266SOL    HW119697   4.352   0.959   4.808
 6266SOL    HW219698   4.313   1.088   4.716
 6267SOL     OW19699   3.389   0.700   0.208
 6267SOL    HW119700   3.385   0.797   0.187
 6267SOL    HW219701   3.423   0.687   0.302
 6268SOL     OW19702   3.095   6.127   2.594
 6268SOL    HW119703   3.003   6.111   2.629
 6268SOL    HW219704   3.162   6.082   2.653
 6269SOL     OW19705   6.454   5.666   2.452
 6269SOL    HW119706   6.473   5.684   2.548
 6269SOL    HW219707   6.520   5.600   2.416
 6270SOL     OW19708   2.025   0.538   5.067
 6270SOL    HW119709   2.022   0.477   5.147
 6270SOL    HW219710   1.962   0.614   5.082
 6271SOL     OW19711   6.260   2.322   5.590
 6271SOL    HW119712   6.237   2.248   5.652
 6271SOL    HW219713   6.318   2.288   5.517
 6272SOL     OW19714   0.661   2.895   5.612
 6272SOL    HW119715   0.587   2.880   5.678
 6272SOL    HW219716   0.694   2.990   5.620
 6273SOL     OW19717   1.149   0.611   2.563
 6273SOL    HW119718   1.192   0.521   2.550
 6273SOL    HW219719   1.090   0.631   2.485
 6274SOL     OW19720   2.421   5.365   6.077
 6274SOL    HW119721   2.519   5.382   6.083
 6274SOL    HW219722   2.400   5.322   5.989
 6275SOL     OW19723   2.467   6.464   4.861
 6275SOL    HW119724   2.440   6.544   4.808
 6275SOL    HW219725   2.424   6.469   4.952
 6276SOL     OW19726   1.445   5.109   4.075
 6276SOL    HW119727   1.545   5.115   4.085
 6276SOL    HW219728   1.403   5.186   4.123
 6277SOL     OW19729   5.445   3.163   2.236
 6277SOL    HW119730   5.352   3.175   2.201
 6277SOL    HW219731   5.454   3.070   2.273
 6278SOL     OW19732   4.588   0.357   4.850
 6278SOL    HW119733   4.648   0.435   4.833
 6278SOL    HW219734   4.537   0.372   4.934
 6279SOL     OW19735   3.981   1.106   6.440
 6279SOL    HW119736   4.017   1.155   6.520
 6279SOL    HW219737   3.996   1.162   6.358
 6280SOL     OW19738   0.157   2.741   5.966
 6280SOL    HW119739   0.161   2.801   5.886
 6280SOL    HW219740   0.128   2.650   5.938
 6281SOL     OW19741   2.325   6.387   5.130
 6281SOL    HW119742   2.345   6.297   5.092
 6281SOL    HW219743   2.285   6.377   5.222
 6282SOL     OW19744   1.592   0.327   4.880
 6282SOL    HW119745   1.506   0.374   4.860
 6282SOL    HW219746   1.668   0.391   4.871
 6283SOL     OW19747   5.966   3.183   4.635
 6283SOL    HW119748   5.899   3.257   4.643
 6283SOL    HW219749   5.950   3.117   4.709
 6284SOL     OW19750   2.185   5.714   4.860
 6284SOL    HW119751   2.201   5.801   4.906
 6284SOL    HW219752   2.214   5.722   4.764
 6285SOL     OW19753   1.682   2.887   3.865
 6285SOL    HW119754   1.600   2.845   3.826
 6285SOL    HW219755   1.719   2.953   3.801
 6286SOL     OW19756   6.248   2.213   4.141
 6286SOL    HW119757   6.205   2.303   4.135
 6286SOL    HW219758   6.326   2.209   4.078
 6287SOL     OW19759   4.067   4.767   2.950
 6287SOL    HW119760   3.976   4.760   2.910
 6287SOL    HW219761   4.120   4.835   2.899
 6288SOL     OW19762   5.654   4.290   2.003
 6288SOL    HW119763   5.750   4.282   2.027
 6288SOL    HW219764   5.635   4.384   1.974
 6289SOL     OW19765   1.760   3.664   2.546
 6289SOL    HW119766   1.715   3.735   2.601
 6289SOL    HW219767   1.711   3.652   2.460
 6290SOL     OW19768   5.885   4.098   4.284
 6290SOL    HW119769   5.806   4.051   4.245
 6290SOL    HW219770   5.876   4.197   4.269
 6291SOL     OW19771   3.823   2.951   3.134
 6291SOL    HW119772   3.793   2.964   3.040
 6291SOL    HW219773   3.918   2.978   3.143
 6292SOL     OW19774   0.720   2.659   3.220
 6292SOL    HW119775   0.721   2.757   3.199
 6292SOL    HW219776   0.803   2.635   3.270
 6293SOL     OW19777   4.164   0.034   6.834
 6293SOL    HW119778   4.260   0.008   6.817
 6293SOL    HW219779   4.140   0.012   6.928
 6294SOL     OW19780   3.478   5.094   3.969
 6294SOL    HW119781   3.509   5.063   4.059
 6294SOL    HW219782   3.519   5.037   3.898
 6295SOL     OW19783   5.244   5.007   5.618
 6295SOL    HW119784   5.146   4.984   5.617
 6295SOL    HW219785   5.260   5.085   5.557
 6296SOL     OW19786   6.813   6.164   4.730
 6296SOL    HW119787   6.775   6.083   4.774
 6296SOL    HW219788   6.804   6.243   4.790
 6297SOL     OW19789   4.946   6.758   5.181
 6297SOL    HW119790   4.877   6.825   5.155
 6297SOL    HW219791   4.971   6.772   5.277
 6298SOL     OW19792   1.372   2.695   5.925
 6298SOL    HW119793   1.288   2.642   5.914
 6298SOL    HW219794   1.348   2.790   5.945
 6299SOL     OW19795   5.245   2.055   0.353
 6299SOL    HW119796   5.194   2.132   0.391
 6299SOL    HW219797   5.337   2.052   0.392
 6300SOL     OW19798   5.121   0.964   4.776
 6300SOL    HW119799   5.052   1.007   4.718
 6300SOL    HW219800   5.079   0.893   4.831
 6301SOL     OW19801   2.490   0.057   0.942
 6301SOL    HW119802   2.417   0.013   0.995
 6301SOL    HW219803   2.501   0.152   0.972
 6302SOL     OW19804   1.527   1.824   4.332
 6302SOL    HW119805   1.507   1.828   4.430
 6302SOL    HW219806   1.626   1.819   4.318
 6303SOL     OW19807   2.650   0.923   4.498
 6303SOL    HW119808   2.557   0.947   4.527
 6303SOL    HW219809   2.699   1.005   4.469
 6304SOL     OW19810   2.132   0.952   0.954
 6304SOL    HW119811   2.216   0.998   0.924
 6304SOL    HW219812   2.099   0.893   0.880
 6305SOL     OW19813   6.448   6.737   0.549
 6305SOL    HW119814   6.535   6.784   0.565
 6305SOL    HW219815   6.373   6.797   0.577
 6306SOL     OW19816   0.595   4.302   4.521
 6306SOL    HW119817   0.507   4.285   4.477
 6306SOL    HW219818   0.645   4.216   4.529
 6307SOL     OW19819   4.039   4.168   5.792
 6307SOL    HW119820   3.987   4.189   5.874
 6307SOL    HW219821   4.125   4.123   5.817
 6308SOL     OW19822   1.453   1.741   4.949
 6308SOL    HW119823   1.526   1.677   4.927
 6308SOL    HW219824   1.480   1.834   4.922
 6309SOL     OW19825   4.853   3.936   4.573
 6309SOL    HW119826   4.923   3.973   4.634
 6309SOL    HW219827   4.788   4.008   4.549
 6310SOL     OW19828   2.027   5.429   4.197
 6310SOL    HW119829   2.059   5.511   4.243
 6310SOL    HW219830   1.953   5.452   4.133
 6311SOL     OW19831   6.001   0.739   5.622
 6311SOL    HW119832   6.005   0.836   5.597
 6311SOL    HW219833   5.909   0.704   5.604
 6312SOL     OW19834   5.542   5.114   5.670
 6312SOL    HW119835   5.582   5.062   5.746
 6312SOL    HW219836   5.442   5.114   5.679
 6313SOL     OW19837   1.648   6.160   2.985
 6313SOL    HW119838   1.608   6.157   2.893
 6313SOL    HW219839   1.704   6.243   2.994
 6314SOL     OW19840   3.815   6.807   1.858
 6314SOL    HW119841   3.868   6.843   1.781
 6314SOL    HW219842   3.740   6.870   1.879
 6315SOL     OW19843   3.879   2.690   6.710
 6315SOL    HW119844   3.863   2.776   6.663
 6315SOL    HW219845   3.846   2.614   6.653
 6316SOL     OW19846   4.857   2.181   6.243
 6316SOL    HW119847   4.781   2.153   6.185
 6316SOL    HW219848   4.924   2.106   6.249
 6317SOL     OW19849   5.350   5.538   3.704
 6317SOL    HW119850   5.442   5.506   3.726
 6317SOL    HW219851   5.353   5.587   3.616
 6318SOL     OW19852   2.946   1.865   5.048
 6318SOL    HW119853   2.911   1.806   5.121
 6318SOL    HW219854   3.037   1.897   5.072
 6319SOL     OW19855   7.015   2.754   3.267
 6319SOL    HW119856   0.080   2.711   3.264
 6319SOL    HW219857   7.014   2.823   3.340
 6320SOL     OW19858   5.854   4.618   4.570
 6320SOL    HW119859   5.949   4.648   4.579
 6320SOL    HW219860   5.815   4.656   4.486
 6321SOL     OW19861   3.531   5.282   1.076
 6321SOL    HW119862   3.617   5.250   1.116
 6321SOL    HW219863   3.456   5.223   1.106
 6322SOL     OW19864   1.775   2.246   6.474
 6322SOL    HW119865   1.755   2.294   6.389
 6322SOL    HW219866   1.757   2.306   6.551
 6323SOL     OW19867   3.185   2.598   1.151
 6323SOL    HW119868   3.200   2.500   1.157
 6323SOL    HW219869   3.209   2.629   1.059
 6324SOL     OW19870   4.818   0.612   6.367
 6324SOL    HW119871   4.798   0.531   6.422
 6324SOL    HW219872   4.802   0.591   6.270
 6325SOL     OW19873   1.342   2.033   2.009
 6325SOL    HW119874   1.283   2.096   1.958
 6325SOL    HW219875   1.289   1.953   2.038
 6326SOL     OW19876   5.489   5.864   1.221
 6326SOL    HW119877   5.563   5.912   1.175
 6326SOL    HW219878   5.520   5.773   1.248
 6327SOL     OW19879   6.859   0.206   5.495
 6327SOL    HW119880   6.792   0.213   5.421
 6327SOL    HW219881   6.932   0.143   5.469
 6328SOL     OW19882   1.748   3.678   0.449
 6328SOL    HW119883   1.669   3.688   0.388
 6328SOL    HW219884   1.750   3.585   0.487
 6329SOL     OW19885   1.634   2.395   3.099
 6329SOL    HW119886   1.541   2.424   3.079
 6329SOL    HW219887   1.694   2.420   3.023
 6330SOL     OW19888   4.677   0.825   1.446
 6330SOL    HW119889   4.633   0.786   1.527
 6330SOL    HW219890   4.608   0.841   1.376
 6331SOL     OW19891   5.953   2.283   0.646
 6331SOL    HW119892   5.885   2.238   0.589
 6331SOL    HW219893   5.927   2.378   0.662
 6332SOL     OW19894   6.897   4.540   2.416
 6332SOL    HW119895   6.839   4.484   2.475
 6332SOL    HW219896   6.988   4.549   2.456
 6333SOL     OW19897   3.602   4.997   4.208
 6333SOL    HW119898   3.524   4.980   4.267
 6333SOL    HW219899   3.686   4.972   4.256
 6334SOL     OW19900   2.157   0.357   2.512
 6334SOL    HW119901   2.226   0.348   2.583
 6334SOL    HW219902   2.185   0.428   2.447
 6335SOL     OW19903   5.104   1.665   0.770
 6335SOL    HW119904   5.115   1.685   0.673
 6335SOL    HW219905   5.127   1.569   0.787
 6336SOL     OW19906   7.015   2.069   5.792
 6336SOL    HW119907   7.001   2.113   5.881
 6336SOL    HW219908   0.072   2.106   5.749
 6337SOL     OW19909   4.968   3.712   6.525
 6337SOL    HW119910   4.967   3.778   6.449
 6337SOL    HW219911   5.061   3.680   6.540
 6338SOL     OW19912   2.949   2.261   2.837
 6338SOL    HW119913   2.932   2.295   2.744
 6338SOL    HW219914   2.865   2.267   2.890
 6339SOL     OW19915   0.715   2.819   3.795
 6339SOL    HW119916   0.628   2.866   3.782
 6339SOL    HW219917   0.729   2.753   3.721
 6340SOL     OW19918   2.370   5.062   3.215
 6340SOL    HW119919   2.436   5.042   3.143
 6340SOL    HW219920   2.405   5.137   3.272
 6341SOL     OW19921   0.550   5.099   3.483
 6341SOL    HW119922   0.534   5.127   3.578
 6341SOL    HW219923   0.493   5.019   3.462
 6342SOL     OW19924   2.461   1.236   1.785
 6342SOL    HW119925   2.533   1.294   1.747
 6342SOL    HW219926   2.420   1.281   1.864
 6343SOL     OW19927   4.970   2.547   6.644
 6343SOL    HW119928   4.945   2.556   6.548
 6343SOL    HW219929   4.945   2.632   6.692
 6344SOL     OW19930   6.042   3.571   5.838
 6344SOL    HW119931   6.080   3.543   5.750
 6344SOL    HW219932   6.067   3.505   5.908
 6345SOL     OW19933   4.308   1.095   2.013
 6345SOL    HW119934   4.378   1.024   2.005
 6345SOL    HW219935   4.230   1.058   2.064
 6346SOL     OW19936   6.996   3.816   3.524
 6346SOL    HW119937   0.018   3.744   3.575
 6346SOL    HW219938   6.900   3.818   3.553
 6347SOL     OW19939   2.417   0.718   1.472
 6347SOL    HW119940   2.418   0.778   1.551
 6347SOL    HW219941   2.325   0.682   1.457
 6348SOL     OW19942   1.314   3.816   5.313
 6348SOL    HW119943   1.313   3.738   5.251
 6348SOL    HW219944   1.380   3.883   5.281
 6349SOL     OW19945   2.783   0.568   1.270
 6349SOL    HW119946   2.747   0.499   1.208
 6349SOL    HW219947   2.883   0.568   1.267
 6350SOL     OW19948   2.362   4.751   3.870
 6350SOL    HW119949   2.300   4.677   3.898
 6350SOL    HW219950   2.308   4.834   3.856
 6351SOL     OW19951   6.804   3.183   2.310
 6351SOL    HW119952   6.877   3.139   2.258
 6351SOL    HW219953   6.785   3.273   2.270
 6352SOL     OW19954   1.903   5.095   4.426
 6352SOL    HW119955   1.905   5.166   4.497
 6352SOL    HW219956   1.978   5.111   4.362
 6353SOL     OW19957   6.490   0.718   6.386
 6353SOL    HW119958   6.567   0.725   6.449
 6353SOL    HW219959   6.481   0.624   6.354
 6354SOL     OW19960   1.330   6.998   2.548
 6354SOL    HW119961   1.338   6.904   2.515
 6354SOL    HW219962   1.269   7.000   2.627
 6355SOL     OW19963   0.890   4.947   5.352
 6355SOL    HW119964   0.869   5.043   5.333
 6355SOL    HW219965   0.849   4.889   5.281
 6356SOL     OW19966   4.811   4.682   1.861
 6356SOL    HW119967   4.865   4.605   1.826
 6356SOL    HW219968   4.738   4.703   1.796
 6357SOL     OW19969   4.875   2.780   1.586
 6357SOL    HW119970   4.790   2.750   1.543
 6357SOL    HW219971   4.857   2.858   1.646
 6358SOL     OW19972   0.649   2.549   5.449
 6358SOL    HW119973   0.697   2.522   5.365
 6358SOL    HW219974   0.705   2.525   5.528
 6359SOL     OW19975   5.828   0.033   5.988
 6359SOL    HW119976   5.920   0.066   5.967
 6359SOL    HW219977   5.830   6.959   5.997
 6360SOL     OW19978   2.264   4.228   4.117
 6360SOL    HW119979   2.266   4.160   4.045
 6360SOL    HW219980   2.193   4.296   4.098
 6361SOL     OW19981   5.768   6.929   0.143
 6361SOL    HW119982   5.823   6.916   0.060
 6361SOL    HW219983   5.700   7.000   0.127
 6362SOL     OW19984   6.053   5.084   6.275
 6362SOL    HW119985   6.012   5.029   6.347
 6362SOL    HW219986   6.103   5.160   6.315
 6363SOL     OW19987   2.560   5.016   3.030
 6363SOL    HW119988   2.656   5.042   3.036
 6363SOL    HW219989   2.554   4.920   3.003
 6364SOL     OW19990   2.969   0.945   5.709
 6364SOL    HW119991   2.929   0.947   5.617
 6364SOL    HW219992   3.056   0.897   5.707
 6365SOL     OW19993   4.797   6.777   4.271
 6365SOL    HW119994   4.790   6.873   4.243
 6365SOL    HW219995   4.893   6.752   4.280
 6366SOL     OW19996   0.436   6.276   6.408
 6366SOL    HW119997   0.363   6.242   6.349
 6366SOL    HW219998   0.496   6.336   6.355
 6367SOL     OW19999   4.228   0.493   4.180
 6367SOL    HW120000   4.315   0.536   4.204
 6367SOL    HW220001   4.159   0.516   4.248
 6368SOL     OW20002   3.140   0.185   3.391
 6368SOL    HW120003   3.183   0.229   3.313
 6368SOL    HW220004   3.124   0.088   3.371
 6369SOL     OW20005   2.877   5.345   4.872
 6369SOL    HW120006   2.833   5.424   4.914
 6369SOL    HW220007   2.815   5.267   4.875
 6370SOL     OW20008   1.522   3.174   2.835
 6370SOL    HW120009   1.611   3.161   2.879
 6370SOL    HW220010   1.536   3.200   2.740
 6371SOL     OW20011   4.954   3.227   4.010
 6371SOL    HW120012   5.041   3.276   4.018
 6371SOL    HW220013   4.881   3.283   4.049
 6372SOL     OW20014   3.036   0.126   1.802
 6372SOL    HW120015   3.007   0.135   1.706
 6372SOL    HW220016   3.001   0.041   1.839
 6373SOL     OW20017   6.307   4.042   4.170
 6373SOL    HW120018   6.329   3.945   4.166
 6373SOL    HW220019   6.210   4.055   4.151
 6374SOL     OW20020   3.527   3.618   4.215
 6374SOL    HW120021   3.597   3.654   4.277
 6374SOL    HW220022   3.442   3.604   4.266
 6375SOL     OW20023   0.633   1.641   4.113
 6375SOL    HW120024   0.567   1.631   4.188
 6375SOL    HW220025   0.664   1.551   4.084
 6376SOL     OW20026   6.424   2.213   5.392
 6376SOL    HW120027   6.403   2.205   5.295
 6376SOL    HW220028   6.517   2.182   5.409
 6377SOL     OW20029   6.766   1.744   6.132
 6377SOL    HW120030   6.838   1.807   6.160
 6377SOL    HW220031   6.800   1.650   6.135
 6378SOL     OW20032   5.753   4.800   3.671
 6378SOL    HW120033   5.688   4.760   3.736
 6378SOL    HW220034   5.840   4.751   3.678
 6379SOL     OW20035   2.175   4.775   4.635
 6379SOL    HW120036   2.185   4.835   4.715
 6379SOL    HW220037   2.078   4.762   4.616
 6380SOL     OW20038   1.081   1.132   5.431
 6380SOL    HW120039   1.021   1.191   5.484
 6380SOL    HW220040   1.091   1.044   5.478
 6381SOL     OW20041   3.654   3.227   2.908
 6381SOL    HW120042   3.677   3.318   2.873
 6381SOL    HW220043   3.562   3.230   2.948
 6382SOL     OW20044   1.188   2.769   0.511
 6382SOL    HW120045   1.211   2.710   0.588
 6382SOL    HW220046   1.259   2.761   0.441
 6383SOL     OW20047   2.171   2.487   2.960
 6383SOL    HW120048   2.099   2.557   2.965
 6383SOL    HW220049   2.133   2.403   2.922
 6384SOL     OW20050   5.595   4.225   1.227
 6384SOL    HW120051   5.690   4.203   1.250
 6384SOL    HW220052   5.565   4.303   1.282
 6385SOL     OW20053   6.710   5.145   4.248
 6385SOL    HW120054   6.787   5.116   4.190
 6385SOL    HW220055   6.702   5.085   4.327
 6386SOL     OW20056   2.275   4.096   0.089
 6386SOL    HW120057   2.182   4.109   0.124
 6386SOL    HW220058   2.309   4.182   0.051
 6387SOL     OW20059   0.545   1.807   6.662
 6387SOL    HW120060   0.523   1.782   6.568
 6387SOL    HW220061   0.625   1.755   6.692
 6388SOL     OW20062   4.299   4.466   1.792
 6388SOL    HW120063   4.331   4.377   1.824
 6388SOL    HW220064   4.309   4.533   1.865
 6389SOL     OW20065   0.430   5.715   2.020
 6389SOL    HW120066   0.347   5.669   2.053
 6389SOL    HW220067   0.476   5.657   1.953
 6390SOL     OW20068   0.877   2.252   4.158
 6390SOL    HW120069   0.919   2.260   4.248
 6390SOL    HW220070   0.948   2.246   4.088
 6391SOL     OW20071   2.999   0.413   6.232
 6391SOL    HW120072   2.986   0.334   6.291
 6391SOL    HW220073   3.083   0.402   6.179
 6392SOL     OW20074   2.742   6.642   3.268
 6392SOL    HW120075   2.721   6.590   3.351
 6392SOL    HW220076   2.699   6.597   3.190
 6393SOL     OW20077   6.363   6.535   1.514
 6393SOL    HW120078   6.395   6.556   1.422
 6393SOL    HW220079   6.361   6.436   1.527
 6394SOL     OW20080   2.469   4.113   0.964
 6394SOL    HW120081   2.390   4.127   1.024
 6394SOL    HW220082   2.526   4.195   0.965
 6395SOL     OW20083   5.466   2.701   1.985
 6395SOL    HW120084   5.515   2.768   2.041
 6395SOL    HW220085   5.525   2.672   1.910
 6396SOL     OW20086   5.220   2.658   6.394
 6396SOL    HW120087   5.274   2.652   6.478
 6396SOL    HW220088   5.247   2.739   6.342
 6397SOL     OW20089   5.753   1.587   0.091
 6397SOL    HW120090   5.845   1.550   0.077
 6397SOL    HW220091   5.688   1.540   0.031
 6398SOL     OW20092   3.392   1.002   0.638
 6398SOL    HW120093   3.454   0.993   0.560
 6398SOL    HW220094   3.309   0.948   0.620
 6399SOL     OW20095   2.026   5.042   6.434
 6399SOL    HW120096   1.999   4.948   6.456
 6399SOL    HW220097   2.125   5.049   6.435
 6400SOL     OW20098   2.085   5.658   3.186
 6400SOL    HW120099   2.150   5.694   3.252
 6400SOL    HW220100   2.014   5.606   3.234
 6401SOL     OW20101   0.013   4.519   3.677
 6401SOL    HW120102   0.060   4.432   3.667
 6401SOL    HW220103   0.018   4.569   3.590
 6402SOL     OW20104   2.941   0.764   2.888
 6402SOL    HW120105   3.017   0.819   2.855
 6402SOL    HW220106   2.976   0.693   2.950
 6403SOL     OW20107   0.846   6.330   6.712
 6403SOL    HW120108   0.838   6.372   6.803
 6403SOL    HW220109   0.778   6.258   6.703
 6404SOL     OW20110   4.364   1.137   3.002
 6404SOL    HW120111   4.321   1.226   2.988
 6404SOL    HW220112   4.323   1.093   3.082
 6405SOL     OW20113   1.576   1.156   3.512
 6405SOL    HW120114   1.555   1.076   3.569
 6405SOL    HW220115   1.491   1.205   3.492
 6406SOL     OW20116   1.681   2.415   3.815
 6406SOL    HW120117   1.709   2.480   3.744
 6406SOL    HW220118   1.748   2.342   3.822
 6407SOL     OW20119   3.098   6.273   2.914
 6407SOL    HW120120   3.068   6.178   2.898
 6407SOL    HW220121   3.032   6.319   2.972
 6408SOL     OW20122   6.228   2.419   0.007
 6408SOL    HW120123   6.267   2.332   0.038
 6408SOL    HW220124   6.241   2.488   0.078
 6409SOL     OW20125   0.367   4.307   3.348
 6409SOL    HW120126   0.391   4.212   3.330
 6409SOL    HW220127   0.268   4.317   3.348
 6410SOL     OW20128   1.499   1.728   0.664
 6410SOL    HW120129   1.524   1.690   0.575
 6410SOL    HW220130   1.410   1.691   0.693
 6411SOL     OW20131   1.057   2.908   3.402
 6411SOL    HW120132   1.035   2.857   3.320
 6411SOL    HW220133   1.130   2.861   3.452
 6412SOL     OW20134   6.831   2.868   5.546
 6412SOL    HW120135   6.845   2.942   5.481
 6412SOL    HW220136   6.814   2.782   5.498
 6413SOL     OW20137   5.329   5.035   2.866
 6413SOL    HW120138   5.290   4.944   2.858
 6413SOL    HW220139   5.279   5.098   2.807
 6414SOL     OW20140   6.046   0.854   1.938
 6414SOL    HW120141   6.015   0.793   1.866
 6414SOL    HW220142   6.046   0.805   2.026
 6415SOL     OW20143   3.150   1.863   2.836
 6415SOL    HW120144   3.210   1.895   2.763
 6415SOL    HW220145   3.054   1.871   2.807
 6416SOL     OW20146   0.929   0.711   6.178
 6416SOL    HW120147   0.834   0.736   6.194
 6416SOL    HW220148   0.933   0.630   6.118
 6417SOL     OW20149   0.489   4.902   2.720
 6417SOL    HW120150   0.477   5.000   2.707
 6417SOL    HW220151   0.483   4.880   2.818
 6418SOL     OW20152   6.575   4.965   2.646
 6418SOL    HW120153   6.574   4.924   2.736
 6418SOL    HW220154   6.487   4.952   2.602
 6419SOL     OW20155   2.896   5.125   2.388
 6419SOL    HW120156   2.879   5.210   2.438
 6419SOL    HW220157   2.992   5.121   2.361
 6420SOL     OW20158   2.819   3.648   5.728
 6420SOL    HW120159   2.860   3.558   5.737
 6420SOL    HW220160   2.767   3.670   5.811
 6421SOL     OW20161   6.022   1.806   1.974
 6421SOL    HW120162   6.022   1.708   1.995
 6421SOL    HW220163   5.962   1.854   2.039
 6422SOL     OW20164   6.655   0.243   3.847
 6422SOL    HW120165   6.605   0.160   3.823
 6422SOL    HW220166   6.655   0.306   3.770
 6423SOL     OW20167   4.718   4.337   2.242
 6423SOL    HW120168   4.778   4.262   2.215
 6423SOL    HW220169   4.651   4.354   2.169
 6424SOL     OW20170   6.434   5.199   5.801
 6424SOL    HW120171   6.387   5.285   5.821
 6424SOL    HW220172   6.530   5.218   5.778
 6425SOL     OW20173   0.203   5.449   4.288
 6425SOL    HW120174   0.285   5.440   4.346
 6425SOL    HW220175   0.175   5.358   4.257
 6426SOL     OW20176   0.924   4.073   3.861
 6426SOL    HW120177   0.986   4.036   3.792
 6426SOL    HW220178   0.833   4.032   3.849
 6427SOL     OW20179   1.718   3.288   0.230
 6427SOL    HW120180   1.764   3.377   0.238
 6427SOL    HW220181   1.778   3.223   0.185
 6428SOL     OW20182   6.285   3.388   0.548
 6428SOL    HW120183   6.209   3.328   0.522
 6428SOL    HW220184   6.364   3.367   0.491
 6429SOL     OW20185   0.676   1.239   4.775
 6429SOL    HW120186   0.735   1.303   4.726
 6429SOL    HW220187   0.660   1.158   4.718
 6430SOL     OW20188   4.396   1.299   1.818
 6430SOL    HW120189   4.390   1.380   1.877
 6430SOL    HW220190   4.363   1.219   1.868
 6431SOL     OW20191   5.691   0.068   3.158
 6431SOL    HW120192   5.751   7.015   3.150
 6431SOL    HW220193   5.601   0.044   3.122
 6432SOL     OW20194   4.349   4.149   0.114
 6432SOL    HW120195   4.367   4.245   0.134
 6432SOL    HW220196   4.390   4.092   0.185
 6433SOL     OW20197   3.568   4.129   1.273
 6433SOL    HW120198   3.525   4.147   1.185
 6433SOL    HW220199   3.527   4.188   1.343
 6434SOL     OW20200   1.431   3.207   0.952
 6434SOL    HW120201   1.373   3.288   0.958
 6434SOL    HW220202   1.511   3.228   0.894
 6435SOL     OW20203   3.986   5.322   6.887
 6435SOL    HW120204   4.047   5.340   6.810
 6435SOL    HW220205   4.017   5.239   6.935
 6436SOL     OW20206   2.179   3.198   4.282
 6436SOL    HW120207   2.161   3.264   4.355
 6436SOL    HW220208   2.223   3.117   4.320
 6437SOL     OW20209   1.284   1.206   0.954
 6437SOL    HW120210   1.238   1.162   0.877
 6437SOL    HW220211   1.368   1.157   0.976
 6438SOL     OW20212   6.946   4.679   5.659
 6438SOL    HW120213   6.899   4.642   5.579
 6438SOL    HW220214   6.914   4.632   5.741
 6439SOL     OW20215   0.223   6.788   1.442
 6439SOL    HW120216   0.265   6.702   1.415
 6439SOL    HW220217   0.215   6.792   1.542
 6440SOL     OW20218   2.174   1.298   2.176
 6440SOL    HW120219   2.196   1.292   2.079
 6440SOL    HW220220   2.243   1.352   2.223
 6441SOL     OW20221   0.836   6.824   2.468
 6441SOL    HW120222   0.863   6.768   2.390
 6441SOL    HW220223   0.866   6.918   2.453
 6442SOL     OW20224   1.324   1.313   3.626
 6442SOL    HW120225   1.389   1.289   3.697
 6442SOL    HW220226   1.250   1.245   3.624
 6443SOL     OW20227   3.253   2.856   0.633
 6443SOL    HW120228   3.352   2.845   0.631
 6443SOL    HW220229   3.219   2.866   0.540
 6444SOL     OW20230   0.991   2.543   3.680
 6444SOL    HW120231   1.041   2.459   3.701
 6444SOL    HW220232   1.008   2.610   3.751
 6445SOL     OW20233   4.858   2.509   5.638
 6445SOL    HW120234   4.942   2.475   5.595
 6445SOL    HW220235   4.832   2.448   5.712
 6446SOL     OW20236   0.742   2.123   6.058
 6446SOL    HW120237   0.650   2.090   6.035
 6446SOL    HW220238   0.762   2.205   6.004
 6447SOL     OW20239   0.330   6.019   2.461
 6447SOL    HW120240   0.354   6.064   2.546
 6447SOL    HW220241   0.414   5.993   2.412
 6448SOL     OW20242   6.058   4.607   2.464
 6448SOL    HW120243   6.081   4.530   2.404
 6448SOL    HW220244   5.978   4.585   2.519
 6449SOL     OW20245   3.816   4.551   1.446
 6449SOL    HW120246   3.764   4.533   1.530
 6449SOL    HW220247   3.754   4.580   1.374
 6450SOL     OW20248   0.075   3.389   1.506
 6450SOL    HW120249   7.012   3.404   1.464
 6450SOL    HW220250   0.102   3.470   1.558
 6451SOL     OW20251   2.853   6.097   5.197
 6451SOL    HW120252   2.811   6.173   5.247
 6451SOL    HW220253   2.784   6.052   5.139
 6452SOL     OW20254   3.525   6.326   5.285
 6452SOL    HW120255   3.561   6.298   5.374
 6452SOL    HW220256   3.561   6.265   5.214
 6453SOL     OW20257   2.376   6.013   6.760
 6453SOL    HW120258   2.306   5.988   6.826
 6453SOL    HW220259   2.393   6.112   6.766
 6454SOL     OW20260   3.174   0.992   3.551
 6454SOL    HW120261   3.165   0.967   3.648
 6454SOL    HW220262   3.203   1.088   3.544
 6455SOL     OW20263   0.622   2.463   4.344
 6455SOL    HW120264   0.643   2.496   4.252
 6455SOL    HW220265   0.531   2.494   4.370
 6456SOL     OW20266   1.306   0.063   3.676
 6456SOL    HW120267   1.385   0.008   3.703
 6456SOL    HW220268   1.300   0.145   3.732
 6457SOL     OW20269   5.291   1.217   1.064
 6457SOL    HW120270   5.271   1.164   1.146
 6457SOL    HW220271   5.295   1.314   1.087
 6458SOL     OW20272   1.267   6.303   2.813
 6458SOL    HW120273   1.316   6.390   2.810
 6458SOL    HW220274   1.190   6.311   2.876
 6459SOL     OW20275   5.796   5.628   0.906
 6459SOL    HW120276   5.703   5.598   0.926
 6459SOL    HW220277   5.799   5.668   0.814
 6460SOL     OW20278   4.399   5.189   6.130
 6460SOL    HW120279   4.425   5.205   6.034
 6460SOL    HW220280   4.381   5.092   6.144
 6461SOL     OW20281   3.058   5.240   5.109
 6461SOL    HW120282   3.020   5.175   5.175
 6461SOL    HW220283   2.984   5.296   5.071
 6462SOL     OW20284   2.375   2.873   5.386
 6462SOL    HW120285   2.417   2.930   5.315
 6462SOL    HW220286   2.444   2.814   5.427
 6463SOL     OW20287   1.583   3.949   6.550
 6463SOL    HW120288   1.561   4.045   6.569
 6463SOL    HW220289   1.608   3.939   6.454
 6464SOL     OW20290   0.625   4.868   4.918
 6464SOL    HW120291   0.655   4.944   4.860
 6464SOL    HW220292   0.537   4.891   4.960
 6465SOL     OW20293   6.357   2.734   3.878
 6465SOL    HW120294   6.382   2.751   3.973
 6465SOL    HW220295   6.418   2.666   3.839
 6466SOL     OW20296   0.300   1.943   6.094
 6466SOL    HW120297   0.219   1.891   6.066
 6466SOL    HW220298   0.370   1.938   6.022
 6467SOL     OW20299   2.833   0.895   6.848
 6467SOL    HW120300   2.909   0.950   6.813
 6467SOL    HW220301   2.843   0.800   6.816
 6468SOL     OW20302   4.284   6.110   1.452
 6468SOL    HW120303   4.324   6.128   1.362
 6468SOL    HW220304   4.342   6.045   1.502
 6469SOL     OW20305   4.848   0.684   5.114
 6469SOL    HW120306   4.899   0.740   5.180
 6469SOL    HW220307   4.755   0.669   5.148
 6470SOL     OW20308   6.332   5.020   6.583
 6470SOL    HW120309   6.305   5.027   6.679
 6470SOL    HW220310   6.308   4.930   6.547
 6471SOL     OW20311   6.353   5.685   5.946
 6471SOL    HW120312   6.400   5.680   6.034
 6471SOL    HW220313   6.305   5.772   5.939
 6472SOL     OW20314   0.531   4.898   0.637
 6472SOL    HW120315   0.510   4.847   0.721
 6472SOL    HW220316   0.511   4.995   0.652
 6473SOL     OW20317   2.082   2.048   5.483
 6473SOL    HW120318   2.164   2.084   5.528
 6473SOL    HW220319   2.021   2.007   5.551
 6474SOL     OW20320   1.702   3.625   6.040
 6474SOL    HW120321   1.801   3.635   6.045
 6474SOL    HW220322   1.665   3.614   6.132
 6475SOL     OW20323   6.405   5.823   4.899
 6475SOL    HW120324   6.404   5.797   4.803
 6475SOL    HW220325   6.417   5.741   4.955
 6476SOL     OW20326   4.676   3.833   1.653
 6476SOL    HW120327   4.683   3.933   1.654
 6476SOL    HW220328   4.687   3.800   1.559
 6477SOL     OW20329   0.353   5.268   0.939
 6477SOL    HW120330   0.327   5.342   0.877
 6477SOL    HW220331   0.365   5.305   1.032
 6478SOL     OW20332   3.557   5.887   1.895
 6478SOL    HW120333   3.474   5.906   1.844
 6478SOL    HW220334   3.572   5.958   1.963
 6479SOL     OW20335   4.022   5.255   2.698
 6479SOL    HW120336   4.038   5.308   2.782
 6479SOL    HW220337   4.002   5.318   2.623
 6480SOL     OW20338   3.857   2.914   5.607
 6480SOL    HW120339   3.829   2.984   5.541
 6480SOL    HW220340   3.783   2.899   5.673
 6481SOL     OW20341   3.372   2.281   1.756
 6481SOL    HW120342   3.371   2.287   1.656
 6481SOL    HW220343   3.460   2.312   1.790
 6482SOL     OW20344   0.251   0.909   6.142
 6482SOL    HW120345   0.196   0.904   6.059
 6482SOL    HW220346   0.224   0.835   6.204
 6483SOL     OW20347   2.434   5.616   1.578
 6483SOL    HW120348   2.500   5.595   1.650
 6483SOL    HW220349   2.436   5.543   1.509
 6484SOL     OW20350   4.020   0.425   3.088
 6484SOL    HW120351   4.000   0.522   3.078
 6484SOL    HW220352   3.942   0.379   3.131
 6485SOL     OW20353   1.507   3.764   3.488
 6485SOL    HW120354   1.485   3.667   3.479
 6485SOL    HW220355   1.561   3.778   3.571
 6486SOL     OW20356   1.128   4.772   3.904
 6486SOL    HW120357   1.065   4.703   3.869
 6486SOL    HW220358   1.220   4.753   3.871
 6487SOL     OW20359   6.090   5.647   5.050
 6487SOL    HW120360   6.099   5.648   5.150
 6487SOL    HW220361   6.003   5.688   5.024
 6488SOL     OW20362   3.102   5.965   5.157
 6488SOL    HW120363   3.006   5.992   5.158
 6488SOL    HW220364   3.109   5.868   5.181
 6489SOL     OW20365   1.994   3.485   6.881
 6489SOL    HW120366   2.039   3.513   6.797
 6489SOL    HW220367   2.048   3.414   6.926
 6490SOL     OW20368   4.172   2.387   6.533
 6490SOL    HW120369   4.150   2.412   6.627
 6490SOL    HW220370   4.104   2.322   6.499
 6491SOL     OW20371   4.272   1.334   6.431
 6491SOL    HW120372   4.245   1.317   6.336
 6491SOL    HW220373   4.191   1.337   6.489
 6492SOL     OW20374   6.086   6.244   6.554
 6492SOL    HW120375   6.001   6.192   6.568
 6492SOL    HW220376   6.161   6.197   6.600
 6493SOL     OW20377   1.381   6.146   5.298
 6493SOL    HW120378   1.311   6.142   5.369
 6493SOL    HW220379   1.385   6.058   5.250
 6494SOL     OW20380   0.585   0.382   3.194
 6494SOL    HW120381   0.515   0.452   3.212
 6494SOL    HW220382   0.598   0.373   3.095
 6495SOL     OW20383   5.167   6.206   4.074
 6495SOL    HW120384   5.123   6.116   4.076
 6495SOL    HW220385   5.165   6.242   3.981
 6496SOL     OW20386   6.936   5.956   2.228
 6496SOL    HW120387   6.861   5.984   2.288
 6496SOL    HW220388   6.906   5.959   2.133
 6497SOL     OW20389   2.354   3.086   0.084
 6497SOL    HW120390   2.360   2.990   0.058
 6497SOL    HW220391   2.292   3.095   0.162
 6498SOL     OW20392   2.456   4.716   4.319
 6498SOL    HW120393   2.487   4.692   4.227
 6498SOL    HW220394   2.487   4.647   4.384
 6499SOL     OW20395   5.963   1.697   5.038
 6499SOL    HW120396   5.983   1.761   4.964
 6499SOL    HW220397   5.870   1.715   5.072
 6500SOL     OW20398   0.198   4.770   3.767
 6500SOL    HW120399   0.258   4.705   3.814
 6500SOL    HW220400   0.235   4.863   3.779
 6501SOL     OW20401   6.733   2.905   0.985
 6501SOL    HW120402   6.638   2.929   1.004
 6501SOL    HW220403   6.762   2.831   1.045
 6502SOL     OW20404   0.326   3.770   3.220
 6502SOL    HW120405   0.401   3.816   3.172
 6502SOL    HW220406   0.264   3.838   3.258
 6503SOL     OW20407   5.294   0.036   3.476
 6503SOL    HW120408   5.387   0.071   3.464
 6503SOL    HW220409   5.296   6.982   3.536
 6504SOL     OW20410   4.514   6.480   6.195
 6504SOL    HW120411   4.613   6.467   6.194
 6504SOL    HW220412   4.488   6.541   6.120
 6505SOL     OW20413   6.365   4.315   1.619
 6505SOL    HW120414   6.272   4.327   1.655
 6505SOL    HW220415   6.382   4.382   1.547
 6506SOL     OW20416   0.471   3.398   0.662
 6506SOL    HW120417   0.433   3.490   0.673
 6506SOL    HW220418   0.496   3.382   0.566
 6507SOL     OW20419   1.521   5.712   6.805
 6507SOL    HW120420   1.430   5.714   6.762
 6507SOL    HW220421   1.512   5.726   6.903
 6508SOL     OW20422   1.983   1.981   3.633
 6508SOL    HW120423   2.008   1.889   3.661
 6508SOL    HW220424   2.063   2.028   3.595
 6509SOL     OW20425   2.043   2.461   4.581
 6509SOL    HW120426   1.983   2.494   4.654
 6509SOL    HW220427   2.117   2.527   4.568
 6510SOL     OW20428   0.653   5.610   6.762
 6510SOL    HW120429   0.675   5.590   6.666
 6510SOL    HW220430   0.684   5.534   6.819
 6511SOL     OW20431   5.626   0.764   4.660
 6511SOL    HW120432   5.562   0.794   4.589
 6511SOL    HW220433   5.634   0.665   4.657
 6512SOL     OW20434   4.840   0.546   2.855
 6512SOL    HW120435   4.925   0.594   2.829
 6512SOL    HW220436   4.859   0.486   2.933
 6513SOL     OW20437   3.792   5.962   3.977
 6513SOL    HW120438   3.716   5.968   3.912
 6513SOL    HW220439   3.766   5.901   4.052
 6514SOL     OW20440   5.413   0.596   3.022
 6514SOL    HW120441   5.509   0.616   3.005
 6514SOL    HW220442   5.405   0.507   3.068
 6515SOL     OW20443   0.242   5.400   3.840
 6515SOL    HW120444   0.221   5.494   3.869
 6515SOL    HW220445   0.201   5.384   3.750
 6516SOL     OW20446   0.311   1.910   0.317
 6516SOL    HW120447   0.231   1.970   0.327
 6516SOL    HW220448   0.377   1.931   0.389
 6517SOL     OW20449   5.913   1.552   0.726
 6517SOL    HW120450   5.935   1.455   0.733
 6517SOL    HW220451   5.874   1.583   0.813
 6518SOL     OW20452   0.550   6.307   0.086
 6518SOL    HW120453   0.507   6.217   0.091
 6518SOL    HW220454   0.645   6.300   0.117
 6519SOL     OW20455   2.214   2.142   3.271
 6519SOL    HW120456   2.276   2.206   3.226
 6519SOL    HW220457   2.153   2.101   3.203
 6520SOL     OW20458   6.507   5.893   3.615
 6520SOL    HW120459   6.437   5.962   3.598
 6520SOL    HW220460   6.464   5.811   3.654
 6521SOL     OW20461   0.431   1.005   4.534
 6521SOL    HW120462   0.388   1.090   4.504
 6521SOL    HW220463   0.530   1.018   4.543
 6522SOL     OW20464   3.368   4.406   6.965
 6522SOL    HW120465   3.408   4.485   6.919
 6522SOL    HW220466   3.427   4.326   6.950
 6523SOL     OW20467   2.795   1.604   6.196
 6523SOL    HW120468   2.738   1.527   6.225
 6523SOL    HW220469   2.874   1.569   6.145
 6524SOL     OW20470   3.406   2.988   3.177
 6524SOL    HW120471   3.410   3.077   3.131
 6524SOL    HW220472   3.342   2.993   3.254
 6525SOL     OW20473   2.381   2.728   2.751
 6525SOL    HW120474   2.336   2.706   2.837
 6525SOL    HW220475   2.444   2.655   2.726
 6526SOL     OW20476   0.715   6.080   4.658
 6526SOL    HW120477   0.744   6.153   4.721
 6526SOL    HW220478   0.787   6.010   4.654
 6527SOL     OW20479   0.443   1.532   4.753
 6527SOL    HW120480   0.516   1.513   4.818
 6527SOL    HW220481   0.370   1.584   4.798
 6528SOL     OW20482   7.023   0.748   3.719
 6528SOL    HW120483   7.006   0.799   3.803
 6528SOL    HW220484   6.972   0.662   3.722
 6529SOL     OW20485   5.446   1.875   3.687
 6529SOL    HW120486   5.462   1.883   3.589
 6529SOL    HW220487   5.394   1.954   3.719
 6530SOL     OW20488   6.977   3.544   0.909
 6530SOL    HW120489   6.883   3.526   0.881
 6530SOL    HW220490   6.978   3.620   0.975
 6531SOL     OW20491   5.158   3.163   4.373
 6531SOL    HW120492   5.125   3.161   4.467
 6531SOL    HW220493   5.095   3.112   4.314
 6532SOL     OW20494   5.410   1.458   1.313
 6532SOL    HW120495   5.428   1.464   1.215
 6532SOL    HW220496   5.325   1.505   1.334
 6533SOL     OW20497   5.739   5.737   1.698
 6533SOL    HW120498   5.717   5.668   1.629
 6533SOL    HW220499   5.658   5.793   1.716
 6534SOL     OW20500   2.791   4.539   1.599
 6534SOL    HW120501   2.731   4.460   1.582
 6534SOL    HW220502   2.844   4.522   1.682
 6535SOL     OW20503   0.491   2.990   4.620
 6535SOL    HW120504   0.585   2.967   4.644
 6535SOL    HW220505   0.491   3.065   4.553
 6536SOL     OW20506   6.905   2.582   5.642
 6536SOL    HW120507   6.897   2.661   5.703
 6536SOL    HW220508   6.814   2.542   5.628
 6537SOL     OW20509   6.419   5.674   0.004
 6537SOL    HW120510   6.460   5.675   6.939
 6537SOL    HW220511   6.365   5.757   0.017
 6538SOL     OW20512   3.919   4.026   0.184
 6538SOL    HW120513   3.883   4.026   0.277
 6538SOL    HW220514   3.889   4.109   0.137
 6539SOL     OW20515   2.434   1.607   6.302
 6539SOL    HW120516   2.402   1.559   6.220
 6539SOL    HW220517   2.473   1.695   6.276
 6540SOL     OW20518   4.258   1.738   4.645
 6540SOL    HW120519   4.348   1.702   4.620
 6540SOL    HW220520   4.229   1.806   4.576
 6541SOL     OW20521   3.044   2.153   4.754
 6541SOL    HW120522   3.081   2.234   4.710
 6541SOL    HW220523   3.060   2.158   4.853
 6542SOL     OW20524   0.095   4.351   3.290
 6542SOL    HW120525   0.050   4.330   3.203
 6542SOL    HW220526   0.083   4.447   3.312
 6543SOL     OW20527   6.515   4.797   0.139
 6543SOL    HW120528   6.587   4.866   0.134
 6543SOL    HW220529   6.489   4.783   0.235
 6544SOL     OW20530   0.737   6.379   3.671
 6544SOL    HW120531   0.738   6.281   3.690
 6544SOL    HW220532   0.645   6.414   3.687
 6545SOL     OW20533   4.883   1.790   6.231
 6545SOL    HW120534   4.899   1.694   6.256
 6545SOL    HW220535   4.856   1.795   6.135
 6546SOL     OW20536   4.318   4.155   6.197
 6546SOL    HW120537   4.346   4.217   6.124
 6546SOL    HW220538   4.252   4.203   6.257
 6547SOL     OW20539   4.147   1.630   5.817
 6547SOL    HW120540   4.222   1.620   5.882
 6547SOL    HW220541   4.066   1.663   5.864
 6548SOL     OW20542   0.779   3.987   6.681
 6548SOL    HW120543   0.835   4.022   6.606
 6548SOL    HW220544   0.689   4.029   6.678
 6549SOL     OW20545   3.221   1.231   1.018
 6549SOL    HW120546   3.208   1.234   1.117
 6549SOL    HW220547   3.186   1.315   0.977
 6550SOL     OW20548   7.003   6.144   3.162
 6550SOL    HW120549   0.064   6.176   3.200
 6550SOL    HW220550   7.014   6.051   3.127
 6551SOL     OW20551   1.929   3.942   2.640
 6551SOL    HW120552   1.999   3.896   2.585
 6551SOL    HW220553   1.855   3.878   2.661
 6552SOL     OW20554   2.465   6.726   4.292
 6552SOL    HW120555   2.391   6.659   4.280
 6552SOL    HW220556   2.428   6.812   4.326
 6553SOL     OW20557   0.180   2.374   1.326
 6553SOL    HW120558   0.081   2.382   1.314
 6553SOL    HW220559   0.225   2.394   1.239
 6554SOL     OW20560   6.074   1.555   5.984
 6554SOL    HW120561   6.117   1.515   5.903
 6554SOL    HW220562   5.988   1.599   5.958
 6555SOL     OW20563   1.898   1.025   2.723
 6555SOL    HW120564   1.954   0.974   2.657
 6555SOL    HW220565   1.958   1.080   2.782
 6556SOL     OW20566   4.515   4.790   5.123
 6556SOL    HW120567   4.595   4.805   5.181
 6556SOL    HW220568   4.505   4.866   5.059
 6557SOL     OW20569   5.165   5.540   1.352
 6557SOL    HW120570   5.214   5.453   1.365
 6557SOL    HW220571   5.203   5.588   1.274
 6558SOL     OW20572   6.815   5.394   1.173
 6558SOL    HW120573   6.901   5.435   1.145
 6558SOL    HW220574   6.743   5.463   1.169
 6559SOL     OW20575   6.487   3.977   0.953
 6559SOL    HW120576   6.575   3.933   0.971
 6559SOL    HW220577   6.438   3.990   1.040
 6560SOL     OW20578   3.609   2.794   1.853
 6560SOL    HW120579   3.640   2.704   1.822
 6560SOL    HW220580   3.565   2.841   1.777
 6561SOL     OW20581   3.704   4.117   2.434
 6561SOL    HW120582   3.704   4.103   2.533
 6561SOL    HW220583   3.787   4.165   2.407
 6562SOL     OW20584   6.007   4.659   6.543
 6562SOL    HW120585   6.071   4.697   6.610
 6562SOL    HW220586   5.918   4.648   6.586
 6563SOL     OW20587   0.844   6.349   0.140
 6563SOL    HW120588   0.880   6.389   0.224
 6563SOL    HW220589   0.876   6.401   0.061
 6564SOL     OW20590   0.982   3.840   2.010
 6564SOL    HW120591   1.002   3.767   1.944
 6564SOL    HW220592   1.025   3.925   1.981
 6565SOL     OW20593   6.394   2.289   4.853
 6565SOL    HW120594   6.489   2.294   4.823
 6565SOL    HW220595   6.334   2.294   4.774
 6566SOL     OW20596   3.395   6.804   1.456
 6566SOL    HW120597   3.404   6.760   1.545
 6566SOL    HW220598   3.486   6.832   1.423
 6567SOL     OW20599   4.346   2.441   1.368
 6567SOL    HW120600   4.300   2.514   1.418
 6567SOL    HW220601   4.292   2.357   1.375
 6568SOL     OW20602   4.814   5.259   2.064
 6568SOL    HW120603   4.854   5.180   2.017
 6568SOL    HW220604   4.746   5.302   2.006
 6569SOL     OW20605   3.073   4.786   1.130
 6569SOL    HW120606   3.145   4.772   1.062
 6569SOL    HW220607   3.055   4.700   1.178
 6570SOL     OW20608   5.131   6.886   1.402
 6570SOL    HW120609   5.147   6.892   1.500
 6570SOL    HW220610   5.212   6.914   1.352
 6571SOL     OW20611   1.832   6.563   2.500
 6571SOL    HW120612   1.831   6.653   2.455
 6571SOL    HW220613   1.895   6.567   2.578
 6572SOL     OW20614   6.116   5.038   4.739
 6572SOL    HW120615   6.198   5.067   4.689
 6572SOL    HW220616   6.140   5.012   4.832
 6573SOL     OW20617   3.295   1.168   3.177
 6573SOL    HW120618   3.256   1.259   3.180
 6573SOL    HW220619   3.283   1.130   3.085
 6574SOL     OW20620   2.769   6.007   1.901
 6574SOL    HW120621   2.757   5.908   1.896
 6574SOL    HW220622   2.730   6.050   1.820
 6575SOL     OW20623   0.769   1.479   1.770
 6575SOL    HW120624   0.707   1.453   1.844
 6575SOL    HW220625   0.861   1.493   1.807
 6576SOL     OW20626   1.583   6.032   6.304
 6576SOL    HW120627   1.616   5.937   6.307
 6576SOL    HW220628   1.655   6.093   6.337
 6577SOL     OW20629   0.210   0.992   3.491
 6577SOL    HW120630   0.207   1.092   3.483
 6577SOL    HW220631   0.305   0.961   3.487
 6578SOL     OW20632   6.997   5.150   2.960
 6578SOL    HW120633   6.898   5.160   2.945
 6578SOL    HW220634   7.015   5.067   3.013
 6579SOL     OW20635   0.082   4.177   4.784
 6579SOL    HW120636   0.094   4.256   4.724
 6579SOL    HW220637   7.010   4.159   4.796
 6580SOL     OW20638   5.822   1.389   1.530
 6580SOL    HW120639   5.725   1.381   1.551
 6580SOL    HW220640   5.853   1.482   1.550
 6581SOL     OW20641   3.732   0.944   5.968
 6581SOL    HW120642   3.697   0.928   6.060
 6581SOL    HW220643   3.756   0.856   5.926
 6582SOL     OW20644   1.446   0.104   1.975
 6582SOL    HW120645   1.478   0.009   1.973
 6582SOL    HW220646   1.467   0.145   2.064
 6583SOL     OW20647   4.292   1.250   6.154
 6583SOL    HW120648   4.368   1.314   6.167
 6583SOL    HW220649   4.248   1.268   6.066
 6584SOL     OW20650   5.244   1.190   0.233
 6584SOL    HW120651   5.336   1.209   0.266
 6584SOL    HW220652   5.242   1.191   0.133
 6585SOL     OW20653   6.838   1.129   0.859
 6585SOL    HW120654   6.744   1.133   0.891
 6585SOL    HW220655   6.861   1.035   0.835
 6586SOL     OW20656   6.217   2.129   5.775
 6586SOL    HW120657   6.140   2.163   5.830
 6586SOL    HW220658   6.209   2.030   5.765
 6587SOL     OW20659   2.941   5.772   4.397
 6587SOL    HW120660   3.016   5.720   4.356
 6587SOL    HW220661   2.900   5.720   4.472
 6588SOL     OW20662   1.767   3.925   1.455
 6588SOL    HW120663   1.821   4.009   1.449
 6588SOL    HW220664   1.741   3.910   1.551
 6589SOL     OW20665   4.508   0.634   6.695
 6589SOL    HW120666   4.603   0.608   6.712
 6589SOL    HW220667   4.459   0.643   6.781
 6590SOL     OW20668   0.661   1.868   5.692
 6590SOL    HW120669   0.729   1.881   5.765
 6590SOL    HW220670   0.661   1.949   5.633
 6591SOL     OW20671   5.706   5.913   2.219
 6591SOL    HW120672   5.652   5.976   2.275
 6591SOL    HW220673   5.697   5.939   2.122
 6592SOL     OW20674   5.008   6.857   3.695
 6592SOL    HW120675   5.051   6.818   3.776
 6592SOL    HW220676   4.909   6.856   3.706
 6593SOL     OW20677   2.094   2.558   3.351
 6593SOL    HW120678   2.011   2.516   3.313
 6593SOL    HW220679   2.149   2.487   3.395
 6594SOL     OW20680   4.128   1.228   0.257
 6594SOL    HW120681   4.081   1.171   0.189
 6594SOL    HW220682   4.177   1.302   0.210
 6595SOL     OW20683   0.515   4.069   1.552
 6595SOL    HW120684   0.565   4.075   1.638
 6595SOL    HW220685   0.420   4.044   1.570
 6596SOL     OW20686   3.851   6.994   5.249
 6596SOL    HW120687   3.946   6.972   5.223
 6596SOL    HW220688   3.830   0.061   5.222
 6597SOL     OW20689   1.128   6.604   3.632
 6597SOL    HW120690   1.070   6.656   3.569
 6597SOL    HW220691   1.172   6.529   3.583
 6598SOL     OW20692   1.932   6.161   5.504
 6598SOL    HW120693   1.921   6.072   5.548
 6598SOL    HW220694   2.005   6.212   5.551
 6599SOL     OW20695   4.025   5.417   5.507
 6599SOL    HW120696   4.068   5.507   5.504
 6599SOL    HW220697   4.093   5.346   5.489
 6600SOL     OW20698   4.986   5.116   4.900
 6600SOL    HW120699   5.083   5.092   4.904
 6600SOL    HW220700   4.942   5.092   4.986
 6601SOL     OW20701   1.030   0.478   0.690
 6601SOL    HW120702   1.069   0.566   0.663
 6601SOL    HW220703   1.071   0.449   0.777
 6602SOL     OW20704   6.879   1.734   1.352
 6602SOL    HW120705   6.846   1.796   1.282
 6602SOL    HW220706   6.928   1.658   1.309
 6603SOL     OW20707   1.610   2.775   4.294
 6603SOL    HW120708   1.606   2.872   4.270
 6603SOL    HW220709   1.665   2.763   4.376
 6604SOL     OW20710   2.715   6.258   1.484
 6604SOL    HW120711   2.677   6.300   1.401
 6604SOL    HW220712   2.801   6.303   1.508
 6605SOL     OW20713   4.774   4.870   0.819
 6605SOL    HW120714   4.724   4.880   0.733
 6605SOL    HW220715   4.862   4.917   0.813
 6606SOL     OW20716   4.914   6.598   1.946
 6606SOL    HW120717   4.872   6.520   1.993
 6606SOL    HW220718   5.005   6.573   1.913
 6607SOL     OW20719   1.908   1.299   1.895
 6607SOL    HW120720   1.882   1.349   1.812
 6607SOL    HW220721   1.831   1.243   1.925
 6608SOL     OW20722   5.167   4.472   2.370
 6608SOL    HW120723   5.217   4.531   2.308
 6608SOL    HW220724   5.068   4.485   2.356
 6609SOL     OW20725   4.906   1.098   6.389
 6609SOL    HW120726   4.976   1.039   6.431
 6609SOL    HW220727   4.833   1.041   6.351
 6610SOL     OW20728   2.120   0.023   6.812
 6610SOL    HW120729   2.214   0.040   6.840
 6610SOL    HW220730   2.106   6.950   6.800
 6611SOL     OW20731   6.901   2.165   2.779
 6611SOL    HW120732   6.989   2.127   2.751
 6611SOL    HW220733   6.886   2.252   2.733
 6612SOL     OW20734   0.757   4.081   6.940
 6612SOL    HW120735   0.706   4.165   6.961
 6612SOL    HW220736   0.767   4.073   6.841
 6613SOL     OW20737   6.201   5.814   3.406
 6613SOL    HW120738   6.116   5.772   3.438
 6613SOL    HW220739   6.234   5.878   3.476
 6614SOL     OW20740   4.842   6.716   6.685
 6614SOL    HW120741   4.782   6.641   6.715
 6614SOL    HW220742   4.786   6.793   6.656
 6615SOL     OW20743   1.288   3.403   4.689
 6615SOL    HW120744   1.281   3.502   4.700
 6615SOL    HW220745   1.307   3.361   4.778
 6616SOL     OW20746   4.496   1.285   5.727
 6616SOL    HW120747   4.423   1.336   5.682
 6616SOL    HW220748   4.479   1.187   5.718
 6617SOL     OW20749   3.701   6.395   3.442
 6617SOL    HW120750   3.654   6.357   3.522
 6617SOL    HW220751   3.734   6.487   3.463
 6618SOL     OW20752   1.213   3.102   2.492
 6618SOL    HW120753   1.270   3.120   2.412
 6618SOL    HW220754   1.227   3.174   2.559
 6619SOL     OW20755   5.686   6.693   4.430
 6619SOL    HW120756   5.650   6.709   4.522
 6619SOL    HW220757   5.625   6.732   4.362
 6620SOL     OW20758   1.797   2.976   5.555
 6620SOL    HW120759   1.869   2.952   5.620
 6620SOL    HW220760   1.837   3.019   5.474
 6621SOL     OW20761   3.337   3.822   0.526
 6621SOL    HW120762   3.388   3.769   0.459
 6621SOL    HW220763   3.383   3.910   0.540
 6622SOL     OW20764   6.485   5.735   1.486
 6622SOL    HW120765   6.508   5.678   1.407
 6622SOL    HW220766   6.387   5.735   1.501
 6623SOL     OW20767   3.375   3.159   1.797
 6623SOL    HW120768   3.315   3.089   1.759
 6623SOL    HW220769   3.412   3.215   1.722
 6624SOL     OW20770   2.665   6.933   4.063
 6624SOL    HW120771   2.664   6.884   4.151
 6624SOL    HW220772   2.754   6.975   4.049
 6625SOL     OW20773   5.527   2.046   6.176
 6625SOL    HW120774   5.610   2.095   6.149
 6625SOL    HW220775   5.483   2.094   6.252
 6626SOL     OW20776   3.463   4.895   3.100
 6626SOL    HW120777   3.561   4.884   3.088
 6626SOL    HW220778   3.430   4.833   3.171
 6627SOL     OW20779   2.024   0.856   5.768
 6627SOL    HW120780   2.032   0.930   5.701
 6627SOL    HW220781   2.032   0.893   5.860
 6628SOL     OW20782   4.931   5.339   3.419
 6628SOL    HW120783   4.981   5.252   3.422
 6628SOL    HW220784   4.989   5.412   3.454
 6629SOL     OW20785   3.345   6.432   0.799
 6629SOL    HW120786   3.339   6.531   0.791
 6629SOL    HW220787   3.263   6.390   0.759
 6630SOL     OW20788   3.743   2.030   0.765
 6630SOL    HW120789   3.834   2.067   0.746
 6630SOL    HW220790   3.738   1.936   0.731
 6631SOL     OW20791   4.642   0.113   2.331
 6631SOL    HW120792   4.629   0.017   2.304
 6631SOL    HW220793   4.627   0.122   2.429
 6632SOL     OW20794   6.611   1.196   1.802
 6632SOL    HW120795   6.653   1.134   1.868
 6632SOL    HW220796   6.672   1.273   1.783
 6633SOL     OW20797   1.507   5.655   5.802
 6633SOL    HW120798   1.577   5.603   5.850
 6633SOL    HW220799   1.510   5.750   5.833
 6634SOL     OW20800   5.662   3.288   5.727
 6634SOL    HW120801   5.711   3.201   5.716
 6634SOL    HW220802   5.722   3.355   5.771
 6635SOL     OW20803   4.521   5.101   3.146
 6635SOL    HW120804   4.489   5.013   3.182
 6635SOL    HW220805   4.555   5.158   3.220
 6636SOL     OW20806   2.103   2.822   5.727
 6636SOL    HW120807   2.068   2.912   5.755
 6636SOL    HW220808   2.146   2.778   5.806
 6637SOL     OW20809   1.252   0.708   0.082
 6637SOL    HW120810   1.309   0.782   0.045
 6637SOL    HW220811   1.170   0.697   0.024
 6638SOL     OW20812   4.151   4.790   5.161
 6638SOL    HW120813   4.211   4.868   5.182
 6638SOL    HW220814   4.164   4.719   5.230
 6639SOL     OW20815   5.723   6.200   6.091
 6639SOL    HW120816   5.694   6.158   6.005
 6639SOL    HW220817   5.658   6.176   6.163
 6640SOL     OW20818   6.929   1.994   5.038
 6640SOL    HW120819   0.002   1.988   5.042
 6640SOL    HW220820   6.901   2.090   5.029
 6641SOL     OW20821   2.518   3.334   6.417
 6641SOL    HW120822   2.469   3.355   6.502
 6641SOL    HW220823   2.453   3.309   6.345
 6642SOL     OW20824   3.051   5.013   0.465
 6642SOL    HW120825   3.034   5.003   0.367
 6642SOL    HW220826   2.977   5.066   0.506
 6643SOL     OW20827   6.866   4.719   7.004
 6643SOL    HW120828   6.862   4.643   6.940
 6643SOL    HW220829   6.944   4.777   6.982
 6644SOL     OW20830   3.073   4.811   2.082
 6644SOL    HW120831   3.051   4.729   2.030
 6644SOL    HW220832   3.059   4.795   2.179
 6645SOL     OW20833   6.395   5.139   0.608
 6645SOL    HW120834   6.450   5.184   0.538
 6645SOL    HW220835   6.454   5.086   0.668
 6646SOL     OW20836   4.495   5.854   4.144
 6646SOL    HW120837   4.591   5.863   4.117
 6646SOL    HW220838   4.487   5.867   4.243
 6647SOL     OW20839   3.441   1.310   2.705
 6647SOL    HW120840   3.426   1.315   2.804
 6647SOL    HW220841   3.413   1.396   2.663
 6648SOL     OW20842   3.827   6.429   2.135
 6648SOL    HW120843   3.868   6.477   2.057
 6648SOL    HW220844   3.765   6.490   2.184
 6649SOL     OW20845   5.331   1.584   6.621
 6649SOL    HW120846   5.375   1.673   6.635
 6649SOL    HW220847   5.241   1.584   6.665
 6650SOL     OW20848   3.992   1.522   3.856
 6650SOL    HW120849   4.052   1.488   3.928
 6650SOL    HW220850   3.926   1.451   3.830
 6651SOL     OW20851   1.609   1.828   7.003
 6651SOL    HW120852   1.518   1.869   6.996
 6651SOL    HW220853   1.637   1.826   0.073
 6652SOL     OW20854   6.425   4.405   0.168
 6652SOL    HW120855   6.516   4.442   0.150
 6652SOL    HW220856   6.382   4.456   0.242
 6653SOL     OW20857   4.062   3.221   2.899
 6653SOL    HW120858   4.036   3.185   2.989
 6653SOL    HW220859   4.053   3.149   2.831
 6654SOL     OW20860   2.084   2.702   1.084
 6654SOL    HW120861   2.149   2.763   1.128
 6654SOL    HW220862   2.078   2.724   0.987
 6655SOL     OW20863   2.730   6.899   1.871
 6655SOL    HW120864   2.682   6.940   1.794
 6655SOL    HW220865   2.675   6.909   1.954
 6656SOL     OW20866   6.356   1.552   3.014
 6656SOL    HW120867   6.339   1.544   3.112
 6656SOL    HW220868   6.454   1.566   2.999
 6657SOL     OW20869   4.448   6.750   6.507
 6657SOL    HW120870   4.526   6.725   6.565
 6657SOL    HW220871   4.481   6.803   6.429
 6658SOL     OW20872   6.186   1.704   5.198
 6658SOL    HW120873   6.161   1.705   5.295
 6658SOL    HW220874   6.106   1.681   5.144
 6659SOL     OW20875   2.528   2.196   6.891
 6659SOL    HW120876   2.575   2.257   6.955
 6659SOL    HW220877   2.557   2.217   6.798
 6660SOL     OW20878   6.975   6.216   1.395
 6660SOL    HW120879   0.003   6.226   1.479
 6660SOL    HW220880   6.955   6.306   1.357
 6661SOL     OW20881   0.445   4.907   4.116
 6661SOL    HW120882   0.489   4.990   4.150
 6661SOL    HW220883   0.461   4.832   4.180
 6662SOL     OW20884   1.618   0.691   0.098
 6662SOL    HW120885   1.610   0.650   0.007
 6662SOL    HW220886   1.558   0.771   0.104
 6663SOL     OW20887   0.311   5.794   3.257
 6663SOL    HW120888   0.317   5.757   3.349
 6663SOL    HW220889   0.263   5.729   3.198
 6664SOL     OW20890   1.386   0.093   1.516
 6664SOL    HW120891   1.406   0.114   1.420
 6664SOL    HW220892   1.313   0.026   1.521
 6665SOL     OW20893   1.747   0.632   3.365
 6665SOL    HW120894   1.792   0.678   3.289
 6665SOL    HW220895   1.730   0.537   3.341
 6666SOL     OW20896   5.964   2.087   5.504
 6666SOL    HW120897   6.026   2.052   5.575
 6666SOL    HW220898   5.870   2.079   5.535
 6667SOL     OW20899   6.514   5.103   4.572
 6667SOL    HW120900   6.572   5.163   4.627
 6667SOL    HW220901   6.497   5.018   4.621
 6668SOL     OW20902   6.625   5.944   2.319
 6668SOL    HW120903   6.594   5.962   2.226
 6668SOL    HW220904   6.660   5.851   2.325
 6669SOL     OW20905   2.121   3.330   3.917
 6669SOL    HW120906   2.182   3.384   3.859
 6669SOL    HW220907   2.107   3.379   4.004
 6670SOL     OW20908   3.385   3.907   6.672
 6670SOL    HW120909   3.463   3.848   6.652
 6670SOL    HW220910   3.330   3.918   6.589
 6671SOL     OW20911   5.891   5.268   0.823
 6671SOL    HW120912   5.939   5.215   0.753
 6671SOL    HW220913   5.912   5.366   0.810
 6672SOL     OW20914   0.792   1.138   5.114
 6672SOL    HW120915   0.830   1.222   5.150
 6672SOL    HW220916   0.698   1.154   5.083
 6673SOL     OW20917   4.964   5.547   2.864
 6673SOL    HW120918   4.905   5.628   2.860
 6673SOL    HW220919   4.988   5.528   2.959
 6674SOL     OW20920   0.811   5.414   5.991
 6674SOL    HW120921   0.732   5.466   5.958
 6674SOL    HW220922   0.781   5.325   6.024
 6675SOL     OW20923   4.936   4.053   1.550
 6675SOL    HW120924   4.865   4.030   1.483
 6675SOL    HW220925   4.925   4.148   1.579
 6676SOL     OW20926   0.794   3.772   5.649
 6676SOL    HW120927   0.741   3.687   5.653
 6676SOL    HW220928   0.891   3.750   5.651
 6677SOL     OW20929   6.971   3.176   0.139
 6677SOL    HW120930   0.006   3.253   0.123
 6677SOL    HW220931   6.881   3.210   0.168
 6678SOL     OW20932   1.418   2.414   6.913
 6678SOL    HW120933   1.362   2.348   6.863
 6678SOL    HW220934   1.446   2.487   6.850
 6679SOL     OW20935   1.650   1.564   4.771
 6679SOL    HW120936   1.586   1.513   4.714
 6679SOL    HW220937   1.673   1.510   4.852
 6680SOL     OW20938   4.119   5.936   5.973
 6680SOL    HW120939   4.206   5.947   5.925
 6680SOL    HW220940   4.053   5.890   5.914
 6681SOL     OW20941   4.745   5.492   0.067
 6681SOL    HW120942   4.648   5.514   0.077
 6681SOL    HW220943   4.791   5.566   0.017
 6682SOL     OW20944   0.936   4.403   2.269
 6682SOL    HW120945   1.008   4.441   2.328
 6682SOL    HW220946   0.872   4.351   2.324
 6683SOL     OW20947   5.056   2.051   5.621
 6683SOL    HW120948   4.960   2.075   5.612
 6683SOL    HW220949   5.108   2.091   5.545
 6684SOL     OW20950   1.627   6.578   1.275
 6684SOL    HW120951   1.549   6.525   1.308
 6684SOL    HW220952   1.613   6.601   1.179
 6685SOL     OW20953   5.612   1.786   6.195
 6685SOL    HW120954   5.697   1.758   6.150
 6685SOL    HW220955   5.592   1.881   6.174
 6686SOL     OW20956   6.009   4.696   3.678
 6686SOL    HW120957   6.049   4.618   3.726
 6686SOL    HW220958   6.054   4.707   3.590
 6687SOL     OW20959   0.707   1.731   1.124
 6687SOL    HW120960   0.722   1.635   1.101
 6687SOL    HW220961   0.614   1.757   1.098
 6688SOL     OW20962   0.287   4.177   2.047
 6688SOL    HW120963   0.286   4.203   1.951
 6688SOL    HW220964   0.205   4.210   2.092
 6689SOL     OW20965   4.077   2.592   0.636
 6689SOL    HW120966   4.158   2.579   0.579
 6689SOL    HW220967   4.092   2.551   0.726
 6690SOL     OW20968   2.642   0.873   1.692
 6690SOL    HW120969   2.683   0.931   1.763
 6690SOL    HW220970   2.557   0.834   1.727
 6691SOL     OW20971   3.398   5.682   0.820
 6691SOL    HW120972   3.439   5.594   0.798
 6691SOL    HW220973   3.340   5.673   0.901
 6692SOL     OW20974   2.679   4.811   5.225
 6692SOL    HW120975   2.705   4.741   5.291
 6692SOL    HW220976   2.721   4.792   5.137
 6693SOL     OW20977   5.201   3.546   6.434
 6693SOL    HW120978   5.282   3.524   6.489
 6693SOL    HW220979   5.222   3.534   6.337
 6694SOL     OW20980   4.479   5.592   0.029
 6694SOL    HW120981   4.438   5.599   6.964
 6694SOL    HW220982   4.428   5.525   0.083
 6695SOL     OW20983   0.815   1.785   6.791
 6695SOL    HW120984   0.835   1.850   6.718
 6695SOL    HW220985   0.881   1.797   6.865
 6696SOL     OW20986   1.872   2.656   0.863
 6696SOL    HW120987   1.930   2.588   0.818
 6696SOL    HW220988   1.821   2.611   0.937
 6697SOL     OW20989   4.538   2.456   3.139
 6697SOL    HW120990   4.537   2.535   3.078
 6697SOL    HW220991   4.515   2.486   3.232
 6698SOL     OW20992   3.554   2.436   0.349
 6698SOL    HW120993   3.618   2.442   0.426
 6698SOL    HW220994   3.600   2.463   0.265
 6699SOL     OW20995   3.668   4.352   6.697
 6699SOL    HW120996   3.577   4.388   6.677
 6699SOL    HW220997   3.659   4.264   6.744
 6700SOL     OW20998   0.772   5.796   0.579
 6700SOL    HW120999   0.845   5.728   0.584
 6700SOL    HW221000   0.691   5.754   0.537
 6701SOL     OW21001   5.951   2.986   1.415
 6701SOL    HW121002   5.869   2.946   1.456
 6701SOL    HW221003   6.010   3.023   1.487
 6702SOL     OW21004   2.865   2.243   6.785
 6702SOL    HW121005   2.795   2.245   6.713
 6702SOL    HW221006   2.956   2.245   6.742
 6703SOL     OW21007   6.032   1.978   6.912
 6703SOL    HW121008   5.985   1.967   6.825
 6703SOL    HW221009   6.112   1.917   6.915
 6704SOL     OW21010   4.173   2.289   2.764
 6704SOL    HW121011   4.158   2.249   2.854
 6704SOL    HW221012   4.110   2.247   2.698
 6705SOL     OW21013   0.052   1.942   1.843
 6705SOL    HW121014   0.121   2.007   1.876
 6705SOL    HW221015   0.066   1.854   1.887
 6706SOL     OW21016   1.485   4.464   0.635
 6706SOL    HW121017   1.490   4.549   0.582
 6706SOL    HW221018   1.541   4.394   0.591
 6707SOL     OW21019   6.221   6.023   5.002
 6707SOL    HW121020   6.271   5.966   4.937
 6707SOL    HW221021   6.251   6.002   5.095
 6708SOL     OW21022   1.565   5.813   2.369
 6708SOL    HW121023   1.620   5.887   2.331
 6708SOL    HW221024   1.622   5.732   2.382
 6709SOL     OW21025   3.567   6.137   1.158
 6709SOL    HW121026   3.480   6.094   1.134
 6709SOL    HW221027   3.601   6.190   1.080
 6710SOL     OW21028   2.283   2.014   5.726
 6710SOL    HW121029   2.379   2.040   5.715
 6710SOL    HW221030   2.272   1.917   5.704
 6711SOL     OW21031   5.894   4.255   6.707
 6711SOL    HW121032   5.874   4.259   6.609
 6711SOL    HW221033   5.970   4.193   6.723
 6712SOL     OW21034   4.274   5.357   0.441
 6712SOL    HW121035   4.256   5.449   0.477
 6712SOL    HW221036   4.340   5.311   0.499
 6713SOL     OW21037   2.577   1.486   1.659
 6713SOL    HW121038   2.579   1.557   1.729
 6713SOL    HW221039   2.577   1.529   1.568
 6714SOL     OW21040   5.468   0.008   5.315
 6714SOL    HW121041   5.509   7.012   5.226
 6714SOL    HW221042   5.397   0.077   5.304
 6715SOL     OW21043   0.008   0.767   0.040
 6715SOL    HW121044   6.941   0.731   0.030
 6715SOL    HW221045   0.005   0.851   0.094
 6716SOL     OW21046   1.378   6.432   1.269
 6716SOL    HW121047   1.427   6.345   1.274
 6716SOL    HW221048   1.332   6.440   1.180
 6717SOL     OW21049   4.236   3.093   0.535
 6717SOL    HW121050   4.203   3.070   0.444
 6717SOL    HW221051   4.335   3.104   0.533
 6718SOL     OW21052   4.025   6.099   6.477
 6718SOL    HW121053   3.930   6.069   6.464
 6718SOL    HW221054   4.085   6.050   6.414
 6719SOL     OW21055   0.305   0.082   5.895
 6719SOL    HW121056   0.351   0.128   5.819
 6719SOL    HW221057   0.218   0.044   5.864
 6720SOL     OW21058   2.642   6.051   1.677
 6720SOL    HW121059   2.687   6.094   1.598
 6720SOL    HW221060   2.547   6.032   1.654
 6721SOL     OW21061   5.346   6.618   4.464
 6721SOL    HW121062   5.379   6.542   4.409
 6721SOL    HW221063   5.344   6.702   4.409
 6722SOL     OW21064   4.911   3.505   0.924
 6722SOL    HW121065   4.996   3.543   0.961
 6722SOL    HW221066   4.915   3.505   0.824
 6723SOL     OW21067   1.997   0.003   2.941
 6723SOL    HW121068   2.046   0.074   2.991
 6723SOL    HW221069   2.045   7.008   2.856
 6724SOL     OW21070   1.802   4.652   5.965
 6724SOL    HW121071   1.772   4.745   5.982
 6724SOL    HW221072   1.867   4.651   5.889
 6725SOL     OW21073   1.109   4.520   2.470
 6725SOL    HW121074   1.141   4.615   2.463
 6725SOL    HW221075   1.068   4.505   2.560
 6726SOL     OW21076   1.619   2.301   4.822
 6726SOL    HW121077   1.617   2.385   4.877
 6726SOL    HW221078   1.527   2.260   4.821
 6727SOL     OW21079   5.763   3.679   6.241
 6727SOL    HW121080   5.780   3.588   6.203
 6727SOL    HW221081   5.699   3.671   6.318
 6728SOL     OW21082   4.109   1.490   4.477
 6728SOL    HW121083   4.079   1.585   4.469
 6728SOL    HW221084   4.189   1.475   4.419
 6729SOL     OW21085   6.448   1.204   2.435
 6729SOL    HW121086   6.371   1.232   2.378
 6729SOL    HW221087   6.429   1.115   2.476
 6730SOL     OW21088   2.385   6.924   6.906
 6730SOL    HW121089   2.467   6.965   6.867
 6730SOL    HW221090   2.368   6.963   6.997
 6731SOL     OW21091   3.135   4.565   1.289
 6731SOL    HW121092   3.074   4.605   1.358
 6731SOL    HW221093   3.151   4.469   1.311
 6732SOL     OW21094   2.774   5.626   0.185
 6732SOL    HW121095   2.679   5.630   0.152
 6732SOL    HW221096   2.835   5.664   0.116
 6733SOL     OW21097   4.719   5.387   6.269
 6733SOL    HW121098   4.772   5.459   6.314
 6733SOL    HW221099   4.641   5.361   6.326
 6734SOL     OW21100   0.969   3.390   5.890
 6734SOL    HW121101   0.985   3.466   5.953
 6734SOL    HW221102   1.034   3.394   5.814
 6735SOL     OW21103   0.230   5.291   5.156
 6735SOL    HW121104   0.323   5.299   5.192
 6735SOL    HW221105   0.218   5.201   5.114
 6736SOL     OW21106   2.335   3.632   0.601
 6736SOL    HW121107   2.414   3.648   0.659
 6736SOL    HW221108   2.362   3.579   0.521
 6737SOL     OW21109   2.286   1.249   1.552
 6737SOL    HW121110   2.350   1.247   1.629
 6737SOL    HW221111   2.334   1.276   1.469
 6738SOL     OW21112   2.314   2.191   2.407
 6738SOL    HW121113   2.338   2.213   2.312
 6738SOL    HW221114   2.224   2.228   2.428
 6739SOL     OW21115   3.181   5.373   5.324
 6739SOL    HW121116   3.146   5.300   5.264
 6739SOL    HW221117   3.218   5.332   5.407
 6740SOL     OW21118   1.899   1.212   4.148
 6740SOL    HW121119   1.945   1.125   4.126
 6740SOL    HW221120   1.867   1.209   4.242
 6741SOL     OW21121   5.187   1.586   6.100
 6741SOL    HW121122   5.247   1.560   6.176
 6741SOL    HW221123   5.093   1.559   6.121
 6742SOL     OW21124   0.171   5.900   4.884
 6742SOL    HW121125   0.102   5.909   4.811
 6742SOL    HW221126   0.261   5.890   4.843
 6743SOL     OW21127   4.250   3.427   6.611
 6743SOL    HW121128   4.343   3.402   6.638
 6743SOL    HW221129   4.234   3.398   6.516
 6744SOL     OW21130   3.781   5.001   5.922
 6744SOL    HW121131   3.752   5.085   5.968
 6744SOL    HW221132   3.716   4.928   5.941
 6745SOL     OW21133   1.054   5.129   2.892
 6745SOL    HW121134   1.118   5.204   2.909
 6745SOL    HW221135   1.015   5.139   2.800
 6746SOL     OW21136   0.669   1.240   1.651
 6746SOL    HW121137   0.751   1.230   1.707
 6746SOL    HW221138   0.646   1.337   1.643
 6747SOL     OW21139   5.430   6.415   4.315
 6747SOL    HW121140   5.453   6.421   4.218
 6747SOL    HW221141   5.482   6.340   4.357
 6748SOL     OW21142   1.002   1.011   2.242
 6748SOL    HW121143   1.066   0.952   2.193
 6748SOL    HW221144   1.033   1.106   2.238
 6749SOL     OW21145   3.454   0.460   0.077
 6749SOL    HW121146   3.550   0.462   0.048
 6749SOL    HW221147   3.436   0.540   0.135
 6750SOL     OW21148   2.761   2.001   4.208
 6750SOL    HW121149   2.853   1.964   4.218
 6750SOL    HW221150   2.764   2.081   4.149
 6751SOL     OW21151   2.641   2.167   3.650
 6751SOL    HW121152   2.730   2.143   3.688
 6751SOL    HW221153   2.574   2.175   3.724
 6752SOL     OW21154   6.117   2.860   1.199
 6752SOL    HW121155   6.056   2.895   1.270
 6752SOL    HW221156   6.106   2.761   1.191
 6753SOL     OW21157   4.165   1.611   6.206
 6753SOL    HW121158   4.119   1.534   6.161
 6753SOL    HW221159   4.106   1.691   6.203
 6754SOL     OW21160   6.245   2.054   6.219
 6754SOL    HW121161   6.317   2.079   6.153
 6754SOL    HW221162   6.262   2.100   6.306
 6755SOL     OW21163   5.532   1.890   3.034
 6755SOL    HW121164   5.465   1.925   3.100
 6755SOL    HW221165   5.488   1.880   2.945
 6756SOL     OW21166   4.739   4.341   4.336
 6756SOL    HW121167   4.832   4.346   4.302
 6756SOL    HW221168   4.702   4.434   4.345
 6757SOL     OW21169   4.707   5.934   0.822
 6757SOL    HW121170   4.670   5.997   0.890
 6757SOL    HW221171   4.633   5.899   0.765
 6758SOL     OW21172   5.176   3.654   2.173
 6758SOL    HW121173   5.095   3.595   2.170
 6758SOL    HW221174   5.232   3.639   2.092
 6759SOL     OW21175   1.665   4.707   3.213
 6759SOL    HW121176   1.740   4.717   3.148
 6759SOL    HW221177   1.602   4.783   3.204
 6760SOL     OW21178   0.496   5.034   4.722
 6760SOL    HW121179   0.474   4.937   4.726
 6760SOL    HW221180   0.454   5.081   4.800
 6761SOL     OW21181   5.148   3.004   5.772
 6761SOL    HW121182   5.117   3.063   5.847
 6761SOL    HW221183   5.087   2.925   5.766
 6762SOL     OW21184   6.478   5.270   3.592
 6762SOL    HW121185   6.497   5.244   3.687
 6762SOL    HW221186   6.524   5.356   3.570
 6763SOL     OW21187   5.950   6.056   5.295
 6763SOL    HW121188   6.013   6.104   5.234
 6763SOL    HW221189   5.880   6.119   5.328
 6764SOL     OW21190   2.741   3.955   6.384
 6764SOL    HW121191   2.839   3.940   6.392
 6764SOL    HW221192   2.695   3.867   6.369
 6765SOL     OW21193   6.668   4.630   3.468
 6765SOL    HW121194   6.688   4.648   3.564
 6765SOL    HW221195   6.667   4.716   3.417
 6766SOL     OW21196   1.784   0.776   6.273
 6766SOL    HW121197   1.726   0.759   6.352
 6766SOL    HW221198   1.730   0.767   6.189
 6767SOL     OW21199   6.957   2.541   0.402
 6767SOL    HW121200   6.941   2.466   0.466
 6767SOL    HW221201   6.967   2.627   0.452
 6768SOL     OW21202   0.862   0.183   3.607
 6768SOL    HW121203   0.814   0.225   3.530
 6768SOL    HW221204   0.923   0.111   3.572
 6769SOL     OW21205   2.664   1.969   5.309
 6769SOL    HW121206   2.591   1.967   5.240
 6769SOL    HW221207   2.682   2.063   5.336
 6770SOL     OW21208   0.186   2.639   3.558
 6770SOL    HW121209   0.201   2.644   3.460
 6770SOL    HW221210   0.104   2.584   3.577
 6771SOL     OW21211   3.721   2.054   3.488
 6771SOL    HW121212   3.821   2.051   3.492
 6771SOL    HW221213   3.693   2.091   3.399
 6772SOL     OW21214   6.118   1.412   2.917
 6772SOL    HW121215   6.194   1.470   2.946
 6772SOL    HW221216   6.148   1.352   2.843
 6773SOL     OW21217   0.174   5.883   1.726
 6773SOL    HW121218   0.142   5.895   1.820
 6773SOL    HW221219   0.227   5.963   1.698
 6774SOL     OW21220   1.666   2.082   5.063
 6774SOL    HW121221   1.601   2.068   4.989
 6774SOL    HW221222   1.618   2.080   5.151
 6775SOL     OW21223   0.558   1.722   4.615
 6775SOL    HW121224   0.591   1.792   4.678
 6775SOL    HW221225   0.515   1.648   4.666
 6776SOL     OW21226   3.966   4.300   1.679
 6776SOL    HW121227   3.870   4.326   1.663
 6776SOL    HW221228   4.021   4.327   1.599
 6777SOL     OW21229   4.561   5.755   1.624
 6777SOL    HW121230   4.515   5.740   1.712
 6777SOL    HW221231   4.659   5.768   1.638
 6778SOL     OW21232   6.525   3.800   2.800
 6778SOL    HW121233   6.472   3.716   2.802
 6778SOL    HW221234   6.464   3.878   2.808
 6779SOL     OW21235   5.966   4.053   6.122
 6779SOL    HW121236   6.039   4.106   6.164
 6779SOL    HW221237   5.970   3.959   6.155
 6780SOL     OW21238   2.797   2.293   3.270
 6780SOL    HW121239   2.868   2.317   3.336
 6780SOL    HW221240   2.711   2.337   3.296
 6781SOL     OW21241   6.485   1.361   4.036
 6781SOL    HW121242   6.460   1.304   4.114
 6781SOL    HW221243   6.436   1.449   4.042
 6782SOL     OW21244   6.506   2.077   3.674
 6782SOL    HW121245   6.461   1.988   3.664
 6782SOL    HW221246   6.596   2.074   3.632
 6783SOL     OW21247   1.138   5.237   5.052
 6783SOL    HW121248   1.094   5.252   5.141
 6783SOL    HW221249   1.235   5.214   5.066
 6784SOL     OW21250   1.559   3.306   1.481
 6784SOL    HW121251   1.636   3.270   1.535
 6784SOL    HW221252   1.473   3.274   1.521
 6785SOL     OW21253   5.448   4.878   4.468
 6785SOL    HW121254   5.443   4.783   4.437
 6785SOL    HW221255   5.504   4.930   4.404
 6786SOL     OW21256   6.584   2.387   0.787
 6786SOL    HW121257   6.572   2.293   0.753
 6786SOL    HW221258   6.519   2.447   0.741
 6787SOL     OW21259   3.654   2.285   6.941
 6787SOL    HW121260   3.719   2.293   6.866
 6787SOL    HW221261   3.616   2.193   6.942
 6788SOL     OW21262   0.266   3.922   4.066
 6788SOL    HW121263   0.267   3.856   3.991
 6788SOL    HW221264   0.270   4.015   4.029
 6789SOL     OW21265   6.688   3.990   4.121
 6789SOL    HW121266   6.606   4.008   4.068
 6789SOL    HW221267   6.768   3.993   4.061
 6790SOL     OW21268   1.028   5.138   6.175
 6790SOL    HW121269   0.955   5.172   6.116
 6790SOL    HW221270   0.996   5.058   6.226
 6791SOL     OW21271   4.202   0.970   3.867
 6791SOL    HW121272   4.216   1.064   3.836
 6791SOL    HW221273   4.280   0.913   3.840
 6792SOL     OW21274   4.110   0.079   5.466
 6792SOL    HW121275   4.085   7.013   5.498
 6792SOL    HW221276   4.177   0.072   5.393
 6793SOL     OW21277   2.377   3.485   0.364
 6793SOL    HW121278   2.406   3.389   0.375
 6793SOL    HW221279   2.291   3.489   0.314
 6794SOL     OW21280   4.646   1.650   5.845
 6794SOL    HW121281   4.697   1.566   5.825
 6794SOL    HW221282   4.561   1.627   5.893
 6795SOL     OW21283   0.600   0.893   1.249
 6795SOL    HW121284   0.580   0.954   1.326
 6795SOL    HW221285   0.687   0.920   1.207
 6796SOL     OW21286   5.792   1.502   2.690
 6796SOL    HW121287   5.833   1.447   2.763
 6796SOL    HW221288   5.832   1.593   2.690
 6797SOL     OW21289   0.261   2.114   1.927
 6797SOL    HW121290   0.303   2.150   1.844
 6797SOL    HW221291   0.249   2.188   1.994
 6798SOL     OW21292   5.416   0.256   1.964
 6798SOL    HW121293   5.347   0.327   1.951
 6798SOL    HW221294   5.372   0.172   1.996
 6799SOL     OW21295   5.235   0.461   3.363
 6799SOL    HW121296   5.162   0.403   3.401
 6799SOL    HW221297   5.299   0.484   3.436
 6800SOL     OW21298   6.903   1.402   1.402
 6800SOL    HW121299   6.921   1.304   1.404
 6800SOL    HW221300   6.980   1.452   1.443
 6801SOL     OW21301   1.170   5.905   5.267
 6801SOL    HW121302   1.268   5.898   5.252
 6801SOL    HW221303   1.134   5.817   5.297
 6802SOL     OW21304   3.450   5.719   1.261
 6802SOL    HW121305   3.527   5.744   1.204
 6802SOL    HW221306   3.481   5.656   1.333
 6803SOL     OW21307   5.070   4.404   6.275
 6803SOL    HW121308   5.099   4.453   6.193
 6803SOL    HW221309   5.117   4.441   6.355
 6804SOL     OW21310   2.493   4.694   2.816
 6804SOL    HW121311   2.433   4.766   2.781
 6804SOL    HW221312   2.500   4.621   2.749
 6805SOL     OW21313   6.813   4.349   5.665
 6805SOL    HW121314   6.881   4.296   5.614
 6805SOL    HW221315   6.724   4.304   5.658
 6806SOL     OW21316   6.753   1.123   3.201
 6806SOL    HW121317   6.830   1.106   3.263
 6806SOL    HW221318   6.731   1.039   3.152
 6807SOL     OW21319   3.628   3.576   1.852
 6807SOL    HW121320   3.638   3.665   1.896
 6807SOL    HW221321   3.702   3.515   1.881
 6808SOL     OW21322   3.892   1.320   4.404
 6808SOL    HW121323   3.910   1.222   4.406
 6808SOL    HW221324   3.963   1.367   4.458
 6809SOL     OW21325   5.495   3.961   2.328
 6809SOL    HW121326   5.467   3.893   2.261
 6809SOL    HW221327   5.475   3.928   2.420
 6810SOL     OW21328   2.694   1.141   4.080
 6810SOL    HW121329   2.660   1.230   4.108
 6810SOL    HW221330   2.642   1.069   4.127
 6811SOL     OW21331   6.352   1.744   2.092
 6811SOL    HW121332   6.362   1.775   1.998
 6811SOL    HW221333   6.254   1.738   2.115
 6812SOL     OW21334   3.038   4.024   5.008
 6812SOL    HW121335   3.017   4.114   4.972
 6812SOL    HW221336   3.133   4.022   5.038
 6813SOL     OW21337   5.846   3.649   2.154
 6813SOL    HW121338   5.757   3.603   2.157
 6813SOL    HW221339   5.841   3.733   2.209
 6814SOL     OW21340   5.093   1.344   6.387
 6814SOL    HW121341   5.186   1.334   6.353
 6814SOL    HW221342   5.050   1.253   6.393
 6815SOL     OW21343   2.502   4.806   6.635
 6815SOL    HW121344   2.595   4.786   6.603
 6815SOL    HW221345   2.499   4.897   6.676
 6816SOL     OW21346   0.668   1.956   3.827
 6816SOL    HW121347   0.672   1.997   3.918
 6816SOL    HW221348   0.759   1.927   3.799
 6817SOL     OW21349   3.479   2.030   2.129
 6817SOL    HW121350   3.535   2.109   2.102
 6817SOL    HW221351   3.537   1.949   2.133
 6818SOL     OW21352   2.026   6.385   6.153
 6818SOL    HW121353   2.026   6.485   6.160
 6818SOL    HW221354   2.025   6.359   6.056
 6819SOL     OW21355   4.389   4.588   2.355
 6819SOL    HW121356   4.340   4.540   2.282
 6819SOL    HW221357   4.481   4.610   2.324
 6820SOL     OW21358   2.898   6.100   1.232
 6820SOL    HW121359   2.808   6.083   1.272
 6820SOL    HW221360   2.889   6.157   1.150
 6821SOL     OW21361   4.253   2.891   5.372
 6821SOL    HW121362   4.157   2.902   5.347
 6821SOL    HW221363   4.296   2.981   5.380
 6822SOL     OW21364   0.065   2.381   6.498
 6822SOL    HW121365   0.065   2.462   6.557
 6822SOL    HW221366   7.005   2.375   6.448
 6823SOL     OW21367   5.834   3.574   6.989
 6823SOL    HW121368   5.907   3.522   0.006
 6823SOL    HW221369   5.767   3.512   6.950
 6824SOL     OW21370   0.957   2.282   6.563
 6824SOL    HW121371   0.859   2.267   6.575
 6824SOL    HW221372   0.983   2.368   6.606
 6825SOL     OW21373   6.128   5.826   1.969
 6825SOL    HW121374   6.226   5.815   1.984
 6825SOL    HW221375   6.091   5.743   1.927
 6826SOL     OW21376   0.424   3.596   3.608
 6826SOL    HW121377   0.406   3.689   3.576
 6826SOL    HW221378   0.517   3.569   3.583
 6827SOL     OW21379   4.764   6.012   4.885
 6827SOL    HW121380   4.855   6.044   4.912
 6827SOL    HW221381   4.748   5.921   4.923
 6828SOL     OW21382   3.442   1.657   2.697
 6828SOL    HW121383   3.535   1.639   2.666
 6828SOL    HW221384   3.440   1.657   2.797
 6829SOL     OW21385   5.298   6.789   4.682
 6829SOL    HW121386   5.344   6.717   4.629
 6829SOL    HW221387   5.204   6.761   4.702
 6830SOL     OW21388   5.140   0.246   2.947
 6830SOL    HW121389   5.205   0.308   2.992
 6830SOL    HW221390   5.184   0.205   2.867
 6831SOL     OW21391   1.376   1.576   6.695
 6831SOL    HW121392   1.300   1.545   6.638
 6831SOL    HW221393   1.440   1.500   6.708
 6832SOL     OW21394   3.232   2.428   0.283
 6832SOL    HW121395   3.132   2.424   0.288
 6832SOL    HW221396   3.268   2.469   0.366
 6833SOL     OW21397   3.019   5.357   6.096
 6833SOL    HW121398   2.983   5.265   6.111
 6833SOL    HW221399   3.096   5.353   6.032
 6834SOL     OW21400   5.274   0.027   0.799
 6834SOL    HW121401   5.343   0.064   0.860
 6834SOL    HW221402   5.318   7.022   0.714
 6835SOL     OW21403   2.417   2.170   4.615
 6835SOL    HW121404   2.383   2.233   4.685
 6835SOL    HW221405   2.340   2.128   4.567
 6836SOL     OW21406   1.639   4.926   6.565
 6836SOL    HW121407   1.729   4.911   6.607
 6836SOL    HW221408   1.636   4.881   6.476
 6837SOL     OW21409   0.726   0.514   1.939
 6837SOL    HW121410   0.716   0.423   1.979
 6837SOL    HW221411   0.744   0.506   1.841
 6838SOL     OW21412   2.734   4.545   5.332
 6838SOL    HW121413   2.663   4.486   5.292
 6838SOL    HW221414   2.815   4.545   5.274
 6839SOL     OW21415   5.589   2.841   3.986
 6839SOL    HW121416   5.560   2.782   3.910
 6839SOL    HW221417   5.688   2.833   3.999
 6840SOL     OW21418   2.767   6.872   4.866
 6840SOL    HW121419   2.687   6.929   4.849
 6840SOL    HW221420   2.801   6.887   4.959
 6841SOL     OW21421   4.099   5.742   1.594
 6841SOL    HW121422   4.119   5.811   1.663
 6841SOL    HW221423   4.185   5.704   1.559
 6842SOL     OW21424   0.539   4.130   6.685
 6842SOL    HW121425   0.455   4.125   6.630
 6842SOL    HW221426   0.579   4.222   6.676
 6843SOL     OW21427   3.691   1.855   2.186
 6843SOL    HW121428   3.765   1.908   2.227
 6843SOL    HW221429   3.693   1.866   2.086
 6844SOL     OW21430   4.647   5.135   4.281
 6844SOL    HW121431   4.712   5.070   4.241
 6844SOL    HW221432   4.606   5.190   4.209
 6845SOL     OW21433   4.672   4.692   2.127
 6845SOL    HW121434   4.736   4.660   2.057
 6845SOL    HW221435   4.710   4.773   2.171
 6846SOL     OW21436   3.797   2.957   2.578
 6846SOL    HW121437   3.829   2.870   2.540
 6846SOL    HW221438   3.701   2.971   2.552
 6847SOL     OW21439   5.419   3.577   1.887
 6847SOL    HW121440   5.402   3.661   1.836
 6847SOL    HW221441   5.368   3.501   1.846
 6848SOL     OW21442   0.613   5.666   3.976
 6848SOL    HW121443   0.646   5.760   3.985
 6848SOL    HW221444   0.690   5.606   3.952
 6849SOL     OW21445   3.562   5.997   3.839
 6849SOL    HW121446   3.609   6.058   3.776
 6849SOL    HW221447   3.477   6.039   3.870
 6850SOL     OW21448   5.382   2.781   2.996
 6850SOL    HW121449   5.393   2.684   3.018
 6850SOL    HW221450   5.336   2.791   2.908
 6851SOL     OW21451   1.773   5.181   5.736
 6851SOL    HW121452   1.724   5.121   5.673
 6851SOL    HW221453   1.850   5.131   5.777
 6852SOL     OW21454   1.095   4.089   1.959
 6852SOL    HW121455   1.187   4.050   1.961
 6852SOL    HW221456   1.090   4.158   1.887
 6853SOL     OW21457   0.648   4.465   5.730
 6853SOL    HW121458   0.597   4.399   5.675
 6853SOL    HW221459   0.734   4.488   5.684
 6854SOL     OW21460   0.245   2.207   6.158
 6854SOL    HW121461   0.272   2.112   6.148
 6854SOL    HW221462   0.266   2.238   6.251
 6855SOL     OW21463   3.306   6.869   2.596
 6855SOL    HW121464   3.293   6.941   2.528
 6855SOL    HW221465   3.236   6.799   2.584
 6856SOL     OW21466   6.143   3.794   4.816
 6856SOL    HW121467   6.199   3.873   4.789
 6856SOL    HW221468   6.052   3.802   4.776
 6857SOL     OW21469   2.666   2.280   5.871
 6857SOL    HW121470   2.596   2.209   5.863
 6857SOL    HW221471   2.753   2.244   5.838
 6858SOL     OW21472   4.113   3.788   4.680
 6858SOL    HW121473   4.170   3.758   4.604
 6858SOL    HW221474   4.058   3.867   4.652
 6859SOL     OW21475   2.948   6.873   0.906
 6859SOL    HW121476   3.006   6.939   0.953
 6859SOL    HW221477   2.856   6.875   0.946
 6860SOL     OW21478   5.804   4.580   1.043
 6860SOL    HW121479   5.799   4.679   1.049
 6860SOL    HW221480   5.712   4.543   1.029
 6861SOL     OW21481   5.685   5.741   6.825
 6861SOL    HW121482   5.621   5.682   6.875
 6861SOL    HW221483   5.760   5.766   6.886
 6862SOL     OW21484   3.361   5.475   4.683
 6862SOL    HW121485   3.291   5.423   4.731
 6862SOL    HW221486   3.317   5.548   4.631
 6863SOL     OW21487   5.199   1.793   4.096
 6863SOL    HW121488   5.169   1.698   4.089
 6863SOL    HW221489   5.296   1.796   4.117
 6864SOL     OW21490   2.874   6.327   3.557
 6864SOL    HW121491   2.907   6.235   3.536
 6864SOL    HW221492   2.896   6.350   3.651
 6865SOL     OW21493   6.851   4.122   4.726
 6865SOL    HW121494   6.835   4.075   4.813
 6865SOL    HW221495   6.788   4.086   4.657
 6866SOL     OW21496   6.534   3.757   1.961
 6866SOL    HW121497   6.483   3.840   1.981
 6866SOL    HW221498   6.470   3.684   1.937
 6867SOL     OW21499   2.314   4.185   2.107
 6867SOL    HW121500   2.250   4.259   2.087
 6867SOL    HW221501   2.281   4.100   2.064
 6868SOL     OW21502   2.039   6.272   4.629
 6868SOL    HW121503   2.031   6.356   4.683
 6868SOL    HW221504   2.019   6.292   4.533
 6869SOL     OW21505   5.333   1.950   5.744
 6869SOL    HW121506   5.353   1.986   5.835
 6869SOL    HW221507   5.260   1.883   5.750
 6870SOL     OW21508   5.593   3.775   3.344
 6870SOL    HW121509   5.576   3.811   3.252
 6870SOL    HW221510   5.632   3.684   3.338
 6871SOL     OW21511   5.859   4.888   1.077
 6871SOL    HW121512   5.944   4.898   1.026
 6871SOL    HW221513   5.870   4.922   1.170
 6872SOL     OW21514   2.235   3.045   0.557
 6872SOL    HW121515   2.179   2.963   0.554
 6872SOL    HW221516   2.184   3.118   0.603
 6873SOL     OW21517   5.913   2.931   6.053
 6873SOL    HW121518   5.829   2.924   6.107
 6873SOL    HW221519   5.903   2.878   5.969
 6874SOL     OW21520   0.417   2.991   3.976
 6874SOL    HW121521   0.390   3.066   4.035
 6874SOL    HW221522   0.444   3.027   3.886
 6875SOL     OW21523   1.702   1.422   2.803
 6875SOL    HW121524   1.687   1.326   2.779
 6875SOL    HW221525   1.663   1.481   2.733
 6876SOL     OW21526   3.509   5.668   0.112
 6876SOL    HW121527   3.571   5.594   0.137
 6876SOL    HW221528   3.415   5.638   0.127
 6877SOL     OW21529   2.320   3.720   0.178
 6877SOL    HW121530   2.221   3.715   0.179
 6877SOL    HW221531   2.355   3.723   0.271
 6878SOL     OW21532   2.128   1.684   4.824
 6878SOL    HW121533   2.136   1.627   4.906
 6878SOL    HW221534   2.050   1.654   4.769
 6879SOL     OW21535   0.297   2.229   0.004
 6879SOL    HW121536   0.327   2.266   0.092
 6879SOL    HW221537   0.198   2.220   0.003
 6880SOL     OW21538   2.077   4.033   5.128
 6880SOL    HW121539   2.086   4.035   5.227
 6880SOL    HW221540   2.167   4.018   5.087
 6881SOL     OW21541   0.413   4.516   1.490
 6881SOL    HW121542   0.445   4.611   1.500
 6881SOL    HW221543   0.490   4.454   1.496
 6882SOL     OW21544   2.057   1.043   5.584
 6882SOL    HW121545   2.001   1.018   5.505
 6882SOL    HW221546   2.075   1.141   5.583
 6883SOL     OW21547   4.097   0.517   1.340
 6883SOL    HW121548   4.122   0.436   1.288
 6883SOL    HW221549   4.160   0.592   1.320
 6884SOL     OW21550   2.345   4.540   4.874
 6884SOL    HW121551   2.428   4.546   4.930
 6884SOL    HW221552   2.301   4.452   4.889
 6885SOL     OW21553   2.874   6.170   4.212
 6885SOL    HW121554   2.890   6.262   4.177
 6885SOL    HW221555   2.807   6.123   4.154
 6886SOL     OW21556   5.352   1.187   2.416
 6886SOL    HW121557   5.255   1.164   2.415
 6886SOL    HW221558   5.398   1.131   2.485
 6887SOL     OW21559   5.815   0.521   5.171
 6887SOL    HW121560   5.807   0.621   5.172
 6887SOL    HW221561   5.897   0.494   5.220
 6888SOL     OW21562   6.248   0.469   4.787
 6888SOL    HW121563   6.187   0.492   4.863
 6888SOL    HW221564   6.232   0.374   4.759
 6889SOL     OW21565   1.201   3.604   6.489
 6889SOL    HW121566   1.225   3.664   6.565
 6889SOL    HW221567   1.157   3.657   6.417
 6890SOL     OW21568   2.378   6.848   1.088
 6890SOL    HW121569   2.320   6.849   1.006
 6890SOL    HW221570   2.353   6.925   1.146
 6891SOL     OW21571   2.137   3.768   4.220
 6891SOL    HW121572   2.124   3.867   4.227
 6891SOL    HW221573   2.185   3.747   4.135
 6892SOL     OW21574   3.639   0.233   4.155
 6892SOL    HW121575   3.607   0.242   4.061
 6892SOL    HW221576   3.570   0.268   4.218
 6893SOL     OW21577   5.282   5.889   3.512
 6893SOL    HW121578   5.274   5.876   3.413
 6893SOL    HW221579   5.294   5.801   3.556
 6894SOL     OW21580   5.831   5.672   0.382
 6894SOL    HW121581   5.737   5.689   0.356
 6894SOL    HW221582   5.875   5.758   0.409
 6895SOL     OW21583   2.683   3.774   0.205
 6895SOL    HW121584   2.621   3.703   0.171
 6895SOL    HW221585   2.777   3.738   0.206
 6896SOL     OW21586   3.782   0.620   3.384
 6896SOL    HW121587   3.876   0.635   3.414
 6896SOL    HW221588   3.776   0.629   3.284
 6897SOL     OW21589   3.243   3.456   0.380
 6897SOL    HW121590   3.288   3.423   0.298
 6897SOL    HW221591   3.206   3.548   0.364
 6898SOL     OW21592   3.962   1.202   1.829
 6898SOL    HW121593   3.991   1.292   1.794
 6898SOL    HW221594   4.006   1.130   1.775
 6899SOL     OW21595   5.090   6.717   6.165
 6899SOL    HW121596   5.156   6.737   6.237
 6899SOL    HW221597   5.000   6.752   6.192
 6900SOL     OW21598   5.712   0.790   6.113
 6900SOL    HW121599   5.763   0.748   6.038
 6900SOL    HW221600   5.758   0.874   6.142
 6901SOL     OW21601   1.597   0.380   6.413
 6901SOL    HW121602   1.639   0.300   6.455
 6901SOL    HW221603   1.523   0.351   6.352
 6902SOL     OW21604   0.862   6.504   6.925
 6902SOL    HW121605   0.812   6.591   6.929
 6902SOL    HW221606   0.960   6.522   6.930
 6903SOL     OW21607   3.763   4.079   0.400
 6903SOL    HW121608   3.686   4.023   0.430
 6903SOL    HW221609   3.743   4.175   0.417
 6904SOL     OW21610   6.269   0.946   4.200
 6904SOL    HW121611   6.323   0.861   4.206
 6904SOL    HW221612   6.186   0.928   4.147
 6905SOL     OW21613   6.393   6.620   1.257
 6905SOL    HW121614   6.453   6.614   1.178
 6905SOL    HW221615   6.377   6.716   1.280
 6906SOL     OW21616   3.635   0.824   3.496
 6906SOL    HW121617   3.714   0.856   3.549
 6906SOL    HW221618   3.666   0.755   3.430
 6907SOL     OW21619   3.758   0.917   1.920
 6907SOL    HW121620   3.804   0.868   1.847
 6907SOL    HW221621   3.685   0.860   1.958
 6908SOL     OW21622   1.507   6.520   5.441
 6908SOL    HW121623   1.483   6.549   5.534
 6908SOL    HW221624   1.549   6.429   5.444
 6909SOL     OW21625   4.518   4.281   0.519
 6909SOL    HW121626   4.502   4.329   0.605
 6909SOL    HW221627   4.617   4.276   0.502
 6910SOL     OW21628   6.403   1.831   1.834
 6910SOL    HW121629   6.350   1.907   1.797
 6910SOL    HW221630   6.501   1.851   1.826
 6911SOL     OW21631   4.515   0.018   3.836
 6911SOL    HW121632   4.454   0.044   3.911
 6911SOL    HW221633   4.605   7.020   3.873
 6912SOL     OW21634   5.086   4.912   1.074
 6912SOL    HW121635   5.103   4.912   0.976
 6912SOL    HW221636   5.012   4.976   1.096
 6913SOL     OW21637   4.929   4.871   4.460
 6913SOL    HW121638   4.926   4.919   4.547
 6913SOL    HW221639   4.837   4.870   4.419
 6914SOL     OW21640   5.966   4.942   6.661
 6914SOL    HW121641   6.048   4.888   6.678
 6914SOL    HW221642   5.940   4.934   6.564
 6915SOL     OW21643   0.716   4.795   2.606
 6915SOL    HW121644   0.747   4.716   2.659
 6915SOL    HW221645   0.626   4.824   2.639
 6916SOL     OW21646   6.511   4.141   6.896
 6916SOL    HW121647   6.544   4.053   6.862
 6916SOL    HW221648   6.437   4.125   6.961
 6917SOL     OW21649   4.104   6.293   5.971
 6917SOL    HW121650   4.183   6.300   5.910
 6917SOL    HW221651   4.034   6.236   5.929
 6918SOL     OW21652   0.129   3.783   4.245
 6918SOL    HW121653   0.062   3.844   4.289
 6918SOL    HW221654   0.193   3.837   4.191
 6919SOL     OW21655   2.316   6.122   2.469
 6919SOL    HW121656   2.250   6.112   2.544
 6919SOL    HW221657   2.363   6.210   2.478
 6920SOL     OW21658   5.208   5.277   4.250
 6920SOL    HW121659   5.235   5.192   4.205
 6920SOL    HW221660   5.246   5.278   4.343
 6921SOL     OW21661   6.341   6.665   3.546
 6921SOL    HW121662   6.428   6.658   3.593
 6921SOL    HW221663   6.266   6.657   3.612
 6922SOL     OW21664   2.291   6.290   0.210
 6922SOL    HW121665   2.349   6.254   0.284
 6922SOL    HW221666   2.342   6.290   0.124
 6923SOL     OW21667   4.366   0.249   3.667
 6923SOL    HW121668   4.408   0.167   3.705
 6923SOL    HW221669   4.414   0.276   3.583
 6924SOL     OW21670   0.756   4.959   0.488
 6924SOL    HW121671   0.697   4.941   0.566
 6924SOL    HW221672   0.703   4.953   0.404
 6925SOL     OW21673   4.050   6.146   3.452
 6925SOL    HW121674   4.025   6.107   3.540
 6925SOL    HW221675   4.135   6.103   3.420
 6926SOL     OW21676   4.008   3.661   3.660
 6926SOL    HW121677   3.919   3.618   3.673
 6926SOL    HW221678   4.027   3.672   3.563
 6927SOL     OW21679   5.355   3.571   6.825
 6927SOL    HW121680   5.349   3.483   6.873
 6927SOL    HW221681   5.316   3.643   6.882
 6928SOL     OW21682   4.536   0.360   6.472
 6928SOL    HW121683   4.630   0.372   6.505
 6928SOL    HW221684   4.508   0.441   6.422
 6929SOL     OW21685   4.499   6.193   6.772
 6929SOL    HW121686   4.557   6.166   6.696
 6929SOL    HW221687   4.405   6.206   6.739
 6930SOL     OW21688   0.810   6.544   1.982
 6930SOL    HW121689   0.794   6.454   1.942
 6930SOL    HW221690   0.722   6.586   2.007
 6931SOL     OW21691   0.815   6.970   1.563
 6931SOL    HW121692   0.719   6.972   1.536
 6931SOL    HW221693   0.852   0.037   1.563
 6932SOL     OW21694   2.692   0.875   0.060
 6932SOL    HW121695   2.764   0.892   7.018
 6932SOL    HW221696   2.604   0.905   0.024
 6933SOL     OW21697   3.572   5.566   5.231
 6933SOL    HW121698   3.645   5.603   5.288
 6933SOL    HW221699   3.507   5.639   5.208
 6934SOL     OW21700   5.065   2.736   0.014
 6934SOL    HW121701   4.980   2.775   0.048
 6934SOL    HW221702   5.095   2.661   0.073
 6935SOL     OW21703   4.023   6.027   3.685
 6935SOL    HW121704   4.050   5.941   3.729
 6935SOL    HW221705   4.050   6.104   3.743
 6936SOL     OW21706   0.310   2.512   1.792
 6936SOL    HW121707   0.360   2.551   1.715
 6936SOL    HW221708   0.264   2.428   1.762
 6937SOL     OW21709   4.165   6.540   5.654
 6937SOL    HW121710   4.203   6.583   5.572
 6937SOL    HW221711   4.236   6.483   5.697
 6938SOL     OW21712   5.026   3.520   5.887
 6938SOL    HW121713   4.969   3.513   5.969
 6938SOL    HW221714   5.121   3.536   5.914
 6939SOL     OW21715   0.276   4.734   2.071
 6939SOL    HW121716   0.318   4.675   2.141
 6939SOL    HW221717   0.340   4.747   1.996
 6940SOL     OW21718   4.959   0.395   6.115
 6940SOL    HW121719   4.890   0.449   6.068
 6940SOL    HW221720   5.042   0.449   6.126
 6941SOL     OW21721   3.190   3.019   2.485
 6941SOL    HW121722   3.148   3.057   2.402
 6941SOL    HW221723   3.262   2.954   2.460
 6942SOL     OW21724   0.385   2.611   0.678
 6942SOL    HW121725   0.426   2.625   0.588
 6942SOL    HW221726   0.325   2.688   0.700
 6943SOL     OW21727   5.486   6.074   6.236
 6943SOL    HW121728   5.582   6.069   6.265
 6943SOL    HW221729   5.428   6.035   6.308
 6944SOL     OW21730   1.227   5.641   5.756
 6944SOL    HW121731   1.146   5.653   5.813
 6944SOL    HW221732   1.309   5.660   5.810
 6945SOL     OW21733   6.355   2.921   6.024
 6945SOL    HW121734   6.275   2.951   6.077
 6945SOL    HW221735   6.390   2.835   6.063
 6946SOL     OW21736   6.007   4.503   3.061
 6946SOL    HW121737   5.935   4.434   3.073
 6946SOL    HW221738   5.966   4.594   3.055
 6947SOL     OW21739   3.650   6.887   3.107
 6947SOL    HW121740   3.610   6.815   3.164
 6947SOL    HW221741   3.711   6.846   3.039
 6948SOL     OW21742   4.952   0.220   0.445
 6948SOL    HW121743   4.951   0.120   0.449
 6948SOL    HW221744   5.044   0.253   0.465
 6949SOL     OW21745   4.917   6.744   3.243
 6949SOL    HW121746   5.010   6.739   3.205
 6949SOL    HW221747   4.851   6.719   3.173
 6950SOL     OW21748   2.073   0.598   3.402
 6950SOL    HW121749   2.073   0.523   3.336
 6950SOL    HW221750   1.985   0.645   3.400
 6951SOL     OW21751   6.544   6.451   5.681
 6951SOL    HW121752   6.525   6.439   5.583
 6951SOL    HW221753   6.535   6.363   5.727
 6952SOL     OW21754   0.131   5.451   3.586
 6952SOL    HW121755   0.187   5.406   3.516
 6952SOL    HW221756   0.043   5.477   3.547
 6953SOL     OW21757   5.182   0.568   6.200
 6953SOL    HW121758   5.113   0.640   6.200
 6953SOL    HW221759   5.256   0.592   6.137
 6954SOL     OW21760   0.297   2.775   4.343
 6954SOL    HW121761   0.358   2.770   4.264
 6954SOL    HW221762   0.214   2.721   4.325
 6955SOL     OW21763   0.383   6.223   1.448
 6955SOL    HW121764   0.408   6.129   1.424
 6955SOL    HW221765   0.362   6.229   1.545
 6956SOL     OW21766   4.908   5.545   1.979
 6956SOL    HW121767   4.973   5.553   1.903
 6956SOL    HW221768   4.831   5.489   1.951
 6957SOL     OW21769   6.663   4.385   1.844
 6957SOL    HW121770   6.654   4.335   1.757
 6957SOL    HW221771   6.737   4.452   1.836
 6958SOL     OW21772   2.259   2.338   6.091
 6958SOL    HW121773   2.329   2.379   6.033
 6958SOL    HW221774   2.244   2.243   6.063
 6959SOL     OW21775   3.226   1.571   4.652
 6959SOL    HW121776   3.222   1.487   4.706
 6959SOL    HW221777   3.227   1.650   4.714
 6960SOL     OW21778   0.060   5.160   0.337
 6960SOL    HW121779   0.006   5.116   0.409
 6960SOL    HW221780   0.027   5.130   0.247
 6961SOL     OW21781   0.653   1.859   3.428
 6961SOL    HW121782   0.698   1.833   3.513
 6961SOL    HW221783   0.668   1.957   3.411
 6962SOL     OW21784   5.312   5.431   2.782
 6962SOL    HW121785   5.345   5.520   2.752
 6962SOL    HW221786   5.226   5.408   2.735
 6963SOL     OW21787   0.218   5.457   1.523
 6963SOL    HW121788   0.170   5.375   1.490
 6963SOL    HW221789   0.296   5.475   1.463
 6964SOL     OW21790   4.798   5.193   5.323
 6964SOL    HW121791   4.819   5.283   5.362
 6964SOL    HW221792   4.701   5.189   5.300
 6965SOL     OW21793   6.452   3.351   6.248
 6965SOL    HW121794   6.363   3.370   6.290
 6965SOL    HW221795   6.439   3.285   6.173
 6966SOL     OW21796   5.257   2.876   2.784
 6966SOL    HW121797   5.250   2.960   2.731
 6966SOL    HW221798   5.180   2.816   2.761
 6967SOL     OW21799   1.293   2.092   6.249
 6967SOL    HW121800   1.246   2.112   6.335
 6967SOL    HW221801   1.391   2.081   6.266
 6968SOL     OW21802   4.563   5.751   1.079
 6968SOL    HW121803   4.647   5.798   1.108
 6968SOL    HW221804   4.578   5.652   1.080
 6969SOL     OW21805   3.430   0.953   1.831
 6969SOL    HW121806   3.405   0.856   1.827
 6969SOL    HW221807   3.529   0.962   1.820
 6970SOL     OW21808   4.171   4.695   0.576
 6970SOL    HW121809   4.165   4.643   0.491
 6970SOL    HW221810   4.102   4.768   0.575
 6971SOL     OW21811   6.120   2.866   1.727
 6971SOL    HW121812   6.113   2.774   1.690
 6971SOL    HW221813   6.101   2.864   1.826
 6972SOL     OW21814   5.641   4.423   3.708
 6972SOL    HW121815   5.638   4.413   3.808
 6972SOL    HW221816   5.722   4.378   3.672
 6973SOL     OW21817   1.761   5.026   4.676
 6973SOL    HW121818   1.691   5.053   4.742
 6973SOL    HW221819   1.721   5.021   4.585
 6974SOL     OW21820   3.933   3.674   3.390
 6974SOL    HW121821   3.856   3.728   3.355
 6974SOL    HW221822   3.900   3.585   3.421
 6975SOL     OW21823   3.540   0.317   5.789
 6975SOL    HW121824   3.482   0.273   5.719
 6975SOL    HW221825   3.616   0.257   5.812
 6976SOL     OW21826   3.153   4.710   6.668
 6976SOL    HW121827   3.210   4.761   6.603
 6976SOL    HW221828   3.089   4.652   6.618
 6977SOL     OW21829   4.114   1.844   2.184
 6977SOL    HW121830   4.072   1.894   2.259
 6977SOL    HW221831   4.193   1.895   2.150
 6978SOL     OW21832   6.839   0.786   1.983
 6978SOL    HW121833   6.870   0.852   1.913
 6978SOL    HW221834   6.871   0.695   1.958
 6979SOL     OW21835   1.367   4.936   2.353
 6979SOL    HW121836   1.436   4.864   2.364
 6979SOL    HW221837   1.383   4.984   2.266
 6980SOL     OW21838   2.432   0.832   3.259
 6980SOL    HW121839   2.445   0.849   3.357
 6980SOL    HW221840   2.471   0.908   3.207
 6981SOL     OW21841   2.547   4.026   0.196
 6981SOL    HW121842   2.603   3.944   0.207
 6981SOL    HW221843   2.458   4.001   0.158
 6982SOL     OW21844   1.526   1.009   4.175
 6982SOL    HW121845   1.461   0.934   4.164
 6982SOL    HW221846   1.496   1.087   4.121
 6983SOL     OW21847   6.919   0.610   4.460
 6983SOL    HW121848   6.983   0.534   4.469
 6983SOL    HW221849   6.854   0.591   4.387
 6984SOL     OW21850   2.015   1.923   5.238
 6984SOL    HW121851   1.965   1.843   5.271
 6984SOL    HW221852   2.050   1.974   5.316
 6985SOL     OW21853   3.923   5.959   2.089
 6985SOL    HW121854   3.952   5.912   2.172
 6985SOL    HW221855   3.827   5.985   2.096
 6986SOL     OW21856   1.961   6.283   5.872
 6986SOL    HW121857   1.864   6.301   5.856
 6986SOL    HW221858   1.974   6.188   5.900
 6987SOL     OW21859   0.258   2.549   6.332
 6987SOL    HW121860   0.269   2.450   6.323
 6987SOL    HW221861   0.162   2.573   6.321
 6988SOL     OW21862   5.163   1.368   4.681
 6988SOL    HW121863   5.123   1.337   4.767
 6988SOL    HW221864   5.238   1.431   4.701
 6989SOL     OW21865   0.794   1.335   3.482
 6989SOL    HW121866   0.891   1.318   3.493
 6989SOL    HW221867   0.779   1.392   3.401
 6990SOL     OW21868   4.861   2.302   0.379
 6990SOL    HW121869   4.873   2.226   0.443
 6990SOL    HW221870   4.820   2.268   0.294
 6991SOL     OW21871   2.552   4.608   5.027
 6991SOL    HW121872   2.650   4.627   5.016
 6991SOL    HW221873   2.539   4.545   5.104
 6992SOL     OW21874   6.184   6.155   4.707
 6992SOL    HW121875   6.156   6.192   4.618
 6992SOL    HW221876   6.271   6.107   4.697
 6993SOL     OW21877   6.417   6.852   3.375
 6993SOL    HW121878   6.372   6.793   3.442
 6993SOL    HW221879   6.442   6.938   3.419
 6994SOL     OW21880   1.242   3.567   5.712
 6994SOL    HW121881   1.156   3.594   5.668
 6994SOL    HW221882   1.251   3.615   5.799
 6995SOL     OW21883   5.688   5.571   4.691
 6995SOL    HW121884   5.665   5.491   4.746
 6995SOL    HW221885   5.719   5.542   4.601
 6996SOL     OW21886   2.650   0.848   5.127
 6996SOL    HW121887   2.648   0.933   5.074
 6996SOL    HW221888   2.643   0.869   5.224
 6997SOL     OW21889   4.708   6.042   4.626
 6997SOL    HW121890   4.771   6.109   4.588
 6997SOL    HW221891   4.729   6.027   4.722
 6998SOL     OW21892   1.790   2.981   1.771
 6998SOL    HW121893   1.823   2.894   1.808
 6998SOL    HW221894   1.856   3.017   1.705
 6999SOL     OW21895   2.081   1.704   5.983
 6999SOL    HW121896   2.175   1.732   6.003
 6999SOL    HW221897   2.025   1.786   5.970
 7000SOL     OW21898   0.752   5.885   2.432
 7000SOL    HW121899   0.804   5.949   2.489
 7000SOL    HW221900   0.666   5.864   2.477
 7001SOL     OW21901   2.625   2.395   5.633
 7001SOL    HW121902   2.568   2.343   5.570
 7001SOL    HW221903   2.626   2.349   5.722
 7002SOL     OW21904   2.671   4.964   3.795
 7002SOL    HW121905   2.650   4.985   3.891
 7002SOL    HW221906   2.586   4.941   3.747
 7003SOL     OW21907   2.645   0.033   6.844
 7003SOL    HW121908   2.703   6.991   6.798
 7003SOL    HW221909   2.624   0.107   6.781
 7004SOL     OW21910   2.101   4.086   1.823
 7004SOL    HW121911   2.082   4.163   1.762
 7004SOL    HW221912   2.062   4.002   1.785
 7005SOL     OW21913   6.335   6.000   5.962
 7005SOL    HW121914   6.428   6.034   5.976
 7005SOL    HW221915   6.271   6.053   6.017
 7006SOL     OW21916   4.870   4.137   4.820
 7006SOL    HW121917   4.803   4.165   4.751
 7006SOL    HW221918   4.830   4.148   4.911
 7007SOL     OW21919   4.781   6.717   2.983
 7007SOL    HW121920   4.832   6.788   2.934
 7007SOL    HW221921   4.736   6.656   2.917
 7008SOL     OW21922   2.177   5.391   4.573
 7008SOL    HW121923   2.222   5.330   4.508
 7008SOL    HW221924   2.081   5.402   4.548
 7009SOL     OW21925   6.341   5.456   2.771
 7009SOL    HW121926   6.440   5.450   2.761
 7009SOL    HW221927   6.307   5.376   2.820
 7010SOL     OW21928   3.309   4.693   6.226
 7010SOL    HW121929   3.393   4.732   6.262
 7010SOL    HW221930   3.279   4.617   6.283
 7011SOL     OW21931   1.703   6.879   5.262
 7011SOL    HW121932   1.626   6.937   5.286
 7011SOL    HW221933   1.690   6.788   5.301
 7012SOL     OW21934   1.170   0.091   1.930
 7012SOL    HW121935   1.268   0.095   1.949
 7012SOL    HW221936   1.156   0.064   1.835
 7013SOL     OW21937   1.013   6.745   1.247
 7013SOL    HW121938   1.016   6.706   1.155
 7013SOL    HW221939   0.986   6.675   1.312
 7014SOL     OW21940   3.713   4.028   1.016
 7014SOL    HW121941   3.622   4.011   1.055
 7014SOL    HW221942   3.779   3.964   1.056
 7015SOL     OW21943   5.539   3.520   2.782
 7015SOL    HW121944   5.540   3.493   2.686
 7015SOL    HW221945   5.525   3.439   2.839
 7016SOL     OW21946   4.626   5.460   1.954
 7016SOL    HW121947   4.528   5.440   1.965
 7016SOL    HW221948   4.644   5.554   1.985
 7017SOL     OW21949   2.684   1.277   3.196
 7017SOL    HW121950   2.776   1.238   3.199
 7017SOL    HW221951   2.639   1.262   3.284
 7018SOL     OW21952   6.841   4.366   5.238
 7018SOL    HW121953   6.757   4.391   5.287
 7018SOL    HW221954   6.832   4.391   5.142
 7019SOL     OW21955   2.077   4.532   6.748
 7019SOL    HW121956   2.050   4.496   6.837
 7019SOL    HW221957   2.142   4.607   6.760
 7020SOL     OW21958   5.836   0.176   0.464
 7020SOL    HW121959   5.880   0.195   0.552
 7020SOL    HW221960   5.796   0.259   0.427
 7021SOL     OW21961   2.761   1.184   4.449
 7021SOL    HW121962   2.840   1.235   4.483
 7021SOL    HW221963   2.691   1.248   4.419
 7022SOL     OW21964   5.147   3.500   0.627
 7022SOL    HW121965   5.231   3.532   0.670
 7022SOL    HW221966   5.124   3.409   0.663
 7023SOL     OW21967   6.519   2.720   2.589
 7023SOL    HW121968   6.612   2.686   2.603
 7023SOL    HW221969   6.478   2.743   2.677
 7024SOL     OW21970   1.867   5.933   6.459
 7024SOL    HW121971   1.828   5.882   6.382
 7024SOL    HW221972   1.912   5.869   6.521
 7025SOL     OW21973   2.852   1.919   6.388
 7025SOL    HW121974   2.775   1.911   6.325
 7025SOL    HW221975   2.887   1.828   6.410
 7026SOL     OW21976   3.025   1.143   2.253
 7026SOL    HW121977   3.044   1.228   2.204
 7026SOL    HW221978   2.928   1.120   2.242
 7027SOL     OW21979   3.917   5.571   3.334
 7027SOL    HW121980   3.879   5.608   3.419
 7027SOL    HW221981   3.973   5.641   3.289
 7028SOL     OW21982   4.733   6.473   3.660
 7028SOL    HW121983   4.647   6.438   3.697
 7028SOL    HW221984   4.717   6.560   3.613
 7029SOL     OW21985   3.169   6.274   6.237
 7029SOL    HW121986   3.212   6.241   6.153
 7029SOL    HW221987   3.089   6.218   6.257
 7030SOL     OW21988   0.279   3.922   5.538
 7030SOL    HW121989   0.250   3.962   5.625
 7030SOL    HW221990   0.257   3.985   5.464
 7031SOL     OW21991   2.465   6.134   3.952
 7031SOL    HW121992   2.490   6.124   4.048
 7031SOL    HW221993   2.398   6.208   3.942
 7032SOL     OW21994   4.725   0.152   3.124
 7032SOL    HW121995   4.652   0.177   3.188
 7032SOL    HW221996   4.688   0.144   3.032
 7033SOL     OW21997   6.788   1.263   4.236
 7033SOL    HW121998   6.881   1.299   4.239
 7033SOL    HW221999   6.725   1.335   4.207
 7034SOL     OW22000   4.973   0.187   2.557
 7034SOL    HW122001   4.981   0.204   2.459
 7034SOL    HW222002   4.947   0.092   2.573
 7035SOL     OW22003   0.995   6.507   2.639
 7035SOL    HW122004   1.062   6.483   2.569
 7035SOL    HW222005   1.007   6.603   2.666
 7036SOL     OW22006   6.540   5.427   1.533
 7036SOL    HW122007   6.452   5.442   1.577
 7036SOL    HW222008   6.613   5.432   1.601
 7037SOL     OW22009   0.584   6.649   5.856
 7037SOL    HW122010   0.523   6.578   5.890
 7037SOL    HW222011   0.678   6.615   5.853
 7038SOL     OW22012   1.188   4.370   3.921
 7038SOL    HW122013   1.188   4.401   3.826
 7038SOL    HW222014   1.099   4.331   3.943
 7039SOL     OW22015   3.681   0.099   6.989
 7039SOL    HW122016   3.709   0.148   0.046
 7039SOL    HW222017   3.670   0.164   6.914
 7040SOL     OW22018   4.794   2.733   5.994
 7040SOL    HW122019   4.849   2.727   5.911
 7040SOL    HW222020   4.699   2.753   5.970
 7041SOL     OW22021   1.184   1.039   3.277
 7041SOL    HW122022   1.171   1.051   3.376
 7041SOL    HW222023   1.103   1.074   3.229
 7042SOL     OW22024   5.023   5.112   6.430
 7042SOL    HW122025   5.071   5.146   6.349
 7042SOL    HW222026   4.925   5.112   6.413
 7043SOL     OW22027   1.617   3.069   3.290
 7043SOL    HW122028   1.695   3.044   3.233
 7043SOL    HW222029   1.564   3.141   3.244
 7044SOL     OW22030   4.597   4.948   2.759
 7044SOL    HW122031   4.629   4.995   2.841
 7044SOL    HW222032   4.528   4.881   2.784
 7045SOL     OW22033   4.776   6.818   0.977
 7045SOL    HW122034   4.810   6.751   0.911
 7045SOL    HW222035   4.683   6.846   0.951
 7046SOL     OW22036   3.607   1.226   4.344
 7046SOL    HW122037   3.588   1.228   4.246
 7046SOL    HW222038   3.702   1.250   4.361
 7047SOL     OW22039   0.572   2.073   3.193
 7047SOL    HW122040   0.483   2.028   3.183
 7047SOL    HW222041   0.639   2.027   3.135
 7048SOL     OW22042   1.368   5.869   0.856
 7048SOL    HW122043   1.390   5.883   0.759
 7048SOL    HW222044   1.341   5.774   0.870
 7049SOL     OW22045   2.000   0.592   0.958
 7049SOL    HW122046   2.051   0.637   1.032
 7049SOL    HW222047   2.064   0.558   0.889
 7050SOL     OW22048   3.749   4.130   4.525
 7050SOL    HW122049   3.823   4.062   4.526
 7050SOL    HW222050   3.769   4.200   4.455
 7051SOL     OW22051   0.153   0.584   1.634
 7051SOL    HW122052   0.240   0.544   1.665
 7051SOL    HW222053   0.142   0.675   1.674
 7052SOL     OW22054   6.676   2.121   4.659
 7052SOL    HW122055   6.710   2.109   4.566
 7052SOL    HW222056   6.695   2.215   4.689
 7053SOL     OW22057   0.002   3.663   6.400
 7053SOL    HW122058   6.996   3.569   6.417
 7053SOL    HW222059   6.951   3.720   6.372
 7054SOL     OW22060   0.313   6.250   1.154
 7054SOL    HW122061   0.353   6.322   1.097
 7054SOL    HW222062   0.323   6.274   1.251
 7055SOL     OW22063   4.294   0.193   5.922
 7055SOL    HW122064   4.287   0.278   5.974
 7055SOL    HW222065   4.280   0.212   5.825
 7056SOL     OW22066   5.522   4.976   3.442
 7056SOL    HW122067   5.497   5.072   3.446
 7056SOL    HW222068   5.559   4.948   3.531
 7057SOL     OW22069   0.701   3.802   4.577
 7057SOL    HW122070   0.768   3.764   4.641
 7057SOL    HW222071   0.610   3.801   4.619
 7058SOL     OW22072   0.120   5.611   5.096
 7058SOL    HW122073   0.144   5.543   5.026
 7058SOL    HW222074   0.120   5.702   5.055
 7059SOL     OW22075   0.440   6.946   2.047
 7059SOL    HW122076   0.502   6.930   2.124
 7059SOL    HW222077   0.378   7.022   2.069
 7060SOL     OW22078   3.496   0.440   1.780
 7060SOL    HW122079   3.465   0.387   1.859
 7060SOL    HW222080   3.457   0.401   1.697
 7061SOL     OW22081   0.295   1.971   3.430
 7061SOL    HW122082   0.230   1.919   3.484
 7061SOL    HW222083   0.279   2.069   3.443
 7062SOL     OW22084   5.822   2.297   5.735
 7062SOL    HW122085   5.873   2.316   5.652
 7062SOL    HW222086   5.744   2.238   5.714
 7063SOL     OW22087   1.618   6.216   0.605
 7063SOL    HW122088   1.698   6.183   0.553
 7063SOL    HW222089   1.536   6.210   0.547
 7064SOL     OW22090   4.432   2.140   1.724
 7064SOL    HW122091   4.379   2.060   1.752
 7064SOL    HW222092   4.473   2.122   1.634
 7065SOL     OW22093   4.862   4.280   1.306
 7065SOL    HW122094   4.896   4.190   1.335
 7065SOL    HW222095   4.939   4.337   1.279
 7066SOL     OW22096   3.549   0.965   0.385
 7066SOL    HW122097   3.494   1.017   0.320
 7066SOL    HW222098   3.645   0.965   0.354
 7067SOL     OW22099   0.995   3.673   5.300
 7067SOL    HW122100   1.052   3.652   5.220
 7067SOL    HW222101   0.900   3.686   5.270
 7068SOL     OW22102   1.302   2.832   3.108
 7068SOL    HW122103   1.341   2.859   3.195
 7068SOL    HW222104   1.203   2.820   3.118
 7069SOL     OW22105   6.062   4.024   5.064
 7069SOL    HW122106   6.101   4.048   4.975
 7069SOL    HW222107   6.091   4.091   5.132
 7070SOL     OW22108   6.349   5.334   5.310
 7070SOL    HW122109   6.297   5.324   5.395
 7070SOL    HW222110   6.288   5.321   5.232
 7071SOL     OW22111   0.945   6.171   5.401
 7071SOL    HW122112   0.956   6.086   5.453
 7071SOL    HW222113   0.928   6.148   5.305
 7072SOL     OW22114   6.876   6.856   6.009
 7072SOL    HW122115   6.811   6.857   5.933
 7072SOL    HW222116   6.875   6.945   6.055
 7073SOL     OW22117   6.609   1.123   5.040
 7073SOL    HW122118   6.607   1.162   5.132
 7073SOL    HW222119   6.549   1.043   5.036
 7074SOL     OW22120   3.182   3.091   1.991
 7074SOL    HW122121   3.208   2.995   1.996
 7074SOL    HW222122   3.260   3.146   1.960
 7075SOL     OW22123   1.698   6.194   4.471
 7075SOL    HW122124   1.609   6.160   4.442
 7075SOL    HW222125   1.766   6.121   4.465
 7076SOL     OW22126   3.349   1.729   6.974
 7076SOL    HW122127   3.262   1.727   6.923
 7076SOL    HW222128   3.405   1.651   6.947
 7077SOL     OW22129   2.326   5.568   5.499
 7077SOL    HW122130   2.269   5.642   5.465
 7077SOL    HW222131   2.293   5.538   5.589
 7078SOL     OW22132   5.968   6.996   2.786
 7078SOL    HW122133   6.054   7.016   2.739
 7078SOL    HW222134   5.893   0.020   2.741
 7079SOL     OW22135   6.739   6.042   5.762
 7079SOL    HW122136   6.723   6.100   5.682
 7079SOL    HW222137   6.683   5.959   5.756
 7080SOL     OW22138   3.972   2.159   3.948
 7080SOL    HW122139   3.943   2.063   3.956
 7080SOL    HW222140   3.963   2.204   4.037
 7081SOL     OW22141   3.800   1.262   5.339
 7081SOL    HW122142   3.874   1.327   5.357
 7081SOL    HW222143   3.792   1.199   5.417
 7082SOL     OW22144   5.380   6.992   0.571
 7082SOL    HW122145   5.477   7.007   0.551
 7082SOL    HW222146   5.325   7.021   0.492
 7083SOL     OW22147   2.993   1.034   6.336
 7083SOL    HW122148   3.002   1.134   6.339
 7083SOL    HW222149   2.902   1.008   6.367
 7084SOL     OW22150   7.001   6.633   5.532
 7084SOL    HW122151   0.066   6.661   5.503
 7084SOL    HW222152   6.987   6.661   5.627
 7085SOL     OW22153   2.085   1.828   2.913
 7085SOL    HW122154   2.068   1.735   2.946
 7085SOL    HW222155   2.000   1.868   2.880
 7086SOL     OW22156   5.618   0.948   6.386
 7086SOL    HW122157   5.680   0.878   6.350
 7086SOL    HW222158   5.570   0.911   6.466
 7087SOL     OW22159   0.751   2.940   4.699
 7087SOL    HW122160   0.846   2.968   4.688
 7087SOL    HW222161   0.745   2.840   4.703
 7088SOL     OW22162   4.506   2.531   4.093
 7088SOL    HW122163   4.445   2.477   4.151
 7088SOL    HW222164   4.465   2.542   4.003
 7089SOL     OW22165   3.146   2.976   6.349
 7089SOL    HW122166   3.066   2.981   6.289
 7089SOL    HW222167   3.155   3.061   6.400
 7090SOL     OW22168   2.170   1.431   5.915
 7090SOL    HW122169   2.155   1.427   5.816
 7090SOL    HW222170   2.119   1.508   5.954
 7091SOL     OW22171   0.243   1.364   6.525
 7091SOL    HW122172   0.225   1.266   6.525
 7091SOL    HW222173   0.165   1.413   6.565
 7092SOL     OW22174   4.277   3.538   0.421
 7092SOL    HW122175   4.192   3.488   0.409
 7092SOL    HW222176   4.349   3.496   0.366
 7093SOL     OW22177   3.268   4.127   4.140
 7093SOL    HW122178   3.289   4.199   4.074
 7093SOL    HW222179   3.291   4.038   4.101
 7094SOL     OW22180   0.720   6.919   5.681
 7094SOL    HW122181   0.718   7.011   5.643
 7094SOL    HW222182   0.648   6.864   5.639
 7095SOL     OW22183   2.575   2.710   0.033
 7095SOL    HW122184   2.622   2.794   0.060
 7095SOL    HW222185   2.478   2.717   0.056
 7096SOL     OW22186   5.608   2.125   3.450
 7096SOL    HW122187   5.615   2.031   3.416
 7096SOL    HW222188   5.619   2.125   3.549
 7097SOL     OW22189   6.905   0.522   1.896
 7097SOL    HW122190   6.979   0.506   1.962
 7097SOL    HW222191   6.924   0.473   1.811
 7098SOL     OW22192   1.815   5.992   4.723
 7098SOL    HW122193   1.720   5.963   4.715
 7098SOL    HW222194   1.822   6.091   4.712
 7099SOL     OW22195   1.477   1.029   5.058
 7099SOL    HW122196   1.541   1.035   5.134
 7099SOL    HW222197   1.384   1.013   5.092
 7100SOL     OW22198   5.147   3.599   1.031
 7100SOL    HW122199   5.133   3.652   1.115
 7100SOL    HW222200   5.193   3.513   1.054
 7101SOL     OW22201   3.000   0.545   4.602
 7101SOL    HW122202   2.930   0.599   4.650
 7101SOL    HW222203   2.972   0.531   4.507
 7102SOL     OW22204   4.603   1.065   0.823
 7102SOL    HW122205   4.624   1.017   0.738
 7102SOL    HW222206   4.530   1.132   0.806
 7103SOL     OW22207   4.020   5.622   6.934
 7103SOL    HW122208   4.030   5.526   6.909
 7103SOL    HW222209   4.042   5.635   0.004
 7104SOL     OW22210   1.395   3.671   4.091
 7104SOL    HW122211   1.341   3.588   4.073
 7104SOL    HW222212   1.491   3.647   4.099
 7105SOL     OW22213   3.844   2.932   5.046
 7105SOL    HW122214   3.822   2.834   5.039
 7105SOL    HW222215   3.885   2.950   5.136
 7106SOL     OW22216   3.632   2.982   3.325
 7106SOL    HW122217   3.548   2.968   3.272
 7106SOL    HW222218   3.711   2.976   3.264
 7107SOL     OW22219   2.632   0.962   0.690
 7107SOL    HW122220   2.594   0.916   0.609
 7107SOL    HW222221   2.683   1.043   0.662
 7108SOL     OW22222   4.378   6.198   1.209
 7108SOL    HW122223   4.319   6.181   1.130
 7108SOL    HW222224   4.466   6.233   1.177
 7109SOL     OW22225   3.393   0.172   6.231
 7109SOL    HW122226   3.323   0.241   6.208
 7109SOL    HW222227   3.352   0.081   6.228
 7110SOL     OW22228   5.638   5.193   3.803
 7110SOL    HW122229   5.612   5.289   3.814
 7110SOL    HW222230   5.720   5.186   3.746
 7111SOL     OW22231   1.032   2.989   4.663
 7111SOL    HW122232   1.111   2.984   4.725
 7111SOL    HW222233   1.058   2.953   4.573
 7112SOL     OW22234   1.755   5.670   4.545
 7112SOL    HW122235   1.764   5.712   4.455
 7112SOL    HW222236   1.833   5.697   4.602
 7113SOL     OW22237   3.504   3.945   4.544
 7113SOL    HW122238   3.435   3.990   4.601
 7113SOL    HW222239   3.578   4.010   4.523
 7114SOL     OW22240   4.100   0.164   1.398
 7114SOL    HW122241   4.106   0.183   1.496
 7114SOL    HW222242   4.134   0.243   1.346
 7115SOL     OW22243   5.167   2.337   1.738
 7115SOL    HW122244   5.197   2.327   1.643
 7115SOL    HW222245   5.144   2.433   1.756
 7116SOL     OW22246   5.805   3.728   3.741
 7116SOL    HW122247   5.832   3.736   3.837
 7116SOL    HW222248   5.755   3.810   3.714
 7117SOL     OW22249   0.008   6.680   4.096
 7117SOL    HW122250   6.959   6.619   4.122
 7117SOL    HW222251   0.077   6.681   4.167
 7118SOL     OW22252   5.568   3.332   0.474
 7118SOL    HW122253   5.554   3.233   0.482
 7118SOL    HW222254   5.497   3.371   0.416
 7119SOL     OW22255   4.779   1.164   3.007
 7119SOL    HW122256   4.806   1.087   3.066
 7119SOL    HW222257   4.836   1.243   3.028
 7120SOL     OW22258   4.241   1.700   2.440
 7120SOL    HW122259   4.186   1.726   2.361
 7120SOL    HW222260   4.323   1.651   2.408
 7121SOL     OW22261   2.136   0.301   3.435
 7121SOL    HW122262   2.077   0.304   3.515
 7121SOL    HW222263   2.090   0.250   3.362
 7122SOL     OW22264   6.983   0.260   0.120
 7122SOL    HW122265   6.917   0.185   0.111
 7122SOL    HW222266   6.934   0.346   0.135
 7123SOL     OW22267   3.609   5.734   1.045
 7123SOL    HW122268   3.609   5.816   0.989
 7123SOL    HW222269   3.551   5.664   1.002
 7124SOL     OW22270   1.340   4.378   0.845
 7124SOL    HW122271   1.302   4.292   0.812
 7124SOL    HW222272   1.389   4.424   0.770
 7125SOL     OW22273   6.442   6.211   1.225
 7125SOL    HW122274   6.440   6.138   1.158
 7125SOL    HW222275   6.453   6.299   1.178
 7126SOL     OW22276   2.536   3.756   0.762
 7126SOL    HW122277   2.497   3.754   0.854
 7126SOL    HW222278   2.555   3.851   0.737
 7127SOL     OW22279   3.073   5.174   4.471
 7127SOL    HW122280   2.976   5.156   4.456
 7127SOL    HW222281   3.128   5.124   4.405
 7128SOL     OW22282   3.388   4.542   0.276
 7128SOL    HW122283   3.423   4.452   0.249
 7128SOL    HW222284   3.289   4.544   0.264
 7129SOL     OW22285   2.794   0.596   0.893
 7129SOL    HW122286   2.864   0.618   0.960
 7129SOL    HW222287   2.721   0.665   0.896
 7130SOL     OW22288   3.128   4.932   4.300
 7130SOL    HW122289   3.091   4.927   4.207
 7130SOL    HW222290   3.067   4.883   4.362
 7131SOL     OW22291   2.541   1.715   0.511
 7131SOL    HW122292   2.462   1.723   0.572
 7131SOL    HW222293   2.600   1.795   0.524
 7132SOL     OW22294   4.172   3.566   2.324
 7132SOL    HW122295   4.249   3.605   2.273
 7132SOL    HW222296   4.205   3.495   2.386
 7133SOL     OW22297   5.229   4.740   3.341
 7133SOL    HW122298   5.312   4.772   3.296
 7133SOL    HW222299   5.161   4.813   3.341
 7134SOL     OW22300   6.277   5.853   3.947
 7134SOL    HW122301   6.311   5.785   3.881
 7134SOL    HW222302   6.217   5.918   3.901
 7135SOL     OW22303   1.127   1.148   4.239
 7135SOL    HW122304   1.087   1.082   4.175
 7135SOL    HW222305   1.146   1.234   4.191
 7136SOL     OW22306   1.596   1.519   0.885
 7136SOL    HW122307   1.567   1.480   0.797
 7136SOL    HW222308   1.691   1.549   0.879
 7137SOL     OW22309   4.047   1.416   4.786
 7137SOL    HW122310   4.076   1.510   4.767
 7137SOL    HW222311   3.992   1.382   4.709
 7138SOL     OW22312   2.639   2.675   1.379
 7138SOL    HW122313   2.567   2.745   1.378
 7138SOL    HW222314   2.729   2.720   1.379
 7139SOL     OW22315   4.895   3.305   1.956
 7139SOL    HW122316   4.845   3.227   1.994
 7139SOL    HW222317   4.844   3.344   1.880
 7140SOL     OW22318   6.020   3.111   5.191
 7140SOL    HW122319   5.990   3.020   5.217
 7140SOL    HW222320   5.975   3.180   5.248
 7141SOL     OW22321   3.095   0.089   1.094
 7141SOL    HW122322   3.183   0.046   1.114
 7141SOL    HW222323   3.105   0.150   1.015
 7142SOL     OW22324   4.279   6.554   3.622
 7142SOL    HW122325   4.345   6.592   3.685
 7142SOL    HW222326   4.263   6.618   3.546
 7143SOL     OW22327   1.615   3.177   6.188
 7143SOL    HW122328   1.525   3.212   6.212
 7143SOL    HW222329   1.654   3.232   6.114
 7144SOL     OW22330   0.740   0.934   2.930
 7144SOL    HW122331   0.682   0.981   2.997
 7144SOL    HW222332   0.730   0.977   2.841
 7145SOL     OW22333   4.095   6.300   6.238
 7145SOL    HW122334   4.092   6.322   6.140
 7145SOL    HW222335   4.066   6.206   6.252
 7146SOL     OW22336   1.968   0.170   0.595
 7146SOL    HW122337   2.035   0.120   0.539
 7146SOL    HW222338   1.966   0.265   0.566
 7147SOL     OW22339   6.306   0.251   3.918
 7147SOL    HW122340   6.211   0.240   3.891
 7147SOL    HW222341   6.354   0.307   3.850
 7148SOL     OW22342   1.105   5.733   1.444
 7148SOL    HW122343   1.019   5.751   1.491
 7148SOL    HW222344   1.088   5.682   1.360
 7149SOL     OW22345   6.742   0.266   3.533
 7149SOL    HW122346   6.814   0.206   3.569
 7149SOL    HW222347   6.773   0.308   3.448
 7150SOL     OW22348   4.849   3.184   1.365
 7150SOL    HW122349   4.803   3.164   1.451
 7150SOL    HW222350   4.900   3.103   1.335
 7151SOL     OW22351   1.535   5.237   1.004
 7151SOL    HW122352   1.539   5.219   0.906
 7151SOL    HW222353   1.574   5.327   1.024
 7152SOL     OW22354   0.319   3.174   5.915
 7152SOL    HW122355   0.400   3.218   5.954
 7152SOL    HW222356   0.249   3.166   5.986
 7153SOL     OW22357   3.692   6.456   5.005
 7153SOL    HW122358   3.620   6.523   5.017
 7153SOL    HW222359   3.653   6.364   5.005
 7154SOL     OW22360   4.340   5.834   4.743
 7154SOL    HW122361   4.355   5.927   4.779
 7154SOL    HW222362   4.324   5.838   4.645
 7155SOL     OW22363   1.714   6.139   1.621
 7155SOL    HW122364   1.774   6.204   1.668
 7155SOL    HW222365   1.753   6.117   1.532
 7156SOL     OW22366   0.400   5.120   4.389
 7156SOL    HW122367   0.386   5.030   4.430
 7156SOL    HW222368   0.498   5.138   4.382
 7157SOL     OW22369   6.225   5.233   0.856
 7157SOL    HW122370   6.170   5.316   0.854
 7157SOL    HW222371   6.271   5.220   0.768
 7158SOL     OW22372   0.119   0.039   3.538
 7158SOL    HW122373   0.195   0.071   3.595
 7158SOL    HW222374   0.139   0.058   3.442
 7159SOL     OW22375   0.290   4.347   1.761
 7159SOL    HW122376   0.301   4.399   1.676
 7159SOL    HW222377   0.358   4.378   1.828
 7160SOL     OW22378   6.722   0.589   2.598
 7160SOL    HW122379   6.684   0.508   2.643
 7160SOL    HW222380   6.666   0.611   2.518
 7161SOL     OW22381   3.440   4.001   3.931
 7161SOL    HW122382   3.433   3.904   3.910
 7161SOL    HW222383   3.406   4.054   3.852
 7162SOL     OW22384   2.930   5.461   5.518
 7162SOL    HW122385   2.881   5.457   5.605
 7162SOL    HW222386   2.891   5.394   5.455
 7163SOL     OW22387   3.682   6.970   4.169
 7163SOL    HW122388   3.701   6.959   4.072
 7163SOL    HW222389   3.665   0.041   4.189
 7164SOL     OW22390   1.572   1.921   2.930
 7164SOL    HW122391   1.534   1.997   2.983
 7164SOL    HW222392   1.525   1.837   2.956
 7165SOL     OW22393   5.957   0.557   0.846
 7165SOL    HW122394   6.025   0.497   0.888
 7165SOL    HW222395   5.989   0.652   0.853
 7166SOL     OW22396   5.341   4.353   1.379
 7166SOL    HW122397   5.310   4.286   1.446
 7166SOL    HW222398   5.343   4.444   1.420
 7167SOL     OW22399   5.166   3.793   5.117
 7167SOL    HW122400   5.237   3.724   5.134
 7167SOL    HW222401   5.208   3.874   5.076
 7168SOL     OW22402   1.247   1.658   4.296
 7168SOL    HW122403   1.273   1.731   4.359
 7168SOL    HW222404   1.168   1.608   4.333
 7169SOL     OW22405   1.465   3.301   5.486
 7169SOL    HW122406   1.392   3.253   5.535
 7169SOL    HW222407   1.469   3.395   5.518
 7170SOL     OW22408   4.277   5.197   3.313
 7170SOL    HW122409   4.225   5.126   3.264
 7170SOL    HW222410   4.219   5.237   3.384
 7171SOL     OW22411   5.831   3.438   6.135
 7171SOL    HW122412   5.783   3.461   6.050
 7171SOL    HW222413   5.926   3.414   6.114
 7172SOL     OW22414   1.529   6.986   6.624
 7172SOL    HW122415   1.591   6.940   6.689
 7172SOL    HW222416   1.545   6.951   6.532
 7173SOL     OW22417   0.124   5.050   5.039
 7173SOL    HW122418   0.109   4.959   5.077
 7173SOL    HW222419   0.064   5.065   4.961
 7174SOL     OW22420   1.161   5.521   7.000
 7174SOL    HW122421   1.174   5.424   7.016
 7174SOL    HW222422   1.248   5.569   7.009
 7175SOL     OW22423   5.203   3.121   1.040
 7175SOL    HW122424   5.228   3.186   1.113
 7175SOL    HW222425   5.285   3.073   1.010
 7176SOL     OW22426   0.404   5.453   2.576
 7176SOL    HW122427   0.437   5.367   2.538
 7176SOL    HW222428   0.402   5.524   2.505
 7177SOL     OW22429   1.594   6.314   4.141
 7177SOL    HW122430   1.637   6.315   4.051
 7177SOL    HW222431   1.602   6.405   4.183
 7178SOL     OW22432   2.161   2.601   6.107
 7178SOL    HW122433   2.166   2.502   6.096
 7178SOL    HW222434   2.240   2.643   6.062
 7179SOL     OW22435   2.056   3.227   5.905
 7179SOL    HW122436   2.057   3.308   5.964
 7179SOL    HW222437   2.095   3.149   5.955
 7180SOL     OW22438   0.979   5.544   6.165
 7180SOL    HW122439   0.929   5.614   6.217
 7180SOL    HW222440   0.914   5.483   6.120
 7181SOL     OW22441   3.725   0.102   0.267
 7181SOL    HW122442   3.687   0.146   0.348
 7181SOL    HW222443   3.768   0.015   0.292
 7182SOL     OW22444   1.578   3.885   6.026
 7182SOL    HW122445   1.624   3.801   5.996
 7182SOL    HW222446   1.571   3.949   5.950
 7183SOL     OW22447   1.735   4.925   2.457
 7183SOL    HW122448   1.704   4.888   2.369
 7183SOL    HW222449   1.828   4.892   2.475
 7184SOL     OW22450   0.333   6.939   3.207
 7184SOL    HW122451   0.243   6.955   3.166
 7184SOL    HW222452   0.395   7.014   3.182
 7185SOL     OW22453   5.171   2.369   6.711
 7185SOL    HW122454   5.196   2.390   6.805
 7185SOL    HW222455   5.083   2.411   6.689
 7186SOL     OW22456   0.038   0.055   5.423
 7186SOL    HW122457   0.106   0.018   5.487
 7186SOL    HW222458   7.009   7.006   5.387
 7187SOL     OW22459   1.725   4.350   1.726
 7187SOL    HW122460   1.675   4.434   1.745
 7187SOL    HW222461   1.705   4.283   1.798
 7188SOL     OW22462   5.869   6.882   1.219
 7188SOL    HW122463   5.838   6.876   1.124
 7188SOL    HW222464   5.821   6.956   1.266
 7189SOL     OW22465   6.596   1.545   6.608
 7189SOL    HW122466   6.522   1.480   6.625
 7189SOL    HW222467   6.683   1.496   6.605
 7190SOL     OW22468   5.225   3.720   3.827
 7190SOL    HW122469   5.187   3.628   3.843
 7190SOL    HW222470   5.232   3.736   3.728
 7191SOL     OW22471   0.700   3.768   2.702
 7191SOL    HW122472   0.735   3.854   2.666
 7191SOL    HW222473   0.675   3.779   2.798
 7192SOL     OW22474   2.369   6.550   5.582
 7192SOL    HW122475   2.273   6.521   5.577
 7192SOL    HW222476   2.374   6.649   5.567
 7193SOL     OW22477   3.002   2.214   3.980
 7193SOL    HW122478   3.048   2.207   4.068
 7193SOL    HW222479   2.966   2.307   3.968
 7194SOL     OW22480   2.111   1.778   1.022
 7194SOL    HW122481   2.140   1.843   1.092
 7194SOL    HW222482   2.159   1.691   1.035
 7195SOL     OW22483   0.241   4.846   0.376
 7195SOL    HW122484   0.241   4.888   0.285
 7195SOL    HW222485   0.317   4.781   0.383
 7196SOL     OW22486   3.006   3.277   2.695
 7196SOL    HW122487   3.042   3.185   2.715
 7196SOL    HW222488   2.967   3.278   2.603
 7197SOL     OW22489   6.399   2.120   5.997
 7197SOL    HW122490   6.464   2.192   5.972
 7197SOL    HW222491   6.331   2.110   5.924
 7198SOL     OW22492   1.324   0.131   5.904
 7198SOL    HW122493   1.231   0.094   5.895
 7198SOL    HW222494   1.359   0.113   5.996
 7199SOL     OW22495   1.030   0.665   2.327
 7199SOL    HW122496   0.997   0.586   2.276
 7199SOL    HW222497   1.050   0.740   2.263
 7200SOL     OW22498   2.721   0.335   0.199
 7200SOL    HW122499   2.640   0.394   0.190
 7200SOL    HW222500   2.724   0.272   0.121
 7201SOL     OW22501   1.965   5.011   3.491
 7201SOL    HW122502   1.931   4.924   3.527
 7201SOL    HW222503   1.929   5.026   3.399
 7202SOL     OW22504   3.769   0.472   6.430
 7202SOL    HW122505   3.685   0.419   6.432
 7202SOL    HW222506   3.840   0.424   6.481
 7203SOL     OW22507   6.030   0.827   0.935
 7203SOL    HW122508   6.080   0.877   1.006
 7203SOL    HW222509   5.940   0.800   0.970
 7204SOL     OW22510   6.071   6.674   4.237
 7204SOL    HW122511   6.098   6.763   4.273
 7204SOL    HW222512   5.980   6.681   4.196
 7205SOL     OW22513   1.461   5.817   2.814
 7205SOL    HW122514   1.434   5.836   2.720
 7205SOL    HW222515   1.436   5.895   2.872
 7206SOL     OW22516   0.447   1.289   1.253
 7206SOL    HW122517   0.466   1.353   1.327
 7206SOL    HW222518   0.407   1.206   1.291
 7207SOL     OW22519   3.816   0.310   1.256
 7207SOL    HW122520   3.735   0.252   1.268
 7207SOL    HW222521   3.820   0.378   1.329
 7208SOL     OW22522   4.041   6.859   4.202
 7208SOL    HW122523   3.948   6.830   4.223
 7208SOL    HW222524   4.077   6.912   4.279
 7209SOL     OW22525   3.219   3.478   3.477
 7209SOL    HW122526   3.227   3.429   3.390
 7209SOL    HW222527   3.126   3.470   3.512
 7210SOL     OW22528   5.038   1.513   3.296
 7210SOL    HW122529   5.082   1.587   3.347
 7210SOL    HW222530   4.981   1.459   3.359
 7211SOL     OW22531   1.071   6.163   3.671
 7211SOL    HW122532   0.976   6.194   3.674
 7211SOL    HW222533   1.126   6.221   3.731
 7212SOL     OW22534   0.590   5.881   4.184
 7212SOL    HW122535   0.512   5.821   4.169
 7212SOL    HW222536   0.559   5.976   4.186
 7213SOL     OW22537   5.321   6.516   5.191
 7213SOL    HW122538   5.315   6.469   5.279
 7213SOL    HW222539   5.366   6.457   5.124
 7214SOL     OW22540   2.432   5.804   4.323
 7214SOL    HW122541   2.453   5.758   4.237
 7214SOL    HW222542   2.501   5.782   4.391
 7215SOL     OW22543   0.576   3.201   4.473
 7215SOL    HW122544   0.558   3.249   4.387
 7215SOL    HW222545   0.642   3.128   4.457
 7216SOL     OW22546   3.193   4.807   6.929
 7216SOL    HW122547   3.179   4.762   6.841
 7216SOL    HW222548   3.279   4.776   6.970
 7217SOL     OW22549   1.633   4.639   1.997
 7217SOL    HW122550   1.595   4.627   1.905
 7217SOL    HW222551   1.620   4.555   2.049
 7218SOL     OW22552   4.718   2.671   5.435
 7218SOL    HW122553   4.622   2.674   5.463
 7218SOL    HW222554   4.766   2.599   5.484
 7219SOL     OW22555   4.520   6.590   3.150
 7219SOL    HW122556   4.540   6.594   3.052
 7219SOL    HW222557   4.552   6.675   3.193
 7220SOL     OW22558   6.524   0.066   3.512
 7220SOL    HW122559   6.566   0.138   3.457
 7220SOL    HW222560   6.595   0.018   3.564
 7221SOL     OW22561   5.400   4.783   5.587
 7221SOL    HW122562   5.364   4.758   5.498
 7221SOL    HW222563   5.361   4.871   5.616
 7222SOL     OW22564   6.466   6.483   0.462
 7222SOL    HW122565   6.483   6.581   0.476
 7222SOL    HW222566   6.531   6.447   0.396
 7223SOL     OW22567   2.910   1.952   0.951
 7223SOL    HW122568   3.008   1.964   0.935
 7223SOL    HW222569   2.892   1.857   0.978
 7224SOL     OW22570   5.594   1.799   4.549
 7224SOL    HW122571   5.495   1.814   4.547
 7224SOL    HW222572   5.622   1.771   4.641
 7225SOL     OW22573   1.828   5.431   0.120
 7225SOL    HW122574   1.869   5.414   0.030
 7225SOL    HW222575   1.841   5.351   0.178
 7226SOL     OW22576   0.336   0.135   0.584
 7226SOL    HW122577   0.360   0.158   0.490
 7226SOL    HW222578   0.351   0.214   0.643
 7227SOL     OW22579   0.580   2.114   0.290
 7227SOL    HW122580   0.589   2.062   0.375
 7227SOL    HW222581   0.487   2.103   0.255
 7228SOL     OW22582   0.436   0.042   1.770
 7228SOL    HW122583   0.487   0.003   1.847
 7228SOL    HW222584   0.340   0.016   1.777
 7229SOL     OW22585   0.971   0.309   4.036
 7229SOL    HW122586   0.958   0.408   4.038
 7229SOL    HW222587   1.014   0.279   4.121
 7230SOL     OW22588   4.310   5.235   4.667
 7230SOL    HW122589   4.336   5.138   4.660
 7230SOL    HW222590   4.211   5.241   4.683
 7231SOL     OW22591   4.914   1.630   6.899
 7231SOL    HW122592   5.005   1.665   6.922
 7231SOL    HW222593   4.897   1.642   6.801
 7232SOL     OW22594   3.831   5.189   2.987
 7232SOL    HW122595   3.785   5.165   3.072
 7232SOL    HW222596   3.904   5.124   2.969
 7233SOL     OW22597   0.559   2.984   4.941
 7233SOL    HW122598   0.600   2.903   4.985
 7233SOL    HW222599   0.599   2.997   4.851
 7234SOL     OW22600   5.686   2.789   2.118
 7234SOL    HW122601   5.711   2.763   2.212
 7234SOL    HW222602   5.678   2.889   2.112
 7235SOL     OW22603   6.344   3.773   4.133
 7235SOL    HW122604   6.439   3.754   4.111
 7235SOL    HW222605   6.285   3.704   4.090
 7236SOL     OW22606   3.637   1.833   2.980
 7236SOL    HW122607   3.540   1.858   2.976
 7236SOL    HW222608   3.693   1.916   2.979
 7237SOL     OW22609   6.876   6.173   5.398
 7237SOL    HW122610   6.937   6.095   5.386
 7237SOL    HW222611   6.930   6.256   5.409
 7238SOL     OW22612   2.554   0.966   2.034
 7238SOL    HW122613   2.592   0.984   1.944
 7238SOL    HW222614   2.532   1.053   2.079
 7239SOL     OW22615   1.760   1.377   3.554
 7239SOL    HW122616   1.734   1.438   3.630
 7239SOL    HW222617   1.736   1.283   3.578
 7240SOL     OW22618   3.049   4.520   0.561
 7240SOL    HW122619   3.121   4.513   0.631
 7240SOL    HW222620   3.045   4.613   0.527
 7241SOL     OW22621   3.659   0.509   5.629
 7241SOL    HW122622   3.628   0.435   5.688
 7241SOL    HW222623   3.722   0.473   5.561
 7242SOL     OW22624   5.705   4.448   0.075
 7242SOL    HW122625   5.781   4.391   0.043
 7242SOL    HW222626   5.640   4.461   0.000
 7243SOL     OW22627   1.184   4.791   6.480
 7243SOL    HW122628   1.284   4.785   6.484
 7243SOL    HW222629   1.151   4.733   6.406
 7244SOL     OW22630   5.156   1.422   0.846
 7244SOL    HW122631   5.190   1.352   0.782
 7244SOL    HW222632   5.093   1.380   0.911
 7245SOL     OW22633   0.149   2.460   5.111
 7245SOL    HW122634   0.181   2.545   5.152
 7245SOL    HW222635   0.102   2.405   5.179
 7246SOL     OW22636   6.351   6.941   4.670
 7246SOL    HW122637   6.295   6.939   4.753
 7246SOL    HW222638   6.419   6.868   4.674
 7247SOL     OW22639   2.511   6.332   1.734
 7247SOL    HW122640   2.542   6.242   1.765
 7247SOL    HW222641   2.567   6.362   1.657
 7248SOL     OW22642   3.842   0.939   4.117
 7248SOL    HW122643   3.892   1.024   4.097
 7248SOL    HW222644   3.838   0.883   4.034
 7249SOL     OW22645   5.568   4.461   1.052
 7249SOL    HW122646   5.506   4.448   0.974
 7249SOL    HW222647   5.595   4.372   1.089
 7250SOL     OW22648   2.243   4.746   6.726
 7250SOL    HW122649   2.213   4.835   6.763
 7250SOL    HW222650   2.332   4.757   6.682
 7251SOL     OW22651   6.520   6.620   5.142
 7251SOL    HW122652   6.572   6.648   5.061
 7251SOL    HW222653   6.530   6.522   5.157
 7252SOL     OW22654   3.319   3.331   4.758
 7252SOL    HW122655   3.263   3.399   4.711
 7252SOL    HW222656   3.402   3.374   4.794
 7253SOL     OW22657   2.462   6.220   0.664
 7253SOL    HW122658   2.541   6.278   0.644
 7253SOL    HW222659   2.387   6.277   0.696
 7254SOL     OW22660   3.544   5.262   4.329
 7254SOL    HW122661   3.453   5.304   4.332
 7254SOL    HW222662   3.534   5.163   4.320
 7255SOL     OW22663   3.038   3.060   1.760
 7255SOL    HW122664   3.119   3.011   1.728
 7255SOL    HW222665   3.050   3.082   1.857
 7256SOL     OW22666   4.333   4.950   4.631
 7256SOL    HW122667   4.372   4.949   4.539
 7256SOL    HW222668   4.323   4.856   4.664
 7257SOL     OW22669   6.149   2.480   2.994
 7257SOL    HW122670   6.158   2.472   2.895
 7257SOL    HW222671   6.083   2.412   3.027
 7258SOL     OW22672   3.991   0.559   4.354
 7258SOL    HW122673   3.916   0.493   4.343
 7258SOL    HW222674   4.017   0.563   4.450
 7259SOL     OW22675   2.540   3.762   6.815
 7259SOL    HW122676   2.471   3.802   6.876
 7259SOL    HW222677   2.587   3.836   6.766
 7260SOL     OW22678   3.555   2.097   2.776
 7260SOL    HW122679   3.564   2.193   2.749
 7260SOL    HW222680   3.495   2.049   2.712
 7261SOL     OW22681   2.330   3.195   1.728
 7261SOL    HW122682   2.408   3.133   1.730
 7261SOL    HW222683   2.349   3.275   1.785
 7262SOL     OW22684   5.415   2.161   4.647
 7262SOL    HW122685   5.430   2.121   4.557
 7262SOL    HW222686   5.366   2.247   4.638
 7263SOL     OW22687   1.338   5.592   1.496
 7263SOL    HW122688   1.343   5.510   1.439
 7263SOL    HW222689   1.250   5.638   1.482
 7264SOL     OW22690   6.894   1.108   6.680
 7264SOL    HW122691   6.960   1.073   6.613
 7264SOL    HW222692   6.938   1.119   6.769
 7265SOL     OW22693   5.405   4.953   6.179
 7265SOL    HW122694   5.388   4.909   6.091
 7265SOL    HW222695   5.397   4.885   6.252
 7266SOL     OW22696   4.974   0.560   1.378
 7266SOL    HW122697   4.931   0.631   1.322
 7266SOL    HW222698   4.918   0.543   1.459
 7267SOL     OW22699   6.969   3.852   4.918
 7267SOL    HW122700   0.029   3.895   4.943
 7267SOL    HW222701   6.893   3.905   4.954
 7268SOL     OW22702   4.004   6.081   1.746
 7268SOL    HW122703   3.918   6.030   1.738
 7268SOL    HW222704   4.027   6.123   1.659
 7269SOL     OW22705   0.775   5.419   1.785
 7269SOL    HW122706   0.774   5.438   1.687
 7269SOL    HW222707   0.849   5.469   1.828
 7270SOL     OW22708   2.363   1.789   3.078
 7270SOL    HW122709   2.369   1.689   3.076
 7270SOL    HW222710   2.275   1.818   3.041
 7271SOL     OW22711   0.077   4.002   2.572
 7271SOL    HW122712   0.038   3.938   2.638
 7271SOL    HW222713   0.111   4.083   2.619
 7272SOL     OW22714   4.923   2.974   2.724
 7272SOL    HW122715   4.943   3.059   2.772
 7272SOL    HW222716   4.949   2.896   2.781
 7273SOL     OW22717   5.616   4.539   1.945
 7273SOL    HW122718   5.619   4.639   1.946
 7273SOL    HW222719   5.600   4.507   1.851
 7274SOL     OW22720   6.987   5.066   5.810
 7274SOL    HW122721   6.938   5.109   5.735
 7274SOL    HW222722   0.058   5.089   5.805
 7275SOL     OW22723   0.114   0.599   6.859
 7275SOL    HW122724   0.198   0.546   6.874
 7275SOL    HW222725   0.110   0.675   6.924
 7276SOL     OW22726   1.983   2.121   4.068
 7276SOL    HW122727   1.905   2.174   4.101
 7276SOL    HW222728   2.068   2.169   4.090
 7277SOL     OW22729   4.697   1.250   5.235
 7277SOL    HW122730   4.780   1.291   5.274
 7277SOL    HW222731   4.624   1.319   5.232
 7278SOL     OW22732   3.931   1.230   3.535
 7278SOL    HW122733   3.871   1.155   3.562
 7278SOL    HW222734   3.964   1.277   3.617
 7279SOL     OW22735   4.387   4.507   0.446
 7279SOL    HW122736   4.456   4.442   0.413
 7279SOL    HW222737   4.307   4.456   0.479
 7280SOL     OW22738   5.378   1.860   5.285
 7280SOL    HW122739   5.431   1.777   5.303
 7280SOL    HW222740   5.362   1.908   5.371
 7281SOL     OW22741   3.718   6.576   1.603
 7281SOL    HW122742   3.709   6.633   1.684
 7281SOL    HW222743   3.654   6.607   1.532
 7282SOL     OW22744   6.591   5.456   2.091
 7282SOL    HW122745   6.673   5.414   2.129
 7282SOL    HW222746   6.612   5.548   2.060
 7283SOL     OW22747   3.406   5.626   2.566
 7283SOL    HW122748   3.443   5.534   2.551
 7283SOL    HW222749   3.384   5.638   2.662
 7284SOL     OW22750   6.555   2.550   3.779
 7284SOL    HW122751   6.625   2.614   3.809
 7284SOL    HW222752   6.557   2.543   3.679
 7285SOL     OW22753   4.876   3.032   1.763
 7285SOL    HW122754   4.824   3.032   1.848
 7285SOL    HW222755   4.834   3.096   1.699
 7286SOL     OW22756   0.715   1.188   0.693
 7286SOL    HW122757   0.706   1.119   0.621
 7286SOL    HW222758   0.642   1.175   0.760
 7287SOL     OW22759   1.157   2.259   3.619
 7287SOL    HW122760   1.062   2.230   3.628
 7287SOL    HW222761   1.204   2.251   3.707
 7288SOL     OW22762   3.357   2.091   3.079
 7288SOL    HW122763   3.262   2.124   3.081
 7288SOL    HW222764   3.371   2.036   2.997
 7289SOL     OW22765   5.930   2.498   1.791
 7289SOL    HW122766   5.912   2.401   1.777
 7289SOL    HW222767   6.029   2.512   1.804
 7290SOL     OW22768   4.136   1.681   4.857
 7290SOL    HW122769   4.190   1.721   4.783
 7290SOL    HW222770   4.039   1.701   4.843
 7291SOL     OW22771   3.689   0.387   6.967
 7291SOL    HW122772   3.787   0.406   6.970
 7291SOL    HW222773   3.668   0.333   6.886
 7292SOL     OW22774   1.734   0.342   3.339
 7292SOL    HW122775   1.821   0.295   3.325
 7292SOL    HW222776   1.677   0.332   3.257
 7293SOL     OW22777   1.182   0.421   5.397
 7293SOL    HW122778   1.111   0.476   5.441
 7293SOL    HW222779   1.225   0.361   5.464
 7294SOL     OW22780   3.355   5.039   1.664
 7294SOL    HW122781   3.255   5.046   1.655
 7294SOL    HW222782   3.383   4.944   1.653
 7295SOL     OW22783   6.364   5.384   2.264
 7295SOL    HW122784   6.287   5.447   2.269
 7295SOL    HW222785   6.436   5.423   2.207
 7296SOL     OW22786   3.966   5.012   2.607
 7296SOL    HW122787   3.991   5.098   2.651
 7296SOL    HW222788   3.924   5.030   2.519
 7297SOL     OW22789   3.083   6.308   1.528
 7297SOL    HW122790   3.055   6.396   1.490
 7297SOL    HW222791   3.056   6.303   1.624
 7298SOL     OW22792   5.003   6.009   6.532
 7298SOL    HW122793   5.011   5.910   6.517
 7298SOL    HW222794   5.050   6.057   6.459
 7299SOL     OW22795   1.388   2.889   0.258
 7299SOL    HW122796   1.466   2.853   0.309
 7299SOL    HW222797   1.326   2.814   0.234
 7300SOL     OW22798   0.848   4.939   1.478
 7300SOL    HW122799   0.780   5.008   1.456
 7300SOL    HW222800   0.808   4.870   1.538
 7301SOL     OW22801   5.688   6.739   5.208
 7301SOL    HW122802   5.673   6.732   5.306
 7301SOL    HW222803   5.652   6.827   5.175
 7302SOL     OW22804   5.067   2.683   6.067
 7302SOL    HW122805   5.061   2.584   6.056
 7302SOL    HW222806   4.984   2.727   6.031
 7303SOL     OW22807   2.373   1.004   0.848
 7303SOL    HW122808   2.460   0.992   0.799
 7303SOL    HW222809   2.392   1.028   0.943
 7304SOL     OW22810   3.125   5.124   1.903
 7304SOL    HW122811   3.038   5.087   1.873
 7304SOL    HW222812   3.177   5.157   1.825
 7305SOL     OW22813   5.870   2.395   0.173
 7305SOL    HW122814   5.925   2.327   0.125
 7305SOL    HW222815   5.921   2.481   0.181
 7306SOL     OW22816   2.672   1.142   1.580
 7306SOL    HW122817   2.652   1.045   1.565
 7306SOL    HW222818   2.664   1.162   1.678
 7307SOL     OW22819   2.139   6.484   1.330
 7307SOL    HW122820   2.190   6.514   1.249
 7307SOL    HW222821   2.053   6.534   1.335
 7308SOL     OW22822   4.854   0.702   1.840
 7308SOL    HW122823   4.867   0.770   1.911
 7308SOL    HW222824   4.891   0.736   1.754
 7309SOL     OW22825   2.035   5.311   2.432
 7309SOL    HW122826   2.125   5.345   2.458
 7309SOL    HW222827   2.019   5.223   2.478
 7310SOL     OW22828   1.719   2.390   0.132
 7310SOL    HW122829   1.768   2.370   0.217
 7310SOL    HW222830   1.685   2.305   0.092
 7311SOL     OW22831   0.583   0.233   0.130
 7311SOL    HW122832   0.583   0.301   0.057
 7311SOL    HW222833   0.598   0.142   0.092
 7312SOL     OW22834   6.929   2.385   6.037
 7312SOL    HW122835   6.831   2.374   6.021
 7312SOL    HW222836   6.972   2.295   6.048
 7313SOL     OW22837   2.366   0.800   1.769
 7313SOL    HW122838   2.330   0.713   1.802
 7313SOL    HW222839   2.325   0.875   1.820
 7314SOL     OW22840   0.135   4.499   6.957
 7314SOL    HW122841   0.078   4.462   0.005
 7314SOL    HW222842   0.171   4.588   6.984
 7315SOL     OW22843   0.656   5.102   2.049
 7315SOL    HW122844   0.648   5.201   2.064
 7315SOL    HW222845   0.743   5.082   2.005
 7316SOL     OW22846   3.088   2.115   6.450
 7316SOL    HW122847   3.041   2.029   6.429
 7316SOL    HW222848   3.165   2.127   6.387
 7317SOL     OW22849   3.536   1.385   1.852
 7317SOL    HW122850   3.613   1.321   1.857
 7317SOL    HW222851   3.453   1.336   1.827
 7318SOL     OW22852   3.665   0.184   2.034
 7318SOL    HW122853   3.652   0.087   2.015
 7318SOL    HW222854   3.579   0.233   2.021
 7319SOL     OW22855   6.526   4.652   0.367
 7319SOL    HW122856   6.609   4.615   0.409
 7319SOL    HW222857   6.451   4.587   0.381
 7320SOL     OW22858   6.912   3.522   1.347
 7320SOL    HW122859   6.925   3.442   1.287
 7320SOL    HW222860   6.909   3.604   1.291
 7321SOL     OW22861   2.406   5.696   6.432
 7321SOL    HW122862   2.333   5.726   6.371
 7321SOL    HW222863   2.417   5.761   6.507
 7322SOL     OW22864   0.311   1.969   2.147
 7322SOL    HW122865   0.374   2.027   2.198
 7322SOL    HW222866   0.276   2.019   2.068
 7323SOL     OW22867   1.321   1.848   1.214
 7323SOL    HW122868   1.248   1.900   1.168
 7323SOL    HW222869   1.393   1.911   1.242
 7324SOL     OW22870   5.897   4.494   3.345
 7324SOL    HW122871   5.899   4.401   3.310
 7324SOL    HW222872   5.811   4.538   3.320
 7325SOL     OW22873   4.022   0.899   6.102
 7325SOL    HW122874   4.037   0.874   6.197
 7325SOL    HW222875   3.952   0.840   6.063
 7326SOL     OW22876   2.617   0.763   6.312
 7326SOL    HW122877   2.581   0.852   6.282
 7326SOL    HW222878   2.599   0.695   6.241
 7327SOL     OW22879   6.098   3.817   3.340
 7327SOL    HW122880   6.005   3.829   3.305
 7327SOL    HW222881   6.153   3.897   3.316
 7328SOL     OW22882   4.181   5.149   5.183
 7328SOL    HW122883   4.251   5.088   5.147
 7328SOL    HW222884   4.182   5.235   5.132
 7329SOL     OW22885   2.686   2.967   0.574
 7329SOL    HW122886   2.623   2.927   0.507
 7329SOL    HW222887   2.773   2.917   0.571
 7330SOL     OW22888   3.437   2.565   1.596
 7330SOL    HW122889   3.528   2.537   1.625
 7330SOL    HW222890   3.395   2.492   1.541
 7331SOL     OW22891   4.212   0.205   1.660
 7331SOL    HW122892   4.224   0.303   1.675
 7331SOL    HW222893   4.281   0.155   1.712
 7332SOL     OW22894   3.470   3.805   0.047
 7332SOL    HW122895   3.460   3.759   0.135
 7332SOL    HW222896   3.557   3.779   0.005
 7333SOL     OW22897   6.383   2.667   1.868
 7333SOL    HW122898   6.448   2.743   1.857
 7333SOL    HW222899   6.361   2.656   1.965
 7334SOL     OW22900   2.931   6.962   5.587
 7334SOL    HW122901   3.023   6.930   5.609
 7334SOL    HW222902   2.890   7.006   5.666
 7335SOL     OW22903   6.924   3.376   2.845
 7335SOL    HW122904   6.894   3.362   2.751
 7335SOL    HW222905   6.865   3.443   2.889
 7336SOL     OW22906   1.817   6.049   0.819
 7336SOL    HW122907   1.757   6.012   0.891
 7336SOL    HW222908   1.790   6.012   0.731
 7337SOL     OW22909   2.546   2.351   2.173
 7337SOL    HW122910   2.518   2.389   2.261
 7337SOL    HW222911   2.483   2.278   2.147
 7338SOL     OW22912   5.673   3.090   1.565
 7338SOL    HW122913   5.695   3.179   1.606
 7338SOL    HW222914   5.683   3.018   1.635
 7339SOL     OW22915   6.494   5.587   5.240
 7339SOL    HW122916   6.470   5.558   5.148
 7339SOL    HW222917   6.482   5.511   5.304
 7340SOL     OW22918   2.557   0.608   6.870
 7340SOL    HW122919   2.550   0.641   6.964
 7340SOL    HW222920   2.492   0.657   6.813
 7341SOL     OW22921   0.168   4.849   4.129
 7341SOL    HW122922   0.266   4.856   4.112
 7341SOL    HW222923   0.129   4.941   4.135
 7342SOL     OW22924   6.697   0.436   0.405
 7342SOL    HW122925   6.614   0.438   0.349
 7342SOL    HW222926   6.688   0.364   0.475
 7343SOL     OW22927   5.770   4.097   2.831
 7343SOL    HW122928   5.704   4.130   2.763
 7343SOL    HW222929   5.789   4.000   2.814
 7344SOL     OW22930   1.911   6.572   6.790
 7344SOL    HW122931   1.910   6.645   6.722
 7344SOL    HW222932   1.826   6.520   6.784
 7345SOL     OW22933   4.384   5.289   5.818
 7345SOL    HW122934   4.453   5.283   5.746
 7345SOL    HW222935   4.293   5.275   5.778
 7346SOL     OW22936   3.601   4.937   1.226
 7346SOL    HW122937   3.554   4.963   1.311
 7346SOL    HW222938   3.694   4.974   1.227
 7347SOL     OW22939   5.948   2.104   2.191
 7347SOL    HW122940   5.909   2.194   2.211
 7347SOL    HW222941   5.876   2.036   2.192
 7348SOL     OW22942   1.350   2.558   4.092
 7348SOL    HW122943   1.293   2.515   4.162
 7348SOL    HW222944   1.352   2.657   4.107
 7349SOL     OW22945   3.570   2.014   0.945
 7349SOL    HW122946   3.637   2.047   0.878
 7349SOL    HW222947   3.580   1.915   0.957
 7350SOL     OW22948   0.235   2.613   3.290
 7350SOL    HW122949   0.331   2.582   3.293
 7350SOL    HW222950   0.178   2.541   3.251
 7351SOL     OW22951   4.289   4.737   6.405
 7351SOL    HW122952   4.255   4.831   6.405
 7351SOL    HW222953   4.236   4.683   6.339
 7352SOL     OW22954   1.449   2.128   2.312
 7352SOL    HW122955   1.359   2.090   2.331
 7352SOL    HW222956   1.455   2.151   2.215
 7353SOL     OW22957   6.309   1.967   4.804
 7353SOL    HW122958   6.315   1.868   4.793
 7353SOL    HW222959   6.304   2.010   4.714
 7354SOL     OW22960   6.591   6.777   6.153
 7354SOL    HW122961   6.540   6.822   6.226
 7354SOL    HW222962   6.565   6.816   6.065
 7355SOL     OW22963   0.854   5.686   1.566
 7355SOL    HW122964   0.809   5.600   1.593
 7355SOL    HW222965   0.824   5.711   1.474
 7356SOL     OW22966   6.115   1.863   6.581
 7356SOL    HW122967   6.060   1.945   6.591
 7356SOL    HW222968   6.069   1.798   6.520
 7357SOL     OW22969   4.971   1.366   7.006
 7357SOL    HW122970   4.944   1.460   6.984
 7357SOL    HW222971   5.070   1.356   6.995
 7358SOL     OW22972   3.646   2.081   3.840
 7358SOL    HW122973   3.627   2.087   3.938
 7358SOL    HW222974   3.717   2.148   3.817
 7359SOL     OW22975   4.123   3.341   2.511
 7359SOL    HW122976   4.130   3.266   2.577
 7359SOL    HW222977   4.028   3.351   2.482
 7360SOL     OW22978   1.178   2.228   5.349
 7360SOL    HW122979   1.154   2.310   5.401
 7360SOL    HW222980   1.226   2.254   5.265
 7361SOL     OW22981   5.300   6.125   1.005
 7361SOL    HW122982   5.289   6.109   1.103
 7361SOL    HW222983   5.331   6.219   0.989
 7362SOL     OW22984   1.498   6.506   5.170
 7362SOL    HW122985   1.591   6.542   5.175
 7362SOL    HW222986   1.462   6.494   5.262
 7363SOL     OW22987   5.494   2.651   6.829
 7363SOL    HW122988   5.504   2.738   6.877
 7363SOL    HW222989   5.523   2.576   6.889
 7364SOL     OW22990   4.441   6.888   0.994
 7364SOL    HW122991   4.347   6.856   0.979
 7364SOL    HW222992   4.464   6.876   1.091
 7365SOL     OW22993   2.809   0.499   2.502
 7365SOL    HW122994   2.812   0.576   2.438
 7365SOL    HW222995   2.737   0.435   2.474
 7366SOL     OW22996   0.383   5.470   6.469
 7366SOL    HW122997   0.325   5.465   6.550
 7366SOL    HW222998   0.433   5.384   6.458
 7367SOL     OW22999   5.239   3.764   1.309
 7367SOL    HW123000   5.296   3.838   1.346
 7367SOL    HW223001   5.257   3.679   1.359
 7368SOL     OW23002   3.198   3.178   4.518
 7368SOL    HW123003   3.116   3.234   4.512
 7368SOL    HW223004   3.275   3.226   4.477
 7369SOL     OW23005   5.154   4.144   1.051
 7369SOL    HW123006   5.129   4.149   0.954
 7369SOL    HW223007   5.250   4.121   1.060
 7370SOL     OW23008   2.235   6.819   0.572
 7370SOL    HW123009   2.266   6.835   0.478
 7370SOL    HW223010   2.310   6.835   0.635
 7371SOL     OW23011   3.002   5.176   4.057
 7371SOL    HW123012   3.066   5.220   4.120
 7371SOL    HW223013   2.933   5.242   4.028
 7372SOL     OW23014   3.863   0.242   5.506
 7372SOL    HW123015   3.954   0.208   5.481
 7372SOL    HW223016   3.836   0.202   5.594
 7373SOL     OW23017   3.974   0.587   3.796
 7373SOL    HW123018   4.016   0.567   3.708
 7373SOL    HW223019   4.044   0.589   3.867
 7374SOL     OW23020   1.768   3.290   5.974
 7374SOL    HW123021   1.865   3.267   5.962
 7374SOL    HW223022   1.741   3.355   5.903
 7375SOL     OW23023   0.964   1.088   4.845
 7375SOL    HW123024   0.998   1.179   4.868
 7375SOL    HW223025   0.881   1.096   4.790
 7376SOL     OW23026   2.826   3.040   6.889
 7376SOL    HW123027   2.767   3.023   6.968
 7376SOL    HW223028   2.907   2.982   6.894
 7377SOL     OW23029   4.628   4.438   1.805
 7377SOL    HW123030   4.549   4.379   1.824
 7377SOL    HW223031   4.704   4.410   1.863
 7378SOL     OW23032   0.501   2.086   5.144
 7378SOL    HW123033   0.546   2.167   5.109
 7378SOL    HW223034   0.490   2.094   5.243
 7379SOL     OW23035   4.026   1.219   2.154
 7379SOL    HW123036   4.016   1.298   2.216
 7379SOL    HW223037   4.037   1.252   2.061
 7380SOL     OW23038   6.647   2.799   5.750
 7380SOL    HW123039   6.663   2.875   5.812
 7380SOL    HW223040   6.709   2.805   5.672
 7381SOL     OW23041   4.938   3.102   2.201
 7381SOL    HW123042   4.868   3.087   2.132
 7381SOL    HW223043   4.916   3.183   2.254
 7382SOL     OW23044   0.425   4.242   4.788
 7382SOL    HW123045   0.353   4.218   4.722
 7382SOL    HW223046   0.430   4.172   4.858
 7383SOL     OW23047   0.049   6.206   2.269
 7383SOL    HW123048   0.111   6.162   2.334
 7383SOL    HW223049   7.003   6.141   2.244
 7384SOL     OW23050   5.007   6.571   2.365
 7384SOL    HW123051   5.100   6.564   2.327
 7384SOL    HW223052   5.001   6.514   2.447
 7385SOL     OW23053   4.586   6.064   1.998
 7385SOL    HW123054   4.557   6.005   2.073
 7385SOL    HW223055   4.685   6.067   1.993
 7386SOL     OW23056   1.139   2.546   5.897
 7386SOL    HW123057   1.083   2.600   5.960
 7386SOL    HW223058   1.158   2.457   5.938
 7387SOL     OW23059   4.353   5.631   4.097
 7387SOL    HW123060   4.395   5.547   4.132
 7387SOL    HW223061   4.406   5.710   4.127
 7388SOL     OW23062   6.898   5.086   4.036
 7388SOL    HW123063   6.993   5.079   4.005
 7388SOL    HW223064   6.839   5.111   3.959
 7389SOL     OW23065   1.268   4.043   6.830
 7389SOL    HW123066   1.244   4.055   6.926
 7389SOL    HW223067   1.340   3.975   6.822
 7390SOL     OW23068   0.275   1.703   0.093
 7390SOL    HW123069   0.184   1.706   0.052
 7390SOL    HW223070   0.285   1.779   0.157
 7391SOL     OW23071   5.980   3.786   6.155
 7391SOL    HW123072   5.981   3.805   6.057
 7391SOL    HW223073   5.902   3.727   6.177
 7392SOL     OW23074   1.625   5.395   5.236
 7392SOL    HW123075   1.609   5.345   5.321
 7392SOL    HW223076   1.723   5.410   5.223
 7393SOL     OW23077   6.026   5.335   2.315
 7393SOL    HW123078   6.050   5.430   2.298
 7393SOL    HW223079   6.045   5.312   2.410
 7394SOL     OW23080   3.698   3.362   6.329
 7394SOL    HW123081   3.731   3.452   6.299
 7394SOL    HW223082   3.765   3.292   6.303
 7395SOL     OW23083   0.641   0.498   6.202
 7395SOL    HW123084   0.673   0.481   6.295
 7395SOL    HW223085   0.691   0.438   6.139
 7396SOL     OW23086   1.480   0.648   5.826
 7396SOL    HW123087   1.565   0.615   5.868
 7396SOL    HW223088   1.418   0.572   5.810
 7397SOL     OW23089   6.250   4.333   4.855
 7397SOL    HW123090   6.156   4.298   4.858
 7397SOL    HW223091   6.259   4.395   4.777
 7398SOL     OW23092   4.692   5.427   3.850
 7398SOL    HW123093   4.689   5.472   3.939
 7398SOL    HW223094   4.785   5.434   3.812
 7399SOL     OW23095   6.338   3.719   5.774
 7399SOL    HW123096   6.353   3.748   5.869
 7399SOL    HW223097   6.264   3.773   5.734
 7400SOL     OW23098   3.039   4.097   7.022
 7400SOL    HW123099   3.099   4.028   6.981
 7400SOL    HW223100   3.061   4.187   6.984
 7401SOL     OW23101   0.032   1.265   4.056
 7401SOL    HW123102   0.052   1.341   4.119
 7401SOL    HW223103   7.007   1.299   3.977
 7402SOL     OW23104   2.108   0.062   3.778
 7402SOL    HW123105   2.044   0.041   3.851
 7402SOL    HW223106   2.067   0.129   3.716
 7403SOL     OW23107   1.589   2.980   3.552
 7403SOL    HW123108   1.673   2.993   3.605
 7403SOL    HW223109   1.609   2.996   3.455
 7404SOL     OW23110   1.531   0.409   1.100
 7404SOL    HW123111   1.625   0.381   1.085
 7404SOL    HW223112   1.498   0.461   1.021
 7405SOL     OW23113   2.296   5.174   4.968
 7405SOL    HW123114   2.278   5.266   4.933
 7405SOL    HW223115   2.338   5.180   5.058
 7406SOL     OW23116   1.462   3.452   2.367
 7406SOL    HW123117   1.406   3.415   2.441
 7406SOL    HW223118   1.491   3.377   2.307
 7407SOL     OW23119   0.375   6.238   5.139
 7407SOL    HW123120   0.310   6.165   5.162
 7407SOL    HW223121   0.417   6.217   5.051
 7408SOL     OW23122   1.857   4.188   5.668
 7408SOL    HW123123   1.757   4.200   5.666
 7408SOL    HW223124   1.881   4.106   5.617
 7409SOL     OW23125   0.918   0.823   4.882
 7409SOL    HW123126   0.926   0.922   4.876
 7409SOL    HW223127   0.833   0.794   4.838
 7410SOL     OW23128   0.436   4.438   1.129
 7410SOL    HW123129   0.354   4.400   1.171
 7410SOL    HW223130   0.517   4.403   1.175
 7411SOL     OW23131   2.738   6.682   4.242
 7411SOL    HW123132   2.644   6.697   4.272
 7411SOL    HW223133   2.784   6.621   4.307
 7412SOL     OW23134   2.412   0.648   0.733
 7412SOL    HW123135   2.476   0.677   0.804
 7412SOL    HW223136   2.436   0.692   0.647
 7413SOL     OW23137   0.084   3.069   4.126
 7413SOL    HW123138   0.017   3.119   4.181
 7413SOL    HW223139   0.039   2.990   4.084
 7414SOL     OW23140   6.365   0.190   2.249
 7414SOL    HW123141   6.311   0.122   2.200
 7414SOL    HW223142   6.305   0.244   2.308
 7415SOL     OW23143   1.731   3.138   2.984
 7415SOL    HW123144   1.721   3.050   2.936
 7415SOL    HW223145   1.767   3.121   3.076
 7416SOL     OW23146   3.640   1.423   4.616
 7416SOL    HW123147   3.580   1.481   4.561
 7416SOL    HW223148   3.684   1.479   4.687
 7417SOL     OW23149   1.667   0.151   6.071
 7417SOL    HW123150   1.747   0.136   6.012
 7417SOL    HW223151   1.675   0.240   6.117
 7418SOL     OW23152   2.500   4.127   1.351
 7418SOL    HW123153   2.429   4.073   1.396
 7418SOL    HW223154   2.523   4.085   1.263
 7419SOL     OW23155   5.788   1.988   4.535
 7419SOL    HW123156   5.871   1.933   4.524
 7419SOL    HW223157   5.708   1.927   4.536
 7420SOL     OW23158   6.472   6.492   2.110
 7420SOL    HW123159   6.445   6.533   2.023
 7420SOL    HW223160   6.544   6.425   2.094
 7421SOL     OW23161   3.511   3.898   1.493
 7421SOL    HW123162   3.555   3.863   1.410
 7421SOL    HW223163   3.582   3.925   1.558
 7422SOL     OW23164   0.221   3.707   1.153
 7422SOL    HW123165   0.303   3.748   1.113
 7422SOL    HW223166   0.247   3.643   1.225
 7423SOL     OW23167   2.080   4.764   6.147
 7423SOL    HW123168   2.102   4.777   6.244
 7423SOL    HW223169   2.016   4.836   6.119
 7424SOL     OW23170   5.781   1.711   4.362
 7424SOL    HW123171   5.719   1.735   4.437
 7424SOL    HW223172   5.873   1.697   4.397
 7425SOL     OW23173   3.662   4.544   6.076
 7425SOL    HW123174   3.618   4.455   6.092
 7425SOL    HW223175   3.742   4.532   6.018
 7426SOL     OW23176   0.036   2.164   0.064
 7426SOL    HW123177   0.020   2.241   0.126
 7426SOL    HW223178   0.016   2.078   0.111
 7427SOL     OW23179   3.299   6.092   4.737
 7427SOL    HW123180   3.209   6.074   4.699
 7427SOL    HW223181   3.295   6.089   4.837
 7428SOL     OW23182   3.691   2.410   5.635
 7428SOL    HW123183   3.620   2.461   5.586
 7428SOL    HW223184   3.740   2.473   5.696
 7429SOL     OW23185   6.870   0.040   2.812
 7429SOL    HW123186   6.856   0.104   2.737
 7429SOL    HW223187   6.924   6.988   2.780
 7430SOL     OW23188   6.425   4.272   5.366
 7430SOL    HW123189   6.459   4.189   5.322
 7430SOL    HW223190   6.391   4.250   5.457
 7431SOL     OW23191   0.671   3.782   1.631
 7431SOL    HW123192   0.639   3.873   1.604
 7431SOL    HW223193   0.692   3.783   1.729
 7432SOL     OW23194   0.467   6.468   3.612
 7432SOL    HW123195   0.469   6.442   3.515
 7432SOL    HW223196   0.397   6.415   3.660
 7433SOL     OW23197   6.755   5.373   0.892
 7433SOL    HW123198   6.772   5.353   0.989
 7433SOL    HW223199   6.660   5.404   0.881
 7434SOL     OW23200   2.782   1.956   6.821
 7434SOL    HW123201   2.857   1.917   6.767
 7434SOL    HW223202   2.787   2.056   6.817
 7435SOL     OW23203   3.394   6.922   6.276
 7435SOL    HW123204   3.475   6.881   6.234
 7435SOL    HW223205   3.313   6.868   6.252
 7436SOL     OW23206   5.852   3.262   6.982
 7436SOL    HW123207   5.926   3.320   7.016
 7436SOL    HW223208   5.874   3.166   6.999
 7437SOL     OW23209   0.096   5.063   6.228
 7437SOL    HW123210   7.023   5.077   6.227
 7437SOL    HW223211   0.123   5.019   6.143
 7438SOL     OW23212   0.603   4.232   2.143
 7438SOL    HW123213   0.508   4.204   2.162
 7438SOL    HW223214   0.651   4.156   2.100
 7439SOL     OW23215   2.294   0.153   4.030
 7439SOL    HW123216   2.366   0.173   3.963
 7439SOL    HW223217   2.252   0.239   4.061
 7440SOL     OW23218   1.462   3.176   4.641
 7440SOL    HW123219   1.447   3.122   4.558
 7440SOL    HW223220   1.402   3.256   4.640
 7441SOL     OW23221   4.815   1.003   3.864
 7441SOL    HW123222   4.849   0.954   3.945
 7441SOL    HW223223   4.860   0.967   3.782
 7442SOL     OW23224   1.146   1.492   6.585
 7442SOL    HW123225   1.181   1.464   6.495
 7442SOL    HW223226   1.047   1.484   6.586
 7443SOL     OW23227   6.924   2.047   0.569
 7443SOL    HW123228   6.833   2.072   0.537
 7443SOL    HW223229   6.940   1.950   0.551
 7444SOL     OW23230   6.801   2.992   6.455
 7444SOL    HW123231   6.833   2.956   6.543
 7444SOL    HW223232   6.704   2.971   6.443
 7445SOL     OW23233   4.967   1.740   1.589
 7445SOL    HW123234   4.917   1.691   1.518
 7445SOL    HW223235   5.001   1.675   1.657
 7446SOL     OW23236   6.331   4.103   0.060
 7446SOL    HW123237   6.242   4.062   0.038
 7446SOL    HW223238   6.360   4.072   0.150
 7447SOL     OW23239   1.868   4.453   0.448
 7447SOL    HW123240   1.925   4.463   0.366
 7447SOL    HW223241   1.841   4.357   0.457
 7448SOL     OW23242   5.421   7.008   5.869
 7448SOL    HW123243   5.343   6.969   5.919
 7448SOL    HW223244   5.485   0.023   5.935
 7449SOL     OW23245   4.674   2.402   2.124
 7449SOL    HW123246   4.595   2.461   2.108
 7449SOL    HW223247   4.645   2.307   2.127
 7450SOL     OW23248   4.722   2.838   3.088
 7450SOL    HW123249   4.751   2.932   3.104
 7450SOL    HW223250   4.671   2.805   3.168
 7451SOL     OW23251   1.613   1.114   4.810
 7451SOL    HW123252   1.706   1.133   4.781
 7451SOL    HW223253   1.601   1.143   4.905
 7452SOL     OW23254   1.719   0.785   5.481
 7452SOL    HW123255   1.768   0.856   5.431
 7452SOL    HW223256   1.670   0.826   5.558
 7453SOL     OW23257   6.079   6.530   4.951
 7453SOL    HW123258   6.047   6.619   4.919
 7453SOL    HW223259   6.178   6.525   4.941
 7454SOL     OW23260   0.815   3.800   0.964
 7454SOL    HW123261   0.785   3.796   0.869
 7454SOL    HW223262   0.914   3.785   0.968
 7455SOL     OW23263   5.505   2.276   0.646
 7455SOL    HW123264   5.456   2.336   0.583
 7455SOL    HW223265   5.519   2.186   0.603
 7456SOL     OW23266   1.669   3.054   4.742
 7456SOL    HW123267   1.591   3.105   4.707
 7456SOL    HW223268   1.671   3.060   4.842
 7457SOL     OW23269   5.719   0.992   5.626
 7457SOL    HW123270   5.662   1.002   5.707
 7457SOL    HW223271   5.695   0.907   5.578
 7458SOL     OW23272   2.863   6.741   0.131
 7458SOL    HW123273   2.793   6.739   0.202
 7458SOL    HW223274   2.913   6.828   0.137
 7459SOL     OW23275   4.764   0.219   5.762
 7459SOL    HW123276   4.827   0.296   5.754
 7459SOL    HW223277   4.814   0.137   5.788
 7460SOL     OW23278   2.343   4.530   1.164
 7460SOL    HW123279   2.262   4.474   1.147
 7460SOL    HW223280   2.373   4.517   1.258
 7461SOL     OW23281   5.574   1.216   6.307
 7461SOL    HW123282   5.564   1.117   6.314
 7461SOL    HW223283   5.666   1.243   6.336
 7462SOL     OW23284   2.197   2.070   1.643
 7462SOL    HW123285   2.140   2.098   1.720
 7462SOL    HW223286   2.214   2.148   1.583
 7463SOL     OW23287   3.393   2.991   1.411
 7463SOL    HW123288   3.315   2.928   1.405
 7463SOL    HW223289   3.432   3.005   1.320
 7464SOL     OW23290   3.706   6.244   0.570
 7464SOL    HW123291   3.690   6.329   0.520
 7464SOL    HW223292   3.687   6.166   0.510
 7465SOL     OW23293   1.704   0.061   1.237
 7465SOL    HW123294   1.623   0.119   1.245
 7465SOL    HW223295   1.718   0.012   1.323
 7466SOL     OW23296   0.415   0.390   6.512
 7466SOL    HW123297   0.459   0.476   6.540
 7466SOL    HW223298   0.483   0.329   6.472
 7467SOL     OW23299   6.865   2.233   1.042
 7467SOL    HW123300   6.889   2.302   0.975
 7467SOL    HW223301   6.943   2.217   1.103
 7468SOL     OW23302   4.648   2.613   2.401
 7468SOL    HW123303   4.672   2.683   2.334
 7468SOL    HW223304   4.705   2.532   2.387
 7469SOL     OW23305   1.102   6.660   6.171
 7469SOL    HW123306   1.166   6.716   6.118
 7469SOL    HW223307   1.095   6.697   6.264
 7470SOL     OW23308   0.346   2.283   2.696
 7470SOL    HW123309   0.328   2.259   2.791
 7470SOL    HW223310   0.282   2.354   2.667
 7471SOL     OW23311   6.433   6.650   4.690
 7471SOL    HW123312   6.453   6.630   4.594
 7471SOL    HW223313   6.395   6.569   4.733
 7472SOL     OW23314   4.156   6.950   4.453
 7472SOL    HW123315   4.213   6.869   4.460
 7472SOL    HW223316   4.101   6.961   4.536
 7473SOL     OW23317   0.660   3.652   4.353
 7473SOL    HW123318   0.666   3.713   4.433
 7473SOL    HW223319   0.713   3.691   4.278
 7474SOL     OW23320   3.151   0.829   3.803
 7474SOL    HW123321   3.091   0.827   3.882
 7474SOL    HW223322   3.236   0.876   3.827
 7475SOL     OW23323   5.089   0.696   2.215
 7475SOL    HW123324   5.113   0.686   2.119
 7475SOL    HW223325   5.159   0.653   2.272
 7476SOL     OW23326   4.717   6.484   4.946
 7476SOL    HW123327   4.755   6.406   4.896
 7476SOL    HW223328   4.734   6.568   4.895
 7477SOL     OW23329   4.464   0.623   4.234
 7477SOL    HW123330   4.432   0.586   4.322
 7477SOL    HW223331   4.491   0.718   4.246
 7478SOL     OW23332   2.945   3.514   6.245
 7478SOL    HW123333   2.915   3.580   6.314
 7478SOL    HW223334   2.921   3.422   6.275
 7479SOL     OW23335   3.847   1.615   0.300
 7479SOL    HW123336   3.815   1.571   0.384
 7479SOL    HW223337   3.888   1.703   0.322
 7480SOL     OW23338   6.013   5.501   1.539
 7480SOL    HW123339   5.993   5.560   1.461
 7480SOL    HW223340   6.016   5.556   1.622
 7481SOL     OW23341   5.357   5.244   0.763
 7481SOL    HW123342   5.454   5.264   0.756
 7481SOL    HW223343   5.340   5.187   0.843
 7482SOL     OW23344   3.754   0.791   1.490
 7482SOL    HW123345   3.661   0.780   1.525
 7482SOL    HW223346   3.810   0.837   1.558
 7483SOL     OW23347   3.648   1.837   4.140
 7483SOL    HW123348   3.641   1.776   4.219
 7483SOL    HW223349   3.680   1.784   4.061
 7484SOL     OW23350   1.257   6.467   1.638
 7484SOL    HW123351   1.295   6.383   1.600
 7484SOL    HW223352   1.240   6.454   1.736
 7485SOL     OW23353   2.897   6.666   5.904
 7485SOL    HW123354   2.870   6.569   5.909
 7485SOL    HW223355   2.977   6.675   5.846
 7486SOL     OW23356   3.071   0.035   4.973
 7486SOL    HW123357   3.148   6.998   4.963
 7486SOL    HW223358   3.051   0.078   4.885
 7487SOL     OW23359   2.382   7.010   2.709
 7487SOL    HW123360   2.471   7.019   2.665
 7487SOL    HW223361   2.392   6.964   2.797
 7488SOL     OW23362   2.687   0.039   5.386
 7488SOL    HW123363   2.761   0.002   5.442
 7488SOL    HW223364   2.632   0.102   5.440
 7489SOL     OW23365   4.674   2.292   4.773
 7489SOL    HW123366   4.739   2.357   4.733
 7489SOL    HW223367   4.623   2.247   4.700
 7490SOL     OW23368   0.028   0.776   0.887
 7490SOL    HW123369   6.974   0.830   0.859
 7490SOL    HW223370   0.008   0.679   0.878
 7491SOL     OW23371   0.551   5.511   5.984
 7491SOL    HW123372   0.452   5.492   5.988
 7491SOL    HW223373   0.572   5.589   6.042
 7492SOL     OW23374   1.936   2.296   5.669
 7492SOL    HW123375   1.897   2.339   5.750
 7492SOL    HW223376   1.866   2.242   5.623
 7493SOL     OW23377   6.275   4.846   5.901
 7493SOL    HW123378   6.210   4.821   5.973
 7493SOL    HW223379   6.245   4.808   5.814
 7494SOL     OW23380   5.398   0.877   2.230
 7494SOL    HW123381   5.318   0.919   2.273
 7494SOL    HW223382   5.480   0.929   2.255
 7495SOL     OW23383   1.924   1.509   1.157
 7495SOL    HW123384   2.003   1.449   1.164
 7495SOL    HW223385   1.909   1.534   1.061
 7496SOL     OW23386   1.682   4.914   5.994
 7496SOL    HW123387   1.622   4.921   5.914
 7496SOL    HW223388   1.628   4.924   6.078
 7497SOL     OW23389   2.817   5.275   1.997
 7497SOL    HW123390   2.801   5.221   1.914
 7497SOL    HW223391   2.905   5.321   1.990
 7498SOL     OW23392   2.984   0.582   4.333
 7498SOL    HW123393   2.987   0.682   4.334
 7498SOL    HW223394   2.901   0.552   4.286
 7499SOL     OW23395   6.104   6.924   3.832
 7499SOL    HW123396   6.014   6.958   3.803
 7499SOL    HW223397   6.175   6.966   3.775
 7500SOL     OW23398   4.007   5.847   2.357
 7500SOL    HW123399   3.977   5.770   2.414
 7500SOL    HW223400   4.105   5.861   2.368
 7501SOL     OW23401   0.729   3.775   3.656
 7501SOL    HW123402   0.745   3.815   3.566
 7501SOL    HW223403   0.747   3.677   3.653
 7502SOL     OW23404   1.662   1.221   5.480
 7502SOL    HW123405   1.576   1.247   5.523
 7502SOL    HW223406   1.714   1.162   5.542
 7503SOL     OW23407   2.689   0.520   6.189
 7503SOL    HW123408   2.785   0.506   6.217
 7503SOL    HW223409   2.686   0.564   6.099
 7504SOL     OW23410   3.871   6.597   3.868
 7504SOL    HW123411   3.845   6.524   3.805
 7504SOL    HW223412   3.971   6.602   3.873
 7505SOL     OW23413   2.639   1.139   5.007
 7505SOL    HW123414   2.616   1.223   5.057
 7505SOL    HW223415   2.670   1.162   4.915
 7506SOL     OW23416   3.710   0.586   2.485
 7506SOL    HW123417   3.776   0.511   2.492
 7506SOL    HW223418   3.704   0.634   2.573
 7507SOL     OW23419   0.410   6.572   6.493
 7507SOL    HW123420   0.427   6.602   6.399
 7507SOL    HW223421   0.492   6.528   6.530
 7508SOL     OW23422   5.736   6.501   2.410
 7508SOL    HW123423   5.741   6.596   2.379
 7508SOL    HW223424   5.642   6.482   2.442
 7509SOL     OW23425   4.861   4.529   0.817
 7509SOL    HW123426   4.900   4.437   0.817
 7509SOL    HW223427   4.787   4.533   0.750
 7510SOL     OW23428   3.099   4.028   4.338
 7510SOL    HW123429   3.004   4.039   4.310
 7510SOL    HW223430   3.160   4.040   4.260
 7511SOL     OW23431   1.569   0.580   2.295
 7511SOL    HW123432   1.616   0.493   2.276
 7511SOL    HW223433   1.622   0.632   2.361
 7512SOL     OW23434   2.578   3.787   1.471
 7512SOL    HW123435   2.674   3.812   1.484
 7512SOL    HW223436   2.573   3.696   1.429
 7513SOL     OW23437   1.759   2.682   6.696
 7513SOL    HW123438   1.719   2.703   6.785
 7513SOL    HW223439   1.800   2.591   6.699
 7514SOL     OW23440   3.073   6.378   1.831
 7514SOL    HW123441   2.975   6.368   1.851
 7514SOL    HW223442   3.126   6.342   1.907
 7515SOL     OW23443   0.843   0.226   2.774
 7515SOL    HW123444   0.804   0.310   2.738
 7515SOL    HW223445   0.865   0.238   2.871
 7516SOL     OW23446   6.783   6.326   4.435
 7516SOL    HW123447   6.794   6.364   4.528
 7516SOL    HW223448   6.695   6.281   4.428
 7517SOL     OW23449   6.697   3.651   1.505
 7517SOL    HW123450   6.692   3.646   1.605
 7517SOL    HW223451   6.781   3.606   1.474
 7518SOL     OW23452   3.841   5.643   3.591
 7518SOL    HW123453   3.773   5.695   3.642
 7518SOL    HW223454   3.910   5.607   3.654
 7519SOL     OW23455   1.062   6.636   4.262
 7519SOL    HW123456   1.137   6.700   4.246
 7519SOL    HW223457   1.098   6.554   4.308
 7520SOL     OW23458   1.674   0.711   2.568
 7520SOL    HW123459   1.696   0.751   2.657
 7520SOL    HW223460   1.749   0.728   2.504
 7521SOL     OW23461   4.468   4.467   5.361
 7521SOL    HW123462   4.542   4.431   5.417
 7521SOL    HW223463   4.396   4.398   5.352
 7522SOL     OW23464   2.545   1.202   6.751
 7522SOL    HW123465   2.471   1.167   6.694
 7522SOL    HW223466   2.514   1.209   6.845
 7523SOL     OW23467   6.096   0.140   5.310
 7523SOL    HW123468   6.044   0.069   5.261
 7523SOL    HW223469   6.035   0.191   5.370
 7524SOL     OW23470   6.966   1.923   6.191
 7524SOL    HW123471   0.020   1.899   6.135
 7524SOL    HW223472   6.996   1.937   6.285
 7525SOL     OW23473   2.139   6.845   0.057
 7525SOL    HW123474   2.069   6.790   0.011
 7525SOL    HW223475   2.112   6.941   0.056
 7526SOL     OW23476   3.106   3.220   3.966
 7526SOL    HW123477   3.037   3.238   4.036
 7526SOL    HW223478   3.178   3.162   4.004
 7527SOL     OW23479   5.060   4.348   2.122
 7527SOL    HW123480   5.027   4.417   2.057
 7527SOL    HW223481   5.152   4.372   2.153
 7528SOL     OW23482   4.304   2.584   0.394
 7528SOL    HW123483   4.293   2.564   0.297
 7528SOL    HW223484   4.312   2.683   0.408
 7529SOL     OW23485   4.966   0.999   3.617
 7529SOL    HW123486   5.009   0.945   3.545
 7529SOL    HW223487   4.902   1.064   3.576
 7530SOL     OW23488   0.069   3.448   2.342
 7530SOL    HW123489   0.087   3.478   2.436
 7530SOL    HW223490   6.996   3.449   2.326
 7531SOL     OW23491   4.249   1.957   3.955
 7531SOL    HW123492   4.159   1.915   3.959
 7531SOL    HW223493   4.241   2.055   3.976
 7532SOL     OW23494   5.422   5.298   1.869
 7532SOL    HW123495   5.448   5.304   1.772
 7532SOL    HW223496   5.409   5.390   1.906
 7533SOL     OW23497   1.820   1.419   3.290
 7533SOL    HW123498   1.744   1.464   3.243
 7533SOL    HW223499   1.793   1.399   3.385
 7534SOL     OW23500   3.912   6.024   5.207
 7534SOL    HW123501   3.860   6.002   5.124
 7534SOL    HW223502   4.001   6.061   5.181
 7535SOL     OW23503   2.138   1.778   5.674
 7535SOL    HW123504   2.088   1.692   5.673
 7535SOL    HW223505   2.079   1.851   5.709
 7536SOL     OW23506   4.864   5.013   5.109
 7536SOL    HW123507   4.847   5.080   5.181
 7536SOL    HW223508   4.909   4.933   5.149
 7537SOL     OW23509   1.904   4.343   4.732
 7537SOL    HW123510   1.864   4.410   4.794
 7537SOL    HW223511   2.002   4.335   4.748
 7538SOL     OW23512   3.204   3.418   2.493
 7538SOL    HW123513   3.194   3.371   2.581
 7538SOL    HW223514   3.114   3.434   2.453
 7539SOL     OW23515   2.493   2.654   5.168
 7539SOL    HW123516   2.498   2.749   5.200
 7539SOL    HW223517   2.398   2.622   5.172
 7540SOL     OW23518   3.260   0.657   6.646
 7540SOL    HW123519   3.339   0.713   6.619
 7540SOL    HW223520   3.276   0.619   6.737
 7541SOL     OW23521   6.567   3.153   5.544
 7541SOL    HW123522   6.581   3.211   5.465
 7541SOL    HW223523   6.656   3.130   5.585
 7542SOL     OW23524   1.064   0.031   5.808
 7542SOL    HW123525   1.053   6.994   5.732
 7542SOL    HW223526   1.027   7.016   5.891
 7543SOL     OW23527   4.075   2.064   0.741
 7543SOL    HW123528   4.074   2.020   0.831
 7543SOL    HW223529   4.157   2.121   0.734
 7544SOL     OW23530   0.100   2.496   2.900
 7544SOL    HW123531   0.146   2.470   2.984
 7544SOL    HW223532   0.049   2.581   2.915
 7545SOL     OW23533   4.621   6.480   2.881
 7545SOL    HW123534   4.613   6.393   2.833
 7545SOL    HW223535   4.552   6.544   2.845
 7546SOL     OW23536   4.730   0.904   6.828
 7546SOL    HW123537   4.775   0.987   6.861
 7546SOL    HW223538   4.633   0.906   6.854
 7547SOL     OW23539   4.071   0.291   0.371
 7547SOL    HW123540   4.047   0.222   0.440
 7547SOL    HW223541   4.036   0.262   0.282
 7548SOL     OW23542   1.872   1.596   0.904
 7548SOL    HW123543   1.903   1.689   0.924
 7548SOL    HW223544   1.925   1.559   0.828
 7549SOL     OW23545   5.655   1.667   2.221
 7549SOL    HW123546   5.611   1.663   2.311
 7549SOL    HW223547   5.651   1.577   2.178
 7550SOL     OW23548   2.184   5.893   2.376
 7550SOL    HW123549   2.184   5.827   2.451
 7550SOL    HW223550   2.248   5.967   2.396
 7551SOL     OW23551   4.700   3.787   0.058
 7551SOL    HW123552   4.702   3.874   0.009
 7551SOL    HW223553   4.750   3.718   0.006
 7552SOL     OW23554   2.861   5.834   3.926
 7552SOL    HW123555   2.888   5.923   3.891
 7552SOL    HW223556   2.929   5.765   3.900
 7553SOL     OW23557   3.927   4.693   5.660
 7553SOL    HW123558   3.830   4.672   5.649
 7553SOL    HW223559   3.952   4.765   5.596
 7554SOL     OW23560   4.517   2.127   0.527
 7554SOL    HW123561   4.514   2.147   0.625
 7554SOL    HW223562   4.489   2.208   0.475
 7555SOL     OW23563   0.719   5.639   5.491
 7555SOL    HW123564   0.656   5.646   5.568
 7555SOL    HW223565   0.675   5.587   5.417
 7556SOL     OW23566   0.767   3.145   5.515
 7556SOL    HW123567   0.674   3.162   5.481
 7556SOL    HW223568   0.814   3.081   5.454
 7557SOL     OW23569   5.219   4.004   6.201
 7557SOL    HW123570   5.309   3.985   6.163
 7557SOL    HW223571   5.156   3.931   6.174
 7558SOL     OW23572   2.189   2.261   4.111
 7558SOL    HW123573   2.250   2.234   4.036
 7558SOL    HW223574   2.243   2.275   4.194
 7559SOL     OW23575   6.127   5.335   1.156
 7559SOL    HW123576   6.090   5.427   1.147
 7559SOL    HW223577   6.078   5.272   1.095
 7560SOL     OW23578   4.905   6.902   0.218
 7560SOL    HW123579   4.881   6.832   0.150
 7560SOL    HW223580   4.822   6.947   0.250
 7561SOL     OW23581   0.658   3.893   0.450
 7561SOL    HW123582   0.581   3.908   0.389
 7561SOL    HW223583   0.740   3.872   0.397
 7562SOL     OW23584   5.944   6.003   4.548
 7562SOL    HW123585   5.860   5.949   4.556
 7562SOL    HW223586   5.929   6.080   4.486
 7563SOL     OW23587   2.909   0.354   1.472
 7563SOL    HW123588   2.955   0.416   1.535
 7563SOL    HW223589   2.906   0.262   1.512
 7564SOL     OW23590   5.164   0.739   2.953
 7564SOL    HW123591   5.252   0.699   2.928
 7564SOL    HW223592   5.127   0.789   2.874
 7565SOL     OW23593   4.601   4.775   6.497
 7565SOL    HW123594   4.542   4.700   6.469
 7565SOL    HW223595   4.695   4.756   6.467
 7566SOL     OW23596   0.785   4.911   3.976
 7566SOL    HW123597   0.883   4.932   3.975
 7566SOL    HW223598   0.768   4.832   4.034
 7567SOL     OW23599   2.252   3.774   5.677
 7567SOL    HW123600   2.319   3.846   5.660
 7567SOL    HW223601   2.266   3.735   5.768
 7568SOL     OW23602   5.441   5.410   4.130
 7568SOL    HW123603   5.479   5.318   4.120
 7568SOL    HW223604   5.341   5.404   4.142
 7569SOL     OW23605   4.360   6.062   6.451
 7569SOL    HW123606   4.344   6.160   6.441
 7569SOL    HW223607   4.341   6.016   6.365
 7570SOL     OW23608   5.336   4.423   5.179
 7570SOL    HW123609   5.356   4.376   5.094
 7570SOL    HW223610   5.329   4.522   5.162
 7571SOL     OW23611   5.119   4.024   1.932
 7571SOL    HW123612   5.025   4.005   1.961
 7571SOL    HW223613   5.183   3.992   2.002
 7572SOL     OW23614   4.802   0.460   4.278
 7572SOL    HW123615   4.878   0.402   4.249
 7572SOL    HW223616   4.755   0.418   4.355
 7573SOL     OW23617   6.135   5.957   4.324
 7573SOL    HW123618   6.057   6.001   4.370
 7573SOL    HW223619   6.172   5.886   4.382
 7574SOL     OW23620   5.777   1.563   3.937
 7574SOL    HW123621   5.722   1.579   4.019
 7574SOL    HW223622   5.753   1.631   3.867
 7575SOL     OW23623   4.459   1.082   5.904
 7575SOL    HW123624   4.528   1.095   5.976
 7575SOL    HW223625   4.411   1.168   5.888
 7576SOL     OW23626   5.795   5.310   0.187
 7576SOL    HW123627   5.808   5.263   0.275
 7576SOL    HW223628   5.884   5.343   0.154
 7577SOL     OW23629   6.546   0.137   4.787
 7577SOL    HW123630   6.582   0.218   4.741
 7577SOL    HW223631   6.474   0.096   4.731
 7578SOL     OW23632   1.803   6.523   4.117
 7578SOL    HW123633   1.806   6.621   4.138
 7578SOL    HW223634   1.861   6.504   4.038
 7579SOL     OW23635   4.347   2.321   2.190
 7579SOL    HW123636   4.267   2.292   2.242
 7579SOL    HW223637   4.415   2.359   2.252
 7580SOL     OW23638   1.134   3.798   3.372
 7580SOL    HW123639   1.102   3.762   3.284
 7580SOL    HW223640   1.194   3.731   3.416
 7581SOL     OW23641   4.722   1.741   0.510
 7581SOL    HW123642   4.702   1.824   0.458
 7581SOL    HW223643   4.788   1.761   0.582
 7582SOL     OW23644   3.671   1.748   0.633
 7582SOL    HW123645   3.640   1.775   0.542
 7582SOL    HW223646   3.764   1.712   0.628
 7583SOL     OW23647   6.125   3.860   1.989
 7583SOL    HW123648   6.065   3.941   1.990
 7583SOL    HW223649   6.175   3.856   1.903
 7584SOL     OW23650   2.564   6.660   0.934
 7584SOL    HW123651   2.522   6.570   0.936
 7584SOL    HW223652   2.576   6.693   1.028
 7585SOL     OW23653   1.099   4.327   6.059
 7585SOL    HW123654   1.180   4.275   6.033
 7585SOL    HW223655   1.017   4.275   6.034
 7586SOL     OW23656   2.509   0.469   2.510
 7586SOL    HW123657   2.473   0.418   2.431
 7586SOL    HW223658   2.477   0.425   2.594
 7587SOL     OW23659   2.213   1.756   6.977
 7587SOL    HW123660   2.227   1.855   6.988
 7587SOL    HW223661   2.151   1.740   6.900
 7588SOL     OW23662   0.608   4.623   2.085
 7588SOL    HW123663   0.563   4.665   2.164
 7588SOL    HW223664   0.707   4.634   2.093
 7589SOL     OW23665   5.958   5.884   0.475
 7589SOL    HW123666   6.037   5.863   0.532
 7589SOL    HW223667   5.969   5.975   0.436
 7590SOL     OW23668   2.704   1.395   5.366
 7590SOL    HW123669   2.797   1.412   5.399
 7590SOL    HW223670   2.647   1.365   5.442
 7591SOL     OW23671   0.316   5.424   0.193
 7591SOL    HW123672   0.341   5.350   0.130
 7591SOL    HW223673   0.221   5.412   0.223
 7592SOL     OW23674   0.025   4.954   6.998
 7592SOL    HW123675   0.048   4.987   6.907
 7592SOL    HW223676   0.106   4.916   0.016
 7593SOL     OW23677   5.895   2.623   6.949
 7593SOL    HW123678   5.882   2.694   6.881
 7593SOL    HW223679   5.944   2.546   6.908
 7594SOL     OW23680   0.835   5.078   2.478
 7594SOL    HW123681   0.775   5.056   2.400
 7594SOL    HW223682   0.902   5.005   2.489
 7595SOL     OW23683   0.115   2.857   6.614
 7595SOL    HW123684   0.193   2.798   6.632
 7595SOL    HW223685   0.134   2.915   6.534
 7596SOL     OW23686   5.155   5.053   2.615
 7596SOL    HW123687   5.226   5.099   2.561
 7596SOL    HW223688   5.065   5.087   2.588
 7597SOL     OW23689   3.360   5.991   1.718
 7597SOL    HW123690   3.387   6.086   1.704
 7597SOL    HW223691   3.345   5.948   1.629
 7598SOL     OW23692   6.249   0.624   2.911
 7598SOL    HW123693   6.194   0.609   2.829
 7598SOL    HW223694   6.318   0.552   2.919
 7599SOL     OW23695   5.482   1.192   3.717
 7599SOL    HW123696   5.507   1.274   3.768
 7599SOL    HW223697   5.386   1.198   3.689
 7600SOL     OW23698   1.159   0.824   2.102
 7600SOL    HW123699   1.175   0.880   2.020
 7600SOL    HW223700   1.218   0.743   2.099
 7601SOL     OW23701   1.735   5.645   3.547
 7601SOL    HW123702   1.728   5.744   3.538
 7601SOL    HW223703   1.818   5.622   3.598
 7602SOL     OW23704   2.289   4.245   4.619
 7602SOL    HW123705   2.269   4.343   4.620
 7602SOL    HW223706   2.238   4.201   4.545
 7603SOL     OW23707   1.304   6.629   6.436
 7603SOL    HW123708   1.225   6.690   6.440
 7603SOL    HW223709   1.276   6.536   6.455
 7604SOL     OW23710   2.953   6.051   3.768
 7604SOL    HW123711   3.015   6.118   3.810
 7604SOL    HW223712   2.943   6.071   3.671
 7605SOL     OW23713   1.472   5.739   0.057
 7605SOL    HW123714   1.405   5.812   0.066
 7605SOL    HW223715   1.557   5.766   0.103
 7606SOL     OW23716   0.264   2.851   1.871
 7606SOL    HW123717   0.179   2.842   1.921
 7606SOL    HW223718   0.331   2.786   1.906
 7607SOL     OW23719   4.188   0.322   6.772
 7607SOL    HW123720   4.223   0.229   6.785
 7607SOL    HW223721   4.263   0.388   6.785
 7608SOL     OW23722   3.724   4.096   3.710
 7608SOL    HW123723   3.816   4.058   3.707
 7608SOL    HW223724   3.712   4.147   3.795
 7609SOL     OW23725   6.984   3.596   3.335
 7609SOL    HW123726   6.982   3.509   3.384
 7609SOL    HW223727   6.978   3.672   3.400
 7610SOL     OW23728   6.418   0.804   0.991
 7610SOL    HW123729   6.475   0.862   1.049
 7610SOL    HW223730   6.323   0.836   0.995
 7611SOL     OW23731   0.938   2.007   0.369
 7611SOL    HW123732   0.924   1.909   0.355
 7611SOL    HW223733   0.913   2.057   0.286
 7612SOL     OW23734   4.009   1.903   4.267
 7612SOL    HW123735   4.022   1.841   4.189
 7612SOL    HW223736   4.056   1.989   4.249
 7613SOL     OW23737   4.829   2.070   1.542
 7613SOL    HW123738   4.791   2.000   1.603
 7613SOL    HW223739   4.829   2.158   1.590
 7614SOL     OW23740   3.947   2.485   1.692
 7614SOL    HW123741   4.043   2.506   1.674
 7614SOL    HW223742   3.940   2.392   1.731
 7615SOL     OW23743   5.455   4.819   6.770
 7615SOL    HW123744   5.366   4.779   6.747
 7615SOL    HW223745   5.517   4.809   6.692
 7616SOL     OW23746   1.003   4.278   4.466
 7616SOL    HW123747   0.950   4.279   4.552
 7616SOL    HW223748   1.055   4.193   4.461
 7617SOL     OW23749   2.801   5.642   3.508
 7617SOL    HW123750   2.750   5.556   3.504
 7617SOL    HW223751   2.832   5.667   3.416
 7618SOL     OW23752   1.171   2.094   6.503
 7618SOL    HW123753   1.228   2.065   6.579
 7618SOL    HW223754   1.094   2.147   6.537
 7619SOL     OW23755   5.479   3.291   5.441
 7619SOL    HW123756   5.536   3.306   5.361
 7619SOL    HW223757   5.472   3.375   5.494
 7620SOL     OW23758   3.876   6.823   0.851
 7620SOL    HW123759   3.879   6.760   0.774
 7620SOL    HW223760   3.862   6.771   0.936
 7621SOL     OW23761   1.002   1.171   0.440
 7621SOL    HW123762   1.102   1.169   0.442
 7621SOL    HW223763   0.970   1.266   0.435
 7622SOL     OW23764   5.733   3.068   2.065
 7622SOL    HW123765   5.691   3.155   2.041
 7622SOL    HW223766   5.819   3.084   2.112
 7623SOL     OW23767   4.737   5.021   6.347
 7623SOL    HW123768   4.663   5.020   6.414
 7623SOL    HW223769   4.802   4.948   6.367
 7624SOL     OW23770   0.452   2.351   4.120
 7624SOL    HW123771   0.468   2.420   4.050
 7624SOL    HW223772   0.521   2.279   4.113
 7625SOL     OW23773   5.106   0.858   0.566
 7625SOL    HW123774   5.094   0.947   0.521
 7625SOL    HW223775   5.178   0.865   0.635
 7626SOL     OW23776   0.406   6.600   5.219
 7626SOL    HW123777   0.496   6.642   5.207
 7626SOL    HW223778   0.348   6.623   5.141
 7627SOL     OW23779   6.092   3.195   0.460
 7627SOL    HW123780   6.114   3.161   0.551
 7627SOL    HW223781   6.011   3.254   0.464
 7628SOL     OW23782   3.227   0.907   1.165
 7628SOL    HW123783   3.165   0.938   1.237
 7628SOL    HW223784   3.315   0.955   1.173
 7629SOL     OW23785   6.084   6.705   2.437
 7629SOL    HW123786   6.177   6.738   2.454
 7629SOL    HW223787   6.024   6.730   2.513
 7630SOL     OW23788   5.821   6.470   2.149
 7630SOL    HW123789   5.917   6.443   2.136
 7630SOL    HW223790   5.800   6.467   2.247
 7631SOL     OW23791   1.275   2.038   5.741
 7631SOL    HW123792   1.292   2.022   5.643
 7631SOL    HW223793   1.232   1.957   5.780
 7632SOL     OW23794   3.708   2.075   1.176
 7632SOL    HW123795   3.666   2.026   1.100
 7632SOL    HW223796   3.722   2.013   1.253
 7633SOL     OW23797   5.474   2.567   0.243
 7633SOL    HW123798   5.483   2.467   0.251
 7633SOL    HW223799   5.405   2.599   0.309
 7634SOL     OW23800   0.846   1.611   2.423
 7634SOL    HW123801   0.917   1.573   2.482
 7634SOL    HW223802   0.823   1.703   2.454
 7635SOL     OW23803   2.400   5.211   5.203
 7635SOL    HW123804   2.492   5.239   5.176
 7635SOL    HW223805   2.404   5.155   5.285
 7636SOL     OW23806   1.162   1.529   3.835
 7636SOL    HW123807   1.247   1.550   3.788
 7636SOL    HW223808   1.108   1.613   3.845
 7637SOL     OW23809   2.176   6.368   3.095
 7637SOL    HW123810   2.201   6.290   3.037
 7637SOL    HW223811   2.107   6.423   3.049
 7638SOL     OW23812   5.616   5.084   1.719
 7638SOL    HW123813   5.715   5.098   1.715
 7638SOL    HW223814   5.584   5.099   1.812
 7639SOL     OW23815   1.384   2.017   6.687
 7639SOL    HW123816   1.364   2.014   6.785
 7639SOL    HW223817   1.410   1.925   6.657
 7640SOL     OW23818   2.447   1.995   0.040
 7640SOL    HW123819   2.540   1.971   0.070
 7640SOL    HW223820   2.450   2.024   6.970
 7641SOL     OW23821   0.966   4.471   1.858
 7641SOL    HW123822   0.953   4.391   1.916
 7641SOL    HW223823   0.891   4.478   1.793
 7642SOL     OW23824   2.493   2.047   3.118
 7642SOL    HW123825   2.435   2.097   3.182
 7642SOL    HW223826   2.457   1.955   3.104
 7643SOL     OW23827   4.920   2.506   3.501
 7643SOL    HW123828   4.881   2.446   3.571
 7643SOL    HW223829   4.914   2.601   3.531
 7644SOL     OW23830   6.444   2.486   2.396
 7644SOL    HW123831   6.424   2.536   2.480
 7644SOL    HW223832   6.359   2.457   2.353
 7645SOL     OW23833   4.989   5.033   6.023
 7645SOL    HW123834   5.062   5.088   6.063
 7645SOL    HW223835   4.900   5.070   6.050
 7646SOL     OW23836   1.987   2.012   2.350
 7646SOL    HW123837   2.015   2.016   2.446
 7646SOL    HW223838   1.993   1.918   2.317
 7647SOL     OW23839   1.031   3.286   1.075
 7647SOL    HW123840   0.979   3.371   1.077
 7647SOL    HW223841   1.014   3.235   1.159
 7648SOL     OW23842   4.169   2.289   3.769
 7648SOL    HW123843   4.102   2.242   3.826
 7648SOL    HW223844   4.135   2.296   3.675
 7649SOL     OW23845   0.743   0.629   2.477
 7649SOL    HW123846   0.836   0.652   2.447
 7649SOL    HW223847   0.678   0.694   2.437
 7650SOL     OW23848   6.225   3.349   1.955
 7650SOL    HW123849   6.146   3.307   1.910
 7650SOL    HW223850   6.237   3.310   2.046
 7651SOL     OW23851   2.334   6.952   6.313
 7651SOL    HW123852   2.321   7.017   6.388
 7651SOL    HW223853   2.263   6.967   6.243
 7652SOL     OW23854   0.027   3.595   4.417
 7652SOL    HW123855   0.073   3.651   4.348
 7652SOL    HW223856   7.021   3.655   4.491
 7653SOL     OW23857   1.944   1.160   1.058
 7653SOL    HW123858   1.946   1.070   1.101
 7653SOL    HW223859   1.852   1.198   1.065
 7654SOL     OW23860   4.994   2.746   3.053
 7654SOL    HW123861   4.902   2.780   3.073
 7654SOL    HW223862   5.061   2.819   3.070
 7655SOL     OW23863   3.644   0.194   3.794
 7655SOL    HW123864   3.570   0.251   3.831
 7655SOL    HW223865   3.716   0.253   3.757
 7656SOL     OW23866   1.259   6.056   5.840
 7656SOL    HW123867   1.185   6.040   5.906
 7656SOL    HW223868   1.220   6.064   5.748
 7657SOL     OW23869   3.074   2.186   3.072
 7657SOL    HW123870   3.077   2.221   2.978
 7657SOL    HW223871   3.001   2.119   3.081
 7658SOL     OW23872   4.432   6.973   5.771
 7658SOL    HW123873   4.385   0.031   5.797
 7658SOL    HW223874   4.494   6.945   5.845
 7659SOL     OW23875   5.687   6.621   6.685
 7659SOL    HW123876   5.732   6.710   6.681
 7659SOL    HW223877   5.746   6.551   6.644
 7660SOL     OW23878   6.290   5.762   4.447
 7660SOL    HW123879   6.387   5.767   4.423
 7660SOL    HW223880   6.276   5.686   4.511
 7661SOL     OW23881   5.956   1.859   3.974
 7661SOL    HW123882   5.981   1.939   4.028
 7661SOL    HW223883   5.906   1.887   3.892
 7662SOL     OW23884   1.353   2.393   2.179
 7662SOL    HW123885   1.396   2.359   2.096
 7662SOL    HW223886   1.375   2.490   2.192
 7663SOL     OW23887   6.401   6.102   6.321
 7663SOL    HW123888   6.421   6.121   6.225
 7663SOL    HW223889   6.406   6.188   6.373
 7664SOL     OW23890   2.946   6.808   2.807
 7664SOL    HW123891   3.046   6.807   2.800
 7664SOL    HW223892   2.906   6.789   2.718
 7665SOL     OW23893   3.529   0.183   3.318
 7665SOL    HW123894   3.587   0.239   3.377
 7665SOL    HW223895   3.456   0.240   3.279
 7666SOL     OW23896   6.891   6.778   1.530
 7666SOL    HW123897   6.852   6.862   1.568
 7666SOL    HW223898   6.938   6.799   1.445
 7667SOL     OW23899   5.303   5.749   0.632
 7667SOL    HW123900   5.227   5.769   0.570
 7667SOL    HW223901   5.371   5.822   0.626
 7668SOL     OW23902   2.916   4.272   1.253
 7668SOL    HW123903   2.876   4.185   1.284
 7668SOL    HW223904   3.014   4.271   1.271
 7669SOL     OW23905   5.276   1.527   5.012
 7669SOL    HW123906   5.210   1.601   5.001
 7669SOL    HW223907   5.351   1.539   4.947
 7670SOL     OW23908   1.561   5.860   6.580
 7670SOL    HW123909   1.564   5.820   6.671
 7670SOL    HW223910   1.654   5.883   6.550
 7671SOL     OW23911   4.122   0.867   4.386
 7671SOL    HW123912   4.218   0.853   4.411
 7671SOL    HW223913   4.110   0.850   4.288
 7672SOL     OW23914   5.751   6.658   3.731
 7672SOL    HW123915   5.733   6.724   3.658
 7672SOL    HW223916   5.794   6.576   3.693
 7673SOL     OW23917   2.195   4.876   0.610
 7673SOL    HW123918   2.217   4.914   0.520
 7673SOL    HW223919   2.272   4.823   0.645
 7674SOL     OW23920   6.728   2.114   4.076
 7674SOL    HW123921   6.695   2.206   4.054
 7674SOL    HW223922   6.793   2.085   4.005
 7675SOL     OW23923   5.198   0.955   2.438
 7675SOL    HW123924   5.247   0.885   2.491
 7675SOL    HW223925   5.120   0.914   2.392
 7676SOL     OW23926   0.500   1.960   0.508
 7676SOL    HW123927   0.543   1.870   0.511
 7676SOL    HW223928   0.534   2.016   0.583
 7677SOL     OW23929   1.679   3.149   1.980
 7677SOL    HW123930   1.654   3.113   1.890
 7677SOL    HW223931   1.762   3.104   2.012
 7678SOL     OW23932   1.408   1.159   6.458
 7678SOL    HW123933   1.426   1.069   6.499
 7678SOL    HW223934   1.492   1.192   6.414
 7679SOL     OW23935   1.214   6.170   4.868
 7679SOL    HW123936   1.308   6.136   4.859
 7679SOL    HW223937   1.211   6.240   4.940
 7680SOL     OW23938   2.195   3.284   6.999
 7680SOL    HW123939   2.277   3.239   0.008
 7680SOL    HW223940   2.157   3.230   6.923
 7681SOL     OW23941   3.324   0.390   0.440
 7681SOL    HW123942   3.348   0.304   0.395
 7681SOL    HW223943   3.401   0.421   0.495
 7682SOL     OW23944   2.273   0.097   1.674
 7682SOL    HW123945   2.304   0.018   1.621
 7682SOL    HW223946   2.327   0.177   1.650
 7683SOL     OW23947   6.839   2.305   3.401
 7683SOL    HW123948   6.827   2.400   3.370
 7683SOL    HW223949   6.839   2.244   3.322
 7684SOL     OW23950   5.776   2.181   6.903
 7684SOL    HW123951   5.678   2.189   6.883
 7684SOL    HW223952   5.789   2.155   6.998
 7685SOL     OW23953   3.936   2.578   6.977
 7685SOL    HW123954   3.944   2.632   0.035
 7685SOL    HW223955   3.896   2.634   6.904
 7686SOL     OW23956   4.460   0.197   3.213
 7686SOL    HW123957   4.411   0.264   3.158
 7686SOL    HW223958   4.415   0.108   3.206
 7687SOL     OW23959   5.408   5.772   5.531
 7687SOL    HW123960   5.346   5.829   5.585
 7687SOL    HW223961   5.461   5.829   5.468
 7688SOL     OW23962   6.946   0.102   6.408
 7688SOL    HW123963   7.019   0.034   6.408
 7688SOL    HW223964   6.983   0.191   6.435
 7689SOL     OW23965   4.983   5.819   3.761
 7689SOL    HW123966   5.052   5.818   3.832
 7689SOL    HW223967   4.895   5.848   3.800
 7690SOL     OW23968   5.748   5.430   2.296
 7690SOL    HW123969   5.837   5.385   2.300
 7690SOL    HW223970   5.709   5.421   2.204
 7691SOL     OW23971   4.673   2.641   4.320
 7691SOL    HW123972   4.640   2.620   4.228
 7691SOL    HW223973   4.766   2.678   4.314
 7692SOL     OW23974   0.654   6.915   1.318
 7692SOL    HW123975   0.587   6.952   1.382
 7692SOL    HW223976   0.686   6.826   1.351
 7693SOL     OW23977   4.224   0.993   0.066
 7693SOL    HW123978   4.238   0.938   0.149
 7693SOL    HW223979   4.167   0.941   0.001
 7694SOL     OW23980   1.078   4.762   4.198
 7694SOL    HW123981   1.101   4.692   4.266
 7694SOL    HW223982   1.109   4.733   4.108
 7695SOL     OW23983   4.100   0.534   1.001
 7695SOL    HW123984   4.112   0.473   0.923
 7695SOL    HW223985   4.166   0.609   0.996
 7696SOL     OW23986   6.752   2.054   4.404
 7696SOL    HW123987   6.721   2.068   4.310
 7696SOL    HW223988   6.778   1.959   4.417
 7697SOL     OW23989   2.584   1.016   3.098
 7697SOL    HW123990   2.637   1.068   3.030
 7697SOL    HW223991   2.579   1.069   3.183
 7698SOL     OW23992   0.243   2.925   4.566
 7698SOL    HW123993   0.235   2.897   4.471
 7698SOL    HW223994   0.339   2.923   4.593
 7699SOL     OW23995   2.971   5.680   0.007
 7699SOL    HW123996   3.057   5.688   0.057
 7699SOL    HW223997   2.982   5.716   6.940
 7700SOL     OW23998   5.062   6.761   5.428
 7700SOL    HW123999   5.028   6.844   5.473
 7700SOL    HW224000   5.161   6.754   5.443
 7701SOL     OW24001   6.051   1.486   6.815
 7701SOL    HW124002   6.040   1.512   6.719
 7701SOL    HW224003   6.140   1.442   6.828
 7702SOL     OW24004   3.744   5.986   5.925
 7702SOL    HW124005   3.816   5.922   5.902
 7702SOL    HW224006   3.757   6.019   6.019
 7703SOL     OW24007   6.394   1.424   4.893
 7703SOL    HW124008   6.303   1.382   4.897
 7703SOL    HW224009   6.462   1.353   4.877
 7704SOL     OW24010   4.179   5.051   5.639
 7704SOL    HW124011   4.201   4.956   5.659
 7704SOL    HW224012   4.084   5.070   5.665
 7705SOL     OW24013   3.401   4.591   5.556
 7705SOL    HW124014   3.391   4.579   5.458
 7705SOL    HW224015   3.317   4.628   5.594
 7706SOL     OW24016   5.593   0.941   5.850
 7706SOL    HW124017   5.650   0.952   5.932
 7706SOL    HW224018   5.566   0.845   5.841
 7707SOL     OW24019   0.088   5.871   6.625
 7707SOL    HW124020   0.028   5.925   6.684
 7707SOL    HW224021   0.161   5.929   6.589
 7708SOL     OW24022   5.143   5.945   4.778
 7708SOL    HW124023   5.193   6.014   4.725
 7708SOL    HW224024   5.071   5.906   4.722
 7709SOL     OW24025   5.698   3.292   2.311
 7709SOL    HW124026   5.766   3.237   2.360
 7709SOL    HW224027   5.623   3.234   2.280
 7710SOL     OW24028   1.777   0.708   1.332
 7710SOL    HW124029   1.805   0.800   1.305
 7710SOL    HW224030   1.679   0.697   1.317
 7711SOL     OW24031   6.515   6.231   4.914
 7711SOL    HW124032   6.518   6.174   4.996
 7711SOL    HW224033   6.607   6.259   4.890
 7712SOL     OW24034   6.800   4.951   1.224
 7712SOL    HW124035   6.893   4.956   1.187
 7712SOL    HW224036   6.745   4.889   1.167
 7713SOL     OW24037   2.249   3.939   0.765
 7713SOL    HW124038   2.265   3.868   0.696
 7713SOL    HW224039   2.207   3.898   0.846
 7714SOL     OW24040   6.702   5.236   4.736
 7714SOL    HW124041   6.787   5.207   4.780
 7714SOL    HW224042   6.723   5.281   4.649
 7715SOL     OW24043   4.962   1.132   1.248
 7715SOL    HW124044   5.033   1.171   1.308
 7715SOL    HW224045   5.001   1.118   1.157
 7716SOL     OW24046   5.226   3.160   3.304
 7716SOL    HW124047   5.158   3.233   3.295
 7716SOL    HW224048   5.276   3.172   3.390
 7717SOL     OW24049   2.873   1.549   4.826
 7717SOL    HW124050   2.801   1.481   4.814
 7717SOL    HW224051   2.864   1.592   4.916
 7718SOL     OW24052   1.741   2.054   3.714
 7718SOL    HW124053   1.692   2.074   3.629
 7718SOL    HW224054   1.836   2.029   3.693
 7719SOL     OW24055   0.077   3.272   3.894
 7719SOL    HW124056   0.108   3.177   3.897
 7719SOL    HW224057   7.004   3.274   3.886
 7720SOL     OW24058   0.172   6.788   0.722
 7720SOL    HW124059   0.146   6.875   0.681
 7720SOL    HW224060   0.181   6.798   0.821
 7721SOL     OW24061   2.270   4.117   2.693
 7721SOL    HW124062   2.254   4.032   2.643
 7721SOL    HW224063   2.245   4.105   2.789
 7722SOL     OW24064   0.205   5.245   2.263
 7722SOL    HW124065   0.149   5.194   2.329
 7722SOL    HW224066   0.153   5.259   2.179
 7723SOL     OW24067   6.768   4.135   0.729
 7723SOL    HW124068   6.728   4.068   0.668
 7723SOL    HW224069   6.830   4.194   0.678
 7724SOL     OW24070   2.225   4.701   2.057
 7724SOL    HW124071   2.241   4.777   2.121
 7724SOL    HW224072   2.198   4.738   1.968
 7725SOL     OW24073   5.046   2.560   3.230
 7725SOL    HW124074   4.971   2.507   3.270
 7725SOL    HW224075   5.010   2.623   3.161
 7726SOL     OW24076   0.094   4.598   4.028
 7726SOL    HW124077   0.008   4.614   3.980
 7726SOL    HW224078   0.129   4.685   4.063
 7727SOL     OW24079   5.934   2.088   3.421
 7727SOL    HW124080   5.916   2.186   3.429
 7727SOL    HW224081   5.850   2.040   3.399
 7728SOL     OW24082   1.474   3.733   2.938
 7728SOL    HW124083   1.377   3.754   2.925
 7728SOL    HW224084   1.500   3.657   2.878
 7729SOL     OW24085   5.942   2.610   1.523
 7729SOL    HW124086   5.910   2.704   1.537
 7729SOL    HW224087   5.964   2.569   1.611
 7730SOL     OW24088   5.995   6.025   2.269
 7730SOL    HW124089   5.979   5.967   2.349
 7730SOL    HW224090   5.933   5.999   2.195
 7731SOL     OW24091   5.655   1.220   1.288
 7731SOL    HW124092   5.578   1.267   1.332
 7731SOL    HW224093   5.733   1.283   1.282
 7732SOL     OW24094   4.470   6.052   0.555
 7732SOL    HW124095   4.502   5.959   0.571
 7732SOL    HW224096   4.447   6.095   0.642
 7733SOL     OW24097   4.566   6.523   1.541
 7733SOL    HW124098   4.596   6.487   1.453
 7733SOL    HW224099   4.634   6.502   1.611
 7734SOL     OW24100   1.617   3.668   3.165
 7734SOL    HW124101   1.543   3.708   3.111
 7734SOL    HW224102   1.612   3.701   3.259
 7735SOL     OW24103   4.446   4.709   6.894
 7735SOL    HW124104   4.514   4.641   6.865
 7735SOL    HW224105   4.430   4.700   6.992
 7736SOL     OW24106   5.344   4.363   0.664
 7736SOL    HW124107   5.375   4.268   0.661
 7736SOL    HW224108   5.363   4.402   0.754
 7737SOL     OW24109   4.772   1.307   0.749
 7737SOL    HW124110   4.701   1.376   0.736
 7737SOL    HW224111   4.730   1.218   0.768
 7738SOL     OW24112   2.186   5.905   0.446
 7738SOL    HW124113   2.224   5.901   0.354
 7738SOL    HW224114   2.257   5.934   0.510
 7739SOL     OW24115   0.121   1.904   1.370
 7739SOL    HW124116   0.152   1.810   1.358
 7739SOL    HW224117   0.073   1.912   1.457
 7740SOL     OW24118   0.265   0.223   2.765
 7740SOL    HW124119   0.247   0.125   2.763
 7740SOL    HW224120   0.197   0.268   2.823
 7741SOL     OW24121   1.499   5.709   4.837
 7741SOL    HW124122   1.586   5.675   4.871
 7741SOL    HW224123   1.515   5.777   4.765
 7742SOL     OW24124   6.420   1.848   3.503
 7742SOL    HW124125   6.426   1.883   3.410
 7742SOL    HW224126   6.325   1.827   3.526
 7743SOL     OW24127   4.788   3.168   6.006
 7743SOL    HW124128   4.733   3.144   6.086
 7743SOL    HW224129   4.880   3.192   6.035
 7744SOL     OW24130   0.158   6.348   4.088
 7744SOL    HW124131   0.097   6.323   4.013
 7744SOL    HW224132   0.251   6.360   4.052
 7745SOL     OW24133   3.556   2.515   5.957
 7745SOL    HW124134   3.578   2.597   5.905
 7745SOL    HW224135   3.527   2.541   6.049
 7746SOL     OW24136   2.373   0.127   0.088
 7746SOL    HW124137   2.417   0.145   0.176
 7746SOL    HW224138   2.277   0.104   0.103
 7747SOL     OW24139   4.934   6.461   0.714
 7747SOL    HW124140   4.858   6.504   0.666
 7747SOL    HW224141   4.907   6.369   0.744
 7748SOL     OW24142   3.395   4.089   5.463
 7748SOL    HW124143   3.334   4.037   5.403
 7748SOL    HW224144   3.451   4.025   5.517
 7749SOL     OW24145   4.447   3.396   5.870
 7749SOL    HW124146   4.392   3.333   5.926
 7749SOL    HW224147   4.544   3.382   5.890
 7750SOL     OW24148   0.604   6.250   0.965
 7750SOL    HW124149   0.596   6.171   0.904
 7750SOL    HW224150   0.652   6.222   1.048
 7751SOL     OW24151   1.682   1.605   2.302
 7751SOL    HW124152   1.706   1.696   2.336
 7751SOL    HW224153   1.616   1.614   2.227
 7752SOL     OW24154   4.640   0.568   4.583
 7752SOL    HW124155   4.689   0.482   4.570
 7752SOL    HW224156   4.699   0.644   4.555
 7753SOL     OW24157   2.099   1.262   4.554
 7753SOL    HW124158   2.157   1.334   4.519
 7753SOL    HW224159   2.155   1.186   4.587
 7754SOL     OW24160   3.757   6.298   1.659
 7754SOL    HW124161   3.792   6.250   1.578
 7754SOL    HW224162   3.751   6.396   1.639
 7755SOL     OW24163   1.332   4.170   6.379
 7755SOL    HW124164   1.365   4.091   6.327
 7755SOL    HW224165   1.328   4.250   6.319
 7756SOL     OW24166   2.511   6.133   1.091
 7756SOL    HW124167   2.482   6.053   1.039
 7756SOL    HW224168   2.565   6.104   1.170
 7757SOL     OW24169   6.979   4.677   1.406
 7757SOL    HW124170   0.029   4.611   1.407
 7757SOL    HW224171   6.970   4.718   1.497
 7758SOL     OW24172   1.745   0.981   6.495
 7758SOL    HW124173   1.685   0.937   6.428
 7758SOL    HW224174   1.805   0.913   6.537
 7759SOL     OW24175   2.357   2.480   5.866
 7759SOL    HW124176   2.346   2.565   5.813
 7759SOL    HW224177   2.304   2.407   5.824
 7760SOL     OW24178   4.747   1.765   2.111
 7760SOL    HW124179   4.699   1.830   2.171
 7760SOL    HW224180   4.704   1.764   2.021
 7761SOL     OW24181   5.523   5.119   4.128
 7761SOL    HW124182   5.582   5.073   4.061
 7761SOL    HW224183   5.437   5.069   4.138
 7762SOL     OW24184   0.352   0.333   3.957
 7762SOL    HW124185   0.260   0.358   3.986
 7762SOL    HW224186   0.418   0.363   4.026
 7763SOL     OW24187   2.298   0.556   5.142
 7763SOL    HW124188   2.348   0.488   5.088
 7763SOL    HW224189   2.199   0.544   5.128
 7764SOL     OW24190   3.287   3.873   5.334
 7764SOL    HW124191   3.271   3.922   5.248
 7764SOL    HW224192   3.208   3.814   5.353
 7765SOL     OW24193   6.888   3.402   4.384
 7765SOL    HW124194   6.913   3.327   4.445
 7765SOL    HW224195   6.933   3.486   4.414
 7766SOL     OW24196   0.657   4.315   0.288
 7766SOL    HW124197   0.570   4.269   0.307
 7766SOL    HW224198   0.672   4.388   0.354
 7767SOL     OW24199   3.803   0.467   2.140
 7767SOL    HW124200   3.870   0.393   2.144
 7767SOL    HW224201   3.767   0.474   2.047
 7768SOL     OW24202   4.449   4.651   2.898
 7768SOL    HW124203   4.382   4.678   2.967
 7768SOL    HW224204   4.401   4.619   2.816
 7769SOL     OW24205   3.723   2.259   5.334
 7769SOL    HW124206   3.670   2.217   5.260
 7769SOL    HW224207   3.664   2.322   5.385
 7770SOL     OW24208   1.283   2.983   4.783
 7770SOL    HW124209   1.325   3.067   4.750
 7770SOL    HW224210   1.317   2.905   4.730
 7771SOL     OW24211   3.329   2.824   6.204
 7771SOL    HW124212   3.290   2.821   6.112
 7771SOL    HW224213   3.290   2.901   6.255
 7772SOL     OW24214   5.213   0.815   1.154
 7772SOL    HW124215   5.223   0.716   1.148
 7772SOL    HW224216   5.206   0.843   1.250
 7773SOL     OW24217   3.389   6.055   6.969
 7773SOL    HW124218   3.388   6.154   6.959
 7773SOL    HW224219   3.460   6.016   6.910
 7774SOL     OW24220   5.096   2.355   3.058
 7774SOL    HW124221   5.183   2.307   3.066
 7774SOL    HW224222   5.095   2.433   3.121
 7775SOL     OW24223   3.883   0.810   6.882
 7775SOL    HW124224   3.909   0.830   6.976
 7775SOL    HW224225   3.955   0.839   6.819
 7776SOL     OW24226   0.707   6.597   5.399
 7776SOL    HW124227   0.736   6.512   5.444
 7776SOL    HW224228   0.658   6.655   5.464
 7777SOL     OW24229   5.865   4.971   4.105
 7777SOL    HW124230   5.831   4.920   4.184
 7777SOL    HW224231   5.792   4.977   4.036
 7778SOL     OW24232   6.498   3.712   3.142
 7778SOL    HW124233   6.496   3.799   3.191
 7778SOL    HW224234   6.505   3.637   3.207
 7779SOL     OW24235   3.192   6.165   2.345
 7779SOL    HW124236   3.139   6.158   2.430
 7779SOL    HW224237   3.254   6.086   2.338
 7780SOL     OW24238   6.688   5.302   5.781
 7780SOL    HW124239   6.639   5.383   5.749
 7780SOL    HW224240   6.723   5.251   5.703
 7781SOL     OW24241   1.926   2.739   0.414
 7781SOL    HW124242   1.977   2.653   0.417
 7781SOL    HW224243   1.956   2.793   0.336
 7782SOL     OW24244   6.402   4.522   3.467
 7782SOL    HW124245   6.371   4.445   3.411
 7782SOL    HW224246   6.498   4.542   3.447
 7783SOL     OW24247   1.024   6.998   5.332
 7783SOL    HW124248   0.999   0.068   5.340
 7783SOL    HW224249   0.970   6.955   5.260
 7784SOL     OW24250   2.752   1.942   2.367
 7784SOL    HW124251   2.746   2.016   2.300
 7784SOL    HW224252   2.792   1.861   2.323
 7785SOL     OW24253   1.879   6.229   2.379
 7785SOL    HW124254   1.907   6.211   2.473
 7785SOL    HW224255   1.786   6.265   2.378
 7786SOL     OW24256   4.491   0.908   6.616
 7786SOL    HW124257   4.584   0.924   6.581
 7786SOL    HW224258   4.479   0.810   6.633
 7787SOL     OW24259   2.783   3.544   0.805
 7787SOL    HW124260   2.861   3.495   0.844
 7787SOL    HW224261   2.773   3.633   0.850
 7788SOL     OW24262   1.806   4.790   1.849
 7788SOL    HW124263   1.759   4.745   1.924
 7788SOL    HW224264   1.754   4.778   1.764
 7789SOL     OW24265   3.649   0.253   6.730
 7789SOL    HW124266   3.710   0.210   6.663
 7789SOL    HW224267   3.570   0.292   6.683
 7790SOL     OW24268   5.895   5.234   2.698
 7790SOL    HW124269   5.911   5.174   2.776
 7790SOL    HW224270   5.804   5.216   2.660
 7791SOL     OW24271   2.182   5.644   1.733
 7791SOL    HW124272   2.262   5.619   1.677
 7791SOL    HW224273   2.154   5.564   1.787
 7792SOL     OW24274   0.552   1.495   2.818
 7792SOL    HW124275   0.612   1.475   2.740
 7792SOL    HW224276   0.598   1.559   2.880
 7793SOL     OW24277   4.187   1.926   0.141
 7793SOL    HW124278   4.202   1.851   0.204
 7793SOL    HW224279   4.255   1.922   0.068
 7794SOL     OW24280   0.808   5.706   2.643
 7794SOL    HW124281   0.724   5.753   2.671
 7794SOL    HW224282   0.841   5.747   2.558
 7795SOL     OW24283   3.184   5.785   5.744
 7795SOL    HW124284   3.149   5.692   5.733
 7795SOL    HW224285   3.199   5.804   5.841
 7796SOL     OW24286   3.555   2.999   5.779
 7796SOL    HW124287   3.457   3.014   5.762
 7796SOL    HW224288   3.574   3.011   5.876
 7797SOL     OW24289   0.799   5.224   3.478
 7797SOL    HW124290   0.724   5.161   3.500
 7797SOL    HW224291   0.856   5.184   3.406
 7798SOL     OW24292   0.566   1.808   1.894
 7798SOL    HW124293   0.579   1.907   1.898
 7798SOL    HW224294   0.523   1.777   1.979
 7799SOL     OW24295   2.798   6.449   2.623
 7799SOL    HW124296   2.824   6.354   2.639
 7799SOL    HW224297   2.715   6.452   2.567
 7800SOL     OW24298   0.806   5.732   0.919
 7800SOL    HW124299   0.891   5.750   0.869
 7800SOL    HW224300   0.826   5.673   0.997
 7801SOL     OW24301   1.534   2.585   2.692
 7801SOL    HW124302   1.540   2.522   2.615
 7801SOL    HW224303   1.528   2.679   2.659
 7802SOL     OW24304   6.588   4.258   5.929
 7802SOL    HW124305   6.542   4.260   6.018
 7802SOL    HW224306   6.685   4.274   5.942
 7803SOL     OW24307   5.143   2.466   5.528
 7803SOL    HW124308   5.144   2.422   5.618
 7803SOL    HW224309   5.116   2.400   5.459
 7804SOL     OW24310   2.166   2.078   4.519
 7804SOL    HW124311   2.159   1.979   4.506
 7804SOL    HW224312   2.089   2.109   4.576
 7805SOL     OW24313   5.351   2.672   1.740
 7805SOL    HW124314   5.304   2.753   1.704
 7805SOL    HW224315   5.349   2.674   1.840
 7806SOL     OW24316   6.397   2.455   5.216
 7806SOL    HW124317   6.456   2.378   5.191
 7806SOL    HW224318   6.325   2.465   5.148
 7807SOL     OW24319   2.339   4.800   6.018
 7807SOL    HW124320   2.370   4.719   5.968
 7807SOL    HW224321   2.244   4.787   6.048
 7808SOL     OW24322   5.061   4.100   2.920
 7808SOL    HW124323   5.123   4.026   2.894
 7808SOL    HW224324   5.014   4.134   2.839
 7809SOL     OW24325   5.273   5.053   3.869
 7809SOL    HW124326   5.337   4.993   3.821
 7809SOL    HW224327   5.270   5.142   3.824
 7810SOL     OW24328   4.234   6.233   4.942
 7810SOL    HW124329   4.323   6.189   4.931
 7810SOL    HW224330   4.166   6.186   4.886
 7811SOL     OW24331   1.061   5.759   2.509
 7811SOL    HW124332   1.126   5.704   2.457
 7811SOL    HW224333   1.080   5.856   2.497
 7812SOL     OW24334   2.655   2.603   5.923
 7812SOL    HW124335   2.743   2.556   5.924
 7812SOL    HW224336   2.582   2.536   5.913
 7813SOL     OW24337   5.501   2.768   1.215
 7813SOL    HW124338   5.536   2.717   1.137
 7813SOL    HW224339   5.405   2.792   1.200
 7814SOL     OW24340   6.539   3.023   2.369
 7814SOL    HW124341   6.623   3.073   2.392
 7814SOL    HW224342   6.513   3.044   2.275
 7815SOL     OW24343   5.861   2.819   5.820
 7815SOL    HW124344   5.765   2.795   5.835
 7815SOL    HW224345   5.908   2.744   5.775
 7816SOL     OW24346   0.415   1.746   5.659
 7816SOL    HW124347   0.394   1.746   5.562
 7816SOL    HW224348   0.505   1.787   5.674
 7817SOL     OW24349   3.065   3.714   5.955
 7817SOL    HW124350   3.005   3.787   5.922
 7817SOL    HW224351   3.043   3.693   6.051
 7818SOL     OW24352   4.961   1.729   1.901
 7818SOL    HW124353   4.984   1.773   1.987
 7818SOL    HW224354   4.884   1.667   1.914
 7819SOL     OW24355   0.823   3.571   3.952
 7819SOL    HW124356   0.819   3.494   3.888
 7819SOL    HW224357   0.746   3.632   3.936
 7820SOL     OW24358   1.561   0.922   5.658
 7820SOL    HW124359   1.512   0.916   5.745
 7820SOL    HW224360   1.499   0.959   5.588
 7821SOL     OW24361   6.274   5.526   0.216
 7821SOL    HW124362   6.334   5.575   0.153
 7821SOL    HW224363   6.222   5.457   0.164
 7822SOL     OW24364   1.059   1.355   4.918
 7822SOL    HW124365   1.040   1.354   5.016
 7822SOL    HW224366   1.035   1.445   4.881
 7823SOL     OW24367   1.217   4.228   6.620
 7823SOL    HW124368   1.258   4.168   6.689
 7823SOL    HW224369   1.255   4.207   6.530
 7824SOL     OW24370   5.354   2.009   2.580
 7824SOL    HW124371   5.315   2.041   2.494
 7824SOL    HW224372   5.283   2.008   2.650
 7825SOL     OW24373   2.451   3.041   1.136
 7825SOL    HW124374   2.525   2.993   1.183
 7825SOL    HW224375   2.480   3.134   1.113
 7826SOL     OW24376   5.754   1.032   0.605
 7826SOL    HW124377   5.668   0.985   0.587
 7826SOL    HW224378   5.773   1.030   0.703
 7827SOL     OW24379   4.754   5.023   1.917
 7827SOL    HW124380   4.678   5.073   1.959
 7827SOL    HW224381   4.731   4.926   1.911
 7828SOL     OW24382   1.105   6.131   0.699
 7828SOL    HW124383   1.118   6.190   0.619
 7828SOL    HW224384   1.189   6.129   0.753
 7829SOL     OW24385   2.808   2.812   1.631
 7829SOL    HW124386   2.867   2.839   1.555
 7829SOL    HW224387   2.838   2.724   1.667
 7830SOL     OW24388   6.002   3.480   6.575
 7830SOL    HW124389   5.986   3.390   6.536
 7830SOL    HW224390   5.915   3.529   6.584
 7831SOL     OW24391   1.276   3.683   0.599
 7831SOL    HW124392   1.299   3.672   0.696
 7831SOL    HW224393   1.179   3.703   0.590
 7832SOL     OW24394   2.766   1.728   5.242
 7832SOL    HW124395   2.748   1.657   5.310
 7832SOL    HW224396   2.750   1.818   5.282
 7833SOL     OW24397   0.382   6.735   0.554
 7833SOL    HW124398   0.307   6.721   0.618
 7833SOL    HW224399   0.453   6.791   0.597
 7834SOL     OW24400   0.401   0.598   2.292
 7834SOL    HW124401   0.477   0.648   2.252
 7834SOL    HW224402   0.315   0.643   2.268
 7835SOL     OW24403   2.273   2.868   4.848
 7835SOL    HW124404   2.224   2.947   4.811
 7835SOL    HW224405   2.341   2.900   4.914
 7836SOL     OW24406   2.989   6.944   6.504
 7836SOL    HW124407   2.987   6.870   6.437
 7836SOL    HW224408   3.080   6.983   6.509
 7837SOL     OW24409   5.916   6.551   2.636
 7837SOL    HW124410   5.979   6.493   2.583
 7837SOL    HW224411   5.831   6.563   2.585
 7838SOL     OW24412   4.333   6.841   4.145
 7838SOL    HW124413   4.259   6.775   4.155
 7838SOL    HW224414   4.416   6.794   4.116
 7839SOL     OW24415   5.687   4.281   4.446
 7839SOL    HW124416   5.626   4.203   4.439
 7839SOL    HW224417   5.643   4.354   4.498
 7840SOL     OW24418   4.877   2.781   4.206
 7840SOL    HW124419   4.825   2.771   4.121
 7840SOL    HW224420   4.906   2.876   4.217
 7841SOL     OW24421   6.401   2.029   6.943
 7841SOL    HW124422   6.373   2.101   7.007
 7841SOL    HW224423   6.497   2.005   6.958
 7842SOL     OW24424   2.017   1.506   3.111
 7842SOL    HW124425   1.957   1.462   3.177
 7842SOL    HW224426   2.107   1.521   3.153
 7843SOL     OW24427   5.595   3.943   0.810
 7843SOL    HW124428   5.597   3.847   0.837
 7843SOL    HW224429   5.533   3.994   0.869
 7844SOL     OW24430   4.315   0.621   3.269
 7844SOL    HW124431   4.390   0.686   3.280
 7844SOL    HW224432   4.350   0.528   3.277
 7845SOL     OW24433   7.024   1.036   4.193
 7845SOL    HW124434   0.020   1.129   4.160
 7845SOL    HW224435   0.047   1.019   4.278
 7846SOL     OW24436   2.194   0.999   1.861
 7846SOL    HW124437   2.219   1.095   1.855
 7846SOL    HW224438   2.145   0.983   1.947
 7847SOL     OW24439   0.434   0.772   0.602
 7847SOL    HW124440   0.400   0.710   0.673
 7847SOL    HW224441   0.379   0.855   0.602
 7848SOL     OW24442   4.185   4.150   1.461
 7848SOL    HW124443   4.099   4.106   1.432
 7848SOL    HW224444   4.192   4.146   1.560
 7849SOL     OW24445   4.845   3.350   4.217
 7849SOL    HW124446   4.761   3.405   4.220
 7849SOL    HW224447   4.916   3.396   4.271
 7850SOL     OW24448   6.866   1.078   4.963
 7850SOL    HW124449   6.773   1.096   4.997
 7850SOL    HW224450   6.863   1.003   4.897
 7851SOL     OW24451   6.139   6.818   0.547
 7851SOL    HW124452   6.162   6.881   0.472
 7851SOL    HW224453   6.135   6.725   0.511
 7852SOL     OW24454   3.167   6.581   6.878
 7852SOL    HW124455   3.162   6.526   6.794
 7852SOL    HW224456   3.102   6.656   6.872
 7853SOL     OW24457   2.954   1.403   0.416
 7853SOL    HW124458   2.982   1.403   0.320
 7853SOL    HW224459   3.019   1.348   0.469
 7854SOL     OW24460   3.406   3.910   2.647
 7854SOL    HW124461   3.378   3.823   2.608
 7854SOL    HW224462   3.355   3.985   2.604
 7855SOL     OW24463   4.131   5.189   6.201
 7855SOL    HW124464   4.230   5.199   6.193
 7855SOL    HW224465   4.100   5.111   6.146
 7856SOL     OW24466   5.813   3.930   4.980
 7856SOL    HW124467   5.824   3.911   4.882
 7856SOL    HW224468   5.897   3.969   5.016
 7857SOL     OW24469   6.027   2.251   5.920
 7857SOL    HW124470   5.973   2.267   5.838
 7857SOL    HW224471   6.033   2.336   5.973
 7858SOL     OW24472   6.215   4.206   3.533
 7858SOL    HW124473   6.313   4.227   3.524
 7858SOL    HW224474   6.180   4.172   3.446
 7859SOL     OW24475   0.739   4.668   6.317
 7859SOL    HW124476   0.720   4.709   6.227
 7859SOL    HW224477   0.676   4.592   6.332
 7860SOL     OW24478   4.108   7.018   1.889
 7860SOL    HW124479   4.043   0.057   1.928
 7860SOL    HW224480   4.150   6.964   1.963
 7861SOL     OW24481   4.625   5.177   1.338
 7861SOL    HW124482   4.606   5.238   1.415
 7861SOL    HW224483   4.621   5.082   1.368
 7862SOL     OW24484   3.065   4.203   1.720
 7862SOL    HW124485   2.982   4.174   1.672
 7862SOL    HW224486   3.047   4.290   1.766
 7863SOL     OW24487   6.485   5.891   2.736
 7863SOL    HW124488   6.474   5.926   2.829
 7863SOL    HW224489   6.492   5.967   2.672
 7864SOL     OW24490   0.393   6.250   5.641
 7864SOL    HW124491   0.377   6.152   5.629
 7864SOL    HW224492   0.403   6.293   5.552
 7865SOL     OW24493   3.729   6.271   3.203
 7865SOL    HW124494   3.706   6.346   3.141
 7865SOL    HW224495   3.732   6.305   3.297
 7866SOL     OW24496   2.849   1.957   3.272
 7866SOL    HW124497   2.781   1.935   3.342
 7866SOL    HW224498   2.849   2.056   3.256
 7867SOL     OW24499   6.208   6.237   2.264
 7867SOL    HW124500   6.221   6.141   2.291
 7867SOL    HW224501   6.153   6.241   2.181
 7868SOL     OW24502   5.672   6.045   1.094
 7868SOL    HW124503   5.654   6.143   1.107
 7868SOL    HW224504   5.704   6.029   1.001
 7869SOL     OW24505   6.662   3.299   1.183
 7869SOL    HW124506   6.630   3.308   1.277
 7869SOL    HW224507   6.762   3.297   1.182
 7870SOL     OW24508   6.844   5.227   3.808
 7870SOL    HW124509   6.819   5.324   3.807
 7870SOL    HW224510   6.905   5.208   3.732
 7871SOL     OW24511   6.107   3.289   3.159
 7871SOL    HW124512   6.150   3.264   3.246
 7871SOL    HW224513   6.008   3.290   3.170
 7872SOL     OW24514   0.523   4.077   3.304
 7872SOL    HW124515   0.607   4.035   3.339
 7872SOL    HW224516   0.488   4.023   3.228
 7873SOL     OW24517   6.884   0.067   6.137
 7873SOL    HW124518   6.873   0.090   6.233
 7873SOL    HW224519   6.971   0.102   6.104
 7874SOL     OW24520   6.362   1.315   0.253
 7874SOL    HW124521   6.350   1.240   0.318
 7874SOL    HW224522   6.391   1.397   0.303
 7875SOL     OW24523   5.277   4.160   6.833
 7875SOL    HW124524   5.185   4.144   6.800
 7875SOL    HW224525   5.274   4.181   6.931
 7876SOL     OW24526   6.471   0.734   4.455
 7876SOL    HW124527   6.530   0.679   4.514
 7876SOL    HW224528   6.483   0.704   4.360
 7877SOL     OW24529   6.809   2.558   3.308
 7877SOL    HW124530   6.864   2.640   3.292
 7877SOL    HW224531   6.754   2.539   3.226
 7878SOL     OW24532   4.393   4.557   2.621
 7878SOL    HW124533   4.374   4.561   2.522
 7878SOL    HW224534   4.462   4.626   2.644
 7879SOL     OW24535   5.058   6.030   3.585
 7879SOL    HW124536   5.009   5.956   3.632
 7879SOL    HW224537   5.147   5.996   3.553
 7880SOL     OW24538   0.449   6.499   6.883
 7880SOL    HW124539   0.506   6.439   6.940
 7880SOL    HW224540   0.502   6.578   6.854
 7881SOL     OW24541   6.711   3.976   5.315
 7881SOL    HW124542   6.756   3.887   5.318
 7881SOL    HW224543   6.620   3.965   5.275
 7882SOL     OW24544   0.979   2.955   2.622
 7882SOL    HW124545   0.900   3.002   2.583
 7882SOL    HW224546   1.062   2.984   2.574
 7883SOL     OW24547   2.945   1.274   2.794
 7883SOL    HW124548   2.914   1.369   2.792
 7883SOL    HW224549   3.010   1.258   2.720
 7884SOL     OW24550   1.446   4.647   3.764
 7884SOL    HW124551   1.523   4.666   3.703
 7884SOL    HW224552   1.399   4.732   3.785
 7885SOL     OW24553   5.993   5.629   2.846
 7885SOL    HW124554   6.086   5.663   2.861
 7885SOL    HW224555   5.975   5.622   2.748
 7886SOL     OW24556   4.986   3.483   1.614
 7886SOL    HW124557   4.991   3.573   1.571
 7886SOL    HW224558   4.892   3.464   1.642
 7887SOL     OW24559   3.490   3.541   6.213
 7887SOL    HW124560   3.584   3.576   6.220
 7887SOL    HW224561   3.465   3.533   6.116
 7888SOL     OW24562   6.084   1.652   4.126
 7888SOL    HW124563   6.022   1.714   4.079
 7888SOL    HW224564   6.044   1.624   4.213
 7889SOL     OW24565   6.172   5.260   0.428
 7889SOL    HW124566   6.167   5.202   0.509
 7889SOL    HW224567   6.140   5.352   0.451
 7890SOL     OW24568   1.379   2.794   4.614
 7890SOL    HW124569   1.424   2.869   4.566
 7890SOL    HW224570   1.371   2.715   4.552
 7891SOL     OW24571   0.528   2.566   3.972
 7891SOL    HW124572   0.455   2.546   3.906
 7891SOL    HW224573   0.517   2.660   4.006
 7892SOL     OW24574   1.853   2.568   4.757
 7892SOL    HW124575   1.766   2.559   4.805
 7892SOL    HW224576   1.913   2.629   4.809
 7893SOL     OW24577   6.506   0.416   2.185
 7893SOL    HW124578   6.588   0.419   2.127
 7893SOL    HW224579   6.472   0.323   2.192
 7894SOL     OW24580   2.302   1.599   6.536
 7894SOL    HW124581   2.258   1.510   6.544
 7894SOL    HW224582   2.372   1.596   6.465
 7895SOL     OW24583   3.588   5.759   3.628
 7895SOL    HW124584   3.612   5.715   3.714
 7895SOL    HW224585   3.592   5.858   3.638
 7896SOL     OW24586   4.227   2.485   1.729
 7896SOL    HW124587   4.243   2.551   1.655
 7896SOL    HW224588   4.303   2.487   1.794
 7897SOL     OW24589   3.812   4.271   6.277
 7897SOL    HW124590   3.863   4.301   6.196
 7897SOL    HW224591   3.809   4.346   6.344
 7898SOL     OW24592   4.988   0.043   4.411
 7898SOL    HW124593   4.909   0.060   4.353
 7898SOL    HW224594   5.004   0.122   4.470
 7899SOL     OW24595   5.310   5.311   1.430
 7899SOL    HW124596   5.350   5.222   1.448
 7899SOL    HW224597   5.226   5.321   1.484
 7900SOL     OW24598   0.607   4.342   0.603
 7900SOL    HW124599   0.562   4.345   0.692
 7900SOL    HW224600   0.566   4.412   0.543
 7901SOL     OW24601   5.423   0.704   6.103
 7901SOL    HW124602   5.366   0.711   6.021
 7901SOL    HW224603   5.502   0.763   6.094
 7902SOL     OW24604   6.924   6.318   2.936
 7902SOL    HW124605   6.938   6.292   3.031
 7902SOL    HW224606   6.861   6.253   2.892
 7903SOL     OW24607   3.007   1.632   4.141
 7903SOL    HW124608   3.047   1.718   4.174
 7903SOL    HW224609   2.926   1.653   4.087
 7904SOL     OW24610   6.033   0.747   2.196
 7904SOL    HW124611   6.070   0.783   2.282
 7904SOL    HW224612   6.057   0.650   2.188
 7905SOL     OW24613   5.698   1.045   0.980
 7905SOL    HW124614   5.789   1.082   0.996
 7905SOL    HW224615   5.636   1.120   0.954
 7906SOL     OW24616   1.852   4.912   1.390
 7906SOL    HW124617   1.940   4.866   1.404
 7906SOL    HW224618   1.867   5.000   1.344
 7907SOL     OW24619   6.050   0.628   2.706
 7907SOL    HW124620   6.010   0.589   2.789
 7907SOL    HW224621   6.039   0.564   2.630
 7908SOL     OW24622   0.429   1.283   6.752
 7908SOL    HW124623   0.361   1.288   6.679
 7908SOL    HW224624   0.410   1.353   6.820
 7909SOL     OW24625   5.368   4.655   2.979
 7909SOL    HW124626   5.459   4.671   2.940
 7909SOL    HW224627   5.374   4.649   3.078
 7910SOL     OW24628   1.844   3.411   0.819
 7910SOL    HW124629   1.903   3.490   0.803
 7910SOL    HW224630   1.898   3.327   0.811
 7911SOL     OW24631   0.779   4.058   1.261
 7911SOL    HW124632   0.686   4.020   1.266
 7911SOL    HW224633   0.843   3.992   1.299
 7912SOL     OW24634   5.051   5.464   0.010
 7912SOL    HW124635   5.092   5.376   7.011
 7912SOL    HW224636   5.062   5.479   0.108
 7913SOL     OW24637   1.044   3.973   0.663
 7913SOL    HW124638   0.953   4.008   0.645
 7913SOL    HW224639   1.050   3.877   0.635
 7914SOL     OW24640   6.826   5.146   5.598
 7914SOL    HW124641   6.808   5.200   5.515
 7914SOL    HW224642   6.804   5.050   5.580
 7915SOL     OW24643   3.798   0.302   3.199
 7915SOL    HW124644   3.740   0.230   3.161
 7915SOL    HW224645   3.779   0.311   3.297
 7916SOL     OW24646   0.621   6.778   4.692
 7916SOL    HW124647   0.640   6.680   4.688
 7916SOL    HW224648   0.687   6.827   4.635
 7917SOL     OW24649   3.930   2.243   6.544
 7917SOL    HW124650   3.932   2.288   6.633
 7917SOL    HW224651   3.966   2.150   6.553
 7918SOL     OW24652   1.776   1.219   5.061
 7918SOL    HW124653   1.737   1.149   5.120
 7918SOL    HW224654   1.855   1.182   5.013
 7919SOL     OW24655   1.227   4.907   3.578
 7919SOL    HW124656   1.251   4.921   3.674
 7919SOL    HW224657   1.164   4.830   3.571
 7920SOL     OW24658   5.153   0.843   1.415
 7920SOL    HW124659   5.179   0.829   1.510
 7920SOL    HW224660   5.062   0.805   1.399
 7921SOL     OW24661   5.094   2.065   1.408
 7921SOL    HW124662   5.123   2.161   1.410
 7921SOL    HW224663   4.995   2.060   1.424
 7922SOL     OW24664   1.025   6.606   6.652
 7922SOL    HW124665   1.096   6.578   6.717
 7922SOL    HW224666   0.962   6.530   6.636
 7923SOL     OW24667   3.806   2.366   6.055
 7923SOL    HW124668   3.786   2.340   6.150
 7923SOL    HW224669   3.728   2.417   6.018
 7924SOL     OW24670   6.089   6.821   1.401
 7924SOL    HW124671   6.021   6.837   1.330
 7924SOL    HW224672   6.181   6.826   1.361
 7925SOL     OW24673   2.890   6.460   0.385
 7925SOL    HW124674   2.975   6.442   0.336
 7925SOL    HW224675   2.906   6.450   0.483
 7926SOL     OW24676   5.745   0.649   6.481
 7926SOL    HW124677   5.801   0.568   6.462
 7926SOL    HW224678   5.794   0.731   6.453
 7927SOL     OW24679   5.315   7.017   1.982
 7927SOL    HW124680   5.225   6.974   1.977
 7927SOL    HW224681   5.369   6.975   2.055
 7928SOL     OW24682   0.210   0.508   3.443
 7928SOL    HW124683   0.142   0.440   3.470
 7928SOL    HW224684   0.172   0.600   3.454
 7929SOL     OW24685   4.824   3.739   6.755
 7929SOL    HW124686   4.736   3.701   6.725
 7929SOL    HW224687   4.885   3.748   6.677
 7930SOL     OW24688   3.779   5.618   6.170
 7930SOL    HW124689   3.708   5.588   6.106
 7930SOL    HW224690   3.848   5.547   6.178
 7931SOL     OW24691   2.954   2.387   0.289
 7931SOL    HW124692   2.895   2.336   0.227
 7931SOL    HW224693   2.898   2.438   0.354
 7932SOL     OW24694   0.062   5.602   0.768
 7932SOL    HW124695   0.148   5.562   0.798
 7932SOL    HW224696   0.077   5.657   0.686
 7933SOL     OW24697   6.416   0.918   5.592
 7933SOL    HW124698   6.397   0.897   5.496
 7933SOL    HW224699   6.334   0.901   5.647
 7934SOL     OW24700   1.700   4.637   0.875
 7934SOL    HW124701   1.653   4.554   0.907
 7934SOL    HW224702   1.733   4.622   0.782
 7935SOL     OW24703   5.426   3.878   2.573
 7935SOL    HW124704   5.469   3.859   2.662
 7935SOL    HW224705   5.333   3.913   2.588
 7936SOL     OW24706   3.362   6.121   4.063
 7936SOL    HW124707   3.444   6.178   4.076
 7936SOL    HW224708   3.280   6.178   4.072
 7937SOL     OW24709   2.245   6.221   5.390
 7937SOL    HW124710   2.189   6.257   5.465
 7937SOL    HW224711   2.342   6.235   5.410
 7938SOL     OW24712   5.306   0.721   5.055
 7938SOL    HW124713   5.312   0.711   5.154
 7938SOL    HW224714   5.367   0.655   5.011
 7939SOL     OW24715   0.885   1.653   5.419
 7939SOL    HW124716   0.944   1.733   5.427
 7939SOL    HW224717   0.808   1.674   5.359
 7940SOL     OW24718   4.163   1.938   2.608
 7940SOL    HW124719   4.230   1.885   2.555
 7940SOL    HW224720   4.093   1.974   2.547
 7941SOL     OW24721   4.128   6.679   3.106
 7941SOL    HW124722   4.196   6.706   3.037
 7941SOL    HW224723   4.174   6.632   3.181
 7942SOL     OW24724   1.108   2.544   1.877
 7942SOL    HW124725   1.093   2.458   1.925
 7942SOL    HW224726   1.182   2.534   1.810
 7943SOL     OW24727   2.140   4.805   5.579
 7943SOL    HW124728   2.122   4.833   5.484
 7943SOL    HW224729   2.235   4.778   5.588
 7944SOL     OW24730   1.114   2.839   0.991
 7944SOL    HW124731   1.211   2.856   0.974
 7944SOL    HW224732   1.098   2.741   0.998
 7945SOL     OW24733   6.480   5.369   3.101
 7945SOL    HW124734   6.392   5.360   3.056
 7945SOL    HW224735   6.514   5.462   3.090
 7946SOL     OW24736   3.737   6.928   5.653
 7946SOL    HW124737   3.760   7.025   5.646
 7946SOL    HW224738   3.721   6.890   5.562
 7947SOL     OW24739   2.008   2.697   5.182
 7947SOL    HW124740   1.928   2.699   5.242
 7947SOL    HW224741   2.074   2.631   5.218
 7948SOL     OW24742   1.408   4.605   2.223
 7948SOL    HW124743   1.453   4.517   2.205
 7948SOL    HW224744   1.419   4.628   2.319
 7949SOL     OW24745   4.866   4.485   5.952
 7949SOL    HW124746   4.952   4.487   6.001
 7949SOL    HW224747   4.795   4.445   6.010
 7950SOL     OW24748   5.167   5.623   5.491
 7950SOL    HW124749   5.096   5.675   5.538
 7950SOL    HW224750   5.254   5.673   5.495
 7951SOL     OW24751   3.121   5.533   2.276
 7951SOL    HW124752   3.166   5.463   2.220
 7951SOL    HW224753   3.059   5.489   2.341
 7952SOL     OW24754   6.106   3.942   6.981
 7952SOL    HW124755   6.178   3.878   6.956
 7952SOL    HW224756   6.044   3.899   0.021
 7953SOL     OW24757   4.189   1.422   0.802
 7953SOL    HW124758   4.179   1.512   0.759
 7953SOL    HW224759   4.138   1.420   0.888
 7954SOL     OW24760   4.047   3.655   6.688
 7954SOL    HW124761   4.079   3.582   6.627
 7954SOL    HW224762   4.019   3.734   6.634
 7955SOL     OW24763   2.098   1.723   6.408
 7955SOL    HW124764   2.185   1.699   6.450
 7955SOL    HW224765   2.104   1.814   6.367
 7956SOL     OW24766   6.012   1.580   1.701
 7956SOL    HW124767   6.032   1.549   1.794
 7956SOL    HW224768   5.989   1.677   1.702
 7957SOL     OW24769   4.398   0.551   5.444
 7957SOL    HW124770   4.339   0.523   5.519
 7957SOL    HW224771   4.346   0.606   5.379
 7958SOL     OW24772   5.732   3.404   6.424
 7958SOL    HW124773   5.720   3.306   6.441
 7958SOL    HW224774   5.763   3.418   6.330
 7959SOL     OW24775   5.261   0.661   5.895
 7959SOL    HW124776   5.264   0.706   5.805
 7959SOL    HW224777   5.237   0.565   5.883
 7960SOL     OW24778   0.097   0.722   6.302
 7960SOL    HW124779   0.143   0.734   6.390
 7960SOL    HW224780   0.008   0.767   6.305
 7961SOL     OW24781   6.694   6.501   0.299
 7961SOL    HW124782   6.718   6.451   0.216
 7961SOL    HW224783   6.728   6.595   0.292
 7962SOL     OW24784   6.686   0.058   6.445
 7962SOL    HW124785   6.785   0.043   6.435
 7962SOL    HW224786   6.670   0.131   6.511
 7963SOL     OW24787   6.291   4.013   4.637
 7963SOL    HW124788   6.199   4.047   4.616
 7963SOL    HW224789   6.327   3.963   4.558
 7964SOL     OW24790   6.839   2.806   1.523
 7964SOL    HW124791   6.901   2.729   1.542
 7964SOL    HW224792   6.815   2.805   1.426
 7965SOL     OW24793   4.852   2.447   0.063
 7965SOL    HW124794   4.830   2.473   6.995
 7965SOL    HW224795   4.803   2.363   0.087
 7966SOL     OW24796   3.970   4.049   5.563
 7966SOL    HW124797   4.005   4.093   5.646
 7966SOL    HW224798   3.902   4.109   5.520
 7967SOL     OW24799   1.704   5.089   2.091
 7967SOL    HW124800   1.765   5.158   2.130
 7967SOL    HW224801   1.752   5.002   2.083
 7968SOL     OW24802   6.340   1.734   4.650
 7968SOL    HW124803   6.425   1.698   4.690
 7968SOL    HW224804   6.360   1.819   4.602
 7969SOL     OW24805   4.707   5.877   0.160
 7969SOL    HW124806   4.735   5.972   0.175
 7969SOL    HW224807   4.782   5.816   0.182
 7970SOL     OW24808   6.249   3.095   2.785
 7970SOL    HW124809   6.156   3.086   2.751
 7970SOL    HW224810   6.308   3.134   2.714
 7971SOL     OW24811   2.928   1.718   1.109
 7971SOL    HW124812   2.957   1.797   1.163
 7971SOL    HW224813   2.981   1.638   1.136
 7972SOL     OW24814   4.237   3.314   1.868
 7972SOL    HW124815   4.201   3.275   1.953
 7972SOL    HW224816   4.332   3.285   1.855
 7973SOL     OW24817   6.329   3.709   3.818
 7973SOL    HW124818   6.250   3.696   3.878
 7973SOL    HW224819   6.299   3.743   3.729
 7974SOL     OW24820   6.432   1.632   5.078
 7974SOL    HW124821   6.343   1.667   5.109
 7974SOL    HW224822   6.418   1.558   5.012
 7975SOL     OW24823   4.279   1.514   0.029
 7975SOL    HW124824   4.281   1.415   0.040
 7975SOL    HW224825   4.226   1.538   6.974
 7976SOL     OW24826   1.363   0.233   6.333
 7976SOL    HW124827   1.273   0.221   6.374
 7976SOL    HW224828   1.384   0.154   6.275
 7977SOL     OW24829   5.548   6.001   2.520
 7977SOL    HW124830   5.532   6.032   2.614
 7977SOL    HW224831   5.596   5.913   2.522
 7978SOL     OW24832   0.471   4.228   0.822
 7978SOL    HW124833   0.400   4.229   0.893
 7978SOL    HW224834   0.561   4.234   0.866
 7979SOL     OW24835   2.049   3.767   4.784
 7979SOL    HW124836   1.984   3.789   4.857
 7979SOL    HW224837   2.098   3.849   4.757
 7980SOL     OW24838   3.642   4.669   5.684
 7980SOL    HW124839   3.559   4.628   5.648
 7980SOL    HW224840   3.620   4.725   5.764
 7981SOL     OW24841   2.013   5.429   3.461
 7981SOL    HW124842   2.018   5.371   3.541
 7981SOL    HW224843   1.955   5.386   3.391
 7982SOL     OW24844   1.048   1.518   6.153
 7982SOL    HW124845   0.950   1.507   6.168
 7982SOL    HW224846   1.066   1.526   6.055
 7983SOL     OW24847   5.213   1.133   1.358
 7983SOL    HW124848   5.298   1.153   1.407
 7983SOL    HW224849   5.177   1.045   1.388
 7984SOL     OW24850   0.668   2.051   1.914
 7984SOL    HW124851   0.712   2.049   1.824
 7984SOL    HW224852   0.638   2.145   1.934
 7985SOL     OW24853   1.973   2.209   5.227
 7985SOL    HW124854   2.041   2.247   5.290
 7985SOL    HW224855   1.973   2.109   5.235
 7986SOL     OW24856   3.891   1.731   4.445
 7986SOL    HW124857   3.821   1.677   4.399
 7986SOL    HW224858   3.921   1.805   4.384
 7987SOL     OW24859   1.632   3.717   0.838
 7987SOL    HW124860   1.632   3.625   0.879
 7987SOL    HW224861   1.565   3.720   0.764
 7988SOL     OW24862   6.906   0.946   1.764
 7988SOL    HW124863   6.868   0.943   1.672
 7988SOL    HW224864   6.920   1.041   1.791
 7989SOL     OW24865   1.833   4.174   0.469
 7989SOL    HW124866   1.774   4.098   0.439
 7989SOL    HW224867   1.912   4.137   0.519
 7990SOL     OW24868   2.465   6.642   4.627
 7990SOL    HW124869   2.367   6.664   4.633
 7990SOL    HW224870   2.480   6.578   4.552
 7991SOL     OW24871   5.324   1.781   4.528
 7991SOL    HW124872   5.319   1.843   4.450
 7991SOL    HW224873   5.232   1.767   4.565
 7992SOL     OW24874   2.540   0.367   0.640
 7992SOL    HW124875   2.604   0.431   0.598
 7992SOL    HW224876   2.517   0.399   0.732
 7993SOL     OW24877   0.020   0.116   2.179
 7993SOL    HW124878   6.946   0.120   2.180
 7993SOL    HW224879   0.050   0.021   2.177
 7994SOL     OW24880   5.110   0.807   3.410
 7994SOL    HW124881   5.129   0.899   3.374
 7994SOL    HW224882   5.092   0.745   3.333
 7995SOL     OW24883   6.400   4.534   2.659
 7995SOL    HW124884   6.401   4.617   2.714
 7995SOL    HW224885   6.335   4.469   2.699
 7996SOL     OW24886   3.865   0.342   3.701
 7996SOL    HW124887   3.932   0.274   3.670
 7996SOL    HW224888   3.913   0.423   3.735
 7997SOL     OW24889   0.826   2.200   0.177
 7997SOL    HW124890   0.838   2.188   0.079
 7997SOL    HW224891   0.731   2.182   0.201
 7998SOL     OW24892   2.877   0.262   6.868
 7998SOL    HW124893   2.946   0.297   6.932
 7998SOL    HW224894   2.859   0.166   6.887
 7999SOL     OW24895   1.158   1.889   6.127
 7999SOL    HW124896   1.178   1.983   6.155
 7999SOL    HW224897   1.146   1.832   6.208
 8000SOL     OW24898   6.325   6.630   6.318
 8000SOL    HW124899   6.364   6.565   6.253
 8000SOL    HW224900   6.393   6.652   6.388
 8001SOL     OW24901   4.641   0.094   1.044
 8001SOL    HW124902   4.625   7.021   1.037
 8001SOL    HW224903   4.723   0.118   0.991
 8002SOL     OW24904   0.569   1.012   5.413
 8002SOL    HW124905   0.483   1.063   5.413
 8002SOL    HW224906   0.566   0.942   5.342
 8003SOL     OW24907   1.902   6.782   2.325
 8003SOL    HW124908   1.890   6.879   2.342
 8003SOL    HW224909   1.883   6.762   2.229
 8004SOL     OW24910   1.733   2.603   3.616
 8004SOL    HW124911   1.777   2.693   3.623
 8004SOL    HW224912   1.768   2.556   3.535
 8005SOL     OW24913   2.635   0.342   3.949
 8005SOL    HW124914   2.696   0.284   4.003
 8005SOL    HW224915   2.597   0.288   3.873
 8006SOL     OW24916   3.382   5.181   5.089
 8006SOL    HW124917   3.310   5.244   5.058
 8006SOL    HW224918   3.419   5.132   5.010
 8007SOL     OW24919   5.939   1.697   6.413
 8007SOL    HW124920   5.977   1.723   6.324
 8007SOL    HW224921   5.841   1.719   6.414
 8008SOL     OW24922   3.770   6.582   0.011
 8008SOL    HW124923   3.700   6.607   6.970
 8008SOL    HW224924   3.799   6.664   0.060
 8009SOL     OW24925   4.677   1.481   1.123
 8009SOL    HW124926   4.617   1.533   1.063
 8009SOL    HW224927   4.736   1.544   1.174
 8010SOL     OW24928   2.885   2.447   5.614
 8010SOL    HW124929   2.913   2.411   5.525
 8010SOL    HW224930   2.786   2.447   5.621
 8011SOL     OW24931   3.672   1.946   1.922
 8011SOL    HW124932   3.688   2.044   1.934
 8011SOL    HW224933   3.609   1.932   1.846
 8012SOL     OW24934   0.664   3.062   5.906
 8012SOL    HW124935   0.714   3.143   5.875
 8012SOL    HW224936   0.724   3.008   5.965
 8013SOL     OW24937   0.983   2.517   3.207
 8013SOL    HW124938   0.918   2.441   3.195
 8013SOL    HW224939   1.029   2.535   3.121
 8014SOL     OW24940   1.828   0.087   3.691
 8014SOL    HW124941   1.757   0.146   3.654
 8014SOL    HW224942   1.816   0.079   3.790
 8015SOL     OW24943   1.760   0.408   6.177
 8015SOL    HW124944   1.854   0.393   6.208
 8015SOL    HW224945   1.714   0.471   6.239
 8016SOL     OW24946   3.371   1.511   5.037
 8016SOL    HW124947   3.416   1.438   5.089
 8016SOL    HW224948   3.301   1.471   4.978
 8017SOL     OW24949   6.811   6.779   0.295
 8017SOL    HW124950   6.905   6.813   0.297
 8017SOL    HW224951   6.759   6.822   0.368
 8018SOL     OW24952   3.660   1.995   6.755
 8018SOL    HW124953   3.753   2.019   6.727
 8018SOL    HW224954   3.604   1.977   6.673
 8019SOL     OW24955   2.758   3.601   0.540
 8019SOL    HW124956   2.720   3.693   0.548
 8019SOL    HW224957   2.747   3.553   0.627
 8020SOL     OW24958   5.845   0.017   5.638
 8020SOL    HW124959   5.822   0.017   5.540
 8020SOL    HW224960   5.772   7.000   5.689
 8021SOL     OW24961   2.331   2.194   2.120
 8021SOL    HW124962   2.232   2.210   2.124
 8021SOL    HW224963   2.361   2.192   2.025
 8022SOL     OW24964   5.886   0.856   1.290
 8022SOL    HW124965   5.864   0.858   1.192
 8022SOL    HW224966   5.902   0.762   1.319
 8023SOL     OW24967   5.862   5.622   3.292
 8023SOL    HW124968   5.844   5.720   3.299
 8023SOL    HW224969   5.842   5.590   3.199
 8024SOL     OW24970   1.712   5.786   6.306
 8024SOL    HW124971   1.728   5.753   6.212
 8024SOL    HW224972   1.655   5.720   6.355
 8025SOL     OW24973   2.004   4.645   1.733
 8025SOL    HW124974   1.955   4.716   1.783
 8025SOL    HW224975   2.050   4.584   1.797
 8026SOL     OW24976   0.340   4.528   0.826
 8026SOL    HW124977   0.241   4.542   0.819
 8026SOL    HW224978   0.362   4.492   0.917
 8027SOL     OW24979   4.009   6.608   5.361
 8027SOL    HW124980   4.012   6.685   5.426
 8027SOL    HW224981   3.914   6.588   5.338
 8028SOL     OW24982   3.039   5.985   4.656
 8028SOL    HW124983   2.963   5.941   4.703
 8028SOL    HW224984   3.033   5.965   4.558
 8029SOL     OW24985   4.764   2.110   1.953
 8029SOL    HW124986   4.851   2.088   1.909
 8029SOL    HW224987   4.691   2.111   1.885
 8030SOL     OW24988   6.075   4.966   0.927
 8030SOL    HW124989   6.138   4.888   0.919
 8030SOL    HW224990   6.115   5.045   0.882
 8031SOL     OW24991   5.626   0.282   3.592
 8031SOL    HW124992   5.722   0.256   3.579
 8031SOL    HW224993   5.567   0.209   3.558
 8032SOL     OW24994   5.392   3.803   1.703
 8032SOL    HW124995   5.436   3.859   1.632
 8032SOL    HW224996   5.299   3.835   1.717
 8033SOL     OW24997   4.021   3.482   0.341
 8033SOL    HW124998   4.022   3.549   0.415
 8033SOL    HW224999   3.935   3.430   0.345
 8034SOL     OW25000   5.589   0.747   5.357
 8034SOL    HW125001   5.505   0.694   5.346
 8034SOL    HW225002   5.625   0.773   5.267
 8035SOL     OW25003   4.246   0.857   2.323
 8035SOL    HW125004   4.193   0.785   2.368
 8035SOL    HW225005   4.220   0.862   2.226
 8036SOL     OW25006   6.713   2.764   3.850
 8036SOL    HW125007   6.721   2.863   3.858
 8036SOL    HW225008   6.800   2.725   3.822
 8037SOL     OW25009   1.419   2.610   0.095
 8037SOL    HW125010   1.417   2.539   0.025
 8037SOL    HW225011   1.489   2.678   0.071
 8038SOL     OW25012   5.577   6.264   1.880
 8038SOL    HW125013   5.643   6.194   1.909
 8038SOL    HW225014   5.625   6.350   1.865
 8039SOL     OW25015   0.499   2.762   5.360
 8039SOL    HW125016   0.491   2.722   5.269
 8039SOL    HW225017   0.560   2.705   5.417
 8040SOL     OW25018   2.020   5.858   6.087
 8040SOL    HW125019   2.073   5.799   6.026
 8040SOL    HW225020   2.073   5.877   6.169
 8041SOL     OW25021   3.183   1.464   3.281
 8041SOL    HW125022   3.132   1.424   3.205
 8041SOL    HW225023   3.193   1.562   3.267
 8042SOL     OW25024   4.410   4.305   5.959
 8042SOL    HW125025   4.509   4.313   5.947
 8042SOL    HW225026   4.365   4.387   5.924
 8043SOL     OW25027   4.658   4.968   1.505
 8043SOL    HW125028   4.724   4.930   1.440
 8043SOL    HW225029   4.617   4.893   1.557
 8044SOL     OW25030   3.902   3.844   1.146
 8044SOL    HW125031   3.974   3.899   1.104
 8044SOL    HW225032   3.929   3.747   1.147
 8045SOL     OW25033   7.004   1.307   2.906
 8045SOL    HW125034   6.998   1.224   2.849
 8045SOL    HW225035   0.074   1.325   2.928
 8046SOL     OW25036   0.317   4.977   1.783
 8046SOL    HW125037   0.377   4.949   1.858
 8046SOL    HW225038   0.330   5.075   1.765
 8047SOL     OW25039   3.825   6.943   6.349
 8047SOL    HW125040   3.764   6.912   6.277
 8047SOL    HW225041   3.877   6.866   6.385
 8048SOL     OW25042   3.798   2.950   0.411
 8048SOL    HW125043   3.822   2.911   0.500
 8048SOL    HW225044   3.717   3.008   0.421
 8049SOL     OW25045   1.230   6.554   0.187
 8049SOL    HW125046   1.189   6.615   0.256
 8049SOL    HW225047   1.216   6.459   0.215
 8050SOL     OW25048   1.805   4.299   4.207
 8050SOL    HW125049   1.791   4.325   4.303
 8050SOL    HW225050   1.747   4.221   4.185
 8051SOL     OW25051   5.034   5.904   4.225
 8051SOL    HW125052   5.119   5.948   4.255
 8051SOL    HW225053   4.995   5.851   4.300
 8052SOL     OW25054   2.565   1.247   2.090
 8052SOL    HW125055   2.616   1.255   2.004
 8052SOL    HW225056   2.552   1.339   2.129
 8053SOL     OW25057   2.846   3.241   5.533
 8053SOL    HW125058   2.834   3.249   5.632
 8053SOL    HW225059   2.757   3.231   5.490
 8054SOL     OW25060   5.965   4.453   5.064
 8054SOL    HW125061   5.951   4.524   5.133
 8054SOL    HW225062   5.954   4.492   4.973
 8055SOL     OW25063   0.233   0.438   5.258
 8055SOL    HW125064   0.154   0.446   5.198
 8055SOL    HW225065   0.308   0.393   5.210
 8056SOL     OW25066   2.620   6.838   3.599
 8056SOL    HW125067   2.541   6.896   3.580
 8056SOL    HW225068   2.646   6.788   3.516
 8057SOL     OW25069   2.450   2.122   1.867
 8057SOL    HW125070   2.531   2.156   1.819
 8057SOL    HW225071   2.424   2.033   1.829
 8058SOL     OW25072   2.935   6.450   3.041
 8058SOL    HW125073   2.963   6.539   3.077
 8058SOL    HW225074   2.852   6.461   2.987
 8059SOL     OW25075   3.351   1.621   5.494
 8059SOL    HW125076   3.413   1.552   5.456
 8059SOL    HW225077   3.272   1.575   5.536
 8060SOL     OW25078   6.874   0.455   5.911
 8060SOL    HW125079   6.796   0.517   5.918
 8060SOL    HW225080   6.844   0.361   5.923
 8061SOL     OW25081   0.194   0.794   2.255
 8061SOL    HW125082   0.128   0.783   2.329
 8061SOL    HW225083   0.229   0.887   2.254
 8062SOL     OW25084   3.884   5.553   4.673
 8062SOL    HW125085   3.932   5.479   4.721
 8062SOL    HW225086   3.890   5.537   4.574
 8063SOL     OW25087   3.552   0.700   2.937
 8063SOL    HW125088   3.497   0.749   3.005
 8063SOL    HW225089   3.492   0.647   2.878
 8064SOL     OW25090   6.574   2.985   0.526
 8064SOL    HW125091   6.644   2.958   0.460
 8064SOL    HW225092   6.595   3.076   0.562
 8065SOL     OW25093   3.769   6.944   4.563
 8065SOL    HW125094   3.839   6.964   4.631
 8065SOL    HW225095   3.685   6.993   4.587
 8066SOL     OW25096   6.634   1.272   4.805
 8066SOL    HW125097   6.612   1.222   4.888
 8066SOL    HW225098   6.722   1.241   4.769
 8067SOL     OW25099   5.205   3.028   3.577
 8067SOL    HW125100   5.289   3.081   3.565
 8067SOL    HW225101   5.128   3.090   3.588
 8068SOL     OW25102   0.663   5.044   1.290
 8068SOL    HW125103   0.575   5.014   1.255
 8068SOL    HW225104   0.719   5.079   1.215
 8069SOL     OW25105   3.088   5.139   2.209
 8069SOL    HW125106   3.101   5.090   2.123
 8069SOL    HW225107   3.076   5.236   2.190
 8070SOL     OW25108   3.915   4.352   0.794
 8070SOL    HW125109   3.976   4.328   0.870
 8070SOL    HW225110   3.837   4.290   0.793
 8071SOL     OW25111   4.022   6.696   5.084
 8071SOL    HW125112   3.995   6.622   5.146
 8071SOL    HW225113   4.080   6.761   5.133
 8072SOL     OW25114   3.053   2.733   0.109
 8072SOL    HW125115   3.088   2.643   0.084
 8072SOL    HW225116   2.968   2.723   0.160
 8073SOL     OW25117   3.205   0.319   6.082
 8073SOL    HW125118   3.229   0.394   6.021
 8073SOL    HW225119   3.186   0.236   6.029
 8074SOL     OW25120   1.635   0.999   0.780
 8074SOL    HW125121   1.667   1.063   0.710
 8074SOL    HW225122   1.684   0.913   0.770
 8075SOL     OW25123   0.866   6.816   0.013
 8075SOL    HW125124   0.855   6.913   7.015
 8075SOL    HW225125   0.831   6.800   0.105
 8076SOL     OW25126   0.222   6.975   6.371
 8076SOL    HW125127   0.266   6.955   6.459
 8076SOL    HW225128   0.283   0.005   6.315
 8077SOL     OW25129   4.054   6.236   1.985
 8077SOL    HW125130   4.079   6.273   1.896
 8077SOL    HW225131   3.962   6.197   1.981
 8078SOL     OW25132   0.764   1.456   0.774
 8078SOL    HW125133   0.780   1.370   0.726
 8078SOL    HW225134   0.749   1.439   0.871
 8079SOL     OW25135   0.240   1.594   4.476
 8079SOL    HW125136   0.151   1.549   4.478
 8079SOL    HW225137   0.309   1.532   4.514
 8080SOL     OW25138   1.443   2.597   1.979
 8080SOL    HW125139   1.468   2.562   1.889
 8080SOL    HW225140   1.363   2.657   1.970
 8081SOL     OW25141   6.208   4.356   5.842
 8081SOL    HW125142   6.307   4.371   5.845
 8081SOL    HW225143   6.162   4.444   5.833
 8082SOL     OW25144   2.816   0.568   1.995
 8082SOL    HW125145   2.813   0.469   1.981
 8082SOL    HW225146   2.793   0.588   2.090
 8083SOL     OW25147   5.729   3.111   3.710
 8083SOL    HW125148   5.813   3.119   3.657
 8083SOL    HW225149   5.671   3.039   3.670
 8084SOL     OW25150   2.368   0.635   5.654
 8084SOL    HW125151   2.389   0.616   5.558
 8084SOL    HW225152   2.419   0.571   5.713
 8085SOL     OW25153   6.643   6.477   3.116
 8085SOL    HW125154   6.564   6.447   3.062
 8085SOL    HW225155   6.686   6.397   3.158
 8086SOL     OW25156   6.786   0.946   1.505
 8086SOL    HW125157   6.782   0.850   1.478
 8086SOL    HW225158   6.702   0.992   1.477
 8087SOL     OW25159   1.410   0.896   6.538
 8087SOL    HW125160   1.464   0.812   6.535
 8087SOL    HW225161   1.339   0.893   6.467
 8088SOL     OW25162   5.935   6.904   6.954
 8088SOL    HW125163   5.890   6.904   6.865
 8088SOL    HW225164   6.012   6.841   6.953
 8089SOL     OW25165   5.657   2.551   6.376
 8089SOL    HW125166   5.751   2.534   6.404
 8089SOL    HW225167   5.632   2.646   6.394
 8090SOL     OW25168   3.801   1.423   5.964
 8090SOL    HW125169   3.798   1.339   5.910
 8090SOL    HW225170   3.715   1.435   6.013
 8091SOL     OW25171   1.134   4.579   4.390
 8091SOL    HW125172   1.185   4.534   4.317
 8091SOL    HW225173   1.083   4.511   4.443
 8092SOL     OW25174   4.798   1.933   5.320
 8092SOL    HW125175   4.849   1.846   5.319
 8092SOL    HW225176   4.800   1.973   5.228
 8093SOL     OW25177   3.332   5.714   2.815
 8093SOL    HW125178   3.408   5.700   2.878
 8093SOL    HW225179   3.251   5.665   2.848
 8094SOL     OW25180   0.543   3.828   5.436
 8094SOL    HW125181   0.583   3.814   5.527
 8094SOL    HW225182   0.447   3.853   5.446
 8095SOL     OW25183   1.008   5.022   4.924
 8095SOL    HW125184   1.037   4.968   4.845
 8095SOL    HW225185   1.086   5.074   4.960
 8096SOL     OW25186   1.146   0.153   2.291
 8096SOL    HW125187   1.234   0.153   2.338
 8096SOL    HW225188   1.157   0.191   2.199
 8097SOL     OW25189   4.014   0.211   4.835
 8097SOL    HW125190   4.079   0.282   4.806
 8097SOL    HW225191   3.923   0.251   4.843
 8098SOL     OW25192   1.700   6.349   3.861
 8098SOL    HW125193   1.707   6.284   3.784
 8098SOL    HW225194   1.781   6.408   3.862
 8099SOL     OW25195   4.433   6.094   4.583
 8099SOL    HW125196   4.422   6.132   4.492
 8099SOL    HW225197   4.526   6.108   4.615
 8100SOL     OW25198   6.420   1.338   6.736
 8100SOL    HW125199   6.359   1.360   6.660
 8100SOL    HW225200   6.404   1.244   6.766
 8101SOL     OW25201   2.172   4.960   1.016
 8101SOL    HW125202   2.094   4.921   0.967
 8101SOL    HW225203   2.237   4.888   1.038
 8102SOL     OW25204   0.818   3.358   4.109
 8102SOL    HW125205   0.897   3.298   4.104
 8102SOL    HW225206   0.836   3.441   4.057
 8103SOL     OW25207   3.155   0.540   2.188
 8103SOL    HW125208   3.100   0.497   2.259
 8103SOL    HW225209   3.191   0.627   2.221
 8104SOL     OW25210   1.886   0.183   5.353
 8104SOL    HW125211   1.934   0.122   5.416
 8104SOL    HW225212   1.787   0.176   5.368
 8105SOL     OW25213   0.180   2.476   2.631
 8105SOL    HW125214   0.155   2.478   2.728
 8105SOL    HW225215   0.097   2.473   2.575
 8106SOL     OW25216   2.707   6.555   3.520
 8106SOL    HW125217   2.762   6.472   3.532
 8106SOL    HW225218   2.616   6.540   3.560
 8107SOL     OW25219   0.858   5.790   4.267
 8107SOL    HW125220   0.836   5.760   4.359
 8107SOL    HW225221   0.773   5.812   4.218
 8108SOL     OW25222   6.630   1.456   6.941
 8108SOL    HW125223   6.567   1.435   6.866
 8108SOL    HW225224   6.596   1.536   6.990
 8109SOL     OW25225   0.094   4.343   6.065
 8109SOL    HW125226   0.073   4.362   6.161
 8109SOL    HW225227   0.146   4.419   6.026
 8110SOL     OW25228   4.189   4.627   1.598
 8110SOL    HW125229   4.213   4.579   1.682
 8110SOL    HW225230   4.137   4.567   1.537
 8111SOL     OW25231   5.423   1.011   4.097
 8111SOL    HW125232   5.351   0.957   4.140
 8111SOL    HW225233   5.430   0.988   4.001
 8112SOL     OW25234   1.376   3.405   4.280
 8112SOL    HW125235   1.351   3.392   4.184
 8112SOL    HW225236   1.324   3.342   4.337
 8113SOL     OW25237   6.177   3.389   0.820
 8113SOL    HW125238   6.176   3.385   0.720
 8113SOL    HW225239   6.140   3.304   0.858
 8114SOL     OW25240   1.125   3.411   2.047
 8114SOL    HW125241   1.094   3.423   2.142
 8114SOL    HW225242   1.065   3.346   2.001
 8115SOL     OW25243   3.153   6.358   5.661
 8115SOL    HW125244   3.158   6.365   5.561
 8115SOL    HW225245   3.074   6.302   5.686
 8116SOL     OW25246   4.348   5.118   0.237
 8116SOL    HW125247   4.407   5.198   0.247
 8116SOL    HW225248   4.388   5.055   0.171
 8117SOL     OW25249   2.204   0.102   3.097
 8117SOL    HW125250   2.243   0.183   3.052
 8117SOL    HW225251   2.277   0.037   3.117
 8118SOL     OW25252   6.328   3.953   6.468
 8118SOL    HW125253   6.323   3.856   6.490
 8118SOL    HW225254   6.361   4.004   6.547
 8119SOL     OW25255   5.129   6.201   6.366
 8119SOL    HW125256   5.217   6.240   6.395
 8119SOL    HW225257   5.103   6.241   6.278
 8120SOL     OW25258   2.946   4.763   0.448
 8120SOL    HW125259   2.858   4.781   0.406
 8120SOL    HW225260   2.982   4.848   0.487
 8121SOL     OW25261   0.869   4.651   2.166
 8121SOL    HW125262   0.936   4.681   2.098
 8121SOL    HW225263   0.891   4.557   2.194
 8122SOL     OW25264   0.702   4.751   3.037
 8122SOL    HW125265   0.780   4.790   2.987
 8122SOL    HW225266   0.728   4.737   3.133
 8123SOL     OW25267   6.866   1.196   0.082
 8123SOL    HW125268   6.768   1.213   0.084
 8123SOL    HW225269   6.903   1.198   0.175
 8124SOL     OW25270   5.520   6.338   3.607
 8124SOL    HW125271   5.560   6.402   3.542
 8124SOL    HW225272   5.512   6.248   3.564
 8125SOL     OW25273   0.981   1.016   2.537
 8125SOL    HW125274   1.001   1.019   2.439
 8125SOL    HW225275   0.985   0.922   2.569
 8126SOL     OW25276   4.942   4.946   3.837
 8126SOL    HW125277   4.934   4.894   3.751
 8126SOL    HW225278   4.953   5.043   3.816
 8127SOL     OW25279   2.692   2.908   6.305
 8127SOL    HW125280   2.746   2.910   6.389
 8127SOL    HW225281   2.609   2.962   6.317
 8128SOL     OW25282   3.007   2.102   1.921
 8128SOL    HW125283   2.990   2.193   1.959
 8128SOL    HW225284   3.103   2.077   1.935
 8129SOL     OW25285   2.244   2.151   6.877
 8129SOL    HW125286   2.342   2.170   6.872
 8129SOL    HW225287   2.192   2.234   6.854
 8130SOL     OW25288   1.469   6.301   6.893
 8130SOL    HW125289   1.500   6.209   6.869
 8130SOL    HW225290   1.517   6.331   6.976
 8131SOL     OW25291   2.389   1.998   1.367
 8131SOL    HW125292   2.469   1.984   1.310
 8131SOL    HW225293   2.387   2.093   1.399
 8132SOL     OW25294   5.982   6.296   4.817
 8132SOL    HW125295   6.063   6.247   4.784
 8132SOL    HW225296   6.007   6.391   4.836
 8133SOL     OW25297   3.903   5.623   2.133
 8133SOL    HW125298   3.878   5.583   2.221
 8133SOL    HW225299   3.822   5.662   2.090
 8134SOL     OW25300   0.027   1.022   6.437
 8134SOL    HW125301   0.126   1.033   6.451
 8134SOL    HW225302   0.006   1.034   6.340
 8135SOL     OW25303   1.572   0.984   1.319
 8135SOL    HW125304   1.517   0.901   1.330
 8135SOL    HW225305   1.536   1.055   1.381
 8136SOL     OW25306   5.466   5.385   2.361
 8136SOL    HW125307   5.440   5.479   2.338
 8136SOL    HW225308   5.565   5.375   2.356
 8137SOL     OW25309   2.895   0.941   4.894
 8137SOL    HW125310   2.890   0.863   4.957
 8137SOL    HW225311   2.981   0.937   4.843
 8138SOL     OW25312   5.477   1.142   1.484
 8138SOL    HW125313   5.500   1.087   1.404
 8138SOL    HW225314   5.470   1.084   1.565
 8139SOL     OW25315   0.719   1.192   2.311
 8139SOL    HW125316   0.817   1.183   2.297
 8139SOL    HW225317   0.695   1.289   2.319
 8140SOL     OW25318   4.907   1.112   4.627
 8140SOL    HW125319   4.851   1.193   4.643
 8140SOL    HW225320   4.959   1.124   4.543
 8141SOL     OW25321   4.335   5.566   5.858
 8141SOL    HW125322   4.384   5.479   5.850
 8141SOL    HW225323   4.391   5.631   5.910
 8142SOL     OW25324   6.326   5.043   0.047
 8142SOL    HW125325   6.394   5.093   0.100
 8142SOL    HW225326   6.326   4.947   0.075
 8143SOL     OW25327   6.305   4.650   0.081
 8143SOL    HW125328   6.315   4.590   0.001
 8143SOL    HW225329   6.393   4.691   0.104
 8144SOL     OW25330   5.466   6.953   6.893
 8144SOL    HW125331   5.435   6.971   6.986
 8144SOL    HW225332   5.434   6.863   6.864
 8145SOL     OW25333   5.646   5.770   2.574
 8145SOL    HW125334   5.694   5.782   2.660
 8145SOL    HW225335   5.711   5.749   2.501
 8146SOL     OW25336   3.461   1.348   5.451
 8146SOL    HW125337   3.475   1.333   5.353
 8146SOL    HW225338   3.546   1.381   5.492
 8147SOL     OW25339   5.681   2.285   3.238
 8147SOL    HW125340   5.649   2.244   3.323
 8147SOL    HW225341   5.706   2.380   3.254
 8148SOL     OW25342   5.837   3.802   2.771
 8148SOL    HW125343   5.925   3.772   2.807
 8148SOL    HW225344   5.764   3.755   2.820
 8149SOL     OW25345   2.798   5.760   2.529
 8149SOL    HW125346   2.729   5.750   2.457
 8149SOL    HW225347   2.764   5.822   2.600
 8150SOL     OW25348   6.917   4.795   0.463
 8150SOL    HW125349   6.854   4.729   0.504
 8150SOL    HW225350   6.889   4.888   0.489
 8151SOL     OW25351   0.400   2.298   3.191
 8151SOL    HW125352   0.458   2.216   3.189
 8151SOL    HW225353   0.457   2.379   3.203
 8152SOL     OW25354   1.226   1.653   3.170
 8152SOL    HW125355   1.226   1.553   3.166
 8152SOL    HW225356   1.252   1.681   3.263
 8153SOL     OW25357   3.427   6.910   2.829
 8153SOL    HW125358   3.393   6.860   2.750
 8153SOL    HW225359   3.477   6.848   2.889
 8154SOL     OW25360   2.394   6.043   4.463
 8154SOL    HW125361   2.411   5.952   4.426
 8154SOL    HW225362   2.395   6.038   4.563
 8155SOL     OW25363   2.875   3.307   2.072
 8155SOL    HW125364   2.871   3.228   2.133
 8155SOL    HW225365   2.813   3.294   1.995
 8156SOL     OW25366   5.839   0.386   5.581
 8156SOL    HW125367   5.839   0.286   5.582
 8156SOL    HW225368   5.920   0.419   5.630
 8157SOL     OW25369   5.725   5.999   6.334
 8157SOL    HW125370   5.701   5.981   6.430
 8157SOL    HW225371   5.795   6.070   6.329
 8158SOL     OW25372   1.435   5.908   0.569
 8158SOL    HW125373   1.421   5.998   0.528
 8158SOL    HW225374   1.531   5.896   0.593
 8159SOL     OW25375   2.437   5.542   2.245
 8159SOL    HW125376   2.406   5.580   2.157
 8159SOL    HW225377   2.524   5.493   2.231
 8160SOL     OW25378   4.520   1.646   0.961
 8160SOL    HW125379   4.512   1.604   0.870
 8160SOL    HW225380   4.530   1.745   0.951
 8161SOL     OW25381   4.849   0.942   0.972
 8161SOL    HW125382   4.945   0.970   0.975
 8161SOL    HW225383   4.791   1.023   0.971
 8162SOL     OW25384   6.352   6.681   6.903
 8162SOL    HW125385   6.320   6.600   6.854
 8162SOL    HW225386   6.448   6.696   6.884
 8163SOL     OW25387   2.700   4.213   5.360
 8163SOL    HW125388   2.727   4.241   5.452
 8163SOL    HW225389   2.735   4.121   5.341
 8164SOL     OW25390   5.838   3.170   1.267
 8164SOL    HW125391   5.887   3.108   1.328
 8164SOL    HW225392   5.776   3.227   1.321
 8165SOL     OW25393   1.932   4.503   1.456
 8165SOL    HW125394   1.879   4.549   1.385
 8165SOL    HW225395   1.918   4.551   1.543
 8166SOL     OW25396   2.185   1.260   1.910
 8166SOL    HW125397   2.228   1.348   1.893
 8166SOL    HW225398   2.086   1.273   1.921
 8167SOL     OW25399   5.652   2.618   3.781
 8167SOL    HW125400   5.563   2.622   3.736
 8167SOL    HW225401   5.682   2.523   3.790
 8168SOL     OW25402   3.839   1.826   2.586
 8168SOL    HW125403   3.851   1.820   2.685
 8168SOL    HW225404   3.792   1.745   2.553
 8169SOL     OW25405   4.108   3.679   0.959
 8169SOL    HW125406   4.191   3.638   0.922
 8169SOL    HW225407   4.075   3.624   1.036
 8170SOL     OW25408   1.361   5.910   3.516
 8170SOL    HW125409   1.363   5.966   3.599
 8170SOL    HW225410   1.424   5.949   3.448
 8171SOL     OW25411   0.537   2.228   6.877
 8171SOL    HW125412   0.562   2.312   6.828
 8171SOL    HW225413   0.444   2.235   6.912
 8172SOL     OW25414   0.048   0.501   0.985
 8172SOL    HW125415   0.116   0.553   1.038
 8172SOL    HW225416   0.039   0.409   1.022
 8173SOL     OW25417   3.641   2.683   6.855
 8173SOL    HW125418   3.589   2.766   6.834
 8173SOL    HW225419   3.725   2.682   6.801
 8174SOL     OW25420   5.475   2.015   0.991
 8174SOL    HW125421   5.408   2.062   0.935
 8174SOL    HW225422   5.479   1.918   0.965
 8175SOL     OW25423   6.536   2.644   6.791
 8175SOL    HW125424   6.444   2.611   6.767
 8175SOL    HW225425   6.553   2.628   6.888
 8176SOL     OW25426   3.102   5.943   2.117
 8176SOL    HW125427   3.043   5.886   2.175
 8176SOL    HW225428   3.198   5.925   2.140
 8177SOL     OW25429   1.773   6.182   3.660
 8177SOL    HW125430   1.808   6.168   3.567
 8177SOL    HW225431   1.801   6.106   3.718
 8178SOL     OW25432   2.175   0.110   6.084
 8178SOL    HW125433   2.228   0.193   6.101
 8178SOL    HW225434   2.078   0.134   6.073
 8179SOL     OW25435   3.200   3.152   7.003
 8179SOL    HW125436   3.162   3.060   6.992
 8179SOL    HW225437   3.278   3.149   0.039
 8180SOL     OW25438   6.565   0.120   4.145
 8180SOL    HW125439   6.622   0.176   4.206
 8180SOL    HW225440   6.551   0.168   4.059
 8181SOL     OW25441   2.732   2.246   3.010
 8181SOL    HW125442   2.667   2.172   3.025
 8181SOL    HW225443   2.777   2.270   3.096
 8182SOL     OW25444   3.074   1.877   5.714
 8182SOL    HW125445   3.066   1.862   5.616
 8182SOL    HW225446   2.982   1.880   5.755
 8183SOL     OW25447   1.084   3.333   5.312
 8183SOL    HW125448   1.127   3.248   5.343
 8183SOL    HW225449   1.002   3.311   5.259
 8184SOL     OW25450   6.573   0.832   5.826
 8184SOL    HW125451   6.525   0.861   5.743
 8184SOL    HW225452   6.656   0.887   5.836
 8185SOL     OW25453   3.142   0.797   0.586
 8185SOL    HW125454   3.215   0.741   0.546
 8185SOL    HW225455   3.072   0.738   0.626
 8186SOL     OW25456   3.259   6.056   5.407
 8186SOL    HW125457   3.334   6.052   5.473
 8186SOL    HW225458   3.204   5.973   5.414
 8187SOL     OW25459   1.247   1.446   5.510
 8187SOL    HW125460   1.149   1.432   5.517
 8187SOL    HW225461   1.279   1.417   5.420
 8188SOL     OW25462   5.202   1.450   2.563
 8188SOL    HW125463   5.165   1.542   2.567
 8188SOL    HW225464   5.130   1.386   2.535
 8189SOL     OW25465   5.364   4.271   2.472
 8189SOL    HW125466   5.306   4.342   2.433
 8189SOL    HW225467   5.441   4.253   2.410
 8190SOL     OW25468   5.368   4.084   4.035
 8190SOL    HW125469   5.330   3.992   4.036
 8190SOL    HW225470   5.456   4.083   3.987
 8191SOL     OW25471   0.841   5.524   3.947
 8191SOL    HW125472   0.857   5.430   3.977
 8191SOL    HW225473   0.915   5.552   3.885
 8192SOL     OW25474   2.962   5.560   1.094
 8192SOL    HW125475   2.947   5.653   1.126
 8192SOL    HW225476   2.896   5.538   1.022
 8193SOL     OW25477   5.709   6.284   5.107
 8193SOL    HW125478   5.753   6.370   5.081
 8193SOL    HW225479   5.617   6.281   5.067
 8194SOL     OW25480   6.218   1.724   6.864
 8194SOL    HW125481   6.283   1.776   6.808
 8194SOL    HW225482   6.198   1.636   6.819
 8195SOL     OW25483   7.022   0.326   0.776
 8195SOL    HW125484   0.046   0.276   0.846
 8195SOL    HW225485   0.004   0.424   0.793
 8196SOL     OW25486   3.495   6.274   5.677
 8196SOL    HW125487   3.517   6.264   5.774
 8196SOL    HW225488   3.450   6.190   5.644
 8197SOL     OW25489   6.850   0.816   6.055
 8197SOL    HW125490   6.840   0.833   6.153
 8197SOL    HW225491   6.795   0.737   6.029
 8198SOL     OW25492   2.596   6.889   2.930
 8198SOL    HW125493   2.674   6.947   2.906
 8198SOL    HW225494   2.627   6.794   2.941
 8199SOL     OW25495   0.439   3.958   0.256
 8199SOL    HW125496   0.379   3.894   0.303
 8199SOL    HW225497   0.469   3.919   0.169
 8200SOL     OW25498   4.602   4.117   1.686
 8200SOL    HW125499   4.522   4.150   1.737
 8200SOL    HW225500   4.632   4.188   1.622
 8201SOL     OW25501   5.333   0.684   4.587
 8201SOL    HW125502   5.366   0.770   4.547
 8201SOL    HW225503   5.410   0.634   4.626
 8202SOL     OW25504   1.796   5.177   3.873
 8202SOL    HW125505   1.800   5.275   3.895
 8202SOL    HW225506   1.837   5.125   3.947
 8203SOL     OW25507   4.774   3.733   1.401
 8203SOL    HW125508   4.867   3.741   1.436
 8203SOL    HW225509   4.772   3.670   1.323
 8204SOL     OW25510   3.445   6.913   2.177
 8204SOL    HW125511   3.395   6.830   2.201
 8204SOL    HW225512   3.502   6.941   2.254
 8205SOL     OW25513   5.698   5.385   2.044
 8205SOL    HW125514   5.645   5.307   2.009
 8205SOL    HW225515   5.766   5.412   1.975
 8206SOL     OW25516   3.920   2.265   5.728
 8206SOL    HW125517   3.860   2.334   5.685
 8206SOL    HW225518   3.864   2.204   5.784
 8207SOL     OW25519   3.173   4.705   5.670
 8207SOL    HW125520   3.076   4.716   5.651
 8207SOL    HW225521   3.185   4.645   5.749
 8208SOL     OW25522   2.032   5.432   1.866
 8208SOL    HW125523   1.932   5.441   1.868
 8208SOL    HW225524   2.070   5.456   1.955
 8209SOL     OW25525   1.679   1.060   5.255
 8209SOL    HW125526   1.771   1.025   5.269
 8209SOL    HW225527   1.661   1.133   5.321
 8210SOL     OW25528   1.823   0.862   0.663
 8210SOL    HW125529   1.922   0.846   0.655
 8210SOL    HW225530   1.779   0.844   0.575
 8211SOL     OW25531   3.151   3.649   4.031
 8211SOL    HW125532   3.105   3.613   3.950
 8211SOL    HW225533   3.231   3.703   4.004
 8212SOL     OW25534   2.088   0.004   1.347
 8212SOL    HW125535   2.100   0.018   1.249
 8212SOL    HW225536   2.090   0.093   1.394
 8213SOL     OW25537   4.407   4.583   2.050
 8213SOL    HW125538   4.484   4.641   2.075
 8213SOL    HW225539   4.439   4.488   2.040
 8214SOL     OW25540   2.938   5.461   4.054
 8214SOL    HW125541   2.924   5.513   3.970
 8214SOL    HW225542   3.003   5.510   4.112
 8215SOL     OW25543   3.764   6.320   0.120
 8215SOL    HW125544   3.683   6.300   0.175
 8215SOL    HW225545   3.763   6.415   0.091
 8216SOL     OW25546   4.722   6.449   2.465
 8216SOL    HW125547   4.816   6.419   2.451
 8216SOL    HW225548   4.710   6.540   2.424
 8217SOL     OW25549   2.322   4.436   2.888
 8217SOL    HW125550   2.342   4.454   2.792
 8217SOL    HW225551   2.296   4.522   2.933
 8218SOL     OW25552   1.511   0.392   4.571
 8218SOL    HW125553   1.439   0.406   4.638
 8218SOL    HW225554   1.471   0.378   4.481
 8219SOL     OW25555   3.751   3.597   1.606
 8219SOL    HW125556   3.692   3.600   1.687
 8219SOL    HW225557   3.814   3.519   1.614
 8220SOL     OW25558   3.466   4.047   4.934
 8220SOL    HW125559   3.420   3.980   4.877
 8220SOL    HW225560   3.540   4.090   4.882
 8221SOL     OW25561   6.141   3.278   3.473
 8221SOL    HW125562   6.072   3.213   3.503
 8221SOL    HW225563   6.098   3.366   3.454
 8222SOL     OW25564   5.677   2.622   1.806
 8222SOL    HW125565   5.618   2.609   1.727
 8222SOL    HW225566   5.755   2.560   1.801
 8223SOL     OW25567   6.916   5.569   5.737
 8223SOL    HW125568   6.879   5.521   5.816
 8223SOL    HW225569   6.998   5.521   5.705
 8224SOL     OW25570   4.708   1.990   0.373
 8224SOL    HW125571   4.638   2.030   0.432
 8224SOL    HW225572   4.715   2.042   0.289
 8225SOL     OW25573   4.393   1.192   6.834
 8225SOL    HW125574   4.433   1.267   6.780
 8225SOL    HW225575   4.364   1.227   6.923
 8226SOL     OW25576   3.309   0.860   6.926
 8226SOL    HW125577   3.405   0.831   6.925
 8226SOL    HW225578   3.250   0.780   6.915
 8227SOL     OW25579   6.035   1.667   2.790
 8227SOL    HW125580   5.998   1.759   2.806
 8227SOL    HW225581   6.040   1.618   2.877
 8228SOL     OW25582   0.845   0.915   5.490
 8228SOL    HW125583   0.803   0.973   5.420
 8228SOL    HW225584   0.777   0.891   5.559
 8229SOL     OW25585   3.916   4.887   1.326
 8229SOL    HW125586   3.888   4.860   1.418
 8229SOL    HW225587   3.931   4.805   1.271
 8230SOL     OW25588   4.172   0.662   6.046
 8230SOL    HW125589   4.136   0.684   5.956
 8230SOL    HW225590   4.131   0.723   6.114
 8231SOL     OW25591   3.192   1.072   1.957
 8231SOL    HW125592   3.215   1.139   2.028
 8231SOL    HW225593   3.276   1.041   1.912
 8232SOL     OW25594   4.293   0.406   2.278
 8232SOL    HW125595   4.206   0.448   2.304
 8232SOL    HW225596   4.364   0.431   2.344
 8233SOL     OW25597   0.579   0.802   5.239
 8233SOL    HW125598   0.668   0.837   5.211
 8233SOL    HW225599   0.590   0.739   5.316
 8234SOL     OW25600   2.621   2.978   0.066
 8234SOL    HW125601   2.698   2.988   0.129
 8234SOL    HW225602   2.553   3.048   0.085
 8235SOL     OW25603   6.867   5.294   0.139
 8235SOL    HW125604   6.792   5.344   0.182
 8235SOL    HW225605   6.954   5.322   0.181
 8236SOL     OW25606   1.014   6.429   6.061
 8236SOL    HW125607   1.046   6.518   6.095
 8236SOL    HW225608   1.088   6.383   6.013
 8237SOL     OW25609   4.737   5.142   6.107
 8237SOL    HW125610   4.733   5.090   6.192
 8237SOL    HW225611   4.708   5.236   6.124
 8238SOL     OW25612   2.349   4.753   1.007
 8238SOL    HW125613   2.448   4.766   1.014
 8238SOL    HW225614   2.323   4.671   1.058
 8239SOL     OW25615   0.712   1.606   5.624
 8239SOL    HW125616   0.690   1.695   5.664
 8239SOL    HW225617   0.780   1.617   5.552
 8240SOL     OW25618   3.835   3.379   4.613
 8240SOL    HW125619   3.893   3.298   4.625
 8240SOL    HW225620   3.885   3.460   4.645
 8241SOL     OW25621   1.217   3.633   6.799
 8241SOL    HW125622   1.300   3.653   6.748
 8241SOL    HW225623   1.182   3.718   6.839
 8242SOL     OW25624   1.064   3.987   4.399
 8242SOL    HW125625   1.047   3.939   4.485
 8242SOL    HW225626   1.149   3.953   4.359
 8243SOL     OW25627   0.748   4.786   5.152
 8243SOL    HW125628   0.788   4.694   5.148
 8243SOL    HW225629   0.739   4.823   5.059
 8244SOL     OW25630   1.532   0.229   3.958
 8244SOL    HW125631   1.434   0.219   3.942
 8244SOL    HW225632   1.568   0.302   3.899
 8245SOL     OW25633   5.117   1.056   3.962
 8245SOL    HW125634   5.063   1.127   3.917
 8245SOL    HW225635   5.110   1.066   4.061
 8246SOL     OW25636   0.921   4.464   6.679
 8246SOL    HW125637   0.968   4.418   6.755
 8246SOL    HW225638   0.833   4.420   6.662
 8247SOL     OW25639   3.149   5.240   3.495
 8247SOL    HW125640   3.136   5.270   3.589
 8247SOL    HW225641   3.066   5.192   3.464
 8248SOL     OW25642   0.459   5.649   3.044
 8248SOL    HW125643   0.405   5.645   3.129
 8248SOL    HW225644   0.511   5.564   3.034
 8249SOL     OW25645   2.238   2.094   6.021
 8249SOL    HW125646   2.188   2.033   5.960
 8249SOL    HW225647   2.247   2.052   6.111
 8250SOL     OW25648   1.707   1.727   6.525
 8250SOL    HW125649   1.673   1.701   6.616
 8250SOL    HW225650   1.748   1.818   6.530
 8251SOL     OW25651   6.607   2.637   4.872
 8251SOL    HW125652   6.603   2.630   4.972
 8251SOL    HW225653   6.671   2.709   4.846
 8252SOL     OW25654   2.113   2.461   6.497
 8252SOL    HW125655   2.092   2.545   6.447
 8252SOL    HW225656   2.184   2.480   6.565
 8253SOL     OW25657   3.653   5.903   0.160
 8253SOL    HW125658   3.718   5.939   0.093
 8253SOL    HW225659   3.610   5.821   0.124
 8254SOL     OW25660   5.598   5.352   0.719
 8254SOL    HW125661   5.635   5.410   0.646
 8254SOL    HW225662   5.667   5.287   0.749
 8255SOL     OW25663   0.391   6.957   5.578
 8255SOL    HW125664   0.446   0.011   5.554
 8255SOL    HW225665   0.314   6.986   5.635
 8256SOL     OW25666   1.918   6.106   2.672
 8256SOL    HW125667   1.868   6.020   2.673
 8256SOL    HW225668   1.853   6.182   2.678
 8257SOL     OW25669   5.030   4.047   4.186
 8257SOL    HW125670   4.934   4.022   4.177
 8257SOL    HW225671   5.038   4.147   4.190
 8258SOL     OW25672   6.424   3.521   1.895
 8258SOL    HW125673   6.351   3.457   1.920
 8258SOL    HW225674   6.427   3.531   1.795
 8259SOL     OW25675   4.759   2.193   4.147
 8259SOL    HW125676   4.823   2.116   4.146
 8259SOL    HW225677   4.809   2.278   4.164
 8260SOL     OW25678   3.003   0.039   0.612
 8260SOL    HW125679   2.994   6.968   0.631
 8260SOL    HW225680   2.927   0.089   0.654
 8261SOL     OW25681   5.100   0.238   3.494
 8261SOL    HW125682   5.014   0.219   3.447
 8261SOL    HW225683   5.162   0.160   3.482
 8262SOL     OW25684   0.059   3.821   1.517
 8262SOL    HW125685   0.113   3.758   1.572
 8262SOL    HW225686   0.043   3.781   1.426
 8263SOL     OW25687   6.641   2.275   0.220
 8263SOL    HW125688   6.670   2.180   0.229
 8263SOL    HW225689   6.720   2.332   0.199
 8264SOL     OW25690   2.085   6.671   2.757
 8264SOL    HW125691   2.135   6.596   2.714
 8264SOL    HW225692   2.127   6.758   2.732
 8265SOL     OW25693   5.190   0.593   0.611
 8265SOL    HW125694   5.155   0.676   0.567
 8265SOL    HW225695   5.162   0.591   0.707
 8266SOL     OW25696   2.398   6.830   3.738
 8266SOL    HW125697   2.481   6.788   3.703
 8266SOL    HW225698   2.407   6.845   3.837
 8267SOL     OW25699   1.247   3.981   2.910
 8267SOL    HW125700   1.284   4.072   2.890
 8267SOL    HW225701   1.238   3.970   3.009
 8268SOL     OW25702   3.214   4.063   6.473
 8268SOL    HW125703   3.264   4.073   6.387
 8268SOL    HW225704   3.230   4.144   6.530
 8269SOL     OW25705   4.424   2.212   3.064
 8269SOL    HW125706   4.464   2.301   3.087
 8269SOL    HW225707   4.495   2.142   3.067
 8270SOL     OW25708   3.928   0.154   6.152
 8270SOL    HW125709   3.948   0.094   6.074
 8270SOL    HW225710   3.864   0.108   6.214
 8271SOL     OW25711   4.843   6.267   4.592
 8271SOL    HW125712   4.891   6.306   4.671
 8271SOL    HW225713   4.886   6.298   4.508
 8272SOL     OW25714   0.536   6.746   1.894
 8272SOL    HW125715   0.625   6.788   1.880
 8272SOL    HW225716   0.479   6.807   1.949
 8273SOL     OW25717   3.057   6.524   0.115
 8273SOL    HW125718   3.088   6.541   0.022
 8273SOL    HW225719   2.984   6.588   0.138
 8274SOL     OW25720   4.551   5.926   6.609
 8274SOL    HW125721   4.534   5.829   6.594
 8274SOL    HW225722   4.476   5.979   6.569
 8275SOL     OW25723   6.077   0.883   4.626
 8275SOL    HW125724   6.150   0.952   4.621
 8275SOL    HW225725   6.105   0.802   4.575
 8276SOL     OW25726   6.620   2.839   6.639
 8276SOL    HW125727   6.583   2.761   6.689
 8276SOL    HW225728   6.719   2.844   6.652
 8277SOL     OW25729   0.778   5.740   5.817
 8277SOL    HW125730   0.759   5.814   5.752
 8277SOL    HW225731   0.717   5.749   5.896
 8278SOL     OW25732   3.591   1.553   6.962
 8278SOL    HW125733   3.613   1.592   6.873
 8278SOL    HW225734   3.567   1.457   6.952
 8279SOL     OW25735   4.296   6.009   6.211
 8279SOL    HW125736   4.348   6.093   6.197
 8279SOL    HW225737   4.208   6.015   6.164
 8280SOL     OW25738   4.952   2.663   0.473
 8280SOL    HW125739   4.922   2.680   0.566
 8280SOL    HW225740   4.872   2.654   0.413
 8281SOL     OW25741   1.934   4.810   0.201
 8281SOL    HW125742   2.025   4.774   0.223
 8281SOL    HW225743   1.887   4.746   0.141
 8282SOL     OW25744   2.867   2.854   1.346
 8282SOL    HW125745   2.911   2.934   1.386
 8282SOL    HW225746   2.797   2.883   1.281
 8283SOL     OW25747   0.395   4.869   3.415
 8283SOL    HW125748   0.298   4.863   3.392
 8283SOL    HW225749   0.429   4.779   3.442
 8284SOL     OW25750   2.082   1.819   1.769
 8284SOL    HW125751   2.080   1.737   1.825
 8284SOL    HW225752   2.150   1.883   1.806
 8285SOL     OW25753   3.329   4.267   5.883
 8285SOL    HW125754   3.233   4.297   5.884
 8285SOL    HW225755   3.361   4.261   5.789
 8286SOL     OW25756   5.487   1.276   4.669
 8286SOL    HW125757   5.420   1.203   4.657
 8286SOL    HW225758   5.574   1.236   4.697
 8287SOL     OW25759   1.409   0.336   3.716
 8287SOL    HW125760   1.485   0.394   3.745
 8287SOL    HW225761   1.323   0.381   3.740
 8288SOL     OW25762   1.464   1.209   2.405
 8288SOL    HW125763   1.504   1.119   2.421
 8288SOL    HW225764   1.535   1.272   2.376
 8289SOL     OW25765   6.655   2.091   5.461
 8289SOL    HW125766   6.685   2.001   5.430
 8289SOL    HW225767   6.669   2.098   5.560
 8290SOL     OW25768   3.672   2.546   1.728
 8290SOL    HW125769   3.657   2.461   1.780
 8290SOL    HW225770   3.770   2.559   1.715
 8291SOL     OW25771   5.694   6.473   6.059
 8291SOL    HW125772   5.694   6.373   6.059
 8291SOL    HW225773   5.703   6.507   6.152
 8292SOL     OW25774   1.312   4.130   4.716
 8292SOL    HW125775   1.387   4.064   4.726
 8292SOL    HW225776   1.229   4.092   4.757
 8293SOL     OW25777   2.638   5.235   2.677
 8293SOL    HW125778   2.664   5.330   2.660
 8293SOL    HW225779   2.589   5.229   2.764
 8294SOL     OW25780   6.632   3.537   6.294
 8294SOL    HW125781   6.641   3.524   6.392
 8294SOL    HW225782   6.570   3.468   6.256
 8295SOL     OW25783   4.716   4.188   2.512
 8295SOL    HW125784   4.750   4.251   2.442
 8295SOL    HW225785   4.734   4.094   2.484
 8296SOL     OW25786   3.559   6.528   1.007
 8296SOL    HW125787   3.489   6.535   0.936
 8296SOL    HW225788   3.647   6.507   0.965
 8297SOL     OW25789   6.617   4.618   2.863
 8297SOL    HW125790   6.651   4.528   2.834
 8297SOL    HW225791   6.577   4.610   2.954
 8298SOL     OW25792   6.927   0.342   6.804
 8298SOL    HW125793   6.865   0.370   6.877
 8298SOL    HW225794   7.020   0.371   6.825
 8299SOL     OW25795   0.516   3.990   1.295
 8299SOL    HW125796   0.516   4.014   1.392
 8299SOL    HW225797   0.422   3.979   1.264
 8300SOL     OW25798   6.082   4.871   3.262
 8300SOL    HW125799   6.147   4.919   3.203
 8300SOL    HW225800   6.124   4.787   3.296
 8301SOL     OW25801   4.340   6.467   0.868
 8301SOL    HW125802   4.272   6.455   0.940
 8301SOL    HW225803   4.368   6.377   0.835
 8302SOL     OW25804   3.438   6.499   4.542
 8302SOL    HW125805   3.534   6.472   4.532
 8302SOL    HW225806   3.398   6.513   4.451
 8303SOL     OW25807   6.511   0.069   2.652
 8303SOL    HW125808   6.580   0.049   2.582
 8303SOL    HW225809   6.507   7.020   2.717
 8304SOL     OW25810   6.459   4.001   3.943
 8304SOL    HW125811   6.397   3.979   3.868
 8304SOL    HW225812   6.406   4.027   4.024
 8305SOL     OW25813   4.909   5.702   4.415
 8305SOL    HW125814   4.838   5.772   4.429
 8305SOL    HW225815   4.867   5.618   4.381
 8306SOL     OW25816   6.056   1.153   2.463
 8306SOL    HW125817   6.043   1.064   2.507
 8306SOL    HW225818   5.975   1.210   2.476
 8307SOL     OW25819   1.812   4.522   2.292
 8307SOL    HW125820   1.861   4.591   2.237
 8307SOL    HW225821   1.870   4.442   2.305
 8308SOL     OW25822   1.094   5.100   6.944
 8308SOL    HW125823   1.108   5.004   6.919
 8308SOL    HW225824   1.182   5.143   6.962
 8309SOL     OW25825   6.472   4.262   4.257
 8309SOL    HW125826   6.429   4.186   4.209
 8309SOL    HW225827   6.412   4.292   4.331
 8310SOL     OW25828   0.738   6.801   0.271
 8310SOL    HW125829   0.685   6.879   0.304
 8310SOL    HW225830   0.705   6.717   0.314
 8311SOL     OW25831   5.502   6.833   4.253
 8311SOL    HW125832   5.450   6.762   4.205
 8311SOL    HW225833   5.462   6.922   4.232
 8312SOL     OW25834   5.184   0.869   6.847
 8312SOL    HW125835   5.162   0.959   6.809
 8312SOL    HW225836   5.280   0.868   6.877
 8313SOL     OW25837   4.484   1.331   4.559
 8313SOL    HW125838   4.400   1.313   4.610
 8313SOL    HW225839   4.482   1.425   4.525
 8314SOL     OW25840   4.710   6.099   5.721
 8314SOL    HW125841   4.737   6.192   5.745
 8314SOL    HW225842   4.660   6.058   5.798
 8315SOL     OW25843   3.708   3.017   4.347
 8315SOL    HW125844   3.782   3.034   4.412
 8315SOL    HW225845   3.741   3.036   4.254
 8316SOL     OW25846   1.240   2.819   6.953
 8316SOL    HW125847   1.192   2.767   7.024
 8316SOL    HW225848   1.271   2.758   6.881
 8317SOL     OW25849   1.697   1.956   3.966
 8317SOL    HW125850   1.732   2.013   3.892
 8317SOL    HW225851   1.772   1.907   4.009
 8318SOL     OW25852   3.601   0.061   6.467
 8318SOL    HW125853   3.584   0.154   6.437
 8318SOL    HW225854   3.598   7.025   6.388
 8319SOL     OW25855   2.286   0.419   6.331
 8319SOL    HW125856   2.269   0.518   6.330
 8319SOL    HW225857   2.318   0.390   6.241
 8320SOL     OW25858   3.199   3.562   4.703
 8320SOL    HW125859   3.118   3.619   4.698
 8320SOL    HW225860   3.259   3.583   4.626
 8321SOL     OW25861   0.029   6.956   0.265
 8321SOL    HW125862   0.058   0.010   0.318
 8321SOL    HW225863   0.098   6.884   0.272
 8322SOL     OW25864   6.813   0.834   0.267
 8322SOL    HW125865   6.748   0.850   0.194
 8322SOL    HW225866   6.852   0.742   0.257
 8323SOL     OW25867   4.703   4.521   1.025
 8323SOL    HW125868   4.630   4.585   1.002
 8323SOL    HW225869   4.775   4.525   0.956
 8324SOL     OW25870   6.124   6.417   6.359
 8324SOL    HW125871   6.125   6.350   6.433
 8324SOL    HW225872   6.188   6.491   6.381
 8325SOL     OW25873   1.376   5.521   5.538
 8325SOL    HW125874   1.381   5.592   5.608
 8325SOL    HW225875   1.414   5.556   5.453
 8326SOL     OW25876   1.619   3.535   1.642
 8326SOL    HW125877   1.633   3.475   1.721
 8326SOL    HW225878   1.585   3.482   1.565
 8327SOL     OW25879   1.164   0.392   4.596
 8327SOL    HW125880   1.165   0.420   4.500
 8327SOL    HW225881   1.077   0.418   4.638
 8328SOL     OW25882   1.429   0.018   6.135
 8328SOL    HW125883   1.502   0.081   6.108
 8328SOL    HW225884   1.464   6.979   6.203
 8329SOL     OW25885   1.143   2.903   5.746
 8329SOL    HW125886   1.204   2.939   5.816
 8329SOL    HW225887   1.093   2.978   5.704
 8330SOL     OW25888   3.493   0.776   6.614
 8330SOL    HW125889   3.526   0.814   6.700
 8330SOL    HW225890   3.559   0.794   6.542
 8331SOL     OW25891   1.945   2.154   0.139
 8331SOL    HW125892   1.881   2.132   0.065
 8331SOL    HW225893   2.013   2.219   0.106
 8332SOL     OW25894   5.508   4.726   2.288
 8332SOL    HW125895   5.579   4.655   2.281
 8332SOL    HW225896   5.549   4.810   2.325
 8333SOL     OW25897   3.252   4.839   1.396
 8333SOL    HW125898   3.232   4.801   1.306
 8333SOL    HW225899   3.167   4.874   1.436
 8334SOL     OW25900   3.250   2.078   6.257
 8334SOL    HW125901   3.275   2.085   6.160
 8334SOL    HW225902   3.273   1.987   6.291
 8335SOL     OW25903   5.297   3.286   6.167
 8335SOL    HW125904   5.342   3.374   6.148
 8335SOL    HW225905   5.349   3.212   6.124
 8336SOL     OW25906   1.050   3.511   2.923
 8336SOL    HW125907   0.961   3.468   2.907
 8336SOL    HW225908   1.070   3.574   2.848
 8337SOL     OW25909   0.320   0.842   4.287
 8337SOL    HW125910   0.416   0.872   4.286
 8337SOL    HW225911   0.262   0.920   4.309
 8338SOL     OW25912   3.643   5.124   2.587
 8338SOL    HW125913   3.650   5.096   2.491
 8338SOL    HW225914   3.583   5.061   2.636
 8339SOL     OW25915   6.774   0.649   0.577
 8339SOL    HW125916   6.755   0.583   0.505
 8339SOL    HW225917   6.726   0.622   0.660
 8340SOL     OW25918   5.307   2.492   0.529
 8340SOL    HW125919   5.248   2.527   0.602
 8340SOL    HW225920   5.389   2.549   0.522
 8341SOL     OW25921   3.617   0.843   6.887
 8341SOL    HW125922   3.615   0.830   6.986
 8341SOL    HW225923   3.689   0.787   6.847
 8342SOL     OW25924   4.505   6.844   0.070
 8342SOL    HW125925   4.513   6.874   0.165
 8342SOL    HW225926   4.474   6.749   0.067
 8343SOL     OW25927   6.888   3.947   3.920
 8343SOL    HW125928   6.821   3.978   3.852
 8343SOL    HW225929   6.975   3.994   3.905
 8344SOL     OW25930   0.867   5.547   4.825
 8344SOL    HW125931   0.931   5.479   4.791
 8344SOL    HW225932   0.917   5.630   4.851
 8345SOL     OW25933   4.500   0.751   2.309
 8345SOL    HW125934   4.569   0.818   2.337
 8345SOL    HW225935   4.409   0.789   2.323
 8346SOL     OW25936   4.627   2.954   5.658
 8346SOL    HW125937   4.569   2.883   5.615
 8346SOL    HW225938   4.569   3.024   5.699
 8347SOL     OW25939   2.340   0.357   6.060
 8347SOL    HW125940   2.299   0.434   6.011
 8347SOL    HW225941   2.422   0.326   6.013
 8348SOL     OW25942   3.943   6.559   1.938
 8348SOL    HW125943   3.967   6.498   1.863
 8348SOL    HW225944   3.874   6.625   1.907
 8349SOL     OW25945   1.423   6.338   1.954
 8349SOL    HW125946   1.487   6.265   1.976
 8349SOL    HW225947   1.348   6.302   1.900
 8350SOL     OW25948   2.539   0.104   6.531
 8350SOL    HW125949   2.441   0.120   6.522
 8350SOL    HW225950   2.589   0.187   6.508
 8351SOL     OW25951   0.303   4.412   4.047
 8351SOL    HW125952   0.219   4.466   4.042
 8351SOL    HW225953   0.374   4.466   4.092
 8352SOL     OW25954   2.782   5.442   1.466
 8352SOL    HW125955   2.722   5.485   1.533
 8352SOL    HW225956   2.790   5.345   1.486
 8353SOL     OW25957   1.187   3.676   2.213
 8353SOL    HW125958   1.165   3.765   2.252
 8353SOL    HW225959   1.250   3.688   2.137
 8354SOL     OW25960   3.329   6.898   3.574
 8354SOL    HW125961   3.236   6.918   3.546
 8354SOL    HW225962   3.335   6.898   3.674
 8355SOL     OW25963   2.145   6.288   5.643
 8355SOL    HW125964   2.150   6.266   5.741
 8355SOL    HW225965   2.107   6.380   5.631
 8356SOL     OW25966   1.557   5.620   1.305
 8356SOL    HW125967   1.624   5.680   1.350
 8356SOL    HW225968   1.498   5.578   1.375
 8357SOL     OW25969   4.152   5.655   5.713
 8357SOL    HW125970   4.229   5.625   5.770
 8357SOL    HW225971   4.186   5.682   5.623
 8358SOL     OW25972   1.229   2.785   5.273
 8358SOL    HW125973   1.293   2.710   5.254
 8358SOL    HW225974   1.231   2.850   5.198
 8359SOL     OW25975   3.216   1.721   5.127
 8359SOL    HW125976   3.286   1.658   5.093
 8359SOL    HW225977   3.259   1.795   5.178
 8360SOL     OW25978   5.327   6.505   0.459
 8360SOL    HW125979   5.350   6.510   0.362
 8360SOL    HW225980   5.363   6.420   0.498
 8361SOL     OW25981   2.983   6.979   0.165
 8361SOL    HW125982   3.044   7.005   0.240
 8361SOL    HW225983   2.961   0.034   0.111
 8362SOL     OW25984   6.513   3.353   0.739
 8362SOL    HW125985   6.523   3.306   0.827
 8362SOL    HW225986   6.418   3.380   0.727
 8363SOL     OW25987   3.217   2.109   6.870
 8363SOL    HW125988   3.307   2.066   6.877
 8363SOL    HW225989   3.149   2.052   6.917
 8364SOL     OW25990   0.934   2.714   3.908
 8364SOL    HW125991   0.852   2.766   3.884
 8364SOL    HW225992   0.916   2.660   3.991
 8365SOL     OW25993   2.249   2.402   2.670
 8365SOL    HW125994   2.192   2.387   2.751
 8365SOL    HW225995   2.193   2.397   2.588
 8366SOL     OW25996   4.945   5.845   0.715
 8366SOL    HW125997   4.861   5.899   0.724
 8366SOL    HW225998   4.984   5.860   0.624
 8367SOL     OW25999   4.573   5.296   4.887
 8367SOL    HW126000   4.668   5.319   4.910
 8367SOL    HW226001   4.547   5.344   4.803
 8368SOL     OW26002   1.307   5.919   0.125
 8368SOL    HW126003   1.275   5.864   0.202
 8368SOL    HW226004   1.347   6.004   0.159
 8369SOL     OW26005   1.601   1.583   0.425
 8369SOL    HW126006   1.554   1.504   0.386
 8369SOL    HW226007   1.637   1.640   0.350
 8370SOL     OW26008   3.126   2.141   0.185
 8370SOL    HW126009   3.220   2.108   0.193
 8370SOL    HW226010   3.114   2.221   0.243
 8371SOL     OW26011   1.614   4.299   6.007
 8371SOL    HW126012   1.681   4.361   6.048
 8371SOL    HW226013   1.660   4.214   5.980
 8372SOL     OW26014   1.805   6.098   2.165
 8372SOL    HW126015   1.841   6.134   2.251
 8372SOL    HW226016   1.870   6.031   2.128
 8373SOL     OW26017   0.107   1.006   4.443
 8373SOL    HW126018   0.059   0.929   4.484
 8373SOL    HW226019   0.116   1.079   4.511
 8374SOL     OW26020   1.196   0.971   4.755
 8374SOL    HW126021   1.198   0.929   4.665
 8374SOL    HW226022   1.102   0.986   4.784
 8375SOL     OW26023   4.290   1.396   5.607
 8375SOL    HW126024   4.245   1.321   5.558
 8375SOL    HW226025   4.274   1.482   5.558
 8376SOL     OW26026   1.862   0.779   3.175
 8376SOL    HW126027   1.944   0.789   3.120
 8376SOL    HW226028   1.792   0.842   3.143
 8377SOL     OW26029   5.301   5.620   6.716
 8377SOL    HW126030   5.264   5.527   6.709
 8377SOL    HW226031   5.389   5.616   6.764
 8378SOL     OW26032   5.995   5.685   3.514
 8378SOL    HW126033   5.932   5.667   3.439
 8378SOL    HW226034   5.947   5.675   3.601
 8379SOL     OW26035   5.620   1.239   2.317
 8379SOL    HW126036   5.560   1.160   2.305
 8379SOL    HW226037   5.610   1.301   2.239
 8380SOL     OW26038   6.488   5.419   0.018
 8380SOL    HW126039   6.547   5.424   0.099
 8380SOL    HW226040   6.443   5.508   0.005
 8381SOL     OW26041   0.241   1.917   2.734
 8381SOL    HW126042   0.279   1.829   2.763
 8381SOL    HW226043   0.296   1.954   2.658
 8382SOL     OW26044   2.666   0.069   0.083
 8382SOL    HW126045   2.612   7.023   0.128
 8382SOL    HW226046   2.662   0.057   7.010
 8383SOL     OW26047   3.146   6.694   4.549
 8383SOL    HW126048   3.076   6.734   4.608
 8383SOL    HW226049   3.123   6.599   4.530
 8384SOL     OW26050   0.176   2.111   0.900
 8384SOL    HW126051   0.095   2.053   0.891
 8384SOL    HW226052   0.220   2.123   0.811
 8385SOL     OW26053   4.704   3.421   0.682
 8385SOL    HW126054   4.715   3.343   0.621
 8385SOL    HW226055   4.652   3.393   0.763
 8386SOL     OW26056   2.055   5.899   1.651
 8386SOL    HW126057   2.082   5.805   1.671
 8386SOL    HW226058   2.053   5.952   1.736
 8387SOL     OW26059   2.402   1.622   1.271
 8387SOL    HW126060   2.329   1.676   1.313
 8387SOL    HW226061   2.395   1.631   1.171
 8388SOL     OW26062   3.215   6.566   0.367
 8388SOL    HW126063   3.228   6.475   0.406
 8388SOL    HW226064   3.157   6.560   0.286
 8389SOL     OW26065   1.234   2.825   4.989
 8389SOL    HW126066   1.137   2.839   5.007
 8389SOL    HW226067   1.268   2.899   4.931
 8390SOL     OW26068   1.989   0.665   6.119
 8390SOL    HW126069   1.923   0.706   6.182
 8390SOL    HW226070   1.980   0.707   6.029
 8391SOL     OW26071   5.312   5.531   1.961
 8391SOL    HW126072   5.257   5.494   2.036
 8391SOL    HW226073   5.381   5.592   1.998
 8392SOL     OW26074   5.665   5.736   5.152
 8392SOL    HW126075   5.755   5.722   5.111
 8392SOL    HW226076   5.676   5.778   5.242
 8393SOL     OW26077   6.749   6.201   3.188
 8393SOL    HW126078   6.847   6.181   3.176
 8393SOL    HW226079   6.725   6.191   3.284
 8394SOL     OW26080   0.755   1.900   2.999
 8394SOL    HW126081   0.853   1.886   3.008
 8394SOL    HW226082   0.738   1.974   2.934
 8395SOL     OW26083   0.169   6.298   4.615
 8395SOL    HW126084   0.137   6.205   4.633
 8395SOL    HW226085   0.260   6.311   4.653
 8396SOL     OW26086   4.745   4.351   2.908
 8396SOL    HW126087   4.661   4.348   2.854
 8396SOL    HW226088   4.812   4.287   2.869
 8397SOL     OW26089   2.169   6.455   2.635
 8397SOL    HW126090   2.184   6.368   2.683
 8397SOL    HW226091   2.245   6.471   2.572
 8398SOL     OW26092   4.098   1.555   6.860
 8398SOL    HW126093   4.035   1.540   6.783
 8398SOL    HW226094   4.067   1.634   6.913
 8399SOL     OW26095   5.978   6.027   0.062
 8399SOL    HW126096   5.954   5.934   0.033
 8399SOL    HW226097   5.981   6.087   7.008
 8400SOL     OW26098   0.074   0.365   2.913
 8400SOL    HW126099   0.012   0.423   2.965
 8400SOL    HW226100   0.136   0.423   2.859
 8401SOL     OW26101   3.633   3.901   6.387
 8401SOL    HW126102   3.673   3.893   6.295
 8401SOL    HW226103   3.701   3.937   6.450
 8402SOL     OW26104   3.788   1.654   6.504
 8402SOL    HW126105   3.753   1.672   6.412
 8402SOL    HW226106   3.884   1.628   6.499
 8403SOL     OW26107   1.184   1.372   4.090
 8403SOL    HW126108   1.272   1.407   4.121
 8403SOL    HW226109   1.156   1.420   4.006
 8404SOL     OW26110   4.592   6.568   5.466
 8404SOL    HW126111   4.588   6.641   5.535
 8404SOL    HW226112   4.678   6.519   5.474
 8405SOL     OW26113   0.603   2.674   6.675
 8405SOL    HW126114   0.680   2.731   6.704
 8405SOL    HW226115   0.631   2.620   6.596
 8406SOL     OW26116   4.512   1.958   0.888
 8406SOL    HW126117   4.466   1.898   0.824
 8406SOL    HW226118   4.610   1.957   0.871
 8407SOL     OW26119   5.620   4.334   3.971
 8407SOL    HW126120   5.521   4.348   3.976
 8407SOL    HW226121   5.639   4.249   3.922
 8408SOL     OW26122   5.456   0.713   3.759
 8408SOL    HW126123   5.501   0.679   3.842
 8408SOL    HW226124   5.406   0.797   3.780
 8409SOL     OW26125   1.096   1.778   4.067
 8409SOL    HW126126   1.015   1.822   4.106
 8409SOL    HW226127   1.152   1.741   4.141
 8410SOL     OW26128   5.195   6.849   1.691
 8410SOL    HW126129   5.265   6.777   1.698
 8410SOL    HW226130   5.150   6.860   1.779
 8411SOL     OW26131   1.538   4.783   4.161
 8411SOL    HW126132   1.516   4.692   4.127
 8411SOL    HW226133   1.453   4.836   4.170
 8412SOL     OW26134   4.613   2.449   1.455
 8412SOL    HW126135   4.514   2.443   1.442
 8412SOL    HW226136   4.632   2.470   1.551
 8413SOL     OW26137   3.995   4.905   0.547
 8413SOL    HW126138   3.950   4.932   0.632
 8413SOL    HW226139   4.071   4.967   0.528
 8414SOL     OW26140   3.635   6.769   2.556
 8414SOL    HW126141   3.556   6.708   2.550
 8414SOL    HW226142   3.612   6.857   2.515
 8415SOL     OW26143   0.363   4.394   3.627
 8415SOL    HW126144   0.328   4.334   3.554
 8415SOL    HW226145   0.308   4.381   3.710
 8416SOL     OW26146   5.247   4.107   2.202
 8416SOL    HW126147   5.334   4.080   2.242
 8416SOL    HW226148   5.254   4.199   2.163
 8417SOL     OW26149   2.751   6.433   5.865
 8417SOL    HW126150   2.767   6.334   5.866
 8417SOL    HW226151   2.654   6.451   5.876
 8418SOL     OW26152   6.085   6.062   2.702
 8418SOL    HW126153   6.087   5.962   2.690
 8418SOL    HW226154   5.996   6.097   2.672
 8419SOL     OW26155   4.948   0.162   2.280
 8419SOL    HW126156   4.959   0.245   2.226
 8419SOL    HW226157   4.850   0.146   2.297
 8420SOL     OW26158   4.396   0.631   6.938
 8420SOL    HW126159   4.302   0.655   6.961
 8420SOL    HW226160   4.428   0.557   6.998
 8421SOL     OW26161   1.936   0.430   2.122
 8421SOL    HW126162   2.006   0.382   2.174
 8421SOL    HW226163   1.973   0.515   2.085
 8422SOL     OW26164   5.572   6.184   6.814
 8422SOL    HW126165   5.629   6.198   6.895
 8422SOL    HW226166   5.515   6.265   6.799
 8423SOL     OW26167   3.859   4.936   6.901
 8423SOL    HW126168   3.913   4.854   6.883
 8423SOL    HW226169   3.811   4.963   6.817
 8424SOL     OW26170   3.627   2.073   2.485
 8424SOL    HW126171   3.643   2.000   2.553
 8424SOL    HW226172   3.529   2.095   2.483
 8425SOL     OW26173   6.999   5.258   1.638
 8425SOL    HW126174   6.926   5.266   1.570
 8425SOL    HW226175   6.968   5.296   1.725
 8426SOL     OW26176   3.444   3.170   3.537
 8426SOL    HW126177   3.397   3.098   3.485
 8426SOL    HW226178   3.381   3.210   3.603
 8427SOL     OW26179   1.550   4.217   6.642
 8427SOL    HW126180   1.587   4.308   6.622
 8427SOL    HW226181   1.541   4.206   6.741
 8428SOL     OW26182   0.014   4.290   2.052
 8428SOL    HW126183   0.033   4.383   2.019
 8428SOL    HW226184   6.970   4.294   2.123
 8429SOL     OW26185   2.582   4.905   4.096
 8429SOL    HW126186   2.571   4.805   4.100
 8429SOL    HW226187   2.506   4.945   4.046
 8430SOL     OW26188   4.784   4.915   2.530
 8430SOL    HW126189   4.847   4.852   2.575
 8430SOL    HW226190   4.724   4.957   2.598
 8431SOL     OW26191   3.333   5.172   1.207
 8431SOL    HW126192   3.249   5.208   1.165
 8431SOL    HW226193   3.353   5.224   1.290
 8432SOL     OW26194   4.317   5.437   6.439
 8432SOL    HW126195   4.309   5.475   6.346
 8432SOL    HW226196   4.406   5.392   6.448
 8433SOL     OW26197   1.270   2.436   6.439
 8433SOL    HW126198   1.224   2.415   6.526
 8433SOL    HW226199   1.341   2.368   6.422
 8434SOL     OW26200   4.048   6.823   5.531
 8434SOL    HW126201   4.147   6.814   5.519
 8434SOL    HW226202   4.024   6.806   5.627
 8435SOL     OW26203   4.447   2.086   1.379
 8435SOL    HW126204   4.408   2.012   1.325
 8435SOL    HW226205   4.374   2.145   1.412
 8436SOL     OW26206   3.808   4.962   2.370
 8436SOL    HW126207   3.864   4.879   2.372
 8436SOL    HW226208   3.717   4.940   2.336
 8437SOL     OW26209   0.518   1.095   1.467
 8437SOL    HW126210   0.430   1.067   1.503
 8437SOL    HW226211   0.568   1.147   1.537
 8438SOL     OW26212   2.869   4.765   2.500
 8438SOL    HW126213   2.848   4.780   2.404
 8438SOL    HW226214   2.803   4.816   2.556
 8439SOL     OW26215   6.409   5.729   2.009
 8439SOL    HW126216   6.367   5.749   2.097
 8439SOL    HW226217   6.365   5.649   1.968
 8440SOL     OW26218   0.231   1.234   1.991
 8440SOL    HW126219   0.254   1.243   1.894
 8440SOL    HW226220   0.312   1.202   2.041
 8441SOL     OW26221   5.646   5.906   6.587
 8441SOL    HW126222   5.554   5.941   6.603
 8441SOL    HW226223   5.668   5.837   6.657
 8442SOL     OW26224   2.861   3.939   6.750
 8442SOL    HW126225   2.909   3.869   6.803
 8442SOL    HW226226   2.888   4.030   6.782
 8443SOL     OW26227   0.798   0.392   3.399
 8443SOL    HW126228   0.715   0.345   3.370
 8443SOL    HW226229   0.775   0.477   3.445
 8444SOL     OW26230   3.604   6.391   3.969
 8444SOL    HW126231   3.680   6.328   3.984
 8444SOL    HW226232   3.585   6.441   4.053
 8445SOL     OW26233   3.349   5.182   2.656
 8445SOL    HW126234   3.346   5.172   2.557
 8445SOL    HW226235   3.361   5.279   2.679
 8446SOL     OW26236   5.283   6.021   3.161
 8446SOL    HW126237   5.320   6.113   3.147
 8446SOL    HW226238   5.186   6.028   3.188
 8447SOL     OW26239   5.241   2.533   1.531
 8447SOL    HW126240   5.280   2.583   1.609
 8447SOL    HW226241   5.193   2.597   1.471
 8448SOL     OW26242   0.399   3.784   6.199
 8448SOL    HW126243   0.472   3.769   6.265
 8448SOL    HW226244   0.407   3.717   6.125
 8449SOL     OW26245   0.455   3.380   4.994
 8449SOL    HW126246   0.483   3.350   4.903
 8449SOL    HW226247   0.523   3.353   5.062
 8450SOL     OW26248   1.993   6.570   2.983
 8450SOL    HW126249   2.030   6.609   2.899
 8450SOL    HW226250   1.970   6.643   3.047
 8451SOL     OW26251   3.540   2.886   0.635
 8451SOL    HW126252   3.508   2.897   0.730
 8451SOL    HW226253   3.605   2.810   0.630
 8452SOL     OW26254   6.736   0.014   1.669
 8452SOL    HW126255   6.775   0.087   1.613
 8452SOL    HW226256   6.699   0.053   1.754
 8453SOL     OW26257   6.627   4.893   6.488
 8453SOL    HW126258   6.655   4.836   6.411
 8453SOL    HW226259   6.539   4.936   6.467
 8454SOL     OW26260   1.648   6.880   2.497
 8454SOL    HW126261   1.721   6.930   2.543
 8454SOL    HW226262   1.630   6.923   2.408
 8455SOL     OW26263   4.668   1.590   1.639
 8455SOL    HW126264   4.574   1.556   1.639
 8455SOL    HW226265   4.710   1.571   1.550
 8456SOL     OW26266   5.901   5.348   3.836
 8456SOL    HW126267   5.841   5.305   3.903
 8456SOL    HW226268   5.970   5.282   3.806
 8457SOL     OW26269   6.388   0.128   5.284
 8457SOL    HW126270   6.397   0.105   5.187
 8457SOL    HW226271   6.296   0.162   5.302
 8458SOL     OW26272   1.941   1.310   0.432
 8458SOL    HW126273   1.871   1.344   0.369
 8458SOL    HW226274   1.898   1.255   0.504
 8459SOL     OW26275   3.879   6.387   2.412
 8459SOL    HW126276   3.875   6.426   2.320
 8459SOL    HW226277   3.796   6.335   2.430
 8460SOL     OW26278   4.620   2.808   6.631
 8460SOL    HW126279   4.631   2.799   6.532
 8460SOL    HW226280   4.605   2.717   6.671
 8461SOL     OW26281   0.396   3.466   1.770
 8461SOL    HW126282   0.452   3.449   1.851
 8461SOL    HW226283   0.452   3.507   1.698
 8462SOL     OW26284   3.755   3.331   0.315
 8462SOL    HW126285   3.780   3.357   0.222
 8462SOL    HW226286   3.827   3.273   0.354
 8463SOL     OW26287   6.356   2.187   0.134
 8463SOL    HW126288   6.441   2.230   0.165
 8463SOL    HW226289   6.321   2.128   0.206
 8464SOL     OW26290   0.021   3.298   6.187
 8464SOL    HW126291   0.028   3.230   6.114
 8464SOL    HW226292   0.042   3.255   6.275
 8465SOL     OW26293   2.956   2.723   0.818
 8465SOL    HW126294   2.957   2.625   0.796
 8465SOL    HW226295   2.862   2.750   0.841
 8466SOL     OW26296   5.762   0.656   5.542
 8466SOL    HW126297   5.686   0.698   5.492
 8466SOL    HW226298   5.778   0.563   5.506
 8467SOL     OW26299   3.526   0.672   0.451
 8467SOL    HW126300   3.532   0.771   0.439
 8467SOL    HW226301   3.576   0.646   0.534
 8468SOL     OW26302   6.237   3.519   6.324
 8468SOL    HW126303   6.214   3.615   6.310
 8468SOL    HW226304   6.196   3.487   6.409
 8469SOL     OW26305   3.949   2.942   6.263
 8469SOL    HW126306   4.007   2.877   6.214
 8469SOL    HW226307   3.858   2.944   6.221
 8470SOL     OW26308   1.001   5.014   0.764
 8470SOL    HW126309   1.071   4.943   0.778
 8470SOL    HW226310   0.913   4.980   0.796
 8471SOL     OW26311   3.426   0.790   4.783
 8471SOL    HW126312   3.418   0.889   4.795
 8471SOL    HW226313   3.500   0.770   4.719
 8472SOL     OW26314   6.116   1.850   5.795
 8472SOL    HW126315   6.028   1.848   5.748
 8472SOL    HW226316   6.159   1.760   5.789
 8473SOL     OW26317   4.449   4.396   6.899
 8473SOL    HW126318   4.425   4.415   6.994
 8473SOL    HW226319   4.424   4.301   6.876
 8474SOL     OW26320   3.059   3.947   3.070
 8474SOL    HW126321   3.106   3.954   3.157
 8474SOL    HW226322   2.975   3.895   3.081
 8475SOL     OW26323   0.578   3.510   1.532
 8475SOL    HW126324   0.646   3.570   1.575
 8475SOL    HW226325   0.589   3.513   1.433
 8476SOL     OW26326   6.481   0.299   1.223
 8476SOL    HW126327   6.421   0.371   1.188
 8476SOL    HW226328   6.572   0.338   1.241
 8477SOL     OW26329   5.622   5.590   1.492
 8477SOL    HW126330   5.577   5.611   1.405
 8477SOL    HW226331   5.578   5.510   1.533
 8478SOL     OW26332   1.110   0.861   5.521
 8478SOL    HW126333   1.010   0.864   5.514
 8478SOL    HW226334   1.140   0.766   5.527
 8479SOL     OW26335   1.819   2.247   1.022
 8479SOL    HW126336   1.905   2.298   1.019
 8479SOL    HW226337   1.827   2.164   0.967
 8480SOL     OW26338   4.821   2.842   0.067
 8480SOL    HW126339   4.732   2.863   0.028
 8480SOL    HW226340   4.834   2.893   0.152
 8481SOL     OW26341   3.703   2.047   4.473
 8481SOL    HW126342   3.788   2.083   4.512
 8481SOL    HW226343   3.663   1.981   4.536
 8482SOL     OW26344   3.922   1.201   0.033
 8482SOL    HW126345   3.882   1.292   0.025
 8482SOL    HW226346   3.978   1.182   6.979
 8483SOL     OW26347   3.498   6.069   3.481
 8483SOL    HW126348   3.486   6.006   3.405
 8483SOL    HW226349   3.420   6.132   3.486
 8484SOL     OW26350   6.145   5.963   5.443
 8484SOL    HW126351   6.061   5.998   5.401
 8484SOL    HW226352   6.131   5.954   5.542
 8485SOL     OW26353   3.949   2.482   0.307
 8485SOL    HW126354   3.963   2.481   0.406
 8485SOL    HW226355   3.859   2.444   0.286
 8486SOL     OW26356   1.941   1.179   2.275
 8486SOL    HW126357   1.920   1.202   2.369
 8486SOL    HW226358   2.032   1.214   2.251
 8487SOL     OW26359   5.324   1.280   6.245
 8487SOL    HW126360   5.423   1.269   6.237
 8487SOL    HW226361   5.279   1.232   6.170
 8488SOL     OW26362   6.010   5.338   3.101
 8488SOL    HW126363   5.958   5.282   3.165
 8488SOL    HW226364   5.951   5.411   3.065
 8489SOL     OW26365   5.955   0.598   1.380
 8489SOL    HW126366   5.899   0.619   1.460
 8489SOL    HW226367   5.982   0.502   1.382
 8490SOL     OW26368   3.166   0.080   5.948
 8490SOL    HW126369   3.204   0.082   5.856
 8490SOL    HW226370   3.083   0.025   5.949
 8491SOL     OW26371   2.470   6.014   2.820
 8491SOL    HW126372   2.450   5.962   2.737
 8491SOL    HW226373   2.384   6.040   2.865
 8492SOL     OW26374   6.120   4.472   3.815
 8492SOL    HW126375   6.216   4.450   3.795
 8492SOL    HW226376   6.084   4.408   3.882
 8493SOL     OW26377   2.478   1.186   0.265
 8493SOL    HW126378   2.573   1.162   0.246
 8493SOL    HW226379   2.463   1.188   0.364
 8494SOL     OW26380   5.223   4.764   1.950
 8494SOL    HW126381   5.284   4.798   1.878
 8494SOL    HW226382   5.146   4.826   1.962
 8495SOL     OW26383   6.942   5.952   0.691
 8495SOL    HW126384   6.993   5.877   0.649
 8495SOL    HW226385   6.968   5.961   0.787
 8496SOL     OW26386   5.359   1.258   2.119
 8496SOL    HW126387   5.356   1.357   2.105
 8496SOL    HW226388   5.372   1.239   2.216
 8497SOL     OW26389   0.488   0.387   3.501
 8497SOL    HW126390   0.394   0.421   3.495
 8497SOL    HW226391   0.492   0.292   3.473
 8498SOL     OW26392   5.479   0.116   3.867
 8498SOL    HW126393   5.426   0.163   3.797
 8498SOL    HW226394   5.454   0.019   3.868
 8499SOL     OW26395   1.001   5.586   0.603
 8499SOL    HW126396   1.089   5.631   0.591
 8499SOL    HW226397   1.015   5.488   0.617
 8500SOL     OW26398   1.915   0.105   5.957
 8500SOL    HW126399   1.920   0.007   5.939
 8500SOL    HW226400   1.953   0.156   5.880
 8501SOL     OW26401   0.134   2.140   0.356
 8501SOL    HW126402   0.200   2.179   0.292
 8501SOL    HW226403   0.083   2.214   0.400
 8502SOL     OW26404   0.442   2.591   0.159
 8502SOL    HW126405   0.464   2.632   0.070
 8502SOL    HW226406   0.397   2.659   0.217
 8503SOL     OW26407   6.782   5.566   4.804
 8503SOL    HW126408   6.768   5.585   4.902
 8503SOL    HW226409   6.879   5.577   4.782
 8504SOL     OW26410   1.630   5.352   2.272
 8504SOL    HW126411   1.707   5.289   2.264
 8504SOL    HW226412   1.544   5.302   2.256
 8505SOL     OW26413   5.378   3.586   2.380
 8505SOL    HW126414   5.362   3.652   2.453
 8505SOL    HW226415   5.348   3.625   2.293
 8506SOL     OW26416   1.809   1.198   6.713
 8506SOL    HW126417   1.806   1.108   6.758
 8506SOL    HW226418   1.850   1.188   6.622
 8507SOL     OW26419   4.423   0.120   4.992
 8507SOL    HW126420   4.410   0.192   4.923
 8507SOL    HW226421   4.494   0.057   4.961
 8508SOL     OW26422   4.029   1.864   6.191
 8508SOL    HW126423   4.031   1.955   6.151
 8508SOL    HW226424   3.957   1.809   6.147
 8509SOL     OW26425   5.570   0.080   3.410
 8509SOL    HW126426   5.562   0.037   3.320
 8509SOL    HW226427   5.665   0.076   3.440
 8510SOL     OW26428   5.283   2.805   3.749
 8510SOL    HW126429   5.254   2.850   3.834
 8510SOL    HW226430   5.259   2.864   3.672
 8511SOL     OW26431   6.063   3.473   2.536
 8511SOL    HW126432   6.040   3.499   2.442
 8511SOL    HW226433   5.980   3.450   2.585
 8512SOL     OW26434   1.947   0.200   3.255
 8512SOL    HW126435   1.954   0.255   3.172
 8512SOL    HW226436   1.935   0.104   3.231
 8513SOL     OW26437   6.389   6.237   0.011
 8513SOL    HW126438   6.382   6.325   0.058
 8513SOL    HW226439   6.393   6.164   0.078
 8514SOL     OW26440   3.171   6.164   3.221
 8514SOL    HW126441   3.196   6.156   3.124
 8514SOL    HW226442   3.130   6.078   3.252
 8515SOL     OW26443   5.603   2.651   0.999
 8515SOL    HW126444   5.587   2.554   0.979
 8515SOL    HW226445   5.687   2.681   0.952
 8516SOL     OW26446   6.485   1.931   2.599
 8516SOL    HW126447   6.509   2.001   2.531
 8516SOL    HW226448   6.410   1.875   2.563
 8517SOL     OW26449   1.040   2.424   0.120
 8517SOL    HW126450   0.986   2.357   0.172
 8517SOL    HW226451   1.134   2.424   0.153
 8518SOL     OW26452   4.134   5.113   0.425
 8518SOL    HW126453   4.115   5.207   0.455
 8518SOL    HW226454   4.194   5.115   0.345
 8519SOL     OW26455   2.029   5.891   2.132
 8519SOL    HW126456   2.089   5.895   2.212
 8519SOL    HW226457   1.951   5.831   2.151
 8520SOL     OW26458   3.908   1.264   0.419
 8520SOL    HW126459   3.948   1.310   0.499
 8520SOL    HW226460   3.976   1.262   0.346
 8521SOL     OW26461   0.689   6.249   6.078
 8521SOL    HW126462   0.667   6.303   6.159
 8521SOL    HW226463   0.780   6.208   6.090
 8522SOL     OW26464   1.178   6.565   3.227
 8522SOL    HW126465   1.255   6.590   3.169
 8522SOL    HW226466   1.095   6.559   3.172
 8523SOL     OW26467   2.346   0.167   5.750
 8523SOL    HW126468   2.262   0.135   5.707
 8523SOL    HW226469   2.344   0.145   5.848
 8524SOL     OW26470   1.356   3.123   5.168
 8524SOL    HW126471   1.443   3.142   5.213
 8524SOL    HW226472   1.310   3.209   5.146
 8525SOL     OW26473   5.715   3.552   3.277
 8525SOL    HW126474   5.811   3.581   3.279
 8525SOL    HW226475   5.706   3.465   3.325
 8526SOL     OW26476   2.356   2.789   1.776
 8526SOL    HW126477   2.341   2.778   1.874
 8526SOL    HW226478   2.413   2.714   1.742
 8527SOL     OW26479   4.739   0.477   4.006
 8527SOL    HW126480   4.761   0.498   4.101
 8527SOL    HW226481   4.798   0.530   3.945
 8528SOL     OW26482   4.960   3.062   6.302
 8528SOL    HW126483   4.954   2.994   6.376
 8528SOL    HW226484   4.979   3.152   6.341
 8529SOL     OW26485   1.417   5.239   0.281
 8529SOL    HW126486   1.489   5.191   0.330
 8529SOL    HW226487   1.451   5.329   0.251
 8530SOL     OW26488   1.236   4.600   5.422
 8530SOL    HW126489   1.333   4.581   5.411
 8530SOL    HW226490   1.213   4.685   5.375
 8531SOL     OW26491   5.408   4.110   3.006
 8531SOL    HW126492   5.372   4.031   2.957
 8531SOL    HW226493   5.387   4.193   2.955
 8532SOL     OW26494   3.802   4.960   4.986
 8532SOL    HW126495   3.885   4.956   4.930
 8532SOL    HW226496   3.825   4.939   5.081
 8533SOL     OW26497   2.966   0.838   4.375
 8533SOL    HW126498   2.890   0.875   4.429
 8533SOL    HW226499   3.008   0.911   4.322
 8534SOL     OW26500   1.114   3.722   2.767
 8534SOL    HW126501   1.175   3.767   2.702
 8534SOL    HW226502   1.044   3.786   2.797
 8535SOL     OW26503   0.823   2.157   4.733
 8535SOL    HW126504   0.917   2.125   4.731
 8535SOL    HW226505   0.821   2.257   4.736
 8536SOL     OW26506   0.105   1.735   5.172
 8536SOL    HW126507   0.060   1.804   5.230
 8536SOL    HW226508   0.193   1.771   5.141
 8537SOL     OW26509   5.536   0.837   0.892
 8537SOL    HW126510   5.606   0.767   0.881
 8537SOL    HW226511   5.578   0.922   0.925
 8538SOL     OW26512   0.146   0.628   4.756
 8538SOL    HW126513   0.219   0.583   4.705
 8538SOL    HW226514   0.112   0.706   4.703
 8539SOL     OW26515   0.020   2.404   1.742
 8539SOL    HW126516   7.001   2.418   1.830
 8539SOL    HW226517   0.025   2.306   1.722
 8540SOL     OW26518   3.038   0.944   0.392
 8540SOL    HW126519   3.060   0.884   0.468
 8540SOL    HW226520   3.074   1.035   0.409
 8541SOL     OW26521   3.116   1.423   4.891
 8541SOL    HW126522   3.094   1.439   4.987
 8541SOL    HW226523   3.036   1.443   4.834
 8542SOL     OW26524   2.482   4.297   7.020
 8542SOL    HW126525   2.453   4.253   6.935
 8542SOL    HW226526   2.563   4.252   0.030
 8543SOL     OW26527   2.433   2.307   5.437
 8543SOL    HW126528   2.340   2.319   5.471
 8543SOL    HW226529   2.431   2.290   5.339
 8544SOL     OW26530   4.832   3.908   5.185
 8544SOL    HW126531   4.746   3.907   5.236
 8544SOL    HW226532   4.829   3.839   5.113
 8545SOL     OW26533   3.296   6.901   5.005
 8545SOL    HW126534   3.257   6.811   4.988
 8545SOL    HW226535   3.379   6.913   4.951
 8546SOL     OW26536   5.935   0.632   1.793
 8546SOL    HW126537   5.852   0.613   1.845
 8546SOL    HW226538   6.000   0.557   1.804
 8547SOL     OW26539   6.696   6.837   5.788
 8547SOL    HW126540   6.719   6.880   5.701
 8547SOL    HW226541   6.727   6.742   5.788
 8548SOL     OW26542   0.648   2.950   6.535
 8548SOL    HW126543   0.647   3.049   6.547
 8548SOL    HW226544   0.712   2.909   6.600
 8549SOL     OW26545   1.957   0.949   3.632
 8549SOL    HW126546   2.028   0.884   3.605
 8549SOL    HW226547   1.899   0.970   3.554
 8550SOL     OW26548   0.854   4.160   0.367
 8550SOL    HW126549   0.879   4.178   0.462
 8550SOL    HW226550   0.777   4.218   0.341
 8551SOL     OW26551   2.044   2.236   6.355
 8551SOL    HW126552   2.101   2.299   6.408
 8551SOL    HW226553   1.958   2.220   6.404
 8552SOL     OW26554   2.611   1.436   2.597
 8552SOL    HW126555   2.640   1.522   2.555
 8552SOL    HW226556   2.655   1.426   2.686
 8553SOL     OW26557   4.482   2.941   0.820
 8553SOL    HW126558   4.507   3.016   0.759
 8553SOL    HW226559   4.565   2.891   0.845
 8554SOL     OW26560   0.807   6.901   1.078
 8554SOL    HW126561   0.893   6.922   1.126
 8554SOL    HW226562   0.737   6.877   1.145
 8555SOL     OW26563   4.506   1.549   3.589
 8555SOL    HW126564   4.424   1.496   3.608
 8555SOL    HW226565   4.537   1.594   3.674
 8556SOL     OW26566   2.042   6.154   6.809
 8556SOL    HW126567   2.055   6.252   6.827
 8556SOL    HW226568   2.063   6.102   6.892
 8557SOL     OW26569   6.779   0.649   6.971
 8557SOL    HW126570   6.730   0.727   6.933
 8557SOL    HW226571   6.714   0.577   6.997
 8558SOL     OW26572   2.670   4.599   2.988
 8558SOL    HW126573   2.618   4.661   2.929
 8558SOL    HW226574   2.730   4.542   2.932
 8559SOL     OW26575   0.992   5.458   2.402
 8559SOL    HW126576   0.954   5.444   2.493
 8559SOL    HW226577   1.086   5.491   2.409
 8560SOL     OW26578   2.416   4.957   1.372
 8560SOL    HW126579   2.454   4.954   1.464
 8560SOL    HW226580   2.458   5.031   1.320
 8561SOL     OW26581   3.164   0.352   2.791
 8561SOL    HW126582   3.168   0.267   2.738
 8561SOL    HW226583   3.217   0.342   2.875
 8562SOL     OW26584   3.844   1.402   6.762
 8562SOL    HW126585   3.785   1.321   6.767
 8562SOL    HW226586   3.841   1.450   6.850
 8563SOL     OW26587   1.557   5.663   3.015
 8563SOL    HW126588   1.591   5.737   3.073
 8563SOL    HW226589   1.535   5.700   2.924
 8564SOL     OW26590   3.849   6.858   6.738
 8564SOL    HW126591   3.916   6.915   6.691
 8564SOL    HW226592   3.833   6.775   6.686
 8565SOL     OW26593   3.534   5.478   0.569
 8565SOL    HW126594   3.577   5.413   0.631
 8565SOL    HW226595   3.605   5.527   0.518
 8566SOL     OW26596   2.918   1.121   3.261
 8566SOL    HW126597   2.915   1.093   3.357
 8566SOL    HW226598   2.925   1.040   3.203
 8567SOL     OW26599   2.078   1.953   1.232
 8567SOL    HW126600   2.067   2.029   1.296
 8567SOL    HW226601   2.139   1.884   1.272
 8568SOL     OW26602   6.736   1.418   0.369
 8568SOL    HW126603   6.821   1.438   0.321
 8568SOL    HW226604   6.677   1.498   0.367
 8569SOL     OW26605   5.258   2.420   6.269
 8569SOL    HW126606   5.181   2.376   6.223
 8569SOL    HW226607   5.230   2.509   6.303
 8570SOL     OW26608   0.900   2.169   5.233
 8570SOL    HW126609   0.988   2.165   5.280
 8570SOL    HW226610   0.833   2.114   5.282
 8571SOL     OW26611   1.755   0.961   4.342
 8571SOL    HW126612   1.781   1.055   4.363
 8571SOL    HW226613   1.667   0.961   4.296
 8572SOL     OW26614   3.340   3.967   5.930
 8572SOL    HW126615   3.269   3.896   5.927
 8572SOL    HW226616   3.300   4.052   5.964
 8573SOL     OW26617   3.313   6.118   1.080
 8573SOL    HW126618   3.279   6.208   1.110
 8573SOL    HW226619   3.236   6.057   1.063
 8574SOL     OW26620   0.021   6.134   6.049
 8574SOL    HW126621   6.959   6.142   6.096
 8574SOL    HW226622   0.015   6.061   5.980
 8575SOL     OW26623   3.401   6.607   2.844
 8575SOL    HW126624   3.427   6.614   2.748
 8575SOL    HW226625   3.305   6.579   2.851
 8576SOL     OW26626   0.757   4.092   4.574
 8576SOL    HW126627   0.842   4.122   4.618
 8576SOL    HW226628   0.745   3.994   4.590
 8577SOL     OW26629   1.649   1.274   6.353
 8577SOL    HW126630   1.660   1.369   6.326
 8577SOL    HW226631   1.735   1.240   6.392
 8578SOL     OW26632   6.186   6.469   5.233
 8578SOL    HW126633   6.126   6.393   5.209
 8578SOL    HW226634   6.179   6.541   5.163
 8579SOL     OW26635   2.910   6.061   2.311
 8579SOL    HW126636   2.995   6.114   2.307
 8579SOL    HW226637   2.931   5.964   2.308
 8580SOL     OW26638   1.387   6.154   1.293
 8580SOL    HW126639   1.309   6.130   1.235
 8580SOL    HW226640   1.448   6.075   1.302
 8581SOL     OW26641   3.500   5.173   1.480
 8581SOL    HW126642   3.569   5.230   1.524
 8581SOL    HW226643   3.447   5.125   1.550
 8582SOL     OW26644   4.171   4.795   5.693
 8582SOL    HW126645   4.230   4.754   5.624
 8582SOL    HW226646   4.096   4.733   5.715
 8583SOL     OW26647   4.079   0.491   2.768
 8583SOL    HW126648   4.016   0.560   2.733
 8583SOL    HW226649   4.086   0.416   2.702
 8584SOL     OW26650   6.340   1.304   4.500
 8584SOL    HW126651   6.263   1.261   4.452
 8584SOL    HW226652   6.363   1.390   4.453
 8585SOL     OW26653   5.755   2.372   1.521
 8585SOL    HW126654   5.778   2.470   1.516
 8585SOL    HW226655   5.826   2.324   1.572
 8586SOL     OW26656   5.649   6.304   1.152
 8586SOL    HW126657   5.566   6.353   1.124
 8586SOL    HW226658   5.728   6.345   1.108
 8587SOL     OW26659   1.072   1.531   5.881
 8587SOL    HW126660   1.129   1.475   5.820
 8587SOL    HW226661   0.977   1.529   5.849
 8588SOL     OW26662   3.127   1.600   6.284
 8588SOL    HW126663   3.106   1.607   6.187
 8588SOL    HW226664   3.209   1.545   6.297
 8589SOL     OW26665   0.087   3.502   5.689
 8589SOL    HW126666   0.152   3.427   5.677
 8589SOL    HW226667   0.013   3.472   5.749
 8590SOL     OW26668   6.708   1.539   2.514
 8590SOL    HW126669   6.780   1.506   2.575
 8590SOL    HW226670   6.621   1.540   2.563
 8591SOL     OW26671   6.662   4.968   0.310
 8591SOL    HW126672   6.610   5.041   0.354
 8591SOL    HW226673   6.669   4.890   0.371
 8592SOL     OW26674   0.483   2.683   6.948
 8592SOL    HW126675   0.411   2.742   6.914
 8592SOL    HW226676   0.557   2.677   6.881
 8593SOL     OW26677   3.279   0.496   6.392
 8593SOL    HW126678   3.282   0.548   6.307
 8593SOL    HW226679   3.269   0.559   6.469
 8594SOL     OW26680   5.895   2.752   6.375
 8594SOL    HW126681   5.987   2.785   6.354
 8594SOL    HW226682   5.829   2.795   6.314
 8595SOL     OW26683   5.292   7.010   2.797
 8595SOL    HW126684   5.256   0.067   2.753
 8595SOL    HW226685   5.216   6.954   2.830
 8596SOL     OW26686   1.156   3.373   3.734
 8596SOL    HW126687   1.186   3.442   3.669
 8596SOL    HW226688   1.207   3.288   3.719
 8597SOL     OW26689   6.439   3.315   1.011
 8597SOL    HW126690   6.368   3.385   1.016
 8597SOL    HW226691   6.500   3.322   1.090
 8598SOL     OW26692   5.666   0.948   4.839
 8598SOL    HW126693   5.723   1.016   4.793
 8598SOL    HW226694   5.648   0.872   4.777
 8599SOL     OW26695   1.564   3.422   3.499
 8599SOL    HW126696   1.536   3.359   3.427
 8599SOL    HW226697   1.661   3.443   3.491
 8600SOL     OW26698   4.572   3.759   1.121
 8600SOL    HW126699   4.610   3.850   1.107
 8600SOL    HW226700   4.547   3.720   1.032
 8601SOL     OW26701   0.830   0.842   3.888
 8601SOL    HW126702   0.858   0.796   3.804
 8601SOL    HW226703   0.770   0.781   3.940
 8602SOL     OW26704   2.823   6.924   3.775
 8602SOL    HW126705   2.752   6.900   3.709
 8602SOL    HW226706   2.799   6.887   3.865
 8603SOL     OW26707   6.784   0.926   0.512
 8603SOL    HW126708   6.807   0.941   0.416
 8603SOL    HW226709   6.816   0.836   0.541
 8604SOL     OW26710   0.742   3.865   6.232
 8604SOL    HW126711   0.719   3.789   6.293
 8604SOL    HW226712   0.717   3.842   6.138
 8605SOL     OW26713   0.501   4.734   4.672
 8605SOL    HW126714   0.564   4.716   4.748
 8605SOL    HW226715   0.442   4.654   4.659
 8606SOL     OW26716   2.417   2.029   6.487
 8606SOL    HW126717   2.397   1.970   6.566
 8606SOL    HW226718   2.376   2.119   6.501
 8607SOL     OW26719   2.332   4.708   1.545
 8607SOL    HW126720   2.409   4.760   1.507
 8607SOL    HW226721   2.359   4.668   1.633
 8608SOL     OW26722   2.472   4.547   2.590
 8608SOL    HW126723   2.524   4.556   2.506
 8608SOL    HW226724   2.402   4.476   2.579
 8609SOL     OW26725   4.920   1.265   3.900
 8609SOL    HW126726   4.881   1.192   3.844
 8609SOL    HW226727   4.893   1.253   3.995
 8610SOL     OW26728   6.832   6.698   3.058
 8610SOL    HW126729   6.913   6.658   3.101
 8610SOL    HW226730   6.753   6.641   3.077
 8611SOL     OW26731   3.651   1.017   3.891
 8611SOL    HW126732   3.579   1.084   3.909
 8611SOL    HW226733   3.639   0.938   3.951
 8612SOL     OW26734   3.559   2.826   2.702
 8612SOL    HW126735   3.625   2.751   2.709
 8612SOL    HW226736   3.535   2.857   2.794
 8613SOL     OW26737   3.089   2.480   1.499
 8613SOL    HW126738   3.001   2.518   1.473
 8613SOL    HW226739   3.085   2.446   1.593
 8614SOL     OW26740   1.533   2.259   1.985
 8614SOL    HW126741   1.495   2.169   1.965
 8614SOL    HW226742   1.599   2.252   2.059
 8615SOL     OW26743   5.129   2.236   3.891
 8615SOL    HW126744   5.110   2.156   3.947
 8615SOL    HW226745   5.043   2.278   3.862
 8616SOL     OW26746   4.256   5.050   2.506
 8616SOL    HW126747   4.157   5.048   2.517
 8616SOL    HW226748   4.284   4.985   2.436
 8617SOL     OW26749   5.487   6.865   3.941
 8617SOL    HW126750   5.483   6.821   3.852
 8617SOL    HW226751   5.455   6.801   4.011
 8618SOL     OW26752   6.512   3.451   1.446
 8618SOL    HW126753   6.579   3.525   1.437
 8618SOL    HW226754   6.528   3.401   1.531
 8619SOL     OW26755   5.345   5.020   2.187
 8619SOL    HW126756   5.266   4.965   2.215
 8619SOL    HW226757   5.333   5.048   2.091
 8620SOL     OW26758   2.376   0.739   4.889
 8620SOL    HW126759   2.398   0.781   4.977
 8620SOL    HW226760   2.283   0.764   4.863
 8621SOL     OW26761   4.791   2.782   1.969
 8621SOL    HW126762   4.736   2.758   1.889
 8621SOL    HW226763   4.797   2.882   1.976
 8622SOL     OW26764   6.500   5.266   2.584
 8622SOL    HW126765   6.497   5.349   2.639
 8622SOL    HW226766   6.591   5.253   2.547
 8623SOL     OW26767   6.992   3.441   4.979
 8623SOL    HW126768   6.987   3.493   5.064
 8623SOL    HW226769   0.060   3.439   4.946
 8624SOL     OW26770   2.986   3.799   5.562
 8624SOL    HW126771   3.011   3.748   5.479
 8624SOL    HW226772   2.906   3.755   5.604
 8625SOL     OW26773   3.326   1.863   5.337
 8625SOL    HW126774   3.350   1.779   5.385
 8625SOL    HW226775   3.386   1.937   5.367
 8626SOL     OW26776   4.788   2.931   0.538
 8626SOL    HW126777   4.694   2.899   0.532
 8626SOL    HW226778   4.835   2.882   0.612
 8627SOL     OW26779   1.643   1.581   2.591
 8627SOL    HW126780   1.583   1.623   2.523
 8627SOL    HW226781   1.729   1.554   2.548
 8628SOL     OW26782   0.285   6.706   0.022
 8628SOL    HW126783   0.353   6.655   0.076
 8628SOL    HW226784   0.249   6.648   6.976
 8629SOL     OW26785   0.908   6.965   4.573
 8629SOL    HW126786   0.981   6.901   4.596
 8629SOL    HW226787   0.869   6.940   4.484
 8630SOL     OW26788   5.287   3.414   3.582
 8630SOL    HW126789   5.315   3.510   3.589
 8630SOL    HW226790   5.205   3.407   3.526
 8631SOL     OW26791   2.685   5.367   0.155
 8631SOL    HW126792   2.726   5.284   0.192
 8631SOL    HW226793   2.740   5.446   0.184
 8632SOL     OW26794   4.083   4.547   5.309
 8632SOL    HW126795   3.999   4.493   5.309
 8632SOL    HW226796   4.160   4.489   5.280
 8633SOL     OW26797   5.217   4.090   5.857
 8633SOL    HW126798   5.244   4.146   5.779
 8633SOL    HW226799   5.204   4.147   5.938
 8634SOL     OW26800   5.518   5.011   0.629
 8634SOL    HW126801   5.480   5.017   0.722
 8634SOL    HW226802   5.528   5.103   0.592
 8635SOL     OW26803   5.906   3.082   6.638
 8635SOL    HW126804   5.992   3.070   6.686
 8635SOL    HW226805   5.922   3.128   6.551
 8636SOL     OW26806   4.209   5.881   0.662
 8636SOL    HW126807   4.202   5.941   0.583
 8636SOL    HW226808   4.294   5.899   0.711
 8637SOL     OW26809   1.609   1.690   6.782
 8637SOL    HW126810   1.599   1.736   6.870
 8637SOL    HW226811   1.519   1.666   6.746
 8638SOL     OW26812   4.003   2.962   5.334
 8638SOL    HW126813   3.912   2.929   5.359
 8638SOL    HW226814   4.002   3.061   5.324
 8639SOL     OW26815   5.213   3.263   0.184
 8639SOL    HW126816   5.209   3.163   0.186
 8639SOL    HW226817   5.121   3.300   0.170
 8640SOL     OW26818   3.405   3.115   1.061
 8640SOL    HW126819   3.450   3.054   1.126
 8640SOL    HW226820   3.391   3.205   1.104
 8641SOL     OW26821   4.120   5.328   2.984
 8641SOL    HW126822   4.046   5.281   3.032
 8641SOL    HW226823   4.190   5.262   2.958
 8642SOL     OW26824   1.375   6.683   3.765
 8642SOL    HW126825   1.412   6.594   3.792
 8642SOL    HW226826   1.285   6.670   3.724
 8643SOL     OW26827   2.742   0.105   0.388
 8643SOL    HW126828   2.731   0.154   0.302
 8643SOL    HW226829   2.800   0.025   0.372
 8644SOL     OW26830   6.180   2.150   6.690
 8644SOL    HW126831   6.084   2.127   6.672
 8644SOL    HW226832   6.198   2.140   6.788
 8645SOL     OW26833   5.699   4.274   1.599
 8645SOL    HW126834   5.644   4.315   1.672
 8645SOL    HW226835   5.655   4.289   1.511
 8646SOL     OW26836   0.068   2.485   5.833
 8646SOL    HW126837   0.022   2.501   5.745
 8646SOL    HW226838   0.002   2.453   5.900
 8647SOL     OW26839   2.684   5.338   1.222
 8647SOL    HW126840   2.736   5.385   1.294
 8647SOL    HW226841   2.712   5.372   1.133
 8648SOL     OW26842   5.728   6.644   1.177
 8648SOL    HW126843   5.643   6.634   1.229
 8648SOL    HW226844   5.798   6.687   1.235
 8649SOL     OW26845   4.165   6.499   0.034
 8649SOL    HW126846   4.230   6.425   0.051
 8649SOL    HW226847   4.111   6.477   6.978
 8650SOL     OW26848   2.063   0.469   4.387
 8650SOL    HW126849   2.123   0.449   4.464
 8650SOL    HW226850   2.082   0.405   4.312
 8651SOL     OW26851   2.809   1.289   0.987
 8651SOL    HW126852   2.720   1.317   0.951
 8651SOL    HW226853   2.818   1.190   0.982
 8652SOL     OW26854   0.787   4.975   4.382
 8652SOL    HW126855   0.739   4.978   4.294
 8652SOL    HW226856   0.739   5.034   4.448
 8653SOL     OW26857   0.096   1.795   5.992
 8653SOL    HW126858   0.110   1.696   5.990
 8653SOL    HW226859   0.043   1.823   5.912
 8654SOL     OW26860   1.030   4.734   1.972
 8654SOL    HW126861   1.034   4.645   1.925
 8654SOL    HW226862   1.107   4.790   1.943
 8655SOL     OW26863   6.631   1.702   5.504
 8655SOL    HW126864   6.691   1.751   5.442
 8655SOL    HW226865   6.684   1.664   5.580
 8656SOL     OW26866   6.059   0.023   1.886
 8656SOL    HW126867   6.057   7.008   1.795
 8656SOL    HW226868   5.965   0.042   1.915
 8657SOL     OW26869   5.759   0.365   1.708
 8657SOL    HW126870   5.706   0.299   1.761
 8657SOL    HW226871   5.699   0.435   1.672
 8658SOL     OW26872   6.076   5.014   1.526
 8658SOL    HW126873   6.156   5.051   1.478
 8658SOL    HW226874   6.102   4.986   1.618
 8659SOL     OW26875   4.670   2.406   2.721
 8659SOL    HW126876   4.574   2.431   2.709
 8659SOL    HW226877   4.694   2.416   2.818
 8660SOL     OW26878   0.713   2.683   1.425
 8660SOL    HW126879   0.652   2.663   1.502
 8660SOL    HW226880   0.806   2.655   1.448
 8661SOL     OW26881   6.531   3.206   3.302
 8661SOL    HW126882   6.554   3.141   3.374
 8661SOL    HW226883   6.518   3.157   3.216
 8662SOL     OW26884   3.347   5.670   2.303
 8662SOL    HW126885   3.273   5.609   2.275
 8662SOL    HW226886   3.372   5.651   2.398
 8663SOL     OW26887   3.432   5.429   3.185
 8663SOL    HW126888   3.438   5.329   3.180
 8663SOL    HW226889   3.512   5.464   3.234
 8664SOL     OW26890   2.023   5.781   2.873
 8664SOL    HW126891   2.054   5.847   2.941
 8664SOL    HW226892   2.045   5.688   2.903
 8665SOL     OW26893   5.759   4.856   5.634
 8665SOL    HW126894   5.796   4.764   5.645
 8665SOL    HW226895   5.731   4.892   5.723
 8666SOL     OW26896   5.090   0.455   3.912
 8666SOL    HW126897   5.189   0.438   3.916
 8666SOL    HW226898   5.073   0.553   3.920
 8667SOL     OW26899   4.927   1.395   4.514
 8667SOL    HW126900   5.019   1.388   4.552
 8667SOL    HW226901   4.923   1.472   4.451
 8668SOL     OW26902   5.615   3.142   4.515
 8668SOL    HW126903   5.709   3.154   4.547
 8668SOL    HW226904   5.564   3.088   4.582
 8669SOL     OW26905   6.683   6.545   6.042
 8669SOL    HW126906   6.710   6.539   5.946
 8669SOL    HW226907   6.649   6.636   6.062
 8670SOL     OW26908   5.670   4.950   5.879
 8670SOL    HW126909   5.586   4.903   5.908
 8670SOL    HW226910   5.709   5.000   5.957
 8671SOL     OW26911   0.374   2.291   2.370
 8671SOL    HW126912   0.371   2.379   2.418
 8671SOL    HW226913   0.290   2.240   2.389
 8672SOL     OW26914   7.004   0.381   3.508
 8672SOL    HW126915   6.956   0.468   3.501
 8672SOL    HW226916   6.979   0.322   3.432
 8673SOL     OW26917   0.162   1.366   0.357
 8673SOL    HW126918   0.227   1.441   0.345
 8673SOL    HW226919   0.072   1.394   0.324
 8674SOL     OW26920   0.549   4.426   3.173
 8674SOL    HW126921   0.503   4.404   3.259
 8674SOL    HW226922   0.647   4.437   3.189
 8675SOL     OW26923   3.536   1.637   5.986
 8675SOL    HW126924   3.555   1.649   6.083
 8675SOL    HW226925   3.532   1.727   5.941
 8676SOL     OW26926   5.541   1.402   1.544
 8676SOL    HW126927   5.501   1.447   1.464
 8676SOL    HW226928   5.533   1.303   1.533
 8677SOL     OW26929   1.601   6.440   5.975
 8677SOL    HW126930   1.610   6.360   6.034
 8677SOL    HW226931   1.568   6.412   5.885
 8678SOL     OW26932   1.392   6.809   0.440
 8678SOL    HW126933   1.378   6.873   0.364
 8678SOL    HW226934   1.482   6.768   0.432
 8679SOL     OW26935   2.105   1.116   3.815
 8679SOL    HW126936   2.033   1.066   3.766
 8679SOL    HW226937   2.177   1.142   3.750
 8680SOL     OW26938   6.392   2.725   5.647
 8680SOL    HW126939   6.489   2.740   5.664
 8680SOL    HW226940   6.342   2.810   5.663
 8681SOL     OW26941   5.091   6.075   0.831
 8681SOL    HW126942   5.159   6.087   0.903
 8681SOL    HW226943   5.054   5.981   0.835
 8682SOL     OW26944   6.963   0.368   1.217
 8682SOL    HW126945   6.975   0.452   1.270
 8682SOL    HW226946   0.021   0.315   1.218
 8683SOL     OW26947   1.903   3.481   5.078
 8683SOL    HW126948   2.001   3.487   5.060
 8683SOL    HW226949   1.866   3.399   5.036
 8684SOL     OW26950   0.845   3.712   4.788
 8684SOL    HW126951   0.888   3.633   4.831
 8684SOL    HW226952   0.776   3.750   4.850
 8685SOL     OW26953   5.354   2.406   5.998
 8685SOL    HW126954   5.326   2.424   6.092
 8685SOL    HW226955   5.452   2.423   5.989
 8686SOL     OW26956   6.341   6.523   2.718
 8686SOL    HW126957   6.434   6.536   2.685
 8686SOL    HW226958   6.280   6.591   2.676
 8687SOL     OW26959   6.423   3.343   3.590
 8687SOL    HW126960   6.355   3.278   3.557
 8687SOL    HW226961   6.491   3.360   3.519
 8688SOL     OW26962   1.660   3.647   6.303
 8688SOL    HW126963   1.644   3.745   6.303
 8688SOL    HW226964   1.577   3.600   6.333
 8689SOL     OW26965   4.488   3.175   0.469
 8689SOL    HW126966   4.584   3.194   0.489
 8689SOL    HW226967   4.447   3.254   0.424
 8690SOL     OW26968   0.988   1.928   3.163
 8690SOL    HW126969   1.000   2.025   3.180
 8690SOL    HW226970   1.059   1.895   3.102
 8691SOL     OW26971   3.286   1.839   4.801
 8691SOL    HW126972   3.272   1.858   4.898
 8691SOL    HW226973   3.200   1.852   4.752
 8692SOL     OW26974   4.067   1.965   5.564
 8692SOL    HW126975   4.071   2.058   5.527
 8692SOL    HW226976   4.157   1.922   5.556
 8693SOL     OW26977   6.625   1.000   6.700
 8693SOL    HW126978   6.641   0.912   6.655
 8693SOL    HW226979   6.709   1.055   6.696
 8694SOL     OW26980   6.554   3.231   4.246
 8694SOL    HW126981   6.523   3.323   4.222
 8694SOL    HW226982   6.611   3.234   4.328
 8695SOL     OW26983   4.237   3.375   6.353
 8695SOL    HW126984   4.181   3.453   6.326
 8695SOL    HW226985   4.216   3.297   6.295
 8696SOL     OW26986   2.793   5.730   5.559
 8696SOL    HW126987   2.766   5.654   5.499
 8696SOL    HW226988   2.866   5.700   5.620
 8697SOL     OW26989   1.798   4.426   6.142
 8697SOL    HW126990   1.786   4.503   6.080
 8697SOL    HW226991   1.885   4.434   6.190
 8698SOL     OW26992   4.719   5.815   6.255
 8698SOL    HW126993   4.682   5.903   6.284
 8698SOL    HW226994   4.692   5.798   6.160
 8699SOL     OW26995   2.617   2.694   6.469
 8699SOL    HW126996   2.553   2.714   6.396
 8699SOL    HW226997   2.617   2.769   6.536
 8700SOL     OW26998   0.979   0.483   5.058
 8700SOL    HW126999   1.057   0.540   5.034
 8700SOL    HW227000   0.994   0.390   5.022
 8701SOL     OW27001   1.220   1.513   6.937
 8701SOL    HW127002   1.154   1.441   6.916
 8701SOL    HW227003   1.285   1.521   6.861
 8702SOL     OW27004   5.166   4.659   1.605
 8702SOL    HW127005   5.210   4.743   1.637
 8702SOL    HW227006   5.144   4.667   1.508
 8703SOL     OW27007   3.121   4.592   0.238
 8703SOL    HW127008   3.129   4.658   0.313
 8703SOL    HW227009   3.045   4.529   0.257
 8704SOL     OW27010   0.301   2.222   4.312
 8704SOL    HW127011   0.331   2.282   4.238
 8704SOL    HW227012   0.257   2.277   4.383
 8705SOL     OW27013   4.554   2.826   6.983
 8705SOL    HW127014   4.564   2.803   0.054
 8705SOL    HW227015   4.580   2.747   6.927
 8706SOL     OW27016   5.548   2.898   6.937
 8706SOL    HW127017   5.540   2.895   0.011
 8706SOL    HW227018   5.643   2.917   6.912
 8707SOL     OW27019   1.310   1.778   4.532
 8707SOL    HW127020   1.232   1.760   4.592
 8707SOL    HW227021   1.395   1.764   4.582
 8708SOL     OW27022   5.155   1.716   3.414
 8708SOL    HW127023   5.186   1.764   3.333
 8708SOL    HW227024   5.082   1.768   3.458
 8709SOL     OW27025   6.669   0.284   6.666
 8709SOL    HW127026   6.630   0.375   6.674
 8709SOL    HW227027   6.763   0.285   6.700
 8710SOL     OW27028   2.294   1.562   3.300
 8710SOL    HW127029   2.302   1.658   3.325
 8710SOL    HW227030   2.379   1.514   3.322
 8711SOL     OW27031   1.012   1.272   2.218
 8711SOL    HW127032   0.984   1.360   2.257
 8711SOL    HW227033   1.084   1.287   2.150
 8712SOL     OW27034   2.231   2.511   5.171
 8712SOL    HW127035   2.168   2.498   5.094
 8712SOL    HW227036   2.306   2.446   5.163
 8713SOL     OW27037   0.886   4.262   2.025
 8713SOL    HW127038   0.962   4.197   2.022
 8713SOL    HW227039   0.874   4.295   2.118
 8714SOL     OW27040   0.227   6.370   0.068
 8714SOL    HW127041   0.322   6.373   0.097
 8714SOL    HW227042   0.213   6.292   0.007
 8715SOL     OW27043   2.730   1.951   0.052
 8715SOL    HW127044   2.722   1.861   0.095
 8715SOL    HW227045   2.735   1.940   6.979
 8716SOL     OW27046   0.337   6.510   1.384
 8716SOL    HW127047   0.247   6.471   1.401
 8716SOL    HW227048   0.406   6.460   1.437
 8717SOL     OW27049   2.348   3.875   6.977
 8717SOL    HW127050   2.316   3.963   7.011
 8717SOL    HW227051   2.339   3.806   0.022
 8718SOL     OW27052   1.631   3.319   6.573
 8718SOL    HW127053   1.539   3.288   6.595
 8718SOL    HW227054   1.628   3.379   6.492
 8719SOL     OW27055   3.683   1.270   6.265
 8719SOL    HW127056   3.618   1.323   6.210
 8719SOL    HW227057   3.645   1.180   6.284
 8720SOL     OW27058   5.963   4.807   4.946
 8720SOL    HW127059   5.888   4.870   4.966
 8720SOL    HW227060   6.024   4.802   5.025
 8721SOL     OW27061   0.360   6.332   6.688
 8721SOL    HW127062   0.425   6.396   6.729
 8721SOL    HW227063   0.375   6.327   6.589
 8722SOL     OW27064   3.530   0.294   1.021
 8722SOL    HW127065   3.565   0.220   0.964
 8722SOL    HW227066   3.563   0.382   0.986
 8723SOL     OW27067   5.304   0.301   2.353
 8723SOL    HW127068   5.349   0.388   2.371
 8723SOL    HW227069   5.248   0.308   2.270
 8724SOL     OW27070   4.391   0.251   4.185
 8724SOL    HW127071   4.345   0.177   4.136
 8724SOL    HW227072   4.345   0.337   4.166
 8725SOL     OW27073   0.394   6.400   4.728
 8725SOL    HW127074   0.444   6.347   4.797
 8725SOL    HW227075   0.417   6.497   4.739
 8726SOL     OW27076   0.288   1.006   0.606
 8726SOL    HW127077   0.247   0.994   0.697
 8726SOL    HW227078   0.303   1.104   0.589
 8727SOL     OW27079   5.816   6.144   6.639
 8727SOL    HW127080   5.717   6.142   6.652
 8727SOL    HW227081   5.850   6.051   6.623
 8728SOL     OW27082   5.645   0.704   3.381
 8728SOL    HW127083   5.647   0.765   3.302
 8728SOL    HW227084   5.552   0.671   3.395
 8729SOL     OW27085   3.918   5.146   5.725
 8729SOL    HW127086   3.858   5.203   5.669
 8729SOL    HW227087   3.863   5.080   5.776
 8730SOL     OW27088   5.766   4.216   3.320
 8730SOL    HW127089   5.760   4.151   3.395
 8730SOL    HW227090   5.695   4.286   3.331
 8731SOL     OW27091   0.349   1.938   3.166
 8731SOL    HW127092   0.352   1.926   3.266
 8731SOL    HW227093   0.279   1.879   3.128
 8732SOL     OW27094   5.275   5.039   0.901
 8732SOL    HW127095   5.327   4.955   0.915
 8732SOL    HW227096   5.272   5.090   0.987
 8733SOL     OW27097   0.972   5.316   0.725
 8733SOL    HW127098   0.880   5.346   0.749
 8733SOL    HW227099   0.970   5.221   0.694
 8734SOL     OW27100   6.822   3.928   2.132
 8734SOL    HW127101   6.807   3.899   2.038
 8734SOL    HW227102   6.912   3.973   2.139
 8735SOL     OW27103   2.082   3.986   5.411
 8735SOL    HW127104   2.140   4.044   5.468
 8735SOL    HW227105   2.058   3.903   5.461
 8736SOL     OW27106   0.516   5.485   1.858
 8736SOL    HW127107   0.610   5.459   1.832
 8736SOL    HW227108   0.498   5.455   1.951
 8737SOL     OW27109   1.720   5.482   6.546
 8737SOL    HW127110   1.650   5.511   6.480
 8737SOL    HW227111   1.682   5.486   6.639
 8738SOL     OW27112   1.107   3.670   3.929
 8738SOL    HW127113   1.025   3.613   3.920
 8738SOL    HW227114   1.087   3.749   3.988
 8739SOL     OW27115   5.139   3.748   5.445
 8739SOL    HW127116   5.120   3.726   5.541
 8739SOL    HW227117   5.232   3.718   5.422
 8740SOL     OW27118   3.835   1.891   3.196
 8740SOL    HW127119   3.758   1.869   3.255
 8740SOL    HW227120   3.802   1.937   3.114
 8741SOL     OW27121   1.659   0.352   2.415
 8741SOL    HW127122   1.627   0.260   2.393
 8741SOL    HW227123   1.743   0.346   2.470
 8742SOL     OW27124   3.673   0.798   2.698
 8742SOL    HW127125   3.657   0.894   2.674
 8742SOL    HW227126   3.627   0.777   2.784
 8743SOL     OW27127   1.429   1.111   1.544
 8743SOL    HW127128   1.343   1.148   1.511
 8743SOL    HW227129   1.418   1.014   1.567
 8744SOL     OW27130   4.033   3.314   6.725
 8744SOL    HW127131   4.052   3.216   6.725
 8744SOL    HW227132   4.104   3.362   6.673
 8745SOL     OW27133   6.619   1.775   6.742
 8745SOL    HW127134   6.626   1.679   6.716
 8745SOL    HW227135   6.533   1.813   6.708
 8746SOL     OW27136   5.083   5.503   4.220
 8746SOL    HW127137   5.104   5.529   4.126
 8746SOL    HW227138   5.139   5.425   4.247
 8747SOL     OW27139   6.227   1.259   2.285
 8747SOL    HW127140   6.196   1.208   2.205
 8747SOL    HW227141   6.174   1.230   2.365
 8748SOL     OW27142   0.536   1.586   4.358
 8748SOL    HW127143   0.548   1.641   4.441
 8748SOL    HW227144   0.571   1.493   4.374
 8749SOL     OW27145   2.408   1.169   5.735
 8749SOL    HW127146   2.353   1.216   5.666
 8749SOL    HW227147   2.348   1.132   5.806
 8750SOL     OW27148   4.545   2.819   5.903
 8750SOL    HW127149   4.455   2.814   5.945
 8750SOL    HW227150   4.559   2.910   5.864
 8751SOL     OW27151   0.018   6.855   1.295
 8751SOL    HW127152   0.104   6.840   1.345
 8751SOL    HW227153   0.023   6.809   1.206
 8752SOL     OW27154   4.904   3.010   0.288
 8752SOL    HW127155   4.996   2.978   0.266
 8752SOL    HW227156   4.879   2.979   0.380
 8753SOL     OW27157   1.497   3.331   0.416
 8753SOL    HW127158   1.409   3.364   0.381
 8753SOL    HW227159   1.553   3.299   0.340
 8754SOL     OW27160   2.521   4.631   6.402
 8754SOL    HW127161   2.455   4.584   6.343
 8754SOL    HW227162   2.473   4.699   6.458
 8755SOL     OW27163   0.742   1.802   1.691
 8755SOL    HW127164   0.756   1.725   1.629
 8755SOL    HW227165   0.665   1.782   1.752
 8756SOL     OW27166   2.212   2.886   3.908
 8756SOL    HW127167   2.182   2.956   3.973
 8756SOL    HW227168   2.287   2.834   3.948
 8757SOL     OW27169   5.341   6.100   4.990
 8757SOL    HW127170   5.301   6.058   5.071
 8757SOL    HW227171   5.420   6.045   4.960
 8758SOL     OW27172   3.501   6.650   3.600
 8758SOL    HW127173   3.471   6.745   3.601
 8758SOL    HW227174   3.595   6.645   3.566
 8759SOL     OW27175   6.559   0.778   6.877
 8759SOL    HW127176   6.543   0.825   6.790
 8759SOL    HW227177   6.473   0.741   6.912
 8760SOL     OW27178   2.041   1.704   3.611
 8760SOL    HW127179   1.975   1.683   3.684
 8760SOL    HW227180   2.060   1.620   3.559
 8761SOL     OW27181   5.087   1.529   1.752
 8761SOL    HW127182   5.185   1.513   1.740
 8761SOL    HW227183   5.073   1.608   1.811
 8762SOL     OW27184   1.831   5.526   3.997
 8762SOL    HW127185   1.733   5.520   4.016
 8762SOL    HW227186   1.861   5.621   4.006
 8763SOL     OW27187   6.854   0.905   5.535
 8763SOL    HW127188   6.942   0.857   5.533
 8763SOL    HW227189   6.784   0.849   5.491
 8764SOL     OW27190   4.088   5.358   5.847
 8764SOL    HW127191   4.075   5.417   5.768
 8764SOL    HW227192   4.055   5.266   5.827
 8765SOL     OW27193   5.081   0.535   5.247
 8765SOL    HW127194   5.131   0.495   5.170
 8765SOL    HW227195   5.016   0.602   5.213
 8766SOL     OW27196   4.804   4.038   6.064
 8766SOL    HW127197   4.857   4.004   5.986
 8766SOL    HW227198   4.867   4.062   6.138
 8767SOL     OW27199   3.348   0.424   3.522
 8767SOL    HW127200   3.418   0.405   3.591
 8767SOL    HW227201   3.266   0.460   3.566
 8768SOL     OW27202   6.837   2.473   0.167
 8768SOL    HW127203   6.863   2.485   0.263
 8768SOL    HW227204   6.917   2.490   0.109
 8769SOL     OW27205   6.060   1.242   1.859
 8769SOL    HW127206   6.129   1.288   1.803
 8769SOL    HW227207   5.973   1.239   1.809
 8770SOL     OW27208   5.581   3.599   2.116
 8770SOL    HW127209   5.553   3.533   2.185
 8770SOL    HW227210   5.517   3.596   2.039
 8771SOL     OW27211   0.788   3.725   6.620
 8771SOL    HW127212   0.876   3.683   6.597
 8771SOL    HW227213   0.804   3.820   6.650
 8772SOL     OW27214   5.538   0.597   4.976
 8772SOL    HW127215   5.578   0.638   5.058
 8772SOL    HW227216   5.611   0.564   4.916
 8773SOL     OW27217   6.866   2.020   3.841
 8773SOL    HW127218   6.833   2.028   3.747
 8773SOL    HW227219   6.827   1.938   3.883
 8774SOL     OW27220   1.404   6.699   6.694
 8774SOL    HW127221   1.361   6.660   6.612
 8774SOL    HW227222   1.381   6.796   6.701
 8775SOL     OW27223   5.123   2.135   4.165
 8775SOL    HW127224   5.063   2.056   4.157
 8775SOL    HW227225   5.217   2.109   4.140
 8776SOL     OW27226   4.756   2.886   0.909
 8776SOL    HW127227   4.729   2.858   1.002
 8776SOL    HW227228   4.819   2.963   0.915
 8777SOL     OW27229   1.224   3.304   3.092
 8777SOL    HW127230   1.249   3.215   3.056
 8777SOL    HW227231   1.226   3.372   3.018
 8778SOL     OW27232   4.260   4.387   5.684
 8778SOL    HW127233   4.293   4.343   5.600
 8778SOL    HW227234   4.167   4.359   5.703
 8779SOL     OW27235   2.910   5.182   2.723
 8779SOL    HW127236   2.953   5.099   2.688
 8779SOL    HW227237   2.813   5.181   2.700
 8780SOL     OW27238   0.248   5.930   2.220
 8780SOL    HW127239   0.332   5.884   2.191
 8780SOL    HW227240   0.263   5.976   2.307
 8781SOL     OW27241   4.254   0.031   2.347
 8781SOL    HW127242   4.179   7.008   2.391
 8781SOL    HW227243   4.333   0.032   2.409
 8782SOL     OW27244   5.241   0.851   1.712
 8782SOL    HW127245   5.188   0.862   1.796
 8782SOL    HW227246   5.335   0.882   1.729
 8783SOL     OW27247   5.023   3.443   4.423
 8783SOL    HW127248   5.049   3.403   4.510
 8783SOL    HW227249   5.006   3.541   4.435
 8784SOL     OW27250   6.127   6.617   0.915
 8784SOL    HW127251   6.084   6.600   0.826
 8784SOL    HW227252   6.227   6.610   0.906
 8785SOL     OW27253   6.935   6.122   6.458
 8785SOL    HW127254   6.981   6.068   6.387
 8785SOL    HW227255   6.996   6.133   6.536
 8786SOL     OW27256   4.134   2.227   2.344
 8786SOL    HW127257   4.051   2.230   2.288
 8786SOL    HW227258   4.110   2.246   2.440
 8787SOL     OW27259   3.736   0.326   1.619
 8787SOL    HW127260   3.773   0.399   1.562
 8787SOL    HW227261   3.655   0.358   1.667
 8788SOL     OW27262   0.219   0.332   4.854
 8788SOL    HW127263   0.147   0.264   4.838
 8788SOL    HW227264   0.177   0.419   4.880
 8789SOL     OW27265   6.943   4.127   5.346
 8789SOL    HW127266   6.931   4.218   5.306
 8789SOL    HW227267   6.854   4.084   5.359
 8790SOL     OW27268   6.007   2.650   0.172
 8790SOL    HW127269   6.006   2.648   0.072
 8790SOL    HW227270   6.095   2.614   0.205
 8791SOL     OW27271   4.468   6.193   5.244
 8791SOL    HW127272   4.510   6.178   5.333
 8791SOL    HW227273   4.472   6.109   5.190
 8792SOL     OW27274   4.293   4.876   1.511
 8792SOL    HW127275   4.273   4.782   1.538
 8792SOL    HW227276   4.296   4.883   1.412
 8793SOL     OW27277   1.185   5.419   3.924
 8793SOL    HW127278   1.191   5.334   3.976
 8793SOL    HW227279   1.241   5.489   3.967
 8794SOL     OW27280   0.001   0.836   2.443
 8794SOL    HW127281   6.958   0.853   2.374
 8794SOL    HW227282   0.029   0.922   2.485
 8795SOL     OW27283   1.396   5.267   5.146
 8795SOL    HW127284   1.484   5.310   5.166
 8795SOL    HW227285   1.401   5.170   5.170
 8796SOL     OW27286   6.782   3.352   3.580
 8796SOL    HW127287   6.807   3.405   3.500
 8796SOL    HW227288   6.770   3.413   3.658
 8797SOL     OW27289   6.689   7.014   3.172
 8797SOL    HW127290   6.746   6.991   3.251
 8797SOL    HW227291   6.644   6.931   3.139
 8798SOL     OW27292   4.477   6.674   4.984
 8798SOL    HW127293   4.392   6.668   4.931
 8798SOL    HW227294   4.512   6.582   5.001
 8799SOL     OW27295   2.291   5.270   2.181
 8799SOL    HW127296   2.365   5.202   2.183
 8799SOL    HW227297   2.307   5.339   2.252
 8800SOL     OW27298   6.862   5.828   5.581
 8800SOL    HW127299   6.829   5.877   5.661
 8800SOL    HW227300   6.863   5.730   5.600
 8801SOL     OW27301   6.167   2.239   5.037
 8801SOL    HW127302   6.184   2.177   5.115
 8801SOL    HW227303   6.243   2.232   4.972
 8802SOL     OW27304   1.450   5.886   5.932
 8802SOL    HW127305   1.379   5.936   5.884
 8802SOL    HW227306   1.438   5.897   6.031
 8803SOL     OW27307   6.250   0.627   0.132
 8803SOL    HW127308   6.253   0.627   0.032
 8803SOL    HW227309   6.327   0.681   0.168
 8804SOL     OW27310   1.974   5.913   1.068
 8804SOL    HW127311   1.898   5.952   1.016
 8804SOL    HW227312   2.036   5.986   1.097
 8805SOL     OW27313   4.847   5.814   2.935
 8805SOL    HW127314   4.795   5.754   2.996
 8805SOL    HW227315   4.788   5.887   2.901
 8806SOL     OW27316   2.700   5.917   0.124
 8806SOL    HW127317   2.697   5.943   0.221
 8806SOL    HW227318   2.701   5.999   0.067
 8807SOL     OW27319   4.841   2.712   0.721
 8807SOL    HW127320   4.819   2.622   0.759
 8807SOL    HW227321   4.792   2.783   0.772
 8808SOL     OW27322   2.026   2.484   0.365
 8808SOL    HW127323   2.105   2.445   0.412
 8808SOL    HW227324   1.958   2.413   0.347
 8809SOL     OW27325   2.101   3.809   3.499
 8809SOL    HW127326   2.021   3.759   3.467
 8809SOL    HW227327   2.123   3.781   3.593
 8810SOL     OW27328   6.850   1.371   5.902
 8810SOL    HW127329   6.947   1.367   5.879
 8810SOL    HW227330   6.813   1.278   5.905
 8811SOL     OW27331   4.299   0.161   2.607
 8811SOL    HW127332   4.219   0.216   2.584
 8811SOL    HW227333   4.289   0.123   2.699
 8812SOL     OW27334   3.489   1.056   6.389
 8812SOL    HW127335   3.503   0.993   6.312
 8812SOL    HW227336   3.392   1.064   6.409
 8813SOL     OW27337   2.092   4.239   2.917
 8813SOL    HW127338   2.094   4.224   3.016
 8813SOL    HW227339   2.180   4.277   2.887
 8814SOL     OW27340   5.962   7.005   0.319
 8814SOL    HW127341   5.889   6.961   0.267
 8814SOL    HW227342   5.924   0.055   0.373
 8815SOL     OW27343   5.274   0.892   0.778
 8815SOL    HW127344   5.229   0.910   0.866
 8815SOL    HW227345   5.368   0.863   0.794
 8816SOL     OW27346   0.489   6.425   5.980
 8816SOL    HW127347   0.585   6.398   5.984
 8816SOL    HW227348   0.437   6.355   5.930
 8817SOL     OW27349   1.164   3.292   4.963
 8817SOL    HW127350   1.077   3.338   4.945
 8817SOL    HW227351   1.149   3.194   4.970
 8818SOL     OW27352   2.089   6.803   3.887
 8818SOL    HW127353   2.000   6.808   3.933
 8818SOL    HW227354   2.158   6.770   3.951
 8819SOL     OW27355   5.755   4.253   6.012
 8819SOL    HW127356   5.729   4.219   6.102
 8819SOL    HW227357   5.835   4.204   5.979
 8820SOL     OW27358   3.467   1.358   4.819
 8820SOL    HW127359   3.459   1.420   4.896
 8820SOL    HW227360   3.540   1.389   4.758
 8821SOL     OW27361   1.597   5.003   1.116
 8821SOL    HW127362   1.687   4.961   1.129
 8821SOL    HW227363   1.607   5.087   1.063
 8822SOL     OW27364   6.639   6.843   4.090
 8822SOL    HW127365   6.635   6.937   4.125
 8822SOL    HW227366   6.554   6.821   4.044
 8823SOL     OW27367   2.796   1.341   3.503
 8823SOL    HW127368   2.828   1.247   3.513
 8823SOL    HW227369   2.874   1.401   3.486
 8824SOL     OW27370   1.552   0.322   0.772
 8824SOL    HW127371   1.509   0.412   0.773
 8824SOL    HW227372   1.491   0.257   0.726
 8825SOL     OW27373   0.366   0.347   0.746
 8825SOL    HW127374   0.322   0.436   0.757
 8825SOL    HW227375   0.444   0.341   0.810
 8826SOL     OW27376   0.927   3.551   0.785
 8826SOL    HW127377   0.916   3.451   0.782
 8826SOL    HW227378   1.004   3.573   0.845
 8827SOL     OW27379   4.028   0.538   2.293
 8827SOL    HW127380   3.974   0.606   2.244
 8827SOL    HW227381   4.060   0.576   2.379
 8828SOL     OW27382   4.312   3.637   5.818
 8828SOL    HW127383   4.340   3.670   5.727
 8828SOL    HW227384   4.367   3.558   5.844
 8829SOL     OW27385   0.177   1.422   2.433
 8829SOL    HW127386   0.092   1.380   2.400
 8829SOL    HW227387   0.155   1.495   2.498
 8830SOL     OW27388   2.879   1.732   3.067
 8830SOL    HW127389   2.835   1.812   3.108
 8830SOL    HW227390   2.818   1.653   3.073
 8831SOL     OW27391   0.373   2.042   2.526
 8831SOL    HW127392   0.435   2.008   2.455
 8831SOL    HW227393   0.402   2.134   2.553
 8832SOL     OW27394   6.534   0.005   3.816
 8832SOL    HW127395   6.558   6.940   3.784
 8832SOL    HW227396   6.443   0.003   3.857
 8833SOL     OW27397   3.771   2.324   1.225
 8833SOL    HW127398   3.780   2.309   1.323
 8833SOL    HW227399   3.742   2.240   1.180
 8834SOL     OW27400   5.826   3.836   5.683
 8834SOL    HW127401   5.766   3.787   5.747
 8834SOL    HW227402   5.832   3.784   5.598
 8835SOL     OW27403   5.869   0.666   5.861
 8835SOL    HW127404   5.907   0.590   5.915
 8835SOL    HW227405   5.911   0.666   5.771
 8836SOL     OW27406   5.312   2.615   6.647
 8836SOL    HW127407   5.375   2.614   6.724
 8836SOL    HW227408   5.259   2.531   6.645
 8837SOL     OW27409   6.732   6.734   1.896
 8837SOL    HW127410   6.658   6.736   1.828
 8837SOL    HW227411   6.798   6.663   1.872
 8838SOL     OW27412   0.570   4.253   2.728
 8838SOL    HW127413   0.587   4.235   2.825
 8838SOL    HW227414   0.652   4.229   2.675
 8839SOL     OW27415   5.389   5.665   2.715
 8839SOL    HW127416   5.466   5.669   2.779
 8839SOL    HW227417   5.403   5.732   2.642
 8840SOL     OW27418   0.433   0.841   1.715
 8840SOL    HW127419   0.489   0.775   1.665
 8840SOL    HW227420   0.365   0.881   1.654
 8841SOL     OW27421   3.959   0.849   1.686
 8841SOL    HW127422   4.005   0.764   1.711
 8841SOL    HW227423   4.028   0.919   1.664
 8842SOL     OW27424   3.722   3.692   3.955
 8842SOL    HW127425   3.782   3.769   3.978
 8842SOL    HW227426   3.647   3.689   4.020
 8843SOL     OW27427   2.033   3.729   5.526
 8843SOL    HW127428   2.024   3.633   5.499
 8843SOL    HW227429   2.119   3.743   5.574
 8844SOL     OW27430   5.953   2.061   5.243
 8844SOL    HW127431   5.946   2.086   5.339
 8844SOL    HW227432   6.049   2.047   5.218
 8845SOL     OW27433   2.065   5.436   1.342
 8845SOL    HW127434   2.071   5.529   1.306
 8845SOL    HW227435   2.123   5.375   1.288
 8846SOL     OW27436   5.063   4.299   3.875
 8846SOL    HW127437   5.101   4.366   3.811
 8846SOL    HW227438   5.101   4.209   3.854
 8847SOL     OW27439   2.052   2.263   2.850
 8847SOL    HW127440   2.115   2.193   2.882
 8847SOL    HW227441   1.984   2.223   2.789
 8848SOL     OW27442   2.851   1.814   1.407
 8848SOL    HW127443   2.868   1.793   1.503
 8848SOL    HW227444   2.779   1.754   1.372
 8849SOL     OW27445   3.422   5.739   4.463
 8849SOL    HW127446   3.391   5.814   4.404
 8849SOL    HW227447   3.353   5.722   4.534
 8850SOL     OW27448   2.739   1.740   0.782
 8850SOL    HW127449   2.795   1.686   0.719
 8850SOL    HW227450   2.728   1.689   0.868
 8851SOL     OW27451   1.555   4.207   2.951
 8851SOL    HW127452   1.609   4.290   2.967
 8851SOL    HW227453   1.484   4.227   2.884
 8852SOL     OW27454   5.336   2.742   6.076
 8852SOL    HW127455   5.239   2.720   6.075
 8852SOL    HW227456   5.359   2.796   5.994
 8853SOL     OW27457   4.082   1.699   5.132
 8853SOL    HW127458   4.121   1.666   5.046
 8853SOL    HW227459   3.987   1.667   5.141
 8854SOL     OW27460   1.271   1.123   6.175
 8854SOL    HW127461   1.261   1.157   6.081
 8854SOL    HW227462   1.224   1.185   6.237
 8855SOL     OW27463   6.174   5.751   6.768
 8855SOL    HW127464   6.274   5.740   6.774
 8855SOL    HW227465   6.140   5.700   6.688
 8856SOL     OW27466   6.408   0.675   4.826
 8856SOL    HW127467   6.353   0.758   4.818
 8856SOL    HW227468   6.349   0.595   4.817
 8857SOL     OW27469   6.768   1.740   3.295
 8857SOL    HW127470   6.687   1.690   3.326
 8857SOL    HW227471   6.841   1.675   3.273
 8858SOL     OW27472   0.663   4.132   5.842
 8858SOL    HW127473   0.674   4.136   5.743
 8858SOL    HW227474   0.581   4.182   5.869
 8859SOL     OW27475   1.105   6.668   5.352
 8859SOL    HW127476   1.023   6.724   5.341
 8859SOL    HW227477   1.177   6.702   5.291
 8860SOL     OW27478   1.458   2.858   2.678
 8860SOL    HW127479   1.401   2.938   2.659
 8860SOL    HW227480   1.521   2.879   2.753
 8861SOL     OW27481   3.515   2.884   6.704
 8861SOL    HW127482   3.549   2.972   6.671
 8861SOL    HW227483   3.423   2.894   6.741
 8862SOL     OW27484   6.031   1.897   4.863
 8862SOL    HW127485   6.121   1.939   4.861
 8862SOL    HW227486   5.983   1.917   4.778
 8863SOL     OW27487   1.934   5.741   4.731
 8863SOL    HW127488   1.984   5.707   4.811
 8863SOL    HW227489   1.892   5.829   4.753
 8864SOL     OW27490   2.085   3.587   6.658
 8864SOL    HW127491   2.015   3.606   6.589
 8864SOL    HW227492   2.117   3.673   6.698
 8865SOL     OW27493   2.471   1.621   5.114
 8865SOL    HW127494   2.394   1.660   5.165
 8865SOL    HW227495   2.557   1.657   5.150
 8866SOL     OW27496   4.086   6.357   3.273
 8866SOL    HW127497   4.042   6.292   3.335
 8866SOL    HW227498   4.044   6.447   3.283
 8867SOL     OW27499   5.871   2.469   2.792
 8867SOL    HW127500   5.808   2.437   2.722
 8867SOL    HW227501   5.962   2.481   2.753
 8868SOL     OW27502   4.838   3.753   0.312
 8868SOL    HW127503   4.764   3.769   0.246
 8868SOL    HW227504   4.903   3.828   0.308
 8869SOL     OW27505   4.819   3.912   3.519
 8869SOL    HW127506   4.859   3.986   3.465
 8869SOL    HW227507   4.773   3.950   3.599
 8870SOL     OW27508   3.475   1.119   1.181
 8870SOL    HW127509   3.413   1.195   1.199
 8870SOL    HW227510   3.482   1.104   1.083
 8871SOL     OW27511   1.444   1.612   3.712
 8871SOL    HW127512   1.447   1.512   3.708
 8871SOL    HW227513   1.507   1.645   3.782
 8872SOL     OW27514   1.953   4.632   3.829
 8872SOL    HW127515   1.926   4.621   3.924
 8872SOL    HW227516   2.008   4.554   3.800
 8873SOL     OW27517   0.392   6.039   3.142
 8873SOL    HW127518   0.481   6.078   3.117
 8873SOL    HW227519   0.405   5.946   3.176
 8874SOL     OW27520   1.955   6.878   1.158
 8874SOL    HW127521   1.926   6.957   1.104
 8874SOL    HW227522   2.003   6.911   1.240
 8875SOL     OW27523   1.416   2.520   4.429
 8875SOL    HW127524   1.484   2.579   4.384
 8875SOL    HW227525   1.432   2.425   4.401
 8876SOL     OW27526   6.930   1.254   4.730
 8876SOL    HW127527   6.930   1.224   4.826
 8876SOL    HW227528   7.017   1.229   4.687
 8877SOL     OW27529   3.206   0.567   4.173
 8877SOL    HW127530   3.173   0.561   4.078
 8877SOL    HW227531   3.127   0.566   4.235
 8878SOL     OW27532   0.019   4.671   0.680
 8878SOL    HW127533   0.055   4.578   0.687
 8878SOL    HW227534   7.020   4.691   0.585
 8879SOL     OW27535   5.062   5.768   0.234
 8879SOL    HW127536   5.095   5.686   0.281
 8879SOL    HW227537   5.116   5.783   0.151
 8880SOL     OW27538   6.929   5.329   4.573
 8880SOL    HW127539   7.006   5.382   4.609
 8880SOL    HW227540   6.872   5.387   4.515
 8881SOL     OW27541   6.409   1.161   2.834
 8881SOL    HW127542   6.486   1.207   2.879
 8881SOL    HW227543   6.444   1.097   2.766
 8882SOL     OW27544   5.524   1.121   0.050
 8882SOL    HW127545   5.622   1.135   0.065
 8882SOL    HW227546   5.477   1.209   0.050
 8883SOL     OW27547   0.378   1.100   6.258
 8883SOL    HW127548   0.343   1.019   6.211
 8883SOL    HW227549   0.328   1.181   6.227
 8884SOL     OW27550   5.655   6.544   6.332
 8884SOL    HW127551   5.683   6.639   6.347
 8884SOL    HW227552   5.715   6.483   6.384
 8885SOL     OW27553   6.294   3.774   1.404
 8885SOL    HW127554   6.350   3.856   1.391
 8885SOL    HW227555   6.200   3.802   1.428
 8886SOL     OW27556   2.704   6.604   5.572
 8886SOL    HW127557   2.705   6.543   5.651
 8886SOL    HW227558   2.669   6.694   5.599
 8887SOL     OW27559   2.774   1.019   0.966
 8887SOL    HW127560   2.832   0.939   0.952
 8887SOL    HW227561   2.684   0.990   0.997
 8888SOL     OW27562   0.940   2.068   1.324
 8888SOL    HW127563   0.954   2.126   1.243
 8888SOL    HW227564   0.939   1.972   1.296
 8889SOL     OW27565   5.336   6.949   4.941
 8889SOL    HW127566   5.315   6.851   4.941
 8889SOL    HW227567   5.321   6.986   4.849
 8890SOL     OW27568   6.584   5.599   4.220
 8890SOL    HW127569   6.642   5.658   4.275
 8890SOL    HW227570   6.561   5.516   4.272
 8891SOL     OW27571   5.682   3.179   6.760
 8891SOL    HW127572   5.688   3.237   6.841
 8891SOL    HW227573   5.766   3.126   6.750
 8892SOL     OW27574   2.436   6.971   3.125
 8892SOL    HW127575   2.496   6.945   3.050
 8892SOL    HW227576   2.387   6.890   3.158
 8893SOL     OW27577   0.274   1.254   1.712
 8893SOL    HW127578   0.338   1.329   1.700
 8893SOL    HW227579   0.264   1.204   1.626
 8894SOL     OW27580   4.302   2.791   5.995
 8894SOL    HW127581   4.276   2.857   5.925
 8894SOL    HW227582   4.233   2.788   6.067
 8895SOL     OW27583   0.452   6.979   1.481
 8895SOL    HW127584   0.444   7.021   1.571
 8895SOL    HW227585   0.368   6.928   1.460
 8896SOL     OW27586   1.634   3.562   5.536
 8896SOL    HW127587   1.569   3.638   5.540
 8896SOL    HW227588   1.705   3.582   5.470
 8897SOL     OW27589   1.654   1.347   2.309
 8897SOL    HW127590   1.657   1.447   2.319
 8897SOL    HW227591   1.633   1.324   2.214
 8898SOL     OW27592   6.341   3.373   4.495
 8898SOL    HW127593   6.334   3.343   4.590
 8898SOL    HW227594   6.308   3.301   4.435
 8899SOL     OW27595   1.937   4.138   6.698
 8899SOL    HW127596   2.026   4.182   6.683
 8899SOL    HW227597   1.949   4.053   6.748
 8900SOL     OW27598   5.071   2.835   3.381
 8900SOL    HW127599   5.118   2.920   3.357
 8900SOL    HW227600   5.084   2.769   3.307
 8901SOL     OW27601   1.688   0.839   2.802
 8901SOL    HW127602   1.761   0.906   2.797
 8901SOL    HW227603   1.647   0.841   2.894
 8902SOL     OW27604   2.382   5.345   6.501
 8902SOL    HW127605   2.391   5.436   6.459
 8902SOL    HW227606   2.449   5.283   6.459
 8903SOL     OW27607   2.572   1.402   3.976
 8903SOL    HW127608   2.594   1.344   3.898
 8903SOL    HW227609   2.641   1.474   3.985
 8904SOL     OW27610   6.915   5.484   3.447
 8904SOL    HW127611   6.883   5.496   3.353
 8904SOL    HW227612   6.841   5.507   3.511
 8905SOL     OW27613   2.362   3.282   5.263
 8905SOL    HW127614   2.418   3.345   5.318
 8905SOL    HW227615   2.414   3.199   5.244
 8906SOL     OW27616   6.630   6.473   6.317
 8906SOL    HW127617   6.704   6.412   6.289
 8906SOL    HW227618   6.619   6.545   6.250
 8907SOL     OW27619   3.274   2.587   5.286
 8907SOL    HW127620   3.248   2.501   5.241
 8907SOL    HW227621   3.203   2.612   5.352
 8908SOL     OW27622   1.593   1.992   0.561
 8908SOL    HW127623   1.580   1.915   0.623
 8908SOL    HW227624   1.668   1.973   0.497
 8909SOL     OW27625   3.266   0.119   5.668
 8909SOL    HW127626   3.272   0.030   5.624
 8909SOL    HW227627   3.322   0.185   5.619
 8910SOL     OW27628   2.935   3.309   6.042
 8910SOL    HW127629   2.971   3.382   6.099
 8910SOL    HW227630   2.987   3.225   6.058
 8911SOL     OW27631   2.952   2.231   4.292
 8911SOL    HW127632   3.036   2.177   4.282
 8911SOL    HW227633   2.946   2.266   4.385
 8912SOL     OW27634   4.441   1.745   6.257
 8912SOL    HW127635   4.360   1.688   6.250
 8912SOL    HW227636   4.429   1.828   6.202
 8913SOL     OW27637   5.272   4.158   1.558
 8913SOL    HW127638   5.283   4.186   1.653
 8913SOL    HW227639   5.236   4.064   1.554
 8914SOL     OW27640   4.425   1.200   5.011
 8914SOL    HW127641   4.386   1.272   5.068
 8914SOL    HW227642   4.516   1.176   5.046
 8915SOL     OW27643   1.852   3.296   3.803
 8915SOL    HW127644   1.788   3.366   3.832
 8915SOL    HW227645   1.940   3.310   3.850
 8916SOL     OW27646   0.229   4.436   2.291
 8916SOL    HW127647   0.177   4.350   2.295
 8916SOL    HW227648   0.322   4.417   2.261
 8917SOL     OW27649   6.226   5.435   6.712
 8917SOL    HW127650   6.317   5.444   6.673
 8917SOL    HW227651   6.161   5.491   6.659
 8918SOL     OW27652   5.971   6.197   6.865
 8918SOL    HW127653   6.050   6.235   6.817
 8918SOL    HW227654   5.902   6.169   6.798
 8919SOL     OW27655   3.655   3.855   0.767
 8919SOL    HW127656   3.658   3.921   0.842
 8919SOL    HW227657   3.731   3.790   0.777
 8920SOL     OW27658   6.365   5.685   6.227
 8920SOL    HW127659   6.373   5.738   6.311
 8920SOL    HW227660   6.421   5.603   6.233
 8921SOL     OW27661   1.172   1.069   3.556
 8921SOL    HW127662   1.216   1.012   3.626
 8921SOL    HW227663   1.073   1.061   3.564
 8922SOL     OW27664   2.671   4.890   1.107
 8922SOL    HW127665   2.739   4.872   1.035
 8922SOL    HW227666   2.652   4.806   1.157
 8923SOL     OW27667   1.549   3.834   0.027
 8923SOL    HW127668   1.625   3.773   0.047
 8923SOL    HW227669   1.463   3.784   0.036
 8924SOL     OW27670   2.550   5.209   5.763
 8924SOL    HW127671   2.460   5.212   5.808
 8924SOL    HW227672   2.544   5.249   5.672
 8925SOL     OW27673   0.672   6.959   2.225
 8925SOL    HW127674   0.695   0.019   2.269
 8925SOL    HW227675   0.755   6.914   2.192
 8926SOL     OW27676   5.507   2.470   2.176
 8926SOL    HW127677   5.415   2.461   2.138
 8926SOL    HW227678   5.551   2.552   2.139
 8927SOL     OW27679   2.437   2.637   4.878
 8927SOL    HW127680   2.404   2.729   4.856
 8927SOL    HW227681   2.504   2.642   4.952
 8928SOL     OW27682   0.404   0.784   5.608
 8928SOL    HW127683   0.372   0.726   5.683
 8928SOL    HW227684   0.390   0.739   5.521
 8929SOL     OW27685   0.294   3.515   4.105
 8929SOL    HW127686   0.229   3.573   4.154
 8929SOL    HW227687   0.361   3.479   4.170
 8930SOL     OW27688   1.364   5.009   5.241
 8930SOL    HW127689   1.277   4.989   5.286
 8930SOL    HW227690   1.386   4.936   5.176
 8931SOL     OW27691   4.827   2.498   1.281
 8931SOL    HW127692   4.796   2.527   1.190
 8931SOL    HW227693   4.748   2.482   1.340
 8932SOL     OW27694   5.705   6.823   6.380
 8932SOL    HW127695   5.628   6.824   6.444
 8932SOL    HW227696   5.670   6.815   6.287
 8933SOL     OW27697   1.083   1.151   5.167
 8933SOL    HW127698   1.086   1.136   5.266
 8933SOL    HW227699   1.104   1.066   5.119
 8934SOL     OW27700   3.447   5.163   3.129
 8934SOL    HW127701   3.437   5.173   3.030
 8934SOL    HW227702   3.456   5.066   3.152
 8935SOL     OW27703   4.964   3.323   2.385
 8935SOL    HW127704   5.052   3.283   2.409
 8935SOL    HW227705   4.912   3.341   2.469
 8936SOL     OW27706   0.178   3.978   0.907
 8936SOL    HW127707   0.179   3.906   0.837
 8936SOL    HW227708   0.095   4.032   0.898
 8937SOL     OW27709   0.485   0.078   3.914
 8937SOL    HW127710   0.461   0.172   3.939
 8937SOL    HW227711   0.411   0.017   3.940
 8938SOL     OW27712   6.089   0.944   0.684
 8938SOL    HW127713   6.054   0.887   0.758
 8938SOL    HW227714   6.072   0.900   0.596
 8939SOL     OW27715   6.884   2.746   4.894
 8939SOL    HW127716   6.888   2.767   4.992
 8939SOL    HW227717   6.880   2.831   4.842
 8940SOL     OW27718   6.616   3.554   0.560
 8940SOL    HW127719   6.585   3.490   0.630
 8940SOL    HW227720   6.560   3.637   0.564
 8941SOL     OW27721   4.978   2.401   2.091
 8941SOL    HW127722   5.016   2.322   2.042
 8941SOL    HW227723   4.889   2.425   2.052
 8942SOL     OW27724   6.992   5.107   3.578
 8942SOL    HW127725   7.022   5.020   3.617
 8942SOL    HW227726   0.046   5.158   3.545
 8943SOL     OW27727   4.463   3.419   0.278
 8943SOL    HW127728   4.447   3.354   0.204
 8943SOL    HW227729   4.559   3.448   0.276
 8944SOL     OW27730   4.533   5.415   4.337
 8944SOL    HW127731   4.625   5.439   4.306
 8944SOL    HW227732   4.483   5.371   4.262
 8945SOL     OW27733   5.849   3.685   5.108
 8945SOL    HW127734   5.949   3.683   5.109
 8945SOL    HW227735   5.817   3.750   5.039
 8946SOL     OW27736   4.891   0.910   4.142
 8946SOL    HW127737   4.829   0.831   4.149
 8946SOL    HW227738   4.982   0.883   4.172
 8947SOL     OW27739   1.008   4.730   6.703
 8947SOL    HW127740   0.982   4.634   6.694
 8947SOL    HW227741   1.055   4.760   6.620
 8948SOL     OW27742   6.063   0.001   4.080
 8948SOL    HW127743   6.059   6.980   3.992
 8948SOL    HW227744   5.971   0.032   4.105
 8949SOL     OW27745   3.499   6.301   0.210
 8949SOL    HW127746   3.443   6.226   0.244
 8949SOL    HW227747   3.441   6.379   0.188
 8950SOL     OW27748   4.690   4.313   1.535
 8950SOL    HW127749   4.730   4.284   1.448
 8950SOL    HW227750   4.592   4.327   1.523
 8951SOL     OW27751   2.271   1.111   4.100
 8951SOL    HW127752   2.199   1.118   4.031
 8951SOL    HW227753   2.291   1.203   4.135
 8952SOL     OW27754   2.269   4.645   3.426
 8952SOL    HW127755   2.250   4.739   3.399
 8952SOL    HW227756   2.348   4.643   3.487
 8953SOL     OW27757   2.598   5.319   2.137
 8953SOL    HW127758   2.683   5.312   2.085
 8953SOL    HW227759   2.562   5.227   2.155
 8954SOL     OW27760   1.246   6.003   4.529
 8954SOL    HW127761   1.154   6.039   4.516
 8954SOL    HW227762   1.241   5.906   4.553
 8955SOL     OW27763   5.838   3.198   3.134
 8955SOL    HW127764   5.867   3.132   3.065
 8955SOL    HW227765   5.756   3.165   3.180
 8956SOL     OW27766   0.636   6.641   6.141
 8956SOL    HW127767   0.639   6.631   6.042
 8956SOL    HW227768   0.608   6.734   6.165
 8957SOL     OW27769   1.229   5.573   2.373
 8957SOL    HW127770   1.291   5.549   2.447
 8957SOL    HW227771   1.283   5.604   2.294
 8958SOL     OW27772   1.538   3.871   5.757
 8958SOL    HW127773   1.634   3.855   5.733
 8958SOL    HW227774   1.479   3.832   5.687
 8959SOL     OW27775   0.840   3.476   1.998
 8959SOL    HW127776   0.871   3.508   2.088
 8959SOL    HW227777   0.856   3.378   1.990
 8960SOL     OW27778   6.598   3.699   4.099
 8960SOL    HW127779   6.661   3.765   4.059
 8960SOL    HW227780   6.650   3.625   4.142
 8961SOL     OW27781   3.014   6.259   4.723
 8961SOL    HW127782   2.990   6.257   4.820
 8961SOL    HW227783   3.001   6.168   4.683
 8962SOL     OW27784   1.115   5.525   1.271
 8962SOL    HW127785   1.206   5.513   1.229
 8962SOL    HW227786   1.045   5.504   1.203
 8963SOL     OW27787   3.540   6.004   4.621
 8963SOL    HW127788   3.451   6.043   4.642
 8963SOL    HW227789   3.548   5.991   4.522
 8964SOL     OW27790   6.468   3.742   3.483
 8964SOL    HW127791   6.371   3.738   3.506
 8964SOL    HW227792   6.495   3.659   3.435
 8965SOL     OW27793   4.387   4.959   0.543
 8965SOL    HW127794   4.359   4.981   0.636
 8965SOL    HW227795   4.386   5.043   0.488
 8966SOL     OW27796   5.181   5.186   6.180
 8966SOL    HW127797   5.205   5.280   6.158
 8966SOL    HW227798   5.260   5.127   6.165
 8967SOL     OW27799   3.218   0.832   2.815
 8967SOL    HW127800   3.211   0.893   2.894
 8967SOL    HW227801   3.219   0.886   2.731
 8968SOL     OW27802   3.071   4.995   1.630
 8968SOL    HW127803   2.999   4.927   1.648
 8968SOL    HW227804   3.044   5.052   1.553
 8969SOL     OW27805   6.739   0.551   3.158
 8969SOL    HW127806   6.648   0.591   3.150
 8969SOL    HW227807   6.792   0.603   3.225
 8970SOL     OW27808   0.990   1.347   6.364
 8970SOL    HW127809   0.904   1.299   6.348
 8970SOL    HW227810   1.020   1.392   6.280
 8971SOL     OW27811   4.371   5.710   0.871
 8971SOL    HW127812   4.300   5.662   0.923
 8971SOL    HW227813   4.447   5.732   0.931
 8972SOL     OW27814   5.826   5.106   0.376
 8972SOL    HW127815   5.872   5.091   0.464
 8972SOL    HW227816   5.894   5.111   0.303
 8973SOL     OW27817   1.112   2.145   1.881
 8973SOL    HW127818   1.056   2.173   1.959
 8973SOL    HW227819   1.091   2.202   1.802
 8974SOL     OW27820   2.153   4.164   4.392
 8974SOL    HW127821   2.218   4.193   4.323
 8974SOL    HW227822   2.061   4.162   4.354
 8975SOL     OW27823   0.613   0.219   6.371
 8975SOL    HW127824   0.707   0.235   6.340
 8975SOL    HW227825   0.614   0.188   6.466
 8976SOL     OW27826   6.663   0.307   1.632
 8976SOL    HW127827   6.615   0.394   1.615
 8976SOL    HW227828   6.761   0.325   1.639
 8977SOL     OW27829   0.206   5.042   6.473
 8977SOL    HW127830   0.302   5.071   6.466
 8977SOL    HW227831   0.157   5.064   6.389
 8978SOL     OW27832   5.865   6.019   5.799
 8978SOL    HW127833   5.872   6.103   5.746
 8978SOL    HW227834   5.952   6.002   5.845
 8979SOL     OW27835   0.118   5.864   6.279
 8979SOL    HW127836   0.166   5.913   6.207
 8979SOL    HW227837   0.185   5.815   6.336
 8980SOL     OW27838   4.197   1.403   5.043
 8980SOL    HW127839   4.243   1.479   5.090
 8980SOL    HW227840   4.153   1.437   4.960
 8981SOL     OW27841   4.509   2.281   6.508
 8981SOL    HW127842   4.436   2.327   6.458
 8981SOL    HW227843   4.597   2.319   6.481
 8982SOL     OW27844   6.380   1.209   1.598
 8982SOL    HW127845   6.429   1.209   1.685
 8982SOL    HW227846   6.322   1.290   1.592
 8983SOL     OW27847   1.281   5.284   2.954
 8983SOL    HW127848   1.340   5.256   2.878
 8983SOL    HW227849   1.301   5.380   2.978
 8984SOL     OW27850   5.837   0.526   4.551
 8984SOL    HW127851   5.781   0.526   4.468
 8984SOL    HW227852   5.918   0.582   4.536
 8985SOL     OW27853   4.892   2.092   0.575
 8985SOL    HW127854   4.817   2.056   0.520
 8985SOL    HW227855   4.864   2.096   0.671
 8986SOL     OW27856   6.083   4.386   2.003
 8986SOL    HW127857   6.172   4.340   2.005
 8986SOL    HW227858   6.059   4.409   1.909
 8987SOL     OW27859   2.578   6.820   1.455
 8987SOL    HW127860   2.486   6.854   1.477
 8987SOL    HW227861   2.574   6.722   1.438
 8988SOL     OW27862   2.262   5.358   1.174
 8988SOL    HW127863   2.231   5.384   1.082
 8988SOL    HW227864   2.297   5.264   1.171
 8989SOL     OW27865   5.195   2.467   2.704
 8989SOL    HW127866   5.204   2.400   2.631
 8989SOL    HW227867   5.169   2.555   2.665
 8990SOL     OW27868   3.622   6.455   1.295
 8990SOL    HW127869   3.592   6.479   1.203
 8990SOL    HW227870   3.546   6.412   1.345
 8991SOL     OW27871   2.157   2.305   0.541
 8991SOL    HW127872   2.091   2.233   0.521
 8991SOL    HW227873   2.241   2.264   0.576
 8992SOL     OW27874   0.521   3.326   0.085
 8992SOL    HW127875   0.597   3.359   0.029
 8992SOL    HW227876   0.501   3.231   0.061
 8993SOL     OW27877   5.305   2.165   3.441
 8993SOL    HW127878   5.283   2.149   3.345
 8993SOL    HW227879   5.398   2.200   3.449
 8994SOL     OW27880   1.509   5.514   3.971
 8994SOL    HW127881   1.541   5.516   3.876
 8994SOL    HW227882   1.441   5.586   3.985
 8995SOL     OW27883   1.787   3.312   5.592
 8995SOL    HW127884   1.809   3.356   5.679
 8995SOL    HW227885   1.711   3.361   5.549
 8996SOL     OW27886   0.486   3.931   2.362
 8996SOL    HW127887   0.456   4.026   2.375
 8996SOL    HW227888   0.438   3.891   2.284
 8997SOL     OW27889   4.874   1.245   5.679
 8997SOL    HW127890   4.883   1.146   5.666
 8997SOL    HW227891   4.912   1.292   5.599
 8998SOL     OW27892   1.570   3.116   5.713
 8998SOL    HW127893   1.638   3.057   5.670
 8998SOL    HW227894   1.601   3.211   5.711
 8999SOL     OW27895   5.273   1.428   5.830
 8999SOL    HW127896   5.184   1.383   5.837
 8999SOL    HW227897   5.284   1.490   5.908
 9000SOL     OW27898   3.540   4.018   0.577
 9000SOL    HW127899   3.587   3.951   0.634
 9000SOL    HW227900   3.540   4.107   0.624
 9001SOL     OW27901   2.449   4.900   3.639
 9001SOL    HW127902   2.404   4.860   3.719
 9001SOL    HW227903   2.393   4.976   3.603
 9002SOL     OW27904   5.872   4.609   5.580
 9002SOL    HW127905   5.898   4.573   5.669
 9002SOL    HW227906   5.942   4.586   5.513
 9003SOL     OW27907   6.274   3.160   7.007
 9003SOL    HW127908   6.307   3.080   0.032
 9003SOL    HW227909   6.239   3.228   0.045
 9004SOL     OW27910   5.123   6.509   1.252
 9004SOL    HW127911   5.084   6.504   1.344
 9004SOL    HW227912   5.111   6.421   1.206
 9005SOL     OW27913   4.613   2.172   3.423
 9005SOL    HW127914   4.669   2.108   3.371
 9005SOL    HW227915   4.516   2.150   3.409
 9006SOL     OW27916   2.020   5.202   0.819
 9006SOL    HW127917   2.111   5.194   0.778
 9006SOL    HW227918   2.028   5.192   0.919
 9007SOL     OW27919   3.323   5.533   4.260
 9007SOL    HW127920   3.397   5.578   4.309
 9007SOL    HW227921   3.241   5.591   4.264
 9008SOL     OW27922   0.057   4.215   1.696
 9008SOL    HW127923   0.146   4.254   1.721
 9008SOL    HW227924   0.007   4.281   1.639
 9009SOL     OW27925   2.653   6.428   0.300
 9009SOL    HW127926   2.618   6.343   0.340
 9009SOL    HW227927   2.746   6.444   0.332
 9010SOL     OW27928   0.530   6.563   4.956
 9010SOL    HW127929   0.550   6.479   5.007
 9010SOL    HW227930   0.431   6.573   4.948
 9011SOL     OW27931   3.900   1.632   1.020
 9011SOL    HW127932   3.870   1.673   1.106
 9011SOL    HW227933   3.840   1.661   0.945
 9012SOL     OW27934   0.985   4.939   1.251
 9012SOL    HW127935   0.935   5.019   1.216
 9012SOL    HW227936   0.949   4.914   1.341
 9013SOL     OW27937   6.256   6.200   3.988
 9013SOL    HW127938   6.328   6.266   4.010
 9013SOL    HW227939   6.225   6.156   4.073
 9014SOL     OW27940   1.207   1.047   0.749
 9014SOL    HW127941   1.120   1.038   0.700
 9014SOL    HW227942   1.279   1.000   0.698
 9015SOL     OW27943   0.110   1.377   5.797
 9015SOL    HW127944   0.140   1.471   5.780
 9015SOL    HW227945   0.179   1.329   5.850
 9016SOL     OW27946   6.554   6.144   6.038
 9016SOL    HW127947   6.606   6.215   6.085
 9016SOL    HW227948   6.606   6.112   5.959
 9017SOL     OW27949   5.781   2.385   3.801
 9017SOL    HW127950   5.843   2.338   3.864
 9017SOL    HW227951   5.821   2.386   3.709
 9018SOL     OW27952   3.059   1.484   5.147
 9018SOL    HW127953   2.992   1.481   5.221
 9018SOL    HW227954   3.105   1.572   5.147
 9019SOL     OW27955   3.083   6.058   0.640
 9019SOL    HW127956   3.033   5.974   0.620
 9019SOL    HW227957   3.161   6.066   0.578
 9020SOL     OW27958   1.645   4.406   2.694
 9020SOL    HW127959   1.732   4.401   2.744
 9020SOL    HW227960   1.573   4.437   2.757
 9021SOL     OW27961   0.074   5.997   4.355
 9021SOL    HW127962   0.046   5.902   4.374
 9021SOL    HW227963   0.040   6.024   4.265
 9022SOL     OW27964   2.966   0.330   0.296
 9022SOL    HW127965   2.873   0.353   0.268
 9022SOL    HW227966   3.018   0.414   0.314
 9023SOL     OW27967   3.416   3.643   3.582
 9023SOL    HW127968   3.339   3.605   3.532
 9023SOL    HW227969   3.496   3.583   3.571
 9024SOL     OW27970   1.687   6.166   6.041
 9024SOL    HW127971   1.773   6.123   6.016
 9024SOL    HW227972   1.656   6.130   6.130
 9025SOL     OW27973   6.173   4.879   1.843
 9025SOL    HW127974   6.217   4.802   1.796
 9025SOL    HW227975   6.105   4.844   1.907
 9026SOL     OW27976   3.507   2.880   4.205
 9026SOL    HW127977   3.453   2.823   4.268
 9026SOL    HW227978   3.569   2.938   4.257
 9027SOL     OW27979   2.321   2.151   2.886
 9027SOL    HW127980   2.321   2.227   2.951
 9027SOL    HW227981   2.391   2.084   2.913
 9028SOL     OW27982   2.353   4.167   6.055
 9028SOL    HW127983   2.387   4.234   6.120
 9028SOL    HW227984   2.410   4.084   6.059
 9029SOL     OW27985   4.936   5.458   3.765
 9029SOL    HW127986   5.015   5.484   3.819
 9029SOL    HW227987   4.923   5.523   3.690
 9030SOL     OW27988   2.238   0.926   2.318
 9030SOL    HW127989   2.277   0.990   2.385
 9030SOL    HW227990   2.312   0.877   2.272
 9031SOL     OW27991   2.789   6.150   5.865
 9031SOL    HW127992   2.757   6.066   5.823
 9031SOL    HW227993   2.865   6.131   5.926
 9032SOL     OW27994   2.649   2.410   1.914
 9032SOL    HW127995   2.749   2.414   1.914
 9032SOL    HW227996   2.617   2.371   2.000
 9033SOL     OW27997   1.775   3.329   4.162
 9033SOL    HW127998   1.857   3.344   4.107
 9033SOL    HW227999   1.762   3.405   4.225
 9034SOL     OW28000   2.418   6.727   5.285
 9034SOL    HW128001   2.413   6.818   5.242
 9034SOL    HW228002   2.383   6.733   5.378
 9035SOL     OW28003   0.005   0.203   4.758
 9035SOL    HW128004   6.965   0.266   4.797
 9035SOL    HW228005   7.007   0.184   4.662
 9036SOL     OW28006   1.548   2.307   5.763
 9036SOL    HW128007   1.558   2.256   5.678
 9036SOL    HW228008   1.503   2.394   5.745
 9037SOL     OW28009   2.336   4.133   6.469
 9037SOL    HW128010   2.389   4.171   6.393
 9037SOL    HW228011   2.281   4.204   6.511
 9038SOL     OW28012   4.960   0.250   5.365
 9038SOL    HW128013   4.861   0.236   5.363
 9038SOL    HW228014   4.982   0.336   5.319
 9039SOL     OW28015   2.112   5.043   5.125
 9039SOL    HW128016   2.172   5.090   5.060
 9039SOL    HW228017   2.022   5.029   5.084
 9040SOL     OW28018   2.642   1.700   2.521
 9040SOL    HW128019   2.562   1.743   2.480
 9040SOL    HW228020   2.711   1.770   2.539
 9041SOL     OW28021   1.157   2.344   1.355
 9041SOL    HW128022   1.115   2.259   1.385
 9041SOL    HW228023   1.119   2.372   1.267
 9042SOL     OW28024   2.937   5.356   3.185
 9042SOL    HW128025   2.915   5.287   3.254
 9042SOL    HW228026   2.989   5.314   3.111
 9043SOL     OW28027   1.446   2.541   6.209
 9043SOL    HW128028   1.351   2.512   6.217
 9043SOL    HW228029   1.460   2.585   6.121
 9044SOL     OW28030   5.989   0.119   0.892
 9044SOL    HW128031   5.979   0.027   0.854
 9044SOL    HW228032   5.898   0.154   0.915
 9045SOL     OW28033   3.376   0.318   2.967
 9045SOL    HW128034   3.358   0.366   3.052
 9045SOL    HW228035   3.435   0.239   2.985
 9046SOL     OW28036   3.401   4.291   5.271
 9046SOL    HW128037   3.415   4.231   5.350
 9046SOL    HW228038   3.476   4.279   5.207
 9047SOL     OW28039   1.283   4.448   4.165
 9047SOL    HW128040   1.308   4.359   4.204
 9047SOL    HW228041   1.268   4.438   4.067
 9048SOL     OW28042   1.860   3.896   4.967
 9048SOL    HW128043   1.897   3.976   4.919
 9048SOL    HW228044   1.913   3.880   5.050
 9049SOL     OW28045   4.926   6.164   6.166
 9049SOL    HW128046   4.996   6.093   6.166
 9049SOL    HW228047   4.933   6.218   6.082
 9050SOL     OW28048   0.353   5.232   0.003
 9050SOL    HW128049   0.343   5.196   6.936
 9050SOL    HW228050   0.427   5.185   0.050
 9051SOL     OW28051   4.927   6.387   0.280
 9051SOL    HW128052   4.893   6.471   0.240
 9051SOL    HW228053   4.983   6.408   0.360
 9052SOL     OW28054   2.662   4.887   4.485
 9052SOL    HW128055   2.620   4.828   4.555
 9052SOL    HW228056   2.604   4.889   4.404
 9053SOL     OW28057   2.098   3.088   4.048
 9053SOL    HW128058   2.089   3.167   3.987
 9053SOL    HW228059   2.127   3.120   4.138
 9054SOL     OW28060   1.299   0.853   1.616
 9054SOL    HW128061   1.392   0.816   1.622
 9054SOL    HW228062   1.242   0.810   1.686
 9055SOL     OW28063   0.987   2.664   4.243
 9055SOL    HW128064   1.068   2.607   4.252
 9055SOL    HW228065   0.914   2.612   4.199
 9056SOL     OW28066   5.147   7.018   2.367
 9056SOL    HW128067   5.189   0.063   2.423
 9056SOL    HW228068   5.062   0.026   2.328
 9057SOL     OW28069   6.050   5.379   0.062
 9057SOL    HW128070   6.069   5.297   0.117
 9057SOL    HW228071   6.023   5.350   6.996
 9058SOL     OW28072   2.039   2.737   4.916
 9058SOL    HW128073   2.037   2.731   5.016
 9058SOL    HW228074   2.133   2.752   4.886
 9059SOL     OW28075   6.455   1.176   3.466
 9059SOL    HW128076   6.458   1.232   3.383
 9059SOL    HW228077   6.468   1.234   3.546
 9060SOL     OW28078   6.862   3.766   2.411
 9060SOL    HW128079   6.892   3.795   2.321
 9060SOL    HW228080   6.772   3.804   2.430
 9061SOL     OW28081   4.817   6.114   3.121
 9061SOL    HW128082   4.802   6.078   3.030
 9061SOL    HW228083   4.730   6.116   3.171
 9062SOL     OW28084   1.346   4.252   2.817
 9062SOL    HW128085   1.337   4.232   2.719
 9062SOL    HW228086   1.347   4.351   2.831
 9063SOL     OW28087   3.237   1.564   2.540
 9063SOL    HW128088   3.310   1.594   2.601
 9063SOL    HW228089   3.178   1.642   2.518
 9064SOL     OW28090   0.089   4.281   3.576
 9064SOL    HW128091   0.112   4.278   3.479
 9064SOL    HW228092   0.119   4.196   3.620
 9065SOL     OW28093   2.884   6.251   4.965
 9065SOL    HW128094   2.835   6.333   4.995
 9065SOL    HW228095   2.899   6.190   5.043
 9066SOL     OW28096   6.454   6.329   6.468
 9066SOL    HW128097   6.536   6.377   6.437
 9066SOL    HW228098   6.411   6.381   6.542
 9067SOL     OW28099   6.800   6.727   4.325
 9067SOL    HW128100   6.862   6.715   4.248
 9067SOL    HW228101   6.745   6.644   4.337
 9068SOL     OW28102   5.271   0.194   5.302
 9068SOL    HW128103   5.190   0.197   5.244
 9068SOL    HW228104   5.255   0.249   5.384
 9069SOL     OW28105   4.385   2.454   2.720
 9069SOL    HW128106   4.310   2.388   2.716
 9069SOL    HW228107   4.390   2.492   2.812
 9070SOL     OW28108   1.460   1.833   6.321
 9070SOL    HW128109   1.496   1.919   6.288
 9070SOL    HW228110   1.534   1.776   6.355
 9071SOL     OW28111   4.384   1.611   5.959
 9071SOL    HW128112   4.372   1.674   6.036
 9071SOL    HW228113   4.419   1.523   5.992
 9072SOL     OW28114   5.690   6.754   1.576
 9072SOL    HW128115   5.728   6.846   1.567
 9072SOL    HW228116   5.758   6.687   1.546
 9073SOL     OW28117   4.342   0.160   0.208
 9073SOL    HW128118   4.419   0.109   0.246
 9073SOL    HW228119   4.258   0.131   0.253
 9074SOL     OW28120   1.255   0.453   1.168
 9074SOL    HW128121   1.349   0.428   1.146
 9074SOL    HW228122   1.198   0.445   1.086
 9075SOL     OW28123   6.475   0.915   2.191
 9075SOL    HW128124   6.379   0.911   2.166
 9075SOL    HW228125   6.508   1.009   2.181
 9076SOL     OW28126   5.011   0.944   3.072
 9076SOL    HW128127   5.047   0.999   3.148
 9076SOL    HW228128   5.078   0.875   3.045
 9077SOL     OW28129   5.146   1.109   6.061
 9077SOL    HW128130   5.199   1.075   5.983
 9077SOL    HW228131   5.050   1.118   6.035
 9078SOL     OW28132   4.932   5.137   6.705
 9078SOL    HW128133   4.858   5.075   6.729
 9078SOL    HW228134   4.954   5.128   6.608
 9079SOL     OW28135   1.493   0.727   5.302
 9079SOL    HW128136   1.593   0.733   5.305
 9079SOL    HW228137   1.466   0.638   5.265
 9080SOL     OW28138   6.447   3.771   0.545
 9080SOL    HW128139   6.415   3.798   0.635
 9080SOL    HW228140   6.369   3.760   0.483
 9081SOL     OW28141   3.788   1.894   1.485
 9081SOL    HW128142   3.858   1.869   1.418
 9081SOL    HW228143   3.735   1.813   1.510
 9082SOL     OW28144   2.731   0.079   5.711
 9082SOL    HW128145   2.731   0.113   5.805
 9082SOL    HW228146   2.665   0.132   5.657
 9083SOL     OW28147   4.958   4.738   6.137
 9083SOL    HW128148   5.028   4.693   6.081
 9083SOL    HW228149   4.933   4.825   6.095
 9084SOL     OW28150   0.460   2.861   5.809
 9084SOL    HW128151   0.367   2.891   5.789
 9084SOL    HW228152   0.501   2.921   5.877
 9085SOL     OW28153   3.308   4.903   0.325
 9085SOL    HW128154   3.360   4.917   0.410
 9085SOL    HW228155   3.220   4.862   0.346
 9086SOL     OW28156   6.383   4.566   1.094
 9086SOL    HW128157   6.394   4.471   1.068
 9086SOL    HW228158   6.469   4.601   1.131
 9087SOL     OW28159   5.889   2.994   2.952
 9087SOL    HW128160   5.791   2.980   2.968
 9087SOL    HW228161   5.938   2.910   2.971
 9088SOL     OW28162   6.329   0.521   1.976
 9088SOL    HW128163   6.396   0.543   2.047
 9088SOL    HW228164   6.344   0.427   1.944
 9089SOL     OW28165   4.200   5.189   3.861
 9089SOL    HW128166   4.106   5.178   3.828
 9089SOL    HW228167   4.199   5.211   3.958
 9090SOL     OW28168   5.108   6.274   4.393
 9090SOL    HW128169   5.189   6.324   4.363
 9090SOL    HW228170   5.080   6.210   4.321
 9091SOL     OW28171   3.176   2.481   0.008
 9091SOL    HW128172   3.188   2.453   0.103
 9091SOL    HW228173   3.266   2.485   6.989
 9092SOL     OW28174   1.340   0.256   5.539
 9092SOL    HW128175   1.357   0.159   5.524
 9092SOL    HW228176   1.413   0.295   5.596
 9093SOL     OW28177   1.602   6.072   6.792
 9093SOL    HW128178   1.676   6.112   6.737
 9093SOL    HW228179   1.640   5.999   6.849
 9094SOL     OW28180   0.147   6.193   1.970
 9094SOL    HW128181   0.179   6.194   2.065
 9094SOL    HW228182   0.105   6.105   1.950
 9095SOL     OW28183   5.438   3.452   6.564
 9095SOL    HW128184   5.410   3.491   6.652
 9095SOL    HW228185   5.435   3.352   6.569
 9096SOL     OW28186   5.126   3.443   3.009
 9096SOL    HW128187   5.198   3.498   3.050
 9096SOL    HW228188   5.167   3.376   2.947
 9097SOL     OW28189   1.092   3.605   0.187
 9097SOL    HW128190   1.097   3.592   0.088
 9097SOL    HW228191   1.183   3.593   0.227
 9098SOL     OW28192   4.150   3.569   1.296
 9098SOL    HW128193   4.104   3.537   1.213
 9098SOL    HW228194   4.159   3.668   1.293
 9099SOL     OW28195   3.293   3.532   1.004
 9099SOL    HW128196   3.317   3.560   0.911
 9099SOL    HW228197   3.215   3.469   1.000
 9100SOL     OW28198   0.902   2.618   2.112
 9100SOL    HW128199   0.845   2.607   2.030
 9100SOL    HW228200   0.843   2.630   2.192
 9101SOL     OW28201   2.229   2.983   2.767
 9101SOL    HW128202   2.254   3.060   2.826
 9101SOL    HW228203   2.309   2.924   2.754
 9102SOL     OW28204   3.634   6.066   2.095
 9102SOL    HW128205   3.567   6.122   2.144
 9102SOL    HW228206   3.698   6.125   2.046
 9103SOL     OW28207   0.163   3.494   0.473
 9103SOL    HW128208   0.158   3.452   0.564
 9103SOL    HW228209   0.097   3.569   0.467
 9104SOL     OW28210   4.364   6.349   1.833
 9104SOL    HW128211   4.330   6.383   1.746
 9104SOL    HW228212   4.394   6.254   1.822
 9105SOL     OW28213   2.029   0.606   0.273
 9105SOL    HW128214   2.005   0.703   0.280
 9105SOL    HW228215   1.951   0.556   0.235
 9106SOL     OW28216   6.401   3.693   0.146
 9106SOL    HW128217   6.345   3.675   0.227
 9106SOL    HW228218   6.446   3.608   0.117
 9107SOL     OW28219   4.573   6.907   6.313
 9107SOL    HW128220   4.617   6.989   6.276
 9107SOL    HW228221   4.507   6.872   6.246
 9108SOL     OW28222   5.004   4.467   5.148
 9108SOL    HW128223   4.993   4.380   5.099
 9108SOL    HW228224   5.037   4.450   5.240
 9109SOL     OW28225   1.732   2.333   2.790
 9109SOL    HW128226   1.782   2.382   2.719
 9109SOL    HW228227   1.660   2.392   2.827
 9110SOL     OW28228   2.461   4.414   4.183
 9110SOL    HW128229   2.469   4.379   4.276
 9110SOL    HW228230   2.383   4.371   4.137
 9111SOL     OW28231   4.209   3.528   0.737
 9111SOL    HW128232   4.249   3.587   0.666
 9111SOL    HW228233   4.119   3.497   0.706
 9112SOL     OW28234   0.634   4.253   4.128
 9112SOL    HW128235   0.680   4.211   4.049
 9112SOL    HW228236   0.701   4.264   4.202
 9113SOL     OW28237   4.472   0.662   0.256
 9113SOL    HW128238   4.516   0.631   0.340
 9113SOL    HW228239   4.412   0.590   0.221
 9114SOL     OW28240   1.540   4.898   2.636
 9114SOL    HW128241   1.621   4.895   2.577
 9114SOL    HW228242   1.510   4.993   2.646
 9115SOL     OW28243   0.461   5.673   5.319
 9115SOL    HW128244   0.526   5.615   5.270
 9115SOL    HW228245   0.419   5.738   5.255
 9116SOL     OW28246   6.437   1.831   0.386
 9116SOL    HW128247   6.387   1.841   0.300
 9116SOL    HW228248   6.384   1.871   0.461
 9117SOL     OW28249   6.192   2.818   6.906
 9117SOL    HW128250   6.221   2.865   6.989
 9117SOL    HW228251   6.228   2.725   6.906
 9118SOL     OW28252   5.931   6.115   0.322
 9118SOL    HW128253   5.832   6.128   0.319
 9118SOL    HW228254   5.962   6.075   0.236
 9119SOL     OW28255   5.536   1.529   2.792
 9119SOL    HW128256   5.611   1.498   2.733
 9119SOL    HW228257   5.474   1.452   2.810
 9120SOL     OW28258   5.556   2.881   5.594
 9120SOL    HW128259   5.596   2.796   5.559
 9120SOL    HW228260   5.516   2.933   5.518
 9121SOL     OW28261   0.688   2.710   6.399
 9121SOL    HW128262   0.619   2.704   6.327
 9121SOL    HW228263   0.678   2.796   6.448
 9122SOL     OW28264   1.966   2.516   1.568
 9122SOL    HW128265   1.981   2.516   1.469
 9122SOL    HW228266   2.045   2.558   1.614
 9123SOL     OW28267   3.373   0.211   4.541
 9123SOL    HW128268   3.367   0.111   4.544
 9123SOL    HW228269   3.424   0.244   4.620
 9124SOL     OW28270   5.897   6.441   5.440
 9124SOL    HW128271   5.907   6.521   5.499
 9124SOL    HW228272   5.915   6.467   5.345
 9125SOL     OW28273   4.734   4.101   3.779
 9125SOL    HW128274   4.809   4.054   3.826
 9125SOL    HW228275   4.697   4.172   3.839
 9126SOL     OW28276   5.833   1.304   2.493
 9126SOL    HW128277   5.830   1.373   2.564
 9126SOL    HW228278   5.742   1.292   2.453
 9127SOL     OW28279   6.423   0.467   6.291
 9127SOL    HW128280   6.328   0.478   6.263
 9127SOL    HW228281   6.434   0.383   6.344
 9128SOL     OW28282   3.375   2.188   5.334
 9128SOL    HW128283   3.337   2.260   5.275
 9128SOL    HW228284   3.446   2.138   5.284
 9129SOL     OW28285   2.225   2.917   1.177
 9129SOL    HW128286   2.156   2.989   1.183
 9129SOL    HW228287   2.312   2.957   1.149
 9130SOL     OW28288   6.941   3.537   0.307
 9130SOL    HW128289   6.859   3.480   0.313
 9130SOL    HW228290   7.018   3.480   0.279
 9131SOL     OW28291   0.005   4.105   5.710
 9131SOL    HW128292   0.098   4.087   5.743
 9131SOL    HW228293   6.975   4.023   5.720
 9132SOL     OW28294   0.282   4.470   4.425
 9132SOL    HW128295   0.302   4.487   4.521
 9132SOL    HW228296   0.199   4.518   4.398
 9133SOL     OW28297   3.316   5.413   0.846
 9133SOL    HW128298   3.321   5.314   0.856
 9133SOL    HW228299   3.399   5.455   0.883
 9134SOL     OW28300   3.625   6.541   0.665
 9134SOL    HW128301   3.631   6.514   0.569
 9134SOL    HW228302   3.532   6.570   0.685
 9135SOL     OW28303   6.591   6.224   2.134
 9135SOL    HW128304   6.559   6.142   2.087
 9135SOL    HW228305   6.528   6.248   2.207
 9136SOL     OW28306   4.824   5.454   5.433
 9136SOL    HW128307   4.854   5.446   5.338
 9136SOL    HW228308   4.804   5.549   5.454
 9137SOL     OW28309   4.880   1.771   1.179
 9137SOL    HW128310   4.837   1.852   1.219
 9137SOL    HW228311   4.979   1.777   1.191
 9138SOL     OW28312   6.017   4.853   5.783
 9138SOL    HW128313   5.939   4.886   5.731
 9138SOL    HW228314   6.058   4.929   5.834
 9139SOL     OW28315   2.280   1.515   4.450
 9139SOL    HW128316   2.247   1.586   4.512
 9139SOL    HW228317   2.265   1.544   4.355
 9140SOL     OW28318   6.188   3.341   2.908
 9140SOL    HW128319   6.155   3.288   2.986
 9140SOL    HW228320   6.198   3.282   2.828
 9141SOL     OW28321   5.348   0.543   6.641
 9141SOL    HW128322   5.400   0.623   6.670
 9141SOL    HW228323   5.407   0.462   6.643
 9142SOL     OW28324   0.374   2.326   0.285
 9142SOL    HW128325   0.408   2.413   0.250
 9142SOL    HW228326   0.423   2.301   0.368
 9143SOL     OW28327   5.282   3.749   0.816
 9143SOL    HW128328   5.321   3.811   0.884
 9143SOL    HW228329   5.215   3.689   0.860
 9144SOL     OW28330   2.228   5.522   5.752
 9144SOL    HW128331   2.267   5.440   5.795
 9144SOL    HW228332   2.128   5.518   5.757
 9145SOL     OW28333   6.670   5.494   0.259
 9145SOL    HW128334   6.630   5.497   0.351
 9145SOL    HW228335   6.703   5.585   0.235
 9146SOL     OW28336   4.875   2.392   2.349
 9146SOL    HW128337   4.829   2.306   2.368
 9146SOL    HW228338   4.897   2.397   2.251
 9147SOL     OW28339   5.797   0.085   4.171
 9147SOL    HW128340   5.785   0.140   4.089
 9147SOL    HW228341   5.784   0.143   4.252
 9148SOL     OW28342   5.129   6.629   0.791
 9148SOL    HW128343   5.183   6.650   0.710
 9148SOL    HW228344   5.074   6.547   0.775
 9149SOL     OW28345   5.181   3.253   3.811
 9149SOL    HW128346   5.258   3.291   3.759
 9149SOL    HW228347   5.121   3.202   3.749
 9150SOL     OW28348   3.511   5.332   3.871
 9150SOL    HW128349   3.425   5.382   3.883
 9150SOL    HW228350   3.500   5.237   3.900
 9151SOL     OW28351   1.743   4.577   3.435
 9151SOL    HW128352   1.838   4.546   3.426
 9151SOL    HW228353   1.712   4.616   3.348
 9152SOL     OW28354   2.526   5.199   4.769
 9152SOL    HW128355   2.441   5.214   4.820
 9152SOL    HW228356   2.528   5.105   4.735
 9153SOL     OW28357   1.380   2.929   0.909
 9153SOL    HW128358   1.391   3.027   0.924
 9153SOL    HW228359   1.396   2.908   0.813
 9154SOL     OW28360   4.330   5.349   6.915
 9154SOL    HW128361   4.290   5.350   6.823
 9154SOL    HW228362   4.411   5.290   6.915
 9155SOL     OW28363   1.133   3.017   0.638
 9155SOL    HW128364   1.188   3.033   0.720
 9155SOL    HW228365   1.154   2.927   0.601
 9156SOL     OW28366   2.250   2.548   6.930
 9156SOL    HW128367   2.239   2.533   6.832
 9156SOL    HW228368   2.262   2.646   6.947
 9157SOL     OW28369   6.054   4.556   6.167
 9157SOL    HW128370   6.041   4.473   6.222
 9157SOL    HW228371   6.099   4.532   6.082
 9158SOL     OW28372   5.564   3.266   4.826
 9158SOL    HW128373   5.650   3.285   4.874
 9158SOL    HW228374   5.540   3.345   4.770
 9159SOL     OW28375   1.226   0.012   3.057
 9159SOL    HW128376   1.224   0.041   3.153
 9159SOL    HW228377   1.134   7.012   3.029
 9160SOL     OW28378   6.183   0.195   4.747
 9160SOL    HW128379   6.206   0.106   4.709
 9160SOL    HW228380   6.136   0.183   4.835
 9161SOL     OW28381   4.714   4.174   4.573
 9161SOL    HW128382   4.618   4.204   4.570
 9161SOL    HW228383   4.764   4.216   4.498
 9162SOL     OW28384   4.366   1.271   4.007
 9162SOL    HW128385   4.451   1.317   4.035
 9162SOL    HW228386   4.386   1.208   3.932
 9163SOL     OW28387   2.126   3.504   4.691
 9163SOL    HW128388   2.141   3.597   4.722
 9163SOL    HW228389   2.153   3.439   4.763
 9164SOL     OW28390   2.366   0.196   6.857
 9164SOL    HW128391   2.439   0.261   6.838
 9164SOL    HW228392   2.387   0.147   6.942
 9165SOL     OW28393   6.029   1.628   5.415
 9165SOL    HW128394   6.015   1.529   5.422
 9165SOL    HW228395   6.072   1.662   5.499
 9166SOL     OW28396   4.398   6.198   0.813
 9166SOL    HW128397   4.327   6.179   0.881
 9166SOL    HW228398   4.488   6.192   0.855
 9167SOL     OW28399   1.517   2.651   6.446
 9167SOL    HW128400   1.483   2.586   6.378
 9167SOL    HW228401   1.613   2.672   6.427
 9168SOL     OW28402   0.523   0.679   6.597
 9168SOL    HW128403   0.485   0.754   6.543
 9168SOL    HW228404   0.507   0.696   6.694
 9169SOL     OW28405   6.062   1.351   5.404
 9169SOL    HW128406   6.161   1.357   5.420
 9169SOL    HW228407   6.031   1.258   5.421
 9170SOL     OW28408   1.470   4.712   0.497
 9170SOL    HW128409   1.450   4.799   0.452
 9170SOL    HW228410   1.563   4.714   0.534
 9171SOL     OW28411   3.554   4.569   0.668
 9171SOL    HW128412   3.596   4.653   0.703
 9171SOL    HW228413   3.486   4.535   0.733
 9172SOL     OW28414   3.240   0.564   4.745
 9172SOL    HW128415   3.160   0.568   4.686
 9172SOL    HW228416   3.272   0.656   4.766
 9173SOL     OW28417   6.510   3.953   5.126
 9173SOL    HW128418   6.471   3.956   5.034
 9173SOL    HW228419   6.445   3.908   5.188
 9174SOL     OW28420   5.961   4.666   1.369
 9174SOL    HW128421   5.904   4.711   1.300
 9174SOL    HW228422   6.041   4.626   1.324
 9175SOL     OW28423   0.661   6.956   3.793
 9175SOL    HW128424   0.580   7.000   3.830
 9175SOL    HW228425   0.743   7.000   3.829
 9176SOL     OW28426   3.155   1.168   5.040
 9176SOL    HW128427   3.162   1.249   4.981
 9176SOL    HW228428   3.067   1.171   5.089
 9177SOL     OW28429   1.141   4.755   5.182
 9177SOL    HW128430   1.128   4.839   5.235
 9177SOL    HW228431   1.228   4.760   5.133
 9178SOL     OW28432   2.276   5.454   0.160
 9178SOL    HW128433   2.306   5.484   0.250
 9178SOL    HW228434   2.351   5.463   0.095
 9179SOL     OW28435   3.023   5.419   4.314
 9179SOL    HW128436   2.994   5.386   4.225
 9179SOL    HW228437   3.100   5.364   4.347
 9180SOL     OW28438   5.779   2.658   2.967
 9180SOL    HW128439   5.823   2.584   2.917
 9180SOL    HW228440   5.766   2.632   3.062
 9181SOL     OW28441   3.894   2.205   4.243
 9181SOL    HW128442   3.873   2.131   4.306
 9181SOL    HW228443   3.992   2.224   4.245
 9182SOL     OW28444   2.155   6.281   1.826
 9182SOL    HW128445   2.227   6.263   1.759
 9182SOL    HW228446   2.164   6.375   1.860
 9183SOL     OW28447   5.378   6.156   0.297
 9183SOL    HW128448   5.321   6.193   0.224
 9183SOL    HW228449   5.465   6.124   0.259
 9184SOL     OW28450   5.189   2.085   0.913
 9184SOL    HW128451   5.174   2.133   0.999
 9184SOL    HW228452   5.172   2.147   0.836
 9185SOL     OW28453   3.931   6.580   4.551
 9185SOL    HW128454   3.952   6.611   4.458
 9185SOL    HW228455   3.905   6.659   4.606
 9186SOL     OW28456   5.469   0.082   4.157
 9186SOL    HW128457   5.547   0.113   4.211
 9186SOL    HW228458   5.491   0.086   4.060
 9187SOL     OW28459   2.662   1.619   1.369
 9187SOL    HW128460   2.569   1.614   1.330
 9187SOL    HW228461   2.704   1.528   1.366
 9188SOL     OW28462   1.772   6.666   1.709
 9188SOL    HW128463   1.733   6.758   1.708
 9188SOL    HW228464   1.699   6.599   1.695
 9189SOL     OW28465   4.737   6.384   1.361
 9189SOL    HW128466   4.816   6.408   1.417
 9189SOL    HW228467   4.750   6.416   1.268
 9190SOL     OW28468   1.954   4.098   0.014
 9190SOL    HW128469   1.986   4.042   0.091
 9190SOL    HW228470   1.854   4.097   0.012
 9191SOL     OW28471   6.355   1.704   5.494
 9191SOL    HW128472   6.324   1.633   5.431
 9191SOL    HW228473   6.455   1.711   5.490
 9192SOL     OW28474   0.576   3.702   6.388
 9192SOL    HW128475   0.624   3.712   6.475
 9192SOL    HW228476   0.514   3.623   6.393
 9193SOL     OW28477   4.711   4.080   0.222
 9193SOL    HW128478   4.802   4.096   0.261
 9193SOL    HW228479   4.716   4.083   0.122
 9194SOL     OW28480   3.332   0.364   3.270
 9194SOL    HW128481   3.359   0.381   3.365
 9194SOL    HW228482   3.320   0.451   3.222
 9195SOL     OW28483   1.932   1.841   4.049
 9195SOL    HW128484   1.931   1.816   3.952
 9195SOL    HW228485   1.975   1.930   4.060
 9196SOL     OW28486   4.379   6.836   3.678
 9196SOL    HW128487   4.412   6.927   3.703
 9196SOL    HW228488   4.306   6.844   3.610
 9197SOL     OW28489   1.917   4.748   2.163
 9197SOL    HW128490   1.972   4.821   2.205
 9197SOL    HW228491   1.925   4.753   2.064
 9198SOL     OW28492   6.824   5.085   6.630
 9198SOL    HW128493   6.797   5.007   6.573
 9198SOL    HW228494   6.815   5.169   6.577
 9199SOL     OW28495   1.330   3.978   6.170
 9199SOL    HW128496   1.376   3.895   6.138
 9199SOL    HW228497   1.344   4.052   6.104
 9200SOL     OW28498   2.300   0.144   0.651
 9200SOL    HW128499   2.397   0.122   0.642
 9200SOL    HW228500   2.253   0.122   0.565
 9201SOL     OW28501   0.761   2.590   0.377
 9201SOL    HW128502   0.797   2.507   0.420
 9201SOL    HW228503   0.813   2.669   0.410
 9202SOL     OW28504   1.431   6.743   2.651
 9202SOL    HW128505   1.401   6.777   2.741
 9202SOL    HW228506   1.516   6.788   2.626
 9203SOL     OW28507   0.655   4.606   6.944
 9203SOL    HW128508   0.604   4.522   6.924
 9203SOL    HW228509   0.704   4.595   0.004
 9204SOL     OW28510   4.702   3.166   6.255
 9204SOL    HW128511   4.635   3.170   6.329
 9204SOL    HW228512   4.773   3.100   6.278
 9205SOL     OW28513   6.813   4.822   2.724
 9205SOL    HW128514   6.747   4.871   2.667
 9205SOL    HW228515   6.765   4.756   2.782
 9206SOL     OW28516   4.604   5.680   2.126
 9206SOL    HW128517   4.587   5.763   2.179
 9206SOL    HW228518   4.614   5.602   2.187
 9207SOL     OW28519   5.396   4.563   6.169
 9207SOL    HW128520   5.479   4.607   6.134
 9207SOL    HW228521   5.390   4.577   6.268
 9208SOL     OW28522   6.210   4.155   3.803
 9208SOL    HW128523   6.203   4.178   3.706
 9208SOL    HW228524   6.141   4.206   3.854
 9209SOL     OW28525   3.398   0.378   6.690
 9209SOL    HW128526   3.387   0.430   6.775
 9209SOL    HW228527   3.324   0.400   6.628
 9210SOL     OW28528   0.033   0.851   3.136
 9210SOL    HW128529   6.982   0.854   3.073
 9210SOL    HW228530   0.099   0.922   3.111
 9211SOL     OW28531   0.486   2.641   5.110
 9211SOL    HW128532   0.421   2.665   5.038
 9211SOL    HW228533   0.517   2.547   5.097
 9212SOL     OW28534   4.786   5.228   4.491
 9212SOL    HW128535   4.751   5.179   4.411
 9212SOL    HW228536   4.804   5.163   4.565
 9213SOL     OW28537   5.300   3.576   5.918
 9213SOL    HW128538   5.374   3.523   5.876
 9213SOL    HW228539   5.295   3.667   5.876
 9214SOL     OW28540   0.257   4.180   6.578
 9214SOL    HW128541   0.193   4.201   6.653
 9214SOL    HW228542   0.205   4.153   6.497
 9215SOL     OW28543   0.654   1.964   1.394
 9215SOL    HW128544   0.711   1.889   1.361
 9215SOL    HW228545   0.689   2.051   1.358
 9216SOL     OW28546   2.701   0.322   2.255
 9216SOL    HW128547   2.737   0.339   2.163
 9216SOL    HW228548   2.602   0.334   2.255
 9217SOL     OW28549   0.845   1.743   0.283
 9217SOL    HW128550   0.874   1.658   0.328
 9217SOL    HW228551   0.819   1.723   0.188
 9218SOL     OW28552   2.531   6.855   0.178
 9218SOL    HW128553   2.601   6.845   0.249
 9218SOL    HW228554   2.503   6.765   0.145
 9219SOL     OW28555   6.885   2.435   1.332
 9219SOL    HW128556   6.877   2.341   1.364
 9219SOL    HW228557   6.821   2.493   1.383
 9220SOL     OW28558   1.996   6.234   0.901
 9220SOL    HW128559   1.939   6.180   0.840
 9220SOL    HW228560   1.940   6.306   0.944
 9221SOL     OW28561   2.841   0.702   3.511
 9221SOL    HW128562   2.927   0.728   3.468
 9221SOL    HW228563   2.824   0.605   3.497
 9222SOL     OW28564   1.987   0.364   6.304
 9222SOL    HW128565   2.072   0.364   6.250
 9222SOL    HW228566   2.004   0.406   6.393
 9223SOL     OW28567   1.172   0.687   4.041
 9223SOL    HW128568   1.089   0.633   4.047
 9223SOL    HW228569   1.248   0.629   4.013
 9224SOL     OW28570   1.686   5.007   5.003
 9224SOL    HW128571   1.637   5.083   4.959
 9224SOL    HW228572   1.784   5.015   4.984
 9225SOL     OW28573   3.282   6.577   5.943
 9225SOL    HW128574   3.318   6.485   5.929
 9225SOL    HW228575   3.185   6.579   5.921
 9226SOL     OW28576   5.767   0.050   1.482
 9226SOL    HW128577   5.685   0.012   1.439
 9226SOL    HW228578   5.759   0.149   1.487
 9227SOL     OW28579   1.200   4.930   1.105
 9227SOL    HW128580   1.172   4.894   1.016
 9227SOL    HW228581   1.123   4.924   1.169
 9228SOL     OW28582   1.545   1.171   6.127
 9228SOL    HW128583   1.480   1.095   6.123
 9228SOL    HW228584   1.576   1.184   6.221
 9229SOL     OW28585   0.820   5.295   4.660
 9229SOL    HW128586   0.911   5.262   4.685
 9229SOL    HW228587   0.827   5.361   4.586
 9230SOL     OW28588   5.012   1.647   3.058
 9230SOL    HW128589   5.100   1.656   3.010
 9230SOL    HW228590   5.026   1.597   3.143
 9231SOL     OW28591   0.901   4.251   4.732
 9231SOL    HW128592   0.957   4.282   4.810
 9231SOL    HW228593   0.807   4.283   4.744
 9232SOL     OW28594   3.689   5.336   6.962
 9232SOL    HW128595   3.775   5.333   6.910
 9232SOL    HW228596   3.628   5.403   6.921
 9233SOL     OW28597   5.553   5.127   2.015
 9233SOL    HW128598   5.514   5.115   2.106
 9233SOL    HW228599   5.483   5.165   1.954
 9234SOL     OW28600   3.780   5.357   5.599
 9234SOL    HW128601   3.863   5.368   5.544
 9234SOL    HW228602   3.711   5.307   5.546
 9235SOL     OW28603   1.407   2.846   3.384
 9235SOL    HW128604   1.454   2.915   3.439
 9235SOL    HW228605   1.357   2.784   3.444
 9236SOL     OW28606   2.962   4.256   5.513
 9236SOL    HW128607   3.017   4.179   5.544
 9236SOL    HW228608   2.993   4.285   5.422
 9237SOL     OW28609   2.232   5.439   4.850
 9237SOL    HW128610   2.211   5.533   4.875
 9237SOL    HW228611   2.211   5.425   4.753
 9238SOL     OW28612   4.083   1.668   6.463
 9238SOL    HW128613   4.155   1.655   6.531
 9238SOL    HW228614   4.119   1.647   6.372
 9239SOL     OW28615   6.920   4.261   0.566
 9239SOL    HW128616   7.015   4.286   0.551
 9239SOL    HW228617   6.862   4.307   0.498
 9240SOL     OW28618   4.847   1.732   0.884
 9240SOL    HW128619   4.833   1.717   0.982
 9240SOL    HW228620   4.931   1.686   0.855
 9241SOL     OW28621   0.461   5.098   5.777
 9241SOL    HW128622   0.534   5.167   5.777
 9241SOL    HW228623   0.498   5.010   5.804
 9242SOL     OW28624   0.039   5.703   0.531
 9242SOL    HW128625   0.110   5.674   0.467
 9242SOL    HW228626   6.995   5.632   0.539
 9243SOL     OW28627   6.122   0.134   2.436
 9243SOL    HW128628   6.103   0.068   2.363
 9243SOL    HW228629   6.142   0.085   2.521
 9244SOL     OW28630   4.857   4.774   6.393
 9244SOL    HW128631   4.919   4.740   6.463
 9244SOL    HW228632   4.899   4.763   6.303
 9245SOL     OW28633   2.067   5.216   3.624
 9245SOL    HW128634   2.059   5.210   3.723
 9245SOL    HW228635   2.009   5.147   3.581
 9246SOL     OW28636   0.201   4.231   2.649
 9246SOL    HW128637   0.218   4.258   2.743
 9246SOL    HW228638   0.115   4.272   2.617
 9247SOL     OW28639   0.962   6.946   2.999
 9247SOL    HW128640   0.967   6.886   3.079
 9247SOL    HW228641   0.869   6.942   2.961
 9248SOL     OW28642   1.460   2.559   5.677
 9248SOL    HW128643   1.411   2.609   5.748
 9248SOL    HW228644   1.541   2.611   5.650
 9249SOL     OW28645   5.088   3.325   6.833
 9249SOL    HW128646   5.184   3.301   6.843
 9249SOL    HW228647   5.048   3.271   6.758
 9250SOL     OW28648   5.242   3.421   4.627
 9250SOL    HW128649   5.205   3.328   4.623
 9250SOL    HW228650   5.186   3.476   4.689
 9251SOL     OW28651   3.982   2.184   3.269
 9251SOL    HW128652   3.897   2.150   3.228
 9251SOL    HW228653   4.014   2.118   3.337
 9252SOL     OW28654   5.612   0.549   3.922
 9252SOL    HW128655   5.675   0.486   3.877
 9252SOL    HW228656   5.664   0.612   3.980
 9253SOL     OW28657   5.754   6.340   5.784
 9253SOL    HW128658   5.838   6.288   5.799
 9253SOL    HW228659   5.770   6.436   5.803
 9254SOL     OW28660   6.455   4.197   2.966
 9254SOL    HW128661   6.534   4.220   3.022
 9254SOL    HW228662   6.389   4.272   2.970
 9255SOL     OW28663   5.136   4.255   0.189
 9255SOL    HW128664   5.116   4.353   0.199
 9255SOL    HW228665   5.223   4.244   0.141
 9256SOL     OW28666   3.627   5.983   2.398
 9256SOL    HW128667   3.684   5.931   2.334
 9256SOL    HW228668   3.580   5.919   2.459
 9257SOL     OW28669   0.533   3.772   2.911
 9257SOL    HW128670   0.547   3.676   2.932
 9257SOL    HW228671   0.449   3.782   2.857
 9258SOL     OW28672   3.098   3.126   3.300
 9258SOL    HW128673   3.068   3.081   3.216
 9258SOL    HW228674   3.155   3.204   3.277
 9259SOL     OW28675   0.851   1.983   0.746
 9259SOL    HW128676   0.822   1.887   0.740
 9259SOL    HW228677   0.942   1.993   0.706
 9260SOL     OW28678   5.118   1.548   5.403
 9260SOL    HW128679   5.207   1.506   5.383
 9260SOL    HW228680   5.129   1.615   5.476
 9261SOL     OW28681   4.788   0.423   6.609
 9261SOL    HW128682   4.827   0.365   6.680
 9261SOL    HW228683   4.819   0.517   6.622
 9262SOL     OW28684   6.380   3.004   5.357
 9262SOL    HW128685   6.291   2.971   5.389
 9262SOL    HW228686   6.442   3.011   5.435
 9263SOL     OW28687   5.840   4.754   1.794
 9263SOL    HW128688   5.914   4.697   1.757
 9263SOL    HW228689   5.766   4.759   1.727
 9264SOL     OW28690   5.364   4.198   0.071
 9264SOL    HW128691   5.436   4.130   0.058
 9264SOL    HW228692   5.398   4.272   0.129
 9265SOL     OW28693   2.915   1.646   6.446
 9265SOL    HW128694   2.990   1.629   6.382
 9265SOL    HW228695   2.828   1.634   6.399
 9266SOL     OW28696   1.885   6.473   2.226
 9266SOL    HW128697   1.901   6.547   2.291
 9266SOL    HW228698   1.884   6.385   2.274
 9267SOL     OW28699   0.204   4.103   6.068
 9267SOL    HW128700   0.160   4.193   6.063
 9267SOL    HW228701   0.152   4.044   6.130
 9268SOL     OW28702   1.912   5.157   1.270
 9268SOL    HW128703   2.009   5.135   1.279
 9268SOL    HW228704   1.898   5.213   1.188
 9269SOL     OW28705   3.186   2.446   6.007
 9269SOL    HW128706   3.280   2.425   5.979
 9269SOL    HW228707   3.179   2.439   6.106
 9270SOL     OW28708   5.201   6.923   5.994
 9270SOL    HW128709   5.185   7.006   6.049
 9270SOL    HW228710   5.174   6.843   6.046
 9271SOL     OW28711   1.931   5.482   6.880
 9271SOL    HW128712   1.833   5.471   6.868
 9271SOL    HW228713   1.979   5.422   6.816
 9272SOL     OW28714   2.199   5.741   5.918
 9272SOL    HW128715   2.222   5.660   5.863
 9272SOL    HW228716   2.166   5.814   5.858
 9273SOL     OW28717   5.427   5.802   3.944
 9273SOL    HW128718   5.486   5.856   3.883
 9273SOL    HW228719   5.462   5.709   3.951
 9274SOL     OW28720   6.549   2.778   0.212
 9274SOL    HW128721   6.512   2.698   0.259
 9274SOL    HW228722   6.630   2.810   0.261
 9275SOL     OW28723   6.779   2.017   0.208
 9275SOL    HW128724   6.729   2.000   0.123
 9275SOL    HW228725   6.860   1.959   0.211
 9276SOL     OW28726   2.759   4.717   3.730
 9276SOL    HW128727   2.744   4.811   3.762
 9276SOL    HW228728   2.857   4.700   3.725
 9277SOL     OW28729   5.067   3.871   0.360
 9277SOL    HW128730   5.085   3.863   0.458
 9277SOL    HW228731   5.153   3.867   0.309
 9278SOL     OW28732   1.108   0.655   4.796
 9278SOL    HW128733   1.165   0.701   4.728
 9278SOL    HW228734   1.049   0.722   4.840
 9279SOL     OW28735   4.472   1.096   1.507
 9279SOL    HW128736   4.481   1.121   1.410
 9279SOL    HW228737   4.561   1.104   1.551
 9280SOL     OW28738   1.407   0.875   3.252
 9280SOL    HW128739   1.450   0.924   3.177
 9280SOL    HW228740   1.327   0.926   3.284
 9281SOL     OW28741   3.168   4.259   1.325
 9281SOL    HW128742   3.210   4.231   1.411
 9281SOL    HW228743   3.194   4.195   1.252
 9282SOL     OW28744   4.806   1.427   4.853
 9282SOL    HW128745   4.743   1.350   4.841
 9282SOL    HW228746   4.899   1.393   4.860
 9283SOL     OW28747   5.362   0.441   3.923
 9283SOL    HW128748   5.363   0.360   3.865
 9283SOL    HW228749   5.452   0.484   3.922
 9284SOL     OW28750   3.349   4.925   5.702
 9284SOL    HW128751   3.264   4.875   5.685
 9284SOL    HW228752   3.408   4.871   5.762
 9285SOL     OW28753   5.122   3.262   0.799
 9285SOL    HW128754   5.142   3.228   0.707
 9285SOL    HW228755   5.161   3.200   0.866
 9286SOL     OW28756   5.475   6.988   6.221
 9286SOL    HW128757   5.485   6.891   6.202
 9286SOL    HW228758   5.493   0.015   6.138
 9287SOL     OW28759   3.221   5.378   0.564
 9287SOL    HW128760   3.315   5.350   0.548
 9287SOL    HW228761   3.210   5.407   0.660
 9288SOL     OW28762   3.889   1.055   5.080
 9288SOL    HW128763   3.861   1.042   4.985
 9288SOL    HW228764   3.808   1.075   5.136
 9289SOL     OW28765   3.419   1.908   2.603
 9289SOL    HW128766   3.435   1.817   2.642
 9289SOL    HW228767   3.424   1.903   2.503
 9290SOL     OW28768   4.953   1.856   3.548
 9290SOL    HW128769   4.941   1.953   3.569
 9290SOL    HW228770   4.871   1.820   3.505
 9291SOL     OW28771   2.259   0.117   4.703
 9291SOL    HW128772   2.305   0.036   4.667
 9291SOL    HW228773   2.202   0.091   4.781
 9292SOL     OW28774   0.350   2.678   6.563
 9292SOL    HW128775   0.437   2.686   6.612
 9292SOL    HW228776   0.365   2.636   6.474
 9293SOL     OW28777   5.809   3.992   0.294
 9293SOL    HW128778   5.819   3.995   0.194
 9293SOL    HW228779   5.766   3.905   0.319
 9294SOL     OW28780   3.589   6.704   5.096
 9294SOL    HW128781   3.519   6.663   5.156
 9294SOL    HW228782   3.569   6.801   5.084
 9295SOL     OW28783   4.955   2.360   4.219
 9295SOL    HW128784   4.988   2.449   4.187
 9295SOL    HW228785   5.019   2.289   4.191
 9296SOL     OW28786   0.337   6.596   6.170
 9296SOL    HW128787   0.376   6.525   6.113
 9296SOL    HW228788   0.359   6.686   6.132
 9297SOL     OW28789   6.488   1.049   0.669
 9297SOL    HW128790   6.444   0.970   0.624
 9297SOL    HW228791   6.534   1.105   0.600
 9298SOL     OW28792   1.300   0.710   4.598
 9298SOL    HW128793   1.391   0.750   4.602
 9298SOL    HW228794   1.283   0.675   4.505
 9299SOL     OW28795   0.925   2.851   4.936
 9299SOL    HW128796   0.876   2.879   4.854
 9299SOL    HW228797   0.867   2.791   4.991
 9300SOL     OW28798   0.065   4.683   4.663
 9300SOL    HW128799   0.060   4.684   4.563
 9300SOL    HW228800   0.022   4.600   4.697
 9301SOL     OW28801   4.918   4.529   3.506
 9301SOL    HW128802   4.856   4.531   3.428
 9301SOL    HW228803   5.001   4.478   3.482
 9302SOL     OW28804   2.089   3.396   4.445
 9302SOL    HW128805   2.097   3.461   4.520
 9302SOL    HW228806   2.019   3.328   4.466
 9303SOL     OW28807   4.173   6.041   0.438
 9303SOL    HW128808   4.087   6.044   0.386
 9303SOL    HW228809   4.225   6.124   0.421
 9304SOL     OW28810   4.717   4.252   1.075
 9304SOL    HW128811   4.683   4.342   1.049
 9304SOL    HW228812   4.756   4.255   1.166
 9305SOL     OW28813   3.533   1.482   2.330
 9305SOL    HW128814   3.502   1.399   2.376
 9305SOL    HW228815   3.506   1.479   2.234
 9306SOL     OW28816   0.512   4.086   5.016
 9306SOL    HW128817   0.584   4.155   5.014
 9306SOL    HW228818   0.452   4.102   5.094
 9307SOL     OW28819   1.039   3.129   1.305
 9307SOL    HW128820   1.114   3.125   1.370
 9307SOL    HW228821   0.957   3.163   1.350
 9308SOL     OW28822   1.285   4.193   1.165
 9308SOL    HW128823   1.225   4.268   1.137
 9308SOL    HW228824   1.242   4.141   1.239
 9309SOL     OW28825   3.550   4.932   5.490
 9309SOL    HW128826   3.595   4.845   5.469
 9309SOL    HW228827   3.469   4.914   5.546
 9310SOL     OW28828   4.616   4.875   5.971
 9310SOL    HW128829   4.537   4.909   5.921
 9310SOL    HW228830   4.632   4.933   6.051
 9311SOL     OW28831   5.247   5.077   1.898
 9311SOL    HW128832   5.275   5.171   1.882
 9311SOL    HW228833   5.152   5.076   1.931
 9312SOL     OW28834   1.054   3.616   1.840
 9312SOL    HW128835   0.979   3.580   1.786
 9312SOL    HW228836   1.053   3.573   1.931
 9313SOL     OW28837   6.704   0.418   1.270
 9313SOL    HW128838   6.788   0.418   1.217
 9313SOL    HW228839   6.655   0.504   1.255
 9314SOL     OW28840   4.487   5.780   6.042
 9314SOL    HW128841   4.420   5.769   6.114
 9314SOL    HW228842   4.549   5.702   6.041
 9315SOL     OW28843   6.341   0.861   5.323
 9315SOL    HW128844   6.399   0.879   5.244
 9315SOL    HW228845   6.249   0.895   5.306
 9316SOL     OW28846   4.405   5.433   5.400
 9316SOL    HW128847   4.346   5.355   5.420
 9316SOL    HW228848   4.422   5.438   5.301
 9317SOL     OW28849   6.617   5.143   3.169
 9317SOL    HW128850   6.592   5.081   3.242
 9317SOL    HW228851   6.545   5.211   3.156
 9318SOL     OW28852   6.254   0.611   5.393
 9318SOL    HW128853   6.322   0.675   5.356
 9318SOL    HW228854   6.263   0.607   5.493
 9319SOL     OW28855   1.290   2.650   6.733
 9319SOL    HW128856   1.362   2.591   6.697
 9319SOL    HW228857   1.205   2.597   6.743
 9320SOL     OW28858   3.968   1.180   6.185
 9320SOL    HW128859   3.882   1.225   6.159
 9320SOL    HW228860   3.967   1.086   6.151
 9321SOL     OW28861   6.323   0.305   3.407
 9321SOL    HW128862   6.257   0.230   3.407
 9321SOL    HW228863   6.393   0.288   3.337
 9322SOL     OW28864   0.566   5.275   6.363
 9322SOL    HW128865   0.512   5.191   6.364
 9322SOL    HW228866   0.619   5.282   6.447
 9323SOL     OW28867   1.610   0.156   5.465
 9323SOL    HW128868   1.570   0.227   5.407
 9323SOL    HW228869   1.617   0.190   5.558
 9324SOL     OW28870   1.900   4.867   0.599
 9324SOL    HW128871   1.996   4.860   0.573
 9324SOL    HW228872   1.893   4.870   0.699
 9325SOL     OW28873   5.055   1.064   6.691
 9325SOL    HW128874   4.989   1.080   6.765
 9325SOL    HW228875   5.041   0.973   6.653
 9326SOL     OW28876   1.863   6.404   1.046
 9326SOL    HW128877   1.866   6.412   1.146
 9326SOL    HW228878   1.899   6.487   1.005
 9327SOL     OW28879   4.975   6.951   2.877
 9327SOL    HW128880   4.932   7.007   2.807
 9327SOL    HW228881   4.978   7.002   2.963
 9328SOL     OW28882   3.342   1.293   5.696
 9328SOL    HW128883   3.383   1.298   5.606
 9328SOL    HW228884   3.390   1.225   5.751
 9329SOL     OW28885   6.452   4.349   2.203
 9329SOL    HW128886   6.430   4.418   2.272
 9329SOL    HW228887   6.545   4.317   2.216
 9330SOL     OW28888   0.169   6.577   6.829
 9330SOL    HW128889   0.236   6.506   6.851
 9330SOL    HW228890   0.174   6.597   6.731
 9331SOL     OW28891   1.249   1.533   6.333
 9331SOL    HW128892   1.256   1.624   6.375
 9331SOL    HW228893   1.172   1.532   6.269
 9332SOL     OW28894   3.941   3.889   2.243
 9332SOL    HW128895   4.023   3.901   2.300
 9332SOL    HW228896   3.862   3.869   2.302
 9333SOL     OW28897   4.175   3.878   1.227
 9333SOL    HW128898   4.094   3.930   1.256
 9333SOL    HW228899   4.230   3.854   1.307
 9334SOL     OW28900   4.483   5.858   3.693
 9334SOL    HW128901   4.535   5.912   3.626
 9334SOL    HW228902   4.402   5.819   3.649
 9335SOL     OW28903   0.764   1.522   6.228
 9335SOL    HW128904   0.695   1.455   6.256
 9335SOL    HW228905   0.739   1.612   6.263
 9336SOL     OW28906   2.899   5.312   5.771
 9336SOL    HW128907   2.972   5.336   5.836
 9336SOL    HW228908   2.892   5.212   5.767
 9337SOL     OW28909   5.264   1.496   3.577
 9337SOL    HW128910   5.225   1.578   3.534
 9337SOL    HW228911   5.329   1.454   3.514
 9338SOL     OW28912   3.941   0.276   1.810
 9338SOL    HW128913   3.873   0.305   1.742
 9338SOL    HW228914   4.029   0.262   1.765
 9339SOL     OW28915   5.450   6.873   1.059
 9339SOL    HW128916   5.523   6.850   0.995
 9339SOL    HW228917   5.381   6.801   1.058
 9340SOL     OW28918   5.904   3.731   4.681
 9340SOL    HW128919   5.827   3.794   4.674
 9340SOL    HW228920   5.938   3.708   4.589
 9341SOL     OW28921   0.287   6.154   6.931
 9341SOL    HW128922   0.346   6.073   6.927
 9341SOL    HW228923   0.330   6.228   6.879
 9342SOL     OW28924   1.989   0.298   3.669
 9342SOL    HW128925   1.988   0.349   3.755
 9342SOL    HW228926   1.910   0.237   3.666
 9343SOL     OW28927   6.202   4.303   3.031
 9343SOL    HW128928   6.145   4.222   3.021
 9343SOL    HW228929   6.145   4.382   3.053
 9344SOL     OW28930   4.739   6.427   1.738
 9344SOL    HW128931   4.723   6.396   1.832
 9344SOL    HW228932   4.828   6.395   1.707
 9345SOL     OW28933   6.380   4.555   2.376
 9345SOL    HW128934   6.383   4.514   2.467
 9345SOL    HW228935   6.436   4.637   2.374
 9346SOL     OW28936   5.778   0.770   1.057
 9346SOL    HW128937   5.743   0.696   1.000
 9346SOL    HW228938   5.725   0.853   1.042
 9347SOL     OW28939   1.026   4.540   0.908
 9347SOL    HW128940   1.038   4.598   0.988
 9347SOL    HW228941   1.108   4.545   0.851
 9348SOL     OW28942   3.789   5.939   1.736
 9348SOL    HW128943   3.779   5.900   1.644
 9348SOL    HW228944   3.722   5.898   1.797
 9349SOL     OW28945   1.186   6.431   2.451
 9349SOL    HW128946   1.264   6.381   2.415
 9349SOL    HW228947   1.127   6.461   2.376
 9350SOL     OW28948   0.751   3.495   5.466
 9350SOL    HW128949   0.847   3.494   5.493
 9350SOL    HW228950   0.736   3.565   5.396
 9351SOL     OW28951   3.023   0.620   6.453
 9351SOL    HW128952   3.035   0.553   6.380
 9351SOL    HW228953   3.015   0.572   6.541
 9352SOL     OW28954   3.111   2.554   6.743
 9352SOL    HW128955   3.148   2.537   6.834
 9352SOL    HW228956   3.094   2.467   6.696
 9353SOL     OW28957   0.696   5.332   0.742
 9353SOL    HW128958   0.619   5.270   0.759
 9353SOL    HW228959   0.726   5.322   0.648
 9354SOL     OW28960   6.343   1.807   6.339
 9354SOL    HW128961   6.427   1.810   6.394
 9354SOL    HW228962   6.320   1.900   6.309
 9355SOL     OW28963   0.548   2.359   5.002
 9355SOL    HW128964   0.486   2.347   4.924
 9355SOL    HW228965   0.640   2.378   4.968
 9356SOL     OW28966   4.187   0.337   1.163
 9356SOL    HW128967   4.153   0.410   1.104
 9356SOL    HW228968   4.280   0.312   1.135
 9357SOL     OW28969   0.971   3.516   6.597
 9357SOL    HW128970   1.059   3.541   6.556
 9357SOL    HW228971   0.985   3.446   6.667
 9358SOL     OW28972   6.722   4.159   2.463
 9358SOL    HW128973   6.686   4.074   2.423
 9358SOL    HW228974   6.697   4.164   2.559
 9359SOL     OW28975   1.415   4.634   6.749
 9359SOL    HW128976   1.432   4.596   6.658
 9359SOL    HW228977   1.376   4.563   6.808
 9360SOL     OW28978   1.569   5.542   6.330
 9360SOL    HW128979   1.629   5.489   6.271
 9360SOL    HW228980   1.488   5.489   6.352
 9361SOL     OW28981   1.830   5.575   3.280
 9361SOL    HW128982   1.815   5.476   3.283
 9361SOL    HW228983   1.800   5.615   3.366
 9362SOL     OW28984   1.517   1.328   2.993
 9362SOL    HW128985   1.590   1.344   2.926
 9362SOL    HW228986   1.523   1.397   3.065
 9363SOL     OW28987   4.016   5.219   1.819
 9363SOL    HW128988   3.971   5.289   1.763
 9363SOL    HW228989   4.075   5.264   1.886
 9364SOL     OW28990   2.257   1.539   0.988
 9364SOL    HW128991   2.212   1.540   0.899
 9364SOL    HW228992   2.217   1.466   1.044
 9365SOL     OW28993   3.235   1.897   3.666
 9365SOL    HW128994   3.286   1.982   3.649
 9365SOL    HW228995   3.161   1.889   3.600
 9366SOL     OW28996   3.245   5.831   6.967
 9366SOL    HW128997   3.253   5.791   0.032
 9366SOL    HW228998   3.310   5.907   6.959
 9367SOL     OW28999   6.292   0.437   1.543
 9367SOL    HW129000   6.251   0.350   1.571
 9367SOL    HW229001   6.261   0.509   1.605
 9368SOL     OW29002   3.930   6.783   2.148
 9368SOL    HW129003   4.025   6.765   2.123
 9368SOL    HW229004   3.872   6.775   2.068
 9369SOL     OW29005   0.168   5.637   5.369
 9369SOL    HW129006   0.134   5.626   5.276
 9369SOL    HW229007   0.268   5.632   5.369
 9370SOL     OW29008   5.156   0.646   3.611
 9370SOL    HW129009   5.254   0.651   3.629
 9370SOL    HW229010   5.134   0.701   3.530
 9371SOL     OW29011   2.627   5.786   1.006
 9371SOL    HW129012   2.541   5.740   1.029
 9371SOL    HW229013   2.695   5.717   0.979
 9372SOL     OW29014   4.791   0.043   2.025
 9372SOL    HW129015   4.783   0.143   2.025
 9372SOL    HW229016   4.700   0.002   2.033
 9373SOL     OW29017   5.812   2.185   0.394
 9373SOL    HW129018   5.888   2.120   0.393
 9373SOL    HW229019   5.820   2.247   0.316
 9374SOL     OW29020   6.907   3.381   5.873
 9374SOL    HW129021   6.837   3.424   5.816
 9374SOL    HW229022   6.896   3.410   5.968
 9375SOL     OW29023   6.870   1.895   1.135
 9375SOL    HW129024   6.941   1.830   1.108
 9375SOL    HW229025   6.892   1.986   1.099
 9376SOL     OW29026   2.079   3.343   1.756
 9376SOL    HW129027   2.159   3.283   1.745
 9376SOL    HW229028   2.096   3.406   1.832
 9377SOL     OW29029   2.476   5.406   3.166
 9377SOL    HW129030   2.447   5.487   3.116
 9377SOL    HW229031   2.568   5.421   3.204
 9378SOL     OW29032   3.301   1.266   3.807
 9378SOL    HW129033   3.263   1.333   3.871
 9378SOL    HW229034   3.239   1.255   3.730
 9379SOL     OW29035   5.001   0.346   4.847
 9379SOL    HW129036   4.987   0.307   4.756
 9379SOL    HW229037   5.050   0.433   4.838
 9380SOL     OW29038   3.494   5.629   5.617
 9380SOL    HW129039   3.547   5.670   5.543
 9380SOL    HW229040   3.470   5.535   5.594
 9381SOL     OW29041   5.152   2.478   4.839
 9381SOL    HW129042   5.141   2.564   4.889
 9381SOL    HW229043   5.132   2.401   4.900
 9382SOL     OW29044   4.156   0.809   4.118
 9382SOL    HW129045   4.157   0.722   4.069
 9382SOL    HW229046   4.178   0.883   4.055
 9383SOL     OW29047   4.523   4.495   4.124
 9383SOL    HW129048   4.441   4.540   4.161
 9383SOL    HW229049   4.599   4.506   4.187
 9384SOL     OW29050   2.829   6.574   1.870
 9384SOL    HW129051   2.836   6.653   1.931
 9384SOL    HW229052   2.753   6.587   1.806
 9385SOL     OW29053   4.073   1.748   4.047
 9385SOL    HW129054   4.120   1.667   4.079
 9385SOL    HW229055   4.006   1.723   3.978
 9386SOL     OW29056   3.141   5.711   5.237
 9386SOL    HW129057   3.127   5.757   5.325
 9386SOL    HW229058   3.140   5.612   5.250
 9387SOL     OW29059   3.832   2.153   0.225
 9387SOL    HW129060   3.897   2.226   0.201
 9387SOL    HW229061   3.879   2.065   0.225
 9388SOL     OW29062   1.741   6.654   3.676
 9388SOL    HW129063   1.701   6.643   3.585
 9388SOL    HW229064   1.679   6.616   3.745
 9389SOL     OW29065   3.086   5.899   1.816
 9389SOL    HW129066   3.084   5.964   1.892
 9389SOL    HW229067   3.176   5.900   1.773
 9390SOL     OW29068   6.061   4.592   5.867
 9390SOL    HW129069   6.046   4.683   5.827
 9390SOL    HW229070   5.983   4.534   5.845
 9391SOL     OW29071   0.710   0.195   4.596
 9391SOL    HW129072   0.802   0.157   4.585
 9391SOL    HW229073   0.653   0.130   4.646
 9392SOL     OW29074   4.875   4.448   4.015
 9392SOL    HW129075   4.950   4.405   3.965
 9392SOL    HW229076   4.788   4.408   3.987
 9393SOL     OW29077   2.844   6.494   6.203
 9393SOL    HW129078   2.827   6.478   6.106
 9393SOL    HW229079   2.778   6.560   6.238
 9394SOL     OW29080   5.609   0.745   1.455
 9394SOL    HW129081   5.587   0.823   1.397
 9394SOL    HW229082   5.708   0.742   1.470
 9395SOL     OW29083   2.639   1.483   0.664
 9395SOL    HW129084   2.589   1.484   0.750
 9395SOL    HW229085   2.640   1.575   0.625
 9396SOL     OW29086   1.881   5.418   5.191
 9396SOL    HW129087   1.927   5.489   5.139
 9396SOL    HW229088   1.949   5.361   5.236
 9397SOL     OW29089   3.412   6.783   5.825
 9397SOL    HW129090   3.362   6.729   5.893
 9397SOL    HW229091   3.469   6.721   5.770
 9398SOL     OW29092   6.299   1.222   5.943
 9398SOL    HW129093   6.369   1.283   5.909
 9398SOL    HW229094   6.332   1.127   5.940
 9399SOL     OW29095   1.017   2.375   4.538
 9399SOL    HW129096   1.002   2.281   4.507
 9399SOL    HW229097   0.929   2.420   4.553
 9400SOL     OW29098   4.910   0.674   0.225
 9400SOL    HW129099   4.873   0.766   0.238
 9400SOL    HW229100   4.840   0.615   0.186
 9401SOL     OW29101   0.272   2.724   1.487
 9401SOL    HW129102   0.191   2.665   1.486
 9401SOL    HW229103   0.248   2.812   1.528
 9402SOL     OW29104   2.069   5.469   3.847
 9402SOL    HW129105   2.126   5.388   3.863
 9402SOL    HW229106   1.989   5.465   3.908
 9403SOL     OW29107   0.113   1.075   2.559
 9403SOL    HW129108   0.122   1.160   2.611
 9403SOL    HW229109   0.137   1.092   2.464
 9404SOL     OW29110   0.662   2.580   1.132
 9404SOL    HW129111   0.611   2.661   1.104
 9404SOL    HW229112   0.650   2.566   1.231
 9405SOL     OW29113   0.794   4.652   4.862
 9405SOL    HW129114   0.737   4.579   4.824
 9405SOL    HW229115   0.754   4.741   4.838
 9406SOL     OW29116   0.927   3.199   6.732
 9406SOL    HW129117   0.968   3.279   6.776
 9406SOL    HW229118   0.978   3.117   6.758
 9407SOL     OW29119   2.616   5.026   5.060
 9407SOL    HW129120   2.642   4.963   5.132
 9407SOL    HW229121   2.563   4.977   4.990
 9408SOL     OW29122   6.801   3.196   5.712
 9408SOL    HW129123   6.875   3.163   5.653
 9408SOL    HW229124   6.836   3.268   5.773
 9409SOL     OW29125   6.276   5.793   2.250
 9409SOL    HW129126   6.337   5.766   2.324
 9409SOL    HW229127   6.222   5.872   2.279
 9410SOL     OW29128   4.853   1.388   1.689
 9410SOL    HW129129   4.946   1.417   1.712
 9410SOL    HW229130   4.794   1.469   1.684
 9411SOL     OW29131   3.052   3.391   2.941
 9411SOL    HW129132   3.094   3.482   2.940
 9411SOL    HW229133   3.073   3.344   2.856
 9412SOL     OW29134   0.903   0.660   0.934
 9412SOL    HW129135   0.881   0.743   0.884
 9412SOL    HW229136   0.819   0.616   0.965
 9413SOL     OW29137   4.660   4.858   4.769
 9413SOL    HW129138   4.621   4.905   4.849
 9413SOL    HW229139   4.623   4.765   4.763
 9414SOL     OW29140   2.325   2.393   4.814
 9414SOL    HW129141   2.374   2.480   4.821
 9414SOL    HW229142   2.227   2.409   4.822
 9415SOL     OW29143   2.885   0.286   1.984
 9415SOL    HW129144   2.926   0.255   1.898
 9415SOL    HW229145   2.941   0.255   2.061
 9416SOL     OW29146   0.200   0.275   5.507
 9416SOL    HW129147   0.140   0.201   5.477
 9416SOL    HW229148   0.213   0.340   5.432
 9417SOL     OW29149   3.313   6.446   1.688
 9417SOL    HW129150   3.361   6.361   1.666
 9417SOL    HW229151   3.249   6.430   1.763
 9418SOL     OW29152   3.083   1.228   3.666
 9418SOL    HW129153   3.040   1.267   3.748
 9418SOL    HW229154   3.083   1.296   3.593
 9419SOL     OW29155   2.387   2.687   6.307
 9419SOL    HW129156   2.403   2.764   6.246
 9419SOL    HW229157   2.295   2.650   6.290
 9420SOL     OW29158   5.878   4.298   0.683
 9420SOL    HW129159   5.931   4.375   0.718
 9420SOL    HW229160   5.862   4.310   0.585
 9421SOL     OW29161   3.782   5.671   4.911
 9421SOL    HW129162   3.683   5.656   4.911
 9421SOL    HW229163   3.821   5.631   4.828
 9422SOL     OW29164   2.546   6.363   4.204
 9422SOL    HW129165   2.553   6.263   4.200
 9422SOL    HW229166   2.560   6.394   4.298
 9423SOL     OW29167   3.665   5.595   3.240
 9423SOL    HW129168   3.708   5.670   3.190
 9423SOL    HW229169   3.733   5.550   3.297
 9424SOL     OW29170   5.039   1.775   4.573
 9424SOL    HW129171   4.939   1.767   4.578
 9424SOL    HW229172   5.063   1.872   4.565
 9425SOL     OW29173   6.038   4.621   1.637
 9425SOL    HW129174   6.136   4.634   1.650
 9425SOL    HW229175   6.016   4.625   1.539
 9426SOL     OW29176   0.891   1.947   6.574
 9426SOL    HW129177   0.980   1.903   6.580
 9426SOL    HW229178   0.872   1.973   6.480
 9427SOL     OW29179   2.826   5.845   2.820
 9427SOL    HW129180   2.751   5.867   2.883
 9427SOL    HW229181   2.859   5.753   2.838
 9428SOL     OW29182   6.356   6.145   0.486
 9428SOL    HW129183   6.373   6.232   0.532
 9428SOL    HW229184   6.411   6.073   0.528
 9429SOL     OW29185   1.394   2.196   4.450
 9429SOL    HW129186   1.410   2.185   4.352
 9429SOL    HW229187   1.480   2.225   4.494
 9430SOL     OW29188   0.312   2.344   4.811
 9430SOL    HW129189   0.303   2.244   4.803
 9430SOL    HW229190   0.279   2.387   4.727
 9431SOL     OW29191   7.003   4.152   0.873
 9431SOL    HW129192   6.923   4.120   0.822
 9431SOL    HW229193   6.973   4.213   0.947
 9432SOL     OW29194   6.661   1.497   3.860
 9432SOL    HW129195   6.600   1.456   3.928
 9432SOL    HW229196   6.752   1.458   3.870
 9433SOL     OW29197   4.192   5.749   2.696
 9433SOL    HW129198   4.175   5.704   2.783
 9433SOL    HW229199   4.233   5.684   2.632
 9434SOL     OW29200   5.612   5.486   3.778
 9434SOL    HW129201   5.617   5.533   3.867
 9434SOL    HW229202   5.670   5.534   3.712
 9435SOL     OW29203   0.271   2.788   2.318
 9435SOL    HW129204   0.235   2.820   2.405
 9435SOL    HW229205   0.201   2.736   2.270
 9436SOL     OW29206   0.999   1.230   1.858
 9436SOL    HW129207   1.096   1.205   1.856
 9436SOL    HW229208   0.986   1.308   1.919
 9437SOL     OW29209   0.531   5.346   3.268
 9437SOL    HW129210   0.592   5.280   3.313
 9437SOL    HW229211   0.581   5.431   3.253
 9438SOL     OW29212   2.338   6.887   1.569
 9438SOL    HW129213   2.374   6.826   1.639
 9438SOL    HW229214   2.244   6.861   1.547
 9439SOL     OW29215   0.593   3.059   0.599
 9439SOL    HW129216   0.586   3.085   0.503
 9439SOL    HW229217   0.689   3.062   0.628
 9440SOL     OW29218   2.986   4.852   3.194
 9440SOL    HW129219   2.886   4.854   3.193
 9440SOL    HW229220   3.019   4.850   3.288
 9441SOL     OW29221   6.733   5.671   5.066
 9441SOL    HW129222   6.662   5.646   5.132
 9441SOL    HW229223   6.763   5.765   5.084
 9442SOL     OW29224   4.785   3.606   1.166
 9442SOL    HW129225   4.698   3.655   1.156
 9442SOL    HW229226   4.816   3.573   1.076
 9443SOL     OW29227   3.140   5.492   1.304
 9443SOL    HW129228   3.086   5.503   1.220
 9443SOL    HW229229   3.118   5.567   1.367
 9444SOL     OW29230   2.077   3.573   0.851
 9444SOL    HW129231   2.115   3.554   0.941
 9444SOL    HW229232   2.140   3.540   0.781
 9445SOL     OW29233   0.520   2.005   4.290
 9445SOL    HW129234   0.458   2.068   4.338
 9445SOL    HW229235   0.484   1.912   4.296
 9446SOL     OW29236   6.421   5.014   4.156
 9446SOL    HW129237   6.407   4.928   4.106
 9446SOL    HW229238   6.508   5.055   4.128
 9447SOL     OW29239   5.041   5.469   3.099
 9447SOL    HW129240   5.130   5.424   3.107
 9447SOL    HW229241   5.034   5.542   3.167
 9448SOL     OW29242   6.007   6.707   5.562
 9448SOL    HW129243   6.092   6.718   5.613
 9448SOL    HW229244   5.985   6.792   5.516
 9449SOL     OW29245   5.268   6.522   6.883
 9449SOL    HW129246   5.217   6.438   6.901
 9449SOL    HW229247   5.264   6.581   6.964
 9450SOL     OW29248   1.766   5.741   4.282
 9450SOL    HW129249   1.704   5.754   4.205
 9450SOL    HW229250   1.860   5.734   4.249
 9451SOL     OW29251   3.675   5.641   6.413
 9451SOL    HW129252   3.615   5.562   6.402
 9451SOL    HW229253   3.723   5.659   6.327
 9452SOL     OW29254   0.702   4.438   1.245
 9452SOL    HW129255   0.701   4.534   1.219
 9452SOL    HW229256   0.782   4.393   1.205
 9453SOL     OW29257   3.172   4.972   3.006
 9453SOL    HW129258   3.267   4.963   3.036
 9453SOL    HW229259   3.113   4.921   3.068
 9454SOL     OW29260   4.449   4.168   0.851
 9454SOL    HW129261   4.376   4.111   0.889
 9454SOL    HW229262   4.525   4.171   0.915
 9455SOL     OW29263   2.687   2.293   2.691
 9455SOL    HW129264   2.766   2.284   2.631
 9455SOL    HW229265   2.632   2.209   2.686
 9456SOL     OW29266   6.347   3.689   2.356
 9456SOL    HW129267   6.326   3.752   2.280
 9456SOL    HW229268   6.272   3.692   2.422
 9457SOL     OW29269   1.259   5.145   4.552
 9457SOL    HW129270   1.215   5.127   4.465
 9457SOL    HW229271   1.270   5.244   4.565
 9458SOL     OW29272   6.768   4.390   0.378
 9458SOL    HW129273   6.746   4.342   0.293
 9458SOL    HW229274   6.798   4.483   0.357
 9459SOL     OW29275   5.023   4.242   4.541
 9459SOL    HW129276   5.027   4.271   4.445
 9459SOL    HW229277   5.000   4.321   4.598
 9460SOL     OW29278   1.736   3.327   4.538
 9460SOL    HW129279   1.802   3.261   4.501
 9460SOL    HW229280   1.680   3.282   4.607
 9461SOL     OW29281   1.112   1.783   1.490
 9461SOL    HW129282   1.080   1.835   1.569
 9461SOL    HW229283   1.191   1.829   1.450
 9462SOL     OW29284   1.476   2.364   3.979
 9462SOL    HW129285   1.559   2.377   3.925
 9462SOL    HW229286   1.449   2.452   4.019
 9463SOL     OW29287   5.549   6.386   1.402
 9463SOL    HW129288   5.533   6.480   1.371
 9463SOL    HW229289   5.603   6.337   1.333
 9464SOL     OW29290   6.536   0.528   1.581
 9464SOL    HW129291   6.454   0.484   1.547
 9464SOL    HW229292   6.519   0.625   1.595
 9465SOL     OW29293   0.251   4.011   1.577
 9465SOL    HW129294   0.197   4.094   1.568
 9465SOL    HW229295   0.191   3.931   1.568
 9466SOL     OW29296   4.305   5.758   6.450
 9466SOL    HW129297   4.256   5.812   6.382
 9466SOL    HW229298   4.338   5.673   6.408
 9467SOL     OW29299   2.010   2.843   0.657
 9467SOL    HW129300   1.940   2.849   0.729
 9467SOL    HW229301   1.966   2.824   0.570
 9468SOL     OW29302   6.914   3.559   6.759
 9468SOL    HW129303   6.892   3.461   6.758
 9468SOL    HW229304   6.884   3.600   6.673
 9469SOL     OW29305   0.003   6.165   0.234
 9469SOL    HW129306   0.028   6.260   0.252
 9469SOL    HW229307   0.048   6.134   0.150
 9470SOL     OW29308   4.665   4.065   6.941
 9470SOL    HW129309   4.739   4.113   6.894
 9470SOL    HW229310   4.580   4.074   6.888
 9471SOL     OW29311   6.202   2.520   5.050
 9471SOL    HW129312   6.176   2.426   5.029
 9471SOL    HW229313   6.119   2.577   5.054
 9472SOL     OW29314   1.011   4.710   6.289
 9472SOL    HW129315   1.015   4.717   6.189
 9472SOL    HW229316   0.918   4.686   6.317
 9473SOL     OW29317   3.243   3.919   6.927
 9473SOL    HW129318   3.279   3.925   6.834
 9473SOL    HW229319   3.311   3.875   6.986
 9474SOL     OW29320   5.973   3.642   1.916
 9474SOL    HW129321   6.036   3.716   1.940
 9474SOL    HW229322   5.916   3.620   1.996
 9475SOL     OW29323   4.515   3.441   6.410
 9475SOL    HW129324   4.505   3.343   6.392
 9475SOL    HW229325   4.451   3.492   6.353
 9476SOL     OW29326   3.757   4.224   5.541
 9476SOL    HW129327   3.727   4.305   5.492
 9476SOL    HW229328   3.742   4.236   5.639
 9477SOL     OW29329   1.650   3.443   1.256
 9477SOL    HW129330   1.694   3.533   1.260
 9477SOL    HW229331   1.643   3.406   1.348
 9478SOL     OW29332   4.157   2.743   1.219
 9478SOL    HW129333   4.086   2.708   1.279
 9478SOL    HW229334   4.116   2.797   1.145
 9479SOL     OW29335   4.175   1.050   1.730
 9479SOL    HW129336   4.189   1.122   1.663
 9479SOL    HW229337   4.263   1.016   1.763
 9480SOL     OW29338   5.517   5.857   0.081
 9480SOL    HW129339   5.574   5.870   0.000
 9480SOL    HW229340   5.426   5.896   0.064
 9481SOL     OW29341   4.545   1.724   3.231
 9481SOL    HW129342   4.476   1.768   3.174
 9481SOL    HW229343   4.530   1.626   3.232
 9482SOL     OW29344   5.709   0.418   1.150
 9482SOL    HW129345   5.648   0.493   1.177
 9482SOL    HW229346   5.723   0.420   1.051
 9483SOL     OW29347   0.920   0.695   0.095
 9483SOL    HW129348   0.923   0.737   0.004
 9483SOL    HW229349   0.899   0.597   0.085
 9484SOL     OW29350   2.938   6.990   4.036
 9484SOL    HW129351   2.974   6.929   4.107
 9484SOL    HW229352   3.014   7.021   3.977
 9485SOL     OW29353   5.866   1.406   1.265
 9485SOL    HW129354   5.830   1.494   1.235
 9485SOL    HW229355   5.859   1.400   1.365
 9486SOL     OW29356   4.924   5.691   0.934
 9486SOL    HW129357   4.879   5.602   0.923
 9486SOL    HW229358   4.922   5.740   0.847
 9487SOL     OW29359   3.265   3.528   4.280
 9487SOL    HW129360   3.196   3.541   4.352
 9487SOL    HW229361   3.222   3.540   4.191
 9488SOL     OW29362   1.551   1.422   1.436
 9488SOL    HW129363   1.632   1.477   1.418
 9488SOL    HW229364   1.533   1.363   1.357
 9489SOL     OW29365   5.427   4.590   1.249
 9489SOL    HW129366   5.341   4.630   1.217
 9489SOL    HW229367   5.484   4.565   1.171
 9490SOL     OW29368   6.403   5.693   3.768
 9490SOL    HW129369   6.480   5.650   3.815
 9490SOL    HW229370   6.324   5.633   3.770
 9491SOL     OW29371   5.551   5.963   3.780
 9491SOL    HW129372   5.647   5.939   3.766
 9491SOL    HW229373   5.511   5.987   3.692
 9492SOL     OW29374   4.743   3.026   5.217
 9492SOL    HW129375   4.757   3.121   5.243
 9492SOL    HW229376   4.763   2.966   5.295
 9493SOL     OW29377   3.414   6.003   4.338
 9493SOL    HW129378   3.456   6.086   4.372
 9493SOL    HW229379   3.389   6.015   4.241
 9494SOL     OW29380   5.668   2.973   2.545
 9494SOL    HW129381   5.757   2.996   2.505
 9494SOL    HW229382   5.599   2.973   2.473
 9495SOL     OW29383   6.622   1.147   2.152
 9495SOL    HW129384   6.621   1.171   2.249
 9495SOL    HW229385   6.704   1.186   2.109
 9496SOL     OW29386   4.519   2.166   2.543
 9496SOL    HW129387   4.498   2.262   2.531
 9496SOL    HW229388   4.489   2.115   2.462
 9497SOL     OW29389   5.391   5.793   5.137
 9497SOL    HW129390   5.355   5.798   5.044
 9497SOL    HW229391   5.483   5.752   5.135
 9498SOL     OW29392   0.050   4.622   4.372
 9498SOL    HW129393   0.025   4.633   4.276
 9498SOL    HW229394   7.016   4.554   4.414
 9499SOL     OW29395   6.798   5.303   5.047
 9499SOL    HW129396   6.780   5.366   4.971
 9499SOL    HW229397   6.848   5.352   5.119
 9500SOL     OW29398   4.100   6.438   1.027
 9500SOL    HW129399   4.021   6.487   0.989
 9500SOL    HW229400   4.122   6.476   1.117
 9501SOL     OW29401   1.444   1.530   4.133
 9501SOL    HW129402   1.389   1.591   4.190
 9501SOL    HW229403   1.521   1.580   4.094
 9502SOL     OW29404   5.553   4.637   4.884
 9502SOL    HW129405   5.625   4.634   4.954
 9502SOL    HW229406   5.557   4.724   4.836
 9503SOL     OW29407   0.777   2.312   0.448
 9503SOL    HW129408   0.784   2.230   0.392
 9503SOL    HW229409   0.699   2.303   0.510
 9504SOL     OW29410   7.001   3.622   1.872
 9504SOL    HW129411   0.000   3.641   1.966
 9504SOL    HW229412   6.910   3.657   1.854
 9505SOL     OW29413   4.806   5.033   5.777
 9505SOL    HW129414   4.805   5.132   5.783
 9505SOL    HW229415   4.756   4.994   5.854
 9506SOL     OW29416   2.353   2.305   0.328
 9506SOL    HW129417   2.319   2.224   0.281
 9506SOL    HW229418   2.304   2.317   0.414
 9507SOL     OW29419   6.334   0.628   0.790
 9507SOL    HW129420   6.264   0.567   0.829
 9507SOL    HW229421   6.364   0.693   0.860
 9508SOL     OW29422   5.017   1.802   2.145
 9508SOL    HW129423   5.059   1.833   2.231
 9508SOL    HW229424   4.919   1.788   2.160
 9509SOL     OW29425   6.477   0.656   3.175
 9509SOL    HW129426   6.462   0.575   3.119
 9509SOL    HW229427   6.394   0.712   3.177
 9510SOL     OW29428   0.770   3.502   3.610
 9510SOL    HW129429   0.826   3.496   3.528
 9510SOL    HW229430   0.807   3.443   3.681
 9511SOL     OW29431   0.834   1.246   1.419
 9511SOL    HW129432   0.790   1.277   1.503
 9511SOL    HW229433   0.883   1.160   1.437
 9512SOL     OW29434   6.935   3.067   0.913
 9512SOL    HW129435   7.015   3.023   0.953
 9512SOL    HW229436   6.855   3.010   0.928
 9513SOL     OW29437   3.477   4.786   5.890
 9513SOL    HW129438   3.548   4.776   5.960
 9513SOL    HW229439   3.417   4.706   5.891
 9514SOL     OW29440   3.034   3.225   6.479
 9514SOL    HW129441   3.050   3.260   6.572
 9514SOL    HW229442   2.936   3.229   6.459
 9515SOL     OW29443   2.721   4.755   3.228
 9515SOL    HW129444   2.690   4.701   3.150
 9515SOL    HW229445   2.673   4.725   3.311
 9516SOL     OW29446   6.014   4.778   0.643
 9516SOL    HW129447   6.051   4.704   0.700
 9516SOL    HW229448   5.929   4.812   0.685
 9517SOL     OW29449   1.077   4.220   1.655
 9517SOL    HW129450   1.047   4.244   1.562
 9517SOL    HW229451   1.052   4.293   1.718
 9518SOL     OW29452   2.788   1.071   0.328
 9518SOL    HW129453   2.828   0.981   0.344
 9518SOL    HW229454   2.817   1.134   0.400
 9519SOL     OW29455   1.224   2.440   5.531
 9519SOL    HW129456   1.206   2.535   5.557
 9519SOL    HW229457   1.201   2.379   5.607
 9520SOL     OW29458   2.438   0.311   2.310
 9520SOL    HW129459   2.419   0.224   2.355
 9520SOL    HW229460   2.393   0.314   2.221
 9521SOL     OW29461   5.983   5.865   4.104
 9521SOL    HW129462   6.062   5.827   4.153
 9521SOL    HW229463   5.985   5.835   4.009
 9522SOL     OW29464   3.431   5.924   0.677
 9522SOL    HW129465   3.428   5.840   0.732
 9522SOL    HW229466   3.429   6.003   0.738
 9523SOL     OW29467   3.397   5.146   4.622
 9523SOL    HW129468   3.306   5.185   4.608
 9523SOL    HW229469   3.464   5.219   4.626
 9524SOL     OW29470   3.535   2.731   1.244
 9524SOL    HW129471   3.546   2.660   1.313
 9524SOL    HW229472   3.524   2.688   1.154
 9525SOL     OW29473   2.115   1.287   6.164
 9525SOL    HW129474   2.078   1.373   6.199
 9525SOL    HW229475   2.158   1.302   6.075
 9526SOL     OW29476   5.564   5.980   3.187
 9526SOL    HW129477   5.466   5.964   3.179
 9526SOL    HW229478   5.590   6.055   3.126
 9527SOL     OW29479   0.901   0.767   1.980
 9527SOL    HW129480   0.953   0.801   2.058
 9527SOL    HW229481   0.860   0.678   2.003
 9528SOL     OW29482   6.654   0.216   0.581
 9528SOL    HW129483   6.559   0.197   0.554
 9528SOL    HW229484   6.655   0.251   0.675
 9529SOL     OW29485   1.333   3.252   6.635
 9529SOL    HW129486   1.388   3.230   6.715
 9529SOL    HW229487   1.247   3.296   6.664
 9530SOL     OW29488   1.611   2.790   3.110
 9530SOL    HW129489   1.682   2.774   3.179
 9530SOL    HW229490   1.525   2.812   3.156
 9531SOL     OW29491   4.151   6.051   2.670
 9531SOL    HW129492   4.104   6.088   2.591
 9531SOL    HW229493   4.179   5.956   2.651
 9532SOL     OW29494   1.816   6.069   1.376
 9532SOL    HW129495   1.816   5.974   1.346
 9532SOL    HW229496   1.904   6.111   1.355
 9533SOL     OW29497   0.399   1.157   5.029
 9533SOL    HW129498   0.401   1.133   4.932
 9533SOL    HW229499   0.403   1.256   5.039
 9534SOL     OW29500   5.553   1.984   5.073
 9534SOL    HW129501   5.557   2.039   4.989
 9534SOL    HW229502   5.461   1.988   5.111
 9535SOL     OW29503   2.786   0.660   5.955
 9535SOL    HW129504   2.880   0.627   5.964
 9535SOL    HW229505   2.786   0.754   5.921
 9536SOL     OW29506   2.181   5.802   5.444
 9536SOL    HW129507   2.201   5.867   5.517
 9536SOL    HW229508   2.083   5.783   5.443
 9537SOL     OW29509   3.352   0.283   2.371
 9537SOL    HW129510   3.439   0.243   2.341
 9537SOL    HW229511   3.369   0.351   2.442
 9538SOL     OW29512   6.489   1.948   4.549
 9538SOL    HW129513   6.523   2.026   4.601
 9538SOL    HW229514   6.565   1.906   4.499
 9539SOL     OW29515   2.043   5.550   6.396
 9539SOL    HW129516   2.092   5.557   6.310
 9539SOL    HW229517   2.001   5.460   6.404
 9540SOL     OW29518   4.673   4.796   5.588
 9540SOL    HW129519   4.684   4.892   5.614
 9540SOL    HW229520   4.674   4.738   5.669
 9541SOL     OW29521   1.278   2.338   5.088
 9541SOL    HW129522   1.375   2.326   5.069
 9541SOL    HW229523   1.246   2.423   5.046
 9542SOL     OW29524   4.906   3.360   4.714
 9542SOL    HW129525   4.820   3.313   4.736
 9542SOL    HW229526   4.910   3.448   4.761
 9543SOL     OW29527   4.703   0.731   4.152
 9543SOL    HW129528   4.663   0.817   4.185
 9543SOL    HW229529   4.631   0.663   4.139
 9544SOL     OW29530   5.904   0.229   2.172
 9544SOL    HW129531   5.946   0.139   2.162
 9544SOL    HW229532   5.834   0.242   2.102
 9545SOL     OW29533   6.571   6.601   3.371
 9545SOL    HW129534   6.597   6.583   3.276
 9545SOL    HW229535   6.554   6.698   3.383
 9546SOL     OW29536   2.890   4.243   6.748
 9546SOL    HW129537   2.808   4.297   6.767
 9546SOL    HW229538   2.964   4.272   6.809
 9547SOL     OW29539   1.268   6.335   4.055
 9547SOL    HW129540   1.173   6.366   4.057
 9547SOL    HW229541   1.320   6.392   3.991
 9548SOL     OW29542   5.805   5.697   4.916
 9548SOL    HW129543   5.835   5.783   4.875
 9548SOL    HW229544   5.757   5.642   4.848
 9549SOL     OW29545   3.683   5.158   0.453
 9549SOL    HW129546   3.695   5.166   0.354
 9549SOL    HW229547   3.676   5.250   0.493
 9550SOL     OW29548   0.387   1.588   0.299
 9550SOL    HW129549   0.349   1.635   0.219
 9550SOL    HW229550   0.461   1.527   0.270
 9551SOL     OW29551   0.428   0.148   4.767
 9551SOL    HW129552   0.369   0.084   4.719
 9551SOL    HW229553   0.376   0.229   4.792
 9552SOL     OW29554   1.320   6.871   3.388
 9552SOL    HW129555   1.343   6.875   3.485
 9552SOL    HW229556   1.392   6.916   3.335
 9553SOL     OW29557   5.822   4.584   6.757
 9553SOL    HW129558   5.786   4.492   6.776
 9553SOL    HW229559   5.889   4.609   6.827
 9554SOL     OW29560   2.774   0.998   2.222
 9554SOL    HW129561   2.751   0.949   2.138
 9554SOL    HW229562   2.693   1.048   2.254
 9555SOL     OW29563   6.427   2.463   1.055
 9555SOL    HW129564   6.416   2.553   1.014
 9555SOL    HW229565   6.498   2.412   1.006
 9556SOL     OW29566   2.133   0.744   1.131
 9556SOL    HW129567   2.138   0.825   1.071
 9556SOL    HW229568   2.109   0.773   1.223
 9557SOL     OW29569   6.257   0.445   2.362
 9557SOL    HW129570   6.179   0.431   2.302
 9557SOL    HW229571   6.339   0.462   2.307
 9558SOL     OW29572   0.191   4.922   2.944
 9558SOL    HW129573   0.278   4.888   2.980
 9558SOL    HW229574   0.205   5.014   2.906
 9559SOL     OW29575   0.297   3.112   2.216
 9559SOL    HW129576   0.349   3.131   2.133
 9559SOL    HW229577   0.309   3.017   2.243
 9560SOL     OW29578   2.496   1.412   3.416
 9560SOL    HW129579   2.595   1.403   3.426
 9560SOL    HW229580   2.451   1.339   3.466
 9561SOL     OW29581   3.402   6.704   0.737
 9561SOL    HW129582   3.343   6.727   0.659
 9561SOL    HW229583   3.442   6.788   0.773
 9562SOL     OW29584   4.721   6.090   2.855
 9562SOL    HW129585   4.625   6.117   2.866
 9562SOL    HW229586   4.753   6.115   2.764
 9563SOL     OW29587   0.205   6.236   6.244
 9563SOL    HW129588   0.165   6.325   6.267
 9563SOL    HW229589   0.147   6.189   6.178
 9564SOL     OW29590   2.822   6.922   6.705
 9564SOL    HW129591   2.762   6.871   6.643
 9564SOL    HW229592   2.904   6.952   6.655
 9565SOL     OW29593   3.752   5.996   4.381
 9565SOL    HW129594   3.734   5.907   4.424
 9565SOL    HW229595   3.702   6.001   4.295
 9566SOL     OW29596   2.732   4.372   5.660
 9566SOL    HW129597   2.825   4.380   5.625
 9566SOL    HW229598   2.709   4.276   5.675
 9567SOL     OW29599   6.332   5.837   6.438
 9567SOL    HW129600   6.350   5.926   6.395
 9567SOL    HW229601   6.380   5.832   6.526
 9568SOL     OW29602   5.529   4.021   6.500
 9568SOL    HW129603   5.553   3.939   6.448
 9568SOL    HW229604   5.546   4.006   6.597
 9569SOL     OW29605   6.220   1.325   0.029
 9569SOL    HW129606   6.255   1.267   6.982
 9569SOL    HW229607   6.294   1.349   0.092
 9570SOL     OW29608   0.055   1.415   0.984
 9570SOL    HW129609   0.119   1.345   1.014
 9570SOL    HW229610   0.029   1.398   0.889
 9571SOL     OW29611   1.832   3.544   0.238
 9571SOL    HW129612   1.840   3.608   0.315
 9571SOL    HW229613   1.821   3.595   0.153
 9572SOL     OW29614   1.323   4.112   1.553
 9572SOL    HW129615   1.238   4.144   1.595
 9572SOL    HW229616   1.302   4.040   1.486
 9573SOL     OW29617   1.661   1.329   0.299
 9573SOL    HW129618   1.684   1.367   0.210
 9573SOL    HW229619   1.580   1.271   0.290
 9574SOL     OW29620   3.576   3.468   5.389
 9574SOL    HW129621   3.550   3.377   5.423
 9574SOL    HW229622   3.665   3.463   5.344
 9575SOL     OW29623   5.350   0.690   2.055
 9575SOL    HW129624   5.371   0.773   2.108
 9575SOL    HW229625   5.348   0.713   1.957
 9576SOL     OW29626   2.858   1.613   4.436
 9576SOL    HW129627   2.882   1.660   4.521
 9576SOL    HW229628   2.889   1.667   4.358
 9577SOL     OW29629   0.324   6.183   2.684
 9577SOL    HW129630   0.227   6.165   2.673
 9577SOL    HW229631   0.340   6.281   2.693
 9578SOL     OW29632   6.331   2.671   2.131
 9578SOL    HW129633   6.296   2.588   2.176
 9578SOL    HW229634   6.424   2.689   2.163
 9579SOL     OW29635   1.552   6.854   1.658
 9579SOL    HW129636   1.552   6.952   1.680
 9579SOL    HW229637   1.515   6.841   1.566
 9580SOL     OW29638   4.320   3.815   7.014
 9580SOL    HW129639   4.367   3.835   0.074
 9580SOL    HW229640   4.248   3.883   6.998
 9581SOL     OW29641   1.160   5.361   6.234
 9581SOL    HW129642   1.107   5.444   6.217
 9581SOL    HW229643   1.100   5.282   6.231
 9582SOL     OW29644   4.107   4.738   4.210
 9582SOL    HW129645   4.040   4.766   4.141
 9582SOL    HW229646   4.123   4.813   4.274
 9583SOL     OW29647   2.065   3.565   2.181
 9583SOL    HW129648   2.069   3.492   2.249
 9583SOL    HW229649   2.130   3.545   2.107
 9584SOL     OW29650   6.246   5.120   6.835
 9584SOL    HW129651   6.267   5.087   6.927
 9584SOL    HW229652   6.196   5.207   6.842
 9585SOL     OW29653   6.108   0.091   3.434
 9585SOL    HW129654   6.084   0.125   3.343
 9585SOL    HW229655   6.072   7.025   3.447
 9586SOL     OW29656   4.980   3.331   3.218
 9586SOL    HW129657   4.914   3.264   3.185
 9586SOL    HW229658   5.026   3.375   3.140
 9587SOL     OW29659   5.693   0.338   2.014
 9587SOL    HW129660   5.660   0.423   2.053
 9587SOL    HW229661   5.615   0.286   1.978
 9588SOL     OW29662   0.552   0.683   1.508
 9588SOL    HW129663   0.617   0.627   1.458
 9588SOL    HW229664   0.515   0.631   1.585
 9589SOL     OW29665   2.603   0.248   5.995
 9589SOL    HW129666   2.701   0.270   5.996
 9589SOL    HW229667   2.586   0.170   6.056
 9590SOL     OW29668   6.975   4.284   3.027
 9590SOL    HW129669   7.020   4.373   3.027
 9590SOL    HW229670   0.011   4.216   3.066
 9591SOL     OW29671   2.503   5.549   0.850
 9591SOL    HW129672   2.535   5.606   0.775
 9591SOL    HW229673   2.426   5.593   0.896
 9592SOL     OW29674   4.469   5.657   2.434
 9592SOL    HW129675   4.408   5.591   2.478
 9592SOL    HW229676   4.442   5.750   2.458
 9593SOL     OW29677   6.398   2.803   4.730
 9593SOL    HW129678   6.380   2.772   4.637
 9593SOL    HW229679   6.455   2.735   4.778
 9594SOL     OW29680   6.460   6.710   2.263
 9594SOL    HW129681   6.403   6.754   2.193
 9594SOL    HW229682   6.476   6.615   2.238
 9595SOL     OW29683   2.030   5.868   4.526
 9595SOL    HW129684   2.097   5.934   4.559
 9595SOL    HW229685   1.994   5.815   4.603
 9596SOL     OW29686   5.877   5.789   5.621
 9596SOL    HW129687   5.857   5.868   5.678
 9596SOL    HW229688   5.807   5.719   5.635
 9597SOL     OW29689   1.054   3.940   1.600
 9597SOL    HW129690   1.037   4.035   1.628
 9597SOL    HW229691   1.109   3.894   1.670
 9598SOL     OW29692   0.159   4.684   6.044
 9598SOL    HW129693   0.105   4.762   6.012
 9598SOL    HW229694   0.211   4.711   6.125
 9599SOL     OW29695   4.263   0.921   5.766
 9599SOL    HW129696   4.320   0.961   5.837
 9599SOL    HW229697   4.292   0.955   5.676
 9600SOL     OW29698   1.507   6.719   6.110
 9600SOL    HW129699   1.458   6.651   6.164
 9600SOL    HW229700   1.442   6.770   6.053
 9601SOL     OW29701   0.545   4.859   5.327
 9601SOL    HW129702   0.623   4.825   5.274
 9601SOL    HW229703   0.578   4.888   5.417
 9602SOL     OW29704   0.813   5.436   6.920
 9602SOL    HW129705   0.835   5.345   6.955
 9602SOL    HW229706   0.879   5.502   6.956
 9603SOL     OW29707   1.706   6.303   4.729
 9603SOL    HW129708   1.792   6.353   4.725
 9603SOL    HW229709   1.691   6.255   4.642
 9604SOL     OW29710   5.443   1.202   6.580
 9604SOL    HW129711   5.437   1.198   6.480
 9604SOL    HW229712   5.366   1.254   6.616
 9605SOL     OW29713   2.182   5.805   6.319
 9605SOL    HW129714   2.164   5.902   6.334
 9605SOL    HW229715   2.115   5.750   6.369
 9606SOL     OW29716   0.398   6.254   3.964
 9606SOL    HW129717   0.453   6.322   4.013
 9606SOL    HW229718   0.368   6.293   3.877
 9607SOL     OW29719   1.104   1.547   2.559
 9607SOL    HW129720   1.169   1.621   2.577
 9607SOL    HW229721   1.153   1.461   2.549
 9608SOL     OW29722   0.234   6.956   2.826
 9608SOL    HW129723   0.309   6.922   2.770
 9608SOL    HW229724   0.147   6.922   2.789
 9609SOL     OW29725   2.208   4.498   4.571
 9609SOL    HW129726   2.197   4.584   4.620
 9609SOL    HW229727   2.139   4.492   4.499
 9610SOL     OW29728   2.001   1.501   6.282
 9610SOL    HW129729   1.909   1.474   6.310
 9610SOL    HW229730   2.030   1.581   6.334
 9611SOL     OW29731   6.420   0.082   1.058
 9611SOL    HW129732   6.454   0.141   1.132
 9611SOL    HW229733   6.324   0.104   1.040
 9612SOL     OW29734   5.710   3.299   1.738
 9612SOL    HW129735   5.641   3.293   1.810
 9612SOL    HW229736   5.735   3.395   1.723
 9613SOL     OW29737   6.358   6.461   4.880
 9613SOL    HW129738   6.421   6.526   4.922
 9613SOL    HW229739   6.389   6.368   4.896
 9614SOL     OW29740   3.353   3.758   2.313
 9614SOL    HW129741   3.277   3.788   2.372
 9614SOL    HW229742   3.390   3.672   2.348
 9615SOL     OW29743   1.371   6.375   2.257
 9615SOL    HW129744   1.454   6.326   2.232
 9615SOL    HW229745   1.376   6.469   2.222
 9616SOL     OW29746   3.486   2.421   0.886
 9616SOL    HW129747   3.442   2.332   0.896
 9616SOL    HW229748   3.418   2.493   0.900
 9617SOL     OW29749   1.409   3.180   3.624
 9617SOL    HW129750   1.459   3.096   3.600
 9617SOL    HW229751   1.474   3.249   3.657
 9618SOL     OW29752   3.482   5.946   6.320
 9618SOL    HW129753   3.508   5.945   6.223
 9618SOL    HW229754   3.400   6.001   6.331
 9619SOL     OW29755   2.693   5.945   0.428
 9619SOL    HW129756   2.741   6.030   0.452
 9619SOL    HW229757   2.603   5.945   0.473
 9620SOL     OW29758   3.434   1.269   6.692
 9620SOL    HW129759   3.385   1.193   6.648
 9620SOL    HW229760   3.489   1.317   6.624
 9621SOL     OW29761   0.598   0.722   2.105
 9621SOL    HW129762   0.586   0.805   2.051
 9621SOL    HW229763   0.654   0.657   2.054
 9622SOL     OW29764   5.908   0.462   6.349
 9622SOL    HW129765   5.904   0.367   6.380
 9622SOL    HW229766   5.855   0.471   6.265
 9623SOL     OW29767   4.490   6.207   6.145
 9623SOL    HW129768   4.488   6.306   6.149
 9623SOL    HW229769   4.551   6.172   6.217
 9624SOL     OW29770   4.428   5.467   5.142
 9624SOL    HW129771   4.446   5.556   5.100
 9624SOL    HW229772   4.420   5.398   5.071
 9625SOL     OW29773   5.190   4.003   6.487
 9625SOL    HW129774   5.197   3.999   6.387
 9625SOL    HW229775   5.282   4.008   6.526
 9626SOL     OW29776   1.561   4.384   6.332
 9626SOL    HW129777   1.601   4.310   6.385
 9626SOL    HW229778   1.633   4.444   6.298
 9627SOL     OW29779   0.735   5.223   6.557
 9627SOL    HW129780   0.782   5.148   6.511
 9627SOL    HW229781   0.704   5.191   6.647
 9628SOL     OW29782   5.894   3.798   0.092
 9628SOL    HW129783   5.880   3.715   0.038
 9628SOL    HW229784   5.897   3.775   0.189
 9629SOL     OW29785   6.992   5.693   2.900
 9629SOL    HW129786   0.036   5.700   2.829
 9629SOL    HW229787   6.910   5.741   2.870
 9630SOL     OW29788   6.385   6.098   5.558
 9630SOL    HW129789   6.474   6.102   5.513
 9630SOL    HW229790   6.312   6.108   5.490
 9631SOL     OW29791   4.359   1.199   0.726
 9631SOL    HW129792   4.316   1.282   0.761
 9631SOL    HW229793   4.386   1.214   0.630
 9632SOL     OW29794   3.385   6.342   1.375
 9632SOL    HW129795   3.366   6.247   1.398
 9632SOL    HW229796   3.335   6.368   1.293
 9633SOL     OW29797   3.892   3.159   2.345
 9633SOL    HW129798   3.826   3.084   2.343
 9633SOL    HW229799   3.843   3.246   2.347
 9634SOL     OW29800   5.180   4.792   2.654
 9634SOL    HW129801   5.159   4.890   2.653
 9634SOL    HW229802   5.098   4.741   2.678
 9635SOL     OW29803   1.316   4.150   3.767
 9635SOL    HW129804   1.277   4.223   3.823
 9635SOL    HW229805   1.346   4.075   3.826
 9636SOL     OW29806   4.461   2.051   4.907
 9636SOL    HW129807   4.541   2.024   4.960
 9636SOL    HW229808   4.486   2.058   4.810
 9637SOL     OW29809   2.447   2.908   0.752
 9637SOL    HW129810   2.511   2.954   0.690
 9637SOL    HW229811   2.407   2.829   0.705
 9638SOL     OW29812   0.181   4.695   5.627
 9638SOL    HW129813   0.217   4.633   5.697
 9638SOL    HW229814   0.081   4.693   5.629
 9639SOL     OW29815   4.530   1.788   1.901
 9639SOL    HW129816   4.596   1.748   1.838
 9639SOL    HW229817   4.448   1.816   1.850
 9640SOL     OW29818   3.856   0.767   2.248
 9640SOL    HW129819   3.778   0.742   2.191
 9640SOL    HW229820   3.859   0.866   2.260
 9641SOL     OW29821   6.147   4.707   2.708
 9641SOL    HW129822   6.068   4.766   2.694
 9641SOL    HW229823   6.143   4.630   2.644
 9642SOL     OW29824   1.614   0.491   3.809
 9642SOL    HW129825   1.614   0.549   3.891
 9642SOL    HW229826   1.679   0.528   3.743
 9643SOL     OW29827   5.232   3.853   4.074
 9643SOL    HW129828   5.162   3.843   4.144
 9643SOL    HW229829   5.211   3.793   3.996
 9644SOL     OW29830   1.281   5.807   4.972
 9644SOL    HW129831   1.270   5.729   5.032
 9644SOL    HW229832   1.358   5.791   4.909
 9645SOL     OW29833   1.684   5.481   5.937
 9645SOL    HW129834   1.760   5.468   6.000
 9645SOL    HW229835   1.642   5.393   5.916
 9646SOL     OW29836   2.959   6.698   5.476
 9646SOL    HW129837   2.877   6.662   5.521
 9646SOL    HW229838   2.963   6.797   5.490
 9647SOL     OW29839   6.336   6.006   3.265
 9647SOL    HW129840   6.275   5.940   3.310
 9647SOL    HW229841   6.328   6.094   3.312
 9648SOL     OW29842   4.756   1.979   1.304
 9648SOL    HW129843   4.698   2.047   1.260
 9648SOL    HW229844   4.790   2.015   1.391
 9649SOL     OW29845   2.574   3.377   0.594
 9649SOL    HW129846   2.605   3.465   0.558
 9649SOL    HW229847   2.539   3.320   0.519
 9650SOL     OW29848   6.865   4.816   4.154
 9650SOL    HW129849   6.907   4.901   4.121
 9650SOL    HW229850   6.788   4.792   4.095
 9651SOL     OW29851   2.668   1.682   0.134
 9651SOL    HW129852   2.733   1.655   0.063
 9651SOL    HW229853   2.681   1.625   0.215
 9652SOL     OW29854   6.979   3.719   1.131
 9652SOL    HW129855   0.052   3.712   1.137
 9652SOL    HW229856   6.950   3.810   1.161
 9653SOL     OW29857   4.593   3.889   6.207
 9653SOL    HW129858   4.602   3.892   6.306
 9653SOL    HW229859   4.682   3.874   6.165
 9654SOL     OW29860   3.574   3.295   3.357
 9654SOL    HW129861   3.486   3.285   3.403
 9654SOL    HW229862   3.626   3.210   3.364
 9655SOL     OW29863   5.587   0.551   2.132
 9655SOL    HW129864   5.649   0.614   2.178
 9655SOL    HW229865   5.497   0.593   2.124
 9656SOL     OW29866   5.943   3.785   0.879
 9656SOL    HW129867   5.953   3.833   0.792
 9656SOL    HW229868   6.030   3.744   0.905
 9657SOL     OW29869   5.968   3.510   3.577
 9657SOL    HW129870   5.901   3.566   3.626
 9657SOL    HW229871   5.984   3.548   3.486
 9658SOL     OW29872   4.803   1.556   2.710
 9658SOL    HW129873   4.787   1.533   2.614
 9658SOL    HW229874   4.836   1.650   2.717
 9659SOL     OW29875   3.310   2.653   0.899
 9659SOL    HW129876   3.271   2.679   0.811
 9659SOL    HW229877   3.394   2.705   0.915
 9660SOL     OW29878   1.040   5.848   0.848
 9660SOL    HW129879   1.032   5.944   0.821
 9660SOL    HW229880   1.131   5.830   0.884
 9661SOL     OW29881   5.238   4.702   1.048
 9661SOL    HW129882   5.304   4.733   0.978
 9661SOL    HW229883   5.174   4.775   1.068
 9662SOL     OW29884   5.274   4.488   6.986
 9662SOL    HW129885   5.337   4.493   6.909
 9662SOL    HW229886   5.318   4.528   0.041
 9663SOL     OW29887   0.876   4.379   3.483
 9663SOL    HW129888   0.890   4.281   3.475
 9663SOL    HW229889   0.821   4.398   3.565
 9664SOL     OW29890   5.183   4.078   3.471
 9664SOL    HW129891   5.108   4.141   3.451
 9664SOL    HW229892   5.261   4.129   3.504
 9665SOL     OW29893   6.328   6.494   6.666
 9665SOL    HW129894   6.287   6.579   6.631
 9665SOL    HW229895   6.255   6.428   6.685
 9666SOL     OW29896   6.180   4.496   1.257
 9666SOL    HW129897   6.122   4.427   1.214
 9666SOL    HW229898   6.240   4.536   1.188
 9667SOL     OW29899   4.712   5.511   1.030
 9667SOL    HW129900   4.751   5.467   1.111
 9667SOL    HW229901   4.719   5.450   0.952
 9668SOL     OW29902   1.527   6.231   5.820
 9668SOL    HW129903   1.495   6.156   5.763
 9668SOL    HW229904   1.576   6.194   5.899
 9669SOL     OW29905   2.764   6.893   0.603
 9669SOL    HW129906   2.709   6.961   0.552
 9669SOL    HW229907   2.747   6.903   0.701
 9670SOL     OW29908   0.335   0.622   5.821
 9670SOL    HW129909   0.237   0.644   5.821
 9670SOL    HW229910   0.367   0.610   5.915
 9671SOL     OW29911   0.819   4.897   6.795
 9671SOL    HW129912   0.913   4.865   6.788
 9671SOL    HW229913   0.757   4.828   6.757
 9672SOL     OW29914   0.906   4.357   4.237
 9672SOL    HW129915   0.855   4.433   4.278
 9672SOL    HW229916   0.947   4.302   4.309
 9673SOL     OW29917   2.869   4.086   1.614
 9673SOL    HW129918   2.890   4.004   1.559
 9673SOL    HW229919   2.773   4.084   1.641
 9674SOL     OW29920   3.459   6.347   2.960
 9674SOL    HW129921   3.458   6.327   3.058
 9674SOL    HW229922   3.452   6.446   2.945
 9675SOL     OW29923   4.744   3.991   1.013
 9675SOL    HW129924   4.731   4.088   1.036
 9675SOL    HW229925   4.839   3.966   1.029
 9676SOL     OW29926   1.067   2.936   6.183
 9676SOL    HW129927   1.097   2.887   6.265
 9676SOL    HW229928   1.132   3.009   6.163
 9677SOL     OW29929   5.964   5.075   0.623
 9677SOL    HW129930   5.883   5.039   0.669
 9677SOL    HW229931   6.035   5.004   0.619
 9678SOL     OW29932   3.322   3.889   4.799
 9678SOL    HW129933   3.262   3.950   4.748
 9678SOL    HW229934   3.333   3.803   4.749
 9679SOL     OW29935   2.435   1.839   4.388
 9679SOL    HW129936   2.417   1.854   4.486
 9679SOL    HW229937   2.478   1.750   4.376
 9680SOL     OW29938   4.582   6.256   3.479
 9680SOL    HW129939   4.508   6.279   3.542
 9680SOL    HW229940   4.562   6.295   3.389
 9681SOL     OW29941   2.052   0.848   1.358
 9681SOL    HW129942   1.972   0.905   1.342
 9681SOL    HW229943   2.110   0.890   1.428
 9682SOL     OW29944   5.446   5.358   4.509
 9682SOL    HW129945   5.412   5.317   4.593
 9682SOL    HW229946   5.402   5.447   4.495
 9683SOL     OW29947   1.797   6.562   0.534
 9683SOL    HW129948   1.735   6.609   0.471
 9683SOL    HW229949   1.752   6.479   0.568
 9684SOL     OW29950   1.830   4.336   5.370
 9684SOL    HW129951   1.905   4.362   5.430
 9684SOL    HW229952   1.821   4.236   5.368
 9685SOL     OW29953   4.464   3.646   0.881
 9685SOL    HW129954   4.426   3.575   0.821
 9685SOL    HW229955   4.450   3.736   0.841
 9686SOL     OW29956   6.329   2.144   6.453
 9686SOL    HW129957   6.291   2.127   6.544
 9686SOL    HW229958   6.351   2.242   6.444
 9687SOL     OW29959   6.289   0.240   1.887
 9687SOL    HW129960   6.205   0.290   1.866
 9687SOL    HW229961   6.266   0.148   1.919
 9688SOL     OW29962   1.786   4.646   1.246
 9688SOL    HW129963   1.864   4.701   1.217
 9688SOL    HW229964   1.723   4.703   1.299
 9689SOL     OW29965   1.108   6.143   6.748
 9689SOL    HW129966   1.122   6.221   6.809
 9689SOL    HW229967   1.195   6.116   6.707
 9690SOL     OW29968   5.135   5.379   4.663
 9690SOL    HW129969   5.150   5.291   4.617
 9690SOL    HW229970   5.137   5.365   4.762
 9691SOL     OW29971   3.126   4.046   2.069
 9691SOL    HW129972   3.079   4.102   2.001
 9691SOL    HW229973   3.224   4.042   2.047
 9692SOL     OW29974   4.185   5.077   6.705
 9692SOL    HW129975   4.121   5.090   6.781
 9692SOL    HW229976   4.268   5.032   6.738
 9693SOL     OW29977   5.872   4.018   3.840
 9693SOL    HW129978   5.944   4.087   3.850
 9693SOL    HW229979   5.898   3.935   3.888
 9694SOL     OW29980   3.002   6.880   1.927
 9694SOL    HW129981   3.042   6.788   1.932
 9694SOL    HW229982   2.905   6.872   1.904
 9695SOL     OW29983   0.128   4.045   3.795
 9695SOL    HW129984   0.187   3.971   3.763
 9695SOL    HW229985   0.180   4.104   3.858
 9696SOL     OW29986   6.051   1.850   3.076
 9696SOL    HW129987   5.992   1.854   2.995
 9696SOL    HW229988   6.146   1.843   3.047
 9697SOL     OW29989   0.258   5.641   0.372
 9697SOL    HW129990   0.333   5.702   0.397
 9697SOL    HW229991   0.294   5.563   0.321
 9698SOL     OW29992   5.410   3.627   0.179
 9698SOL    HW129993   5.372   3.696   0.240
 9698SOL    HW229994   5.399   3.536   0.220
 9699SOL     OW29995   1.154   5.160   0.416
 9699SOL    HW129996   1.236   5.185   0.364
 9699SOL    HW229997   1.073   5.198   0.372
 9700SOL     OW29998   5.852   6.629   3.985
 9700SOL    HW129999   5.844   6.602   3.889
 9700SOL    HW230000   5.803   6.716   3.999
 9701SOL     OW30001   4.764   3.011   6.831
 9701SOL    HW130002   4.714   2.926   6.816
 9701SOL    HW230003   4.720   3.085   6.780
 9702SOL     OW30004   3.637   3.138   0.580
 9702SOL    HW130005   3.601   3.047   0.602
 9702SOL    HW230006   3.561   3.199   0.555
 9703SOL     OW30007   6.137   4.258   5.180
 9703SOL    HW130008   6.080   4.335   5.153
 9703SOL    HW230009   6.233   4.287   5.183
 9704SOL     OW30010   3.000   4.939   2.654
 9704SOL    HW130011   2.968   4.878   2.581
 9704SOL    HW230012   3.099   4.948   2.649
 9705SOL     OW30013   5.772   4.253   5.445
 9705SOL    HW130014   5.807   4.169   5.403
 9705SOL    HW230015   5.783   4.247   5.544
 9706SOL     OW30016   1.464   1.551   1.882
 9706SOL    HW130017   1.500   1.460   1.899
 9706SOL    HW230018   1.413   1.552   1.796
 9707SOL     OW30019   6.064   4.874   2.345
 9707SOL    HW130020   5.967   4.896   2.355
 9707SOL    HW230021   6.085   4.791   2.396
 9708SOL     OW30022   1.531   0.965   2.543
 9708SOL    HW130023   1.597   0.892   2.557
 9708SOL    HW230024   1.438   0.927   2.544
 9709SOL     OW30025   5.974   3.171   2.741
 9709SOL    HW130026   5.935   3.106   2.806
 9709SOL    HW230027   5.927   3.259   2.749
 9710SOL     OW30028   6.534   6.708   6.472
 9710SOL    HW130029   6.588   6.634   6.431
 9710SOL    HW230030   6.587   6.753   6.543
 9711SOL     OW30031   3.791   6.458   6.513
 9711SOL    HW130032   3.870   6.498   6.562
 9711SOL    HW230033   3.789   6.493   6.420
 9712SOL     OW30034   5.834   3.229   0.754
 9712SOL    HW130035   5.799   3.247   0.846
 9712SOL    HW230036   5.816   3.133   0.730
 9713SOL     OW30037   1.832   6.451   3.426
 9713SOL    HW130038   1.749   6.409   3.461
 9713SOL    HW230039   1.812   6.544   3.394
 9714SOL     OW30040   3.615   5.304   4.661
 9714SOL    HW130041   3.638   5.400   4.672
 9714SOL    HW230042   3.595   5.264   4.751
 9715SOL     OW30043   6.408   4.515   1.427
 9715SOL    HW130044   6.326   4.504   1.370
 9715SOL    HW230045   6.432   4.612   1.434
 9716SOL     OW30046   4.131   4.205   6.565
 9716SOL    HW130047   4.100   4.121   6.610
 9716SOL    HW230048   4.227   4.222   6.587
 9717SOL     OW30049   4.735   0.558   6.098
 9717SOL    HW130050   4.697   0.468   6.081
 9717SOL    HW230051   4.665   0.628   6.082
 9718SOL     OW30052   3.376   2.043   0.195
 9718SOL    HW130053   3.447   2.077   0.258
 9718SOL    HW230054   3.418   2.022   0.107
 9719SOL     OW30055   4.960   6.387   4.801
 9719SOL    HW130056   5.034   6.365   4.865
 9719SOL    HW230057   4.956   6.487   4.789
 9720SOL     OW30058   1.660   4.235   2.356
 9720SOL    HW130059   1.757   4.248   2.375
 9720SOL    HW230060   1.612   4.215   2.442
 9721SOL     OW30061   0.690   1.760   0.743
 9721SOL    HW130062   0.608   1.736   0.692
 9721SOL    HW230063   0.744   1.678   0.761
 9722SOL     OW30064   3.228   2.408   5.646
 9722SOL    HW130065   3.214   2.332   5.582
 9722SOL    HW230066   3.183   2.490   5.610
 9723SOL     OW30067   6.094   4.702   4.645
 9723SOL    HW130068   6.102   4.758   4.727
 9723SOL    HW230069   6.184   4.692   4.602
 9724SOL     OW30070   1.908   5.679   6.591
 9724SOL    HW130071   1.822   5.629   6.589
 9724SOL    HW230072   1.969   5.643   6.520
 9725SOL     OW30073   3.873   5.350   5.138
 9725SOL    HW130074   3.773   5.350   5.131
 9725SOL    HW230075   3.908   5.438   5.107
 9726SOL     OW30076   5.498   0.857   4.438
 9726SOL    HW130077   5.532   0.834   4.346
 9726SOL    HW230078   5.479   0.955   4.442
 9727SOL     OW30079   0.115   2.479   0.166
 9727SOL    HW130080   0.214   2.490   0.173
 9727SOL    HW230081   0.076   2.475   0.258
 9728SOL     OW30082   6.003   0.928   5.912
 9728SOL    HW130083   6.059   0.928   5.829
 9728SOL    HW230084   5.925   0.867   5.901
 9729SOL     OW30085   1.106   4.018   3.638
 9729SOL    HW130086   1.132   3.922   3.628
 9729SOL    HW230087   1.186   4.072   3.663
 9730SOL     OW30088   0.596   4.517   4.166
 9730SOL    HW130089   0.638   4.534   4.255
 9730SOL    HW230090   0.617   4.425   4.135
 9731SOL     OW30091   5.168   3.877   2.364
 9731SOL    HW130092   5.162   3.812   2.288
 9731SOL    HW230093   5.185   3.969   2.327
 9732SOL     OW30094   1.320   3.122   2.248
 9732SOL    HW130095   1.249   3.088   2.186
 9732SOL    HW230096   1.383   3.181   2.197
 9733SOL     OW30097   6.239   5.705   2.849
 9733SOL    HW130098   6.285   5.620   2.876
 9733SOL    HW230099   6.304   5.781   2.855
 9734SOL     OW30100   6.645   6.686   6.911
 9734SOL    HW130101   6.720   6.674   6.975
 9734SOL    HW230102   6.624   6.598   6.867
 9735SOL     OW30103   1.444   1.925   3.834
 9735SOL    HW130104   1.425   1.915   3.932
 9735SOL    HW230105   1.542   1.933   3.819
 9736SOL     OW30106   4.671   2.043   5.804
 9736SOL    HW130107   4.703   2.041   5.709
 9736SOL    HW230108   4.577   2.077   5.807
 9737SOL     OW30109   5.722   1.889   2.576
 9737SOL    HW130110   5.695   1.969   2.524
 9737SOL    HW230111   5.663   1.812   2.552
 9738SOL     OW30112   1.920   6.370   0.101
 9738SOL    HW130113   1.950   6.458   0.064
 9738SOL    HW230114   1.993   6.303   0.090
 9739SOL     OW30115   4.528   6.513   6.768
 9739SOL    HW130116   4.467   6.582   6.806
 9739SOL    HW230117   4.488   6.422   6.783
 9740SOL     OW30118   5.645   0.959   2.335
 9740SOL    HW130119   5.737   0.995   2.323
 9740SOL    HW230120   5.609   0.987   2.424
 9741SOL     OW30121   3.129   1.001   4.166
 9741SOL    HW130122   3.071   0.928   4.128
 9741SOL    HW230123   3.082   1.089   4.156
 9742SOL     OW30124   4.552   1.467   6.683
 9742SOL    HW130125   4.590   1.405   6.614
 9742SOL    HW230126   4.594   1.448   6.772
 9743SOL     OW30127   0.583   3.074   3.428
 9743SOL    HW130128   0.489   3.043   3.436
 9743SOL    HW230129   0.584   3.174   3.420
 9744SOL     OW30130   1.875   0.045   2.595
 9744SOL    HW130131   1.867   0.139   2.628
 9744SOL    HW230132   1.959   0.004   2.632
 9745SOL     OW30133   5.812   1.722   6.018
 9745SOL    HW130134   5.764   1.789   5.961
 9745SOL    HW230135   5.894   1.765   6.057
 9746SOL     OW30136   4.818   6.632   0.125
 9746SOL    HW130137   4.721   6.614   0.106
 9746SOL    HW230138   4.867   6.645   0.039
 9747SOL     OW30139   2.504   1.710   1.822
 9747SOL    HW130140   2.447   1.760   1.757
 9747SOL    HW230141   2.581   1.767   1.850
 9748SOL     OW30142   6.927   0.199   3.051
 9748SOL    HW130143   7.014   0.234   3.015
 9748SOL    HW230144   6.908   0.111   3.009
 9749SOL     OW30145   0.659   2.323   2.332
 9749SOL    HW130146   0.711   2.237   2.330
 9749SOL    HW230147   0.561   2.302   2.338
 9750SOL     OW30148   6.348   4.722   3.943
 9750SOL    HW130149   6.382   4.682   3.858
 9750SOL    HW230150   6.263   4.772   3.925
 9751SOL     OW30151   2.238   0.358   1.423
 9751SOL    HW130152   2.167   0.428   1.425
 9751SOL    HW230153   2.277   0.352   1.331
 9752SOL     OW30154   4.372   2.376   6.777
 9752SOL    HW130155   4.413   2.336   6.695
 9752SOL    HW230156   4.296   2.319   6.807
 9753SOL     OW30157   1.035   5.684   5.949
 9753SOL    HW130158   0.952   5.718   5.904
 9753SOL    HW230159   1.009   5.620   6.022
 9754SOL     OW30160   3.657   0.593   0.689
 9754SOL    HW130161   3.620   0.595   0.781
 9754SOL    HW230162   3.745   0.544   0.689
 9755SOL     OW30163   3.282   4.060   5.129
 9755SOL    HW130164   3.357   4.049   5.064
 9755SOL    HW230165   3.283   4.153   5.167
 9756SOL     OW30166   5.755   1.493   6.155
 9756SOL    HW130167   5.824   1.425   6.179
 9756SOL    HW230168   5.794   1.560   6.091
 9757SOL     OW30169   6.026   4.292   3.983
 9757SOL    HW130170   5.932   4.296   4.016
 9757SOL    HW230171   6.089   4.294   4.060
 9758SOL     OW30172   1.231   1.459   0.607
 9758SOL    HW130173   1.171   1.505   0.672
 9758SOL    HW230174   1.193   1.466   0.515
 9759SOL     OW30175   0.871   1.451   0.342
 9759SOL    HW130176   0.879   1.367   0.289
 9759SOL    HW230177   0.788   1.448   0.398
 9760SOL     OW30178   4.793   2.438   6.815
 9760SOL    HW130179   4.841   2.352   6.837
 9760SOL    HW230180   4.834   2.479   6.734
 9761SOL     OW30181   1.277   1.185   1.939
 9761SOL    HW130182   1.360   1.240   1.931
 9761SOL    HW230183   1.285   1.124   2.017
 9762SOL     OW30184   2.638   2.016   4.643
 9762SOL    HW130185   2.664   1.980   4.732
 9762SOL    HW230186   2.546   2.054   4.647
 9763SOL     OW30187   6.507   1.585   2.686
 9763SOL    HW130188   6.506   1.579   2.785
 9763SOL    HW230189   6.413   1.582   2.652
 9764SOL     OW30190   5.767   2.743   2.657
 9764SOL    HW130191   5.718   2.824   2.623
 9764SOL    HW230192   5.702   2.675   2.689
 9765SOL     OW30193   5.868   1.399   2.165
 9765SOL    HW130194   5.859   1.361   2.258
 9765SOL    HW230195   5.783   1.385   2.115
 9766SOL     OW30196   2.824   0.377   3.558
 9766SOL    HW130197   2.727   0.367   3.578
 9766SOL    HW230198   2.874   0.299   3.596
 9767SOL     OW30199   2.411   3.155   5.919
 9767SOL    HW130200   2.485   3.149   5.852
 9767SOL    HW230201   2.325   3.175   5.871
 9768SOL     OW30202   5.610   2.588   0.674
 9768SOL    HW130203   5.651   2.589   0.765
 9768SOL    HW230204   5.563   2.675   0.659
 9769SOL     OW30205   3.353   0.776   5.417
 9769SOL    HW130206   3.416   0.836   5.368
 9769SOL    HW230207   3.269   0.765   5.364
 9770SOL     OW30208   3.368   2.082   6.009
 9770SOL    HW130209   3.365   2.010   5.940
 9770SOL    HW230210   3.399   2.168   5.968
 9771SOL     OW30211   2.443   6.796   1.824
 9771SOL    HW130212   2.385   6.862   1.871
 9771SOL    HW230213   2.433   6.707   1.867
 9772SOL     OW30214   1.519   6.019   1.878
 9772SOL    HW130215   1.584   6.045   1.806
 9772SOL    HW230216   1.429   6.002   1.837
 9773SOL     OW30217   5.839   5.126   3.170
 9773SOL    HW130218   5.750   5.165   3.148
 9773SOL    HW230219   5.849   5.120   3.270
 9774SOL     OW30220   1.232   5.476   3.392
 9774SOL    HW130221   1.150   5.500   3.340
 9774SOL    HW230222   1.206   5.419   3.470
 9775SOL     OW30223   3.005   0.878   3.164
 9775SOL    HW130224   2.991   0.845   3.257
 9775SOL    HW230225   3.081   0.829   3.122
 9776SOL     OW30226   1.909   5.279   6.370
 9776SOL    HW130227   1.817   5.247   6.390
 9776SOL    HW230228   1.970   5.201   6.359
 9777SOL     OW30229   5.179   6.581   6.488
 9777SOL    HW130230   5.260   6.547   6.440
 9777SOL    HW230231   5.207   6.635   6.567
 9778SOL     OW30232   0.231   1.725   4.863
 9778SOL    HW130233   0.233   1.802   4.800
 9778SOL    HW230234   0.136   1.706   4.889
 9779SOL     OW30235   0.665   2.595   3.632
 9779SOL    HW130236   0.734   2.627   3.567
 9779SOL    HW230237   0.687   2.503   3.663
 9780SOL     OW30238   1.625   1.649   1.620
 9780SOL    HW130239   1.654   1.707   1.544
 9780SOL    HW230240   1.536   1.609   1.599
 9781SOL     OW30241   1.634   3.833   4.277
 9781SOL    HW130242   1.670   3.740   4.281
 9781SOL    HW230243   1.660   3.882   4.361
 9782SOL     OW30244   0.251   2.349   1.028
 9782SOL    HW130245   0.229   2.438   0.987
 9782SOL    HW230246   0.230   2.276   0.964
 9783SOL     OW30247   4.353   1.864   3.126
 9783SOL    HW130248   4.317   1.872   3.033
 9783SOL    HW230249   4.279   1.876   3.192
 9784SOL     OW30250   3.250   1.134   6.527
 9784SOL    HW130251   3.184   1.207   6.539
 9784SOL    HW230252   3.207   1.046   6.546
 9785SOL     OW30253   6.671   2.392   4.760
 9785SOL    HW130254   6.681   2.485   4.796
 9785SOL    HW230255   6.601   2.392   4.687
 9786SOL     OW30256   2.791   4.632   0.793
 9786SOL    HW130257   2.693   4.633   0.771
 9786SOL    HW230258   2.841   4.592   0.716
 9787SOL     OW30259   3.586   3.383   4.060
 9787SOL    HW130260   3.586   3.472   4.106
 9787SOL    HW230261   3.676   3.340   4.070
 9788SOL     OW30262   0.890   5.607   2.003
 9788SOL    HW130263   0.975   5.632   1.956
 9788SOL    HW230264   0.872   5.672   2.076
 9789SOL     OW30265   2.931   6.723   6.865
 9789SOL    HW130266   2.876   6.694   6.943
 9789SOL    HW230267   2.891   6.806   6.825
 9790SOL     OW30268   6.146   4.839   5.159
 9790SOL    HW130269   6.200   4.902   5.103
 9790SOL    HW230270   6.141   4.873   5.253
 9791SOL     OW30271   0.881   0.180   0.252
 9791SOL    HW130272   0.942   0.254   0.281
 9791SOL    HW230273   0.786   0.210   0.258
 9792SOL     OW30274   3.916   5.301   0.778
 9792SOL    HW130275   3.948   5.384   0.732
 9792SOL    HW230276   3.949   5.301   0.873
 9793SOL     OW30277   4.213   0.930   0.941
 9793SOL    HW130278   4.199   0.964   0.848
 9793SOL    HW230279   4.310   0.909   0.955
 9794SOL     OW30280   4.692   4.593   4.446
 9794SOL    HW130281   4.674   4.691   4.459
 9794SOL    HW230282   4.778   4.569   4.492
 9795SOL     OW30283   1.136   2.970   3.989
 9795SOL    HW130284   1.196   2.915   4.048
 9795SOL    HW230285   1.092   2.911   3.922
 9796SOL     OW30286   4.083   3.623   3.923
 9796SOL    HW130287   4.074   3.651   3.828
 9796SOL    HW230288   4.101   3.524   3.927
 9797SOL     OW30289   2.737   6.216   6.651
 9797SOL    HW130290   2.761   6.304   6.693
 9797SOL    HW230291   2.768   6.141   6.710
 9798SOL     OW30292   2.535   1.830   1.098
 9798SOL    HW130293   2.519   1.881   1.014
 9798SOL    HW230294   2.577   1.889   1.167
 9799SOL     OW30295   3.225   4.473   6.350
 9799SOL    HW130296   3.144   4.518   6.387
 9799SOL    HW230297   3.197   4.400   6.287
 9800SOL     OW30298   5.905   3.297   4.150
 9800SOL    HW130299   5.980   3.297   4.216
 9800SOL    HW230300   5.876   3.203   4.132
 9801SOL     OW30301   5.072   4.870   0.091
 9801SOL    HW130302   5.111   4.882   0.182
 9801SOL    HW230303   5.008   4.945   0.072
 9802SOL     OW30304   4.360   4.766   0.345
 9802SOL    HW130305   4.342   4.681   0.393
 9802SOL    HW230306   4.353   4.843   0.409
 9803SOL     OW30307   1.875   3.183   7.021
 9803SOL    HW130308   1.821   3.252   6.973
 9803SOL    HW230309   1.960   3.167   6.971
 9804SOL     OW30310   6.480   5.929   3.031
 9804SOL    HW130311   6.575   5.958   3.044
 9804SOL    HW230312   6.422   5.971   3.101
 9805SOL     OW30313   1.000   6.607   3.020
 9805SOL    HW130314   1.030   6.588   2.927
 9805SOL    HW230315   0.905   6.640   3.019
 9806SOL     OW30316   3.191   2.845   5.963
 9806SOL    HW130317   3.181   2.853   5.864
 9806SOL    HW230318   3.115   2.792   6.000
 9807SOL     OW30319   3.374   2.849   2.347
 9807SOL    HW130320   3.423   2.825   2.264
 9807SOL    HW230321   3.313   2.774   2.373
 9808SOL     OW30322   4.319   5.417   3.741
 9808SOL    HW130323   4.417   5.420   3.726
 9808SOL    HW230324   4.290   5.322   3.756
 9809SOL     OW30325   0.574   3.435   0.341
 9809SOL    HW130326   0.580   3.374   0.262
 9809SOL    HW230327   0.641   3.508   0.332
 9810SOL     OW30328   2.696   1.934   4.921
 9810SOL    HW130329   2.632   1.972   4.987
 9810SOL    HW230330   2.770   1.887   4.969
 9811SOL     OW30331   6.473   2.974   3.774
 9811SOL    HW130332   6.445   2.889   3.818
 9811SOL    HW230333   6.531   3.026   3.837
 9812SOL     OW30334   2.641   0.262   4.426
 9812SOL    HW130335   2.626   0.240   4.523
 9812SOL    HW230336   2.739   0.260   4.407
 9813SOL     OW30337   5.871   2.557   0.555
 9813SOL    HW130338   5.895   2.651   0.532
 9813SOL    HW230339   5.776   2.553   0.585
 9814SOL     OW30340   5.377   1.944   7.014
 9814SOL    HW130341   5.450   1.990   0.040
 9814SOL    HW230342   5.314   1.900   0.052
 9815SOL     OW30343   4.566   2.186   3.924
 9815SOL    HW130344   4.652   2.187   3.974
 9815SOL    HW230345   4.576   2.132   3.841
 9816SOL     OW30346   0.965   6.957   6.040
 9816SOL    HW130347   0.978   6.863   6.072
 9816SOL    HW230348   0.868   6.975   6.027
 9817SOL     OW30349   0.636   6.889   3.064
 9817SOL    HW130350   0.576   6.952   3.014
 9817SOL    HW230351   0.655   6.809   3.007
 9818SOL     OW30352   5.891   2.180   4.917
 9818SOL    HW130353   5.965   2.245   4.936
 9818SOL    HW230354   5.914   2.090   4.955
 9819SOL     OW30355   4.654   2.763   3.371
 9819SOL    HW130356   4.737   2.760   3.426
 9819SOL    HW230357   4.620   2.671   3.356
 9820SOL     OW30358   3.467   3.499   7.019
 9820SOL    HW130359   3.539   3.549   6.971
 9820SOL    HW230360   3.378   3.530   6.986
 9821SOL     OW30361   6.311   0.009   6.604
 9821SOL    HW130362   6.372   0.031   6.680
 9821SOL    HW230363   6.269   0.093   6.570
 9822SOL     OW30364   0.616   0.068   2.844
 9822SOL    HW130365   0.562   0.112   2.916
 9822SOL    HW230366   0.693   0.127   2.821
 9823SOL     OW30367   3.541   0.348   1.301
 9823SOL    HW130368   3.554   0.447   1.310
 9823SOL    HW230369   3.532   0.325   1.204
 9824SOL     OW30370   1.321   4.213   5.964
 9824SOL    HW130371   1.415   4.245   5.979
 9824SOL    HW230372   1.298   4.223   5.867
 9825SOL     OW30373   3.417   5.357   5.525
 9825SOL    HW130374   3.392   5.311   5.610
 9825SOL    HW230375   3.507   5.324   5.495
 9826SOL     OW30376   3.987   6.003   6.211
 9826SOL    HW130377   4.035   5.944   6.146
 9826SOL    HW230378   3.959   5.950   6.291
 9827SOL     OW30379   2.049   4.420   4.099
 9827SOL    HW130380   1.962   4.379   4.127
 9827SOL    HW230381   2.082   4.481   4.171
 9828SOL     OW30382   3.526   2.631   6.573
 9828SOL    HW130383   3.442   2.610   6.522
 9828SOL    HW230384   3.519   2.722   6.613
 9829SOL     OW30385   2.812   6.583   0.897
 9829SOL    HW130386   2.719   6.579   0.861
 9829SOL    HW230387   2.815   6.645   0.976
 9830SOL     OW30388   5.512   2.333   1.651
 9830SOL    HW130389   5.598   2.341   1.601
 9830SOL    HW230390   5.461   2.419   1.644
 9831SOL     OW30391   1.690   5.839   0.256
 9831SOL    HW130392   1.639   5.886   0.328
 9831SOL    HW230393   1.747   5.904   0.206
 9832SOL     OW30394   4.790   5.299   2.344
 9832SOL    HW130395   4.833   5.291   2.254
 9832SOL    HW230396   4.736   5.383   2.347
 9833SOL     OW30397   3.104   2.892   5.293
 9833SOL    HW130398   3.074   2.798   5.311
 9833SOL    HW230399   3.166   2.892   5.215
 9834SOL     OW30400   2.518   3.880   5.724
 9834SOL    HW130401   2.563   3.820   5.790
 9834SOL    HW230402   2.507   3.832   5.637
 9835SOL     OW30403   4.243   2.557   5.624
 9835SOL    HW130404   4.180   2.634   5.629
 9835SOL    HW230405   4.274   2.533   5.716
 9836SOL     OW30406   6.485   4.226   3.517
 9836SOL    HW130407   6.550   4.301   3.501
 9836SOL    HW230408   6.520   4.143   3.474
 9837SOL     OW30409   1.881   0.327   2.586
 9837SOL    HW130410   1.848   0.391   2.656
 9837SOL    HW230411   1.975   0.350   2.562
 9838SOL     OW30412   0.559   6.735   5.589
 9838SOL    HW130413   0.562   6.696   5.681
 9838SOL    HW230414   0.487   6.804   5.584
 9839SOL     OW30415   6.603   1.347   2.920
 9839SOL    HW130416   6.657   1.381   2.997
 9839SOL    HW230417   6.663   1.298   2.856
 9840SOL     OW30418   0.287   0.604   0.790
 9840SOL    HW130419   0.201   0.603   0.740
 9840SOL    HW230420   0.269   0.612   0.888
 9841SOL     OW30421   1.316   5.078   4.811
 9841SOL    HW130422   1.337   4.980   4.808
 9841SOL    HW230423   1.288   5.109   4.720
 9842SOL     OW30424   3.731   4.133   3.233
 9842SOL    HW130425   3.799   4.071   3.195
 9842SOL    HW230426   3.670   4.165   3.160
 9843SOL     OW30427   6.833   1.746   1.968
 9843SOL    HW130428   6.910   1.710   2.021
 9843SOL    HW230429   6.747   1.707   2.002
 9844SOL     OW30430   4.746   0.332   2.677
 9844SOL    HW130431   4.780   0.411   2.729
 9844SOL    HW230432   4.811   0.309   2.605
 9845SOL     OW30433   2.145   1.536   5.055
 9845SOL    HW130434   2.071   1.491   5.106
 9845SOL    HW230435   2.196   1.467   5.004
 9846SOL     OW30436   3.962   3.444   2.752
 9846SOL    HW130437   3.978   3.449   2.653
 9846SOL    HW230438   3.996   3.356   2.786
 9847SOL     OW30439   2.922   2.967   6.168
 9847SOL    HW130440   2.835   2.966   6.218
 9847SOL    HW230441   2.909   2.926   6.078
 9848SOL     OW30442   3.469   2.311   6.292
 9848SOL    HW130443   3.382   2.279   6.257
 9848SOL    HW230444   3.469   2.306   6.392
 9849SOL     OW30445   6.076   0.775   0.464
 9849SOL    HW130446   6.041   0.681   0.463
 9849SOL    HW230447   6.029   0.829   0.395
 9850SOL     OW30448   5.297   5.919   2.397
 9850SOL    HW130449   5.220   5.927   2.460
 9850SOL    HW230450   5.381   5.950   2.441
 9851SOL     OW30451   4.330   1.857   5.525
 9851SOL    HW130452   4.425   1.842   5.553
 9851SOL    HW230453   4.320   1.831   5.429
 9852SOL     OW30454   4.321   2.097   3.436
 9852SOL    HW130455   4.313   2.039   3.355
 9852SOL    HW230456   4.341   2.040   3.516
 9853SOL     OW30457   4.722   4.227   3.429
 9853SOL    HW130458   4.622   4.231   3.434
 9853SOL    HW230459   4.751   4.239   3.334
 9854SOL     OW30460   5.763   4.867   5.236
 9854SOL    HW130461   5.774   4.924   5.155
 9854SOL    HW230462   5.750   4.926   5.316
 9855SOL     OW30463   2.051   4.276   1.656
 9855SOL    HW130464   1.955   4.302   1.655
 9855SOL    HW230465   2.087   4.274   1.563
 9856SOL     OW30466   4.989   4.131   0.395
 9856SOL    HW130467   5.027   4.183   0.319
 9856SOL    HW230468   5.012   4.034   0.384
 9857SOL     OW30469   5.017   2.154   3.487
 9857SOL    HW130470   5.115   2.174   3.489
 9857SOL    HW230471   4.967   2.230   3.528
 9858SOL     OW30472   6.073   1.152   1.565
 9858SOL    HW130473   6.099   1.247   1.549
 9858SOL    HW230474   5.985   1.133   1.522
 9859SOL     OW30475   6.639   6.942   1.080
 9859SOL    HW130476   6.548   6.981   1.089
 9859SOL    HW230477   6.707   7.015   1.073
 9860SOL     OW30478   6.928   1.143   2.077
 9860SOL    HW130479   6.934   1.178   2.170
 9860SOL    HW230480   6.954   1.046   2.077
 9861SOL     OW30481   2.754   0.055   3.439
 9861SOL    HW130482   2.661   0.033   3.470
 9861SOL    HW230483   2.810   0.083   3.516
 9862SOL     OW30484   2.833   3.948   0.702
 9862SOL    HW130485   2.742   3.985   0.717
 9862SOL    HW230486   2.857   3.887   0.777
 9863SOL     OW30487   3.244   7.016   3.164
 9863SOL    HW130488   3.318   6.956   3.197
 9863SOL    HW230489   3.275   0.085   3.169
 9864SOL     OW30490   4.048   5.538   3.741
 9864SOL    HW130491   4.126   5.482   3.771
 9864SOL    HW230492   4.048   5.625   3.790
 9865SOL     OW30493   1.251   1.237   4.754
 9865SOL    HW130494   1.232   1.139   4.756
 9865SOL    HW230495   1.186   1.285   4.813
 9866SOL     OW30496   5.405   4.399   4.912
 9866SOL    HW130497   5.315   4.402   4.868
 9866SOL    HW230498   5.444   4.491   4.914
 9867SOL     OW30499   5.962   0.291   1.223
 9867SOL    HW130500   5.874   0.328   1.194
 9867SOL    HW230501   6.036   0.350   1.189
 9868SOL     OW30502   1.303   4.887   5.812
 9868SOL    HW130503   1.316   4.862   5.908
 9868SOL    HW230504   1.247   4.817   5.767
 9869SOL     OW30505   2.146   3.159   2.565
 9869SOL    HW130506   2.241   3.175   2.591
 9869SOL    HW230507   2.114   3.073   2.604
 9870SOL     OW30508   4.290   5.897   2.362
 9870SOL    HW130509   4.319   5.986   2.396
 9870SOL    HW230510   4.337   5.877   2.276
 9871SOL     OW30511   0.987   6.905   5.607
 9871SOL    HW130512   1.004   6.935   5.512
 9871SOL    HW230513   0.890   6.886   5.619
 9872SOL     OW30514   3.240   5.278   4.180
 9872SOL    HW130515   3.256   5.371   4.214
 9872SOL    HW230516   3.302   5.260   4.103
 9873SOL     OW30517   2.621   2.268   1.302
 9873SOL    HW130518   2.534   2.256   1.350
 9873SOL    HW230519   2.620   2.355   1.253
 9874SOL     OW30520   0.768   3.017   4.388
 9874SOL    HW130521   0.770   2.927   4.432
 9874SOL    HW230522   0.755   3.006   4.289
 9875SOL     OW30523   0.069   6.609   2.148
 9875SOL    HW130524   7.017   6.582   2.205
 9875SOL    HW230525   0.066   6.557   2.062
 9876SOL     OW30526   6.763   0.885   2.531
 9876SOL    HW130527   6.766   0.893   2.431
 9876SOL    HW230528   6.760   0.788   2.556
 9877SOL     OW30529   0.683   6.085   3.028
 9877SOL    HW130530   0.731   6.172   3.039
 9877SOL    HW230531   0.749   6.010   3.031
 9878SOL     OW30532   2.839   5.507   4.523
 9878SOL    HW130533   2.770   5.454   4.571
 9878SOL    HW230534   2.896   5.445   4.468
 9879SOL     OW30535   5.791   5.398   4.472
 9879SOL    HW130536   5.880   5.414   4.430
 9879SOL    HW230537   5.733   5.347   4.409
 9880SOL     OW30538   2.146   2.367   5.451
 9880SOL    HW130539   2.086   2.335   5.524
 9880SOL    HW230540   2.151   2.467   5.454
 9881SOL     OW30541   2.010   1.157   4.918
 9881SOL    HW130542   2.016   1.137   4.820
 9881SOL    HW230543   2.078   1.227   4.941
 9882SOL     OW30544   0.899   2.201   3.718
 9882SOL    HW130545   0.913   2.102   3.707
 9882SOL    HW230546   0.804   2.224   3.698
 9883SOL     OW30547   1.934   5.154   6.936
 9883SOL    HW130548   2.007   5.188   6.995
 9883SOL    HW230549   1.940   5.199   6.847
 9884SOL     OW30550   4.235   1.409   2.999
 9884SOL    HW130551   4.202   1.429   3.092
 9884SOL    HW230552   4.300   1.479   2.971
 9885SOL     OW30553   0.036   3.133   5.557
 9885SOL    HW130554   0.054   3.086   5.471
 9885SOL    HW230555   0.122   3.170   5.593
 9886SOL     OW30556   0.508   4.421   1.932
 9886SOL    HW130557   0.552   4.501   1.974
 9886SOL    HW230558   0.523   4.341   1.990
 9887SOL     OW30559   3.096   1.158   5.876
 9887SOL    HW130560   3.051   1.069   5.882
 9887SOL    HW230561   3.176   1.151   5.817
 9888SOL     OW30562   6.469   4.059   2.058
 9888SOL    HW130563   6.568   4.073   2.056
 9888SOL    HW230564   6.427   4.112   1.983
 9889SOL     OW30565   6.497   5.138   1.569
 9889SOL    HW130566   6.507   5.108   1.664
 9889SOL    HW230567   6.474   5.235   1.568
 9890SOL     OW30568   1.779   2.064   6.939
 9890SOL    HW130569   1.709   2.132   6.917
 9890SOL    HW230570   1.735   1.976   6.958
 9891SOL     OW30571   5.498   3.097   1.089
 9891SOL    HW130572   5.517   3.102   1.187
 9891SOL    HW230573   5.523   3.006   1.055
 9892SOL     OW30574   6.931   5.232   0.722
 9892SOL    HW130575   7.008   5.183   0.762
 9892SOL    HW230576   6.873   5.267   0.795
 9893SOL     OW30577   1.120   6.975   1.132
 9893SOL    HW130578   1.117   6.887   1.180
 9893SOL    HW230579   1.171   6.964   1.046
 9894SOL     OW30580   2.120   2.473   2.132
 9894SOL    HW130581   2.188   2.525   2.184
 9894SOL    HW230582   2.136   2.486   2.034
 9895SOL     OW30583   6.492   3.599   5.359
 9895SOL    HW130584   6.472   3.696   5.370
 9895SOL    HW230585   6.570   3.587   5.297
 9896SOL     OW30586   5.950   0.473   6.997
 9896SOL    HW130587   5.911   0.430   0.053
 9896SOL    HW230588   5.919   0.568   6.992
 9897SOL     OW30589   6.598   5.538   3.509
 9897SOL    HW130590   6.650   5.614   3.546
 9897SOL    HW230591   6.534   5.572   3.440
 9898SOL     OW30592   1.882   6.326   5.078
 9898SOL    HW130593   1.824   6.380   5.139
 9898SOL    HW230594   1.902   6.379   4.996
 9899SOL     OW30595   0.393   5.690   6.776
 9899SOL    HW130596   0.346   5.630   6.711
 9899SOL    HW230597   0.491   5.670   6.775
 9900SOL     OW30598   1.930   3.720   3.259
 9900SOL    HW130599   1.878   3.691   3.179
 9900SOL    HW230600   1.878   3.789   3.310
 9901SOL     OW30601   3.072   0.918   6.084
 9901SOL    HW130602   2.977   0.917   6.053
 9901SOL    HW230603   3.078   0.963   6.173
 9902SOL     OW30604   3.481   4.960   0.539
 9902SOL    HW130605   3.539   5.031   0.500
 9902SOL    HW230606   3.513   4.870   0.508
 9903SOL     OW30607   5.078   1.197   1.791
 9903SOL    HW130608   5.008   1.225   1.856
 9903SOL    HW230609   5.049   1.221   1.698
 9904SOL     OW30610   1.261   4.459   0.313
 9904SOL    HW130611   1.219   4.534   0.365
 9904SOL    HW230612   1.359   4.474   0.306
 9905SOL     OW30613   2.657   0.381   6.484
 9905SOL    HW130614   2.752   0.380   6.517
 9905SOL    HW230615   2.657   0.396   6.385
 9906SOL     OW30616   2.536   2.948   1.663
 9906SOL    HW130617   2.489   2.891   1.730
 9906SOL    HW230618   2.635   2.929   1.666
 9907SOL     OW30619   6.828   0.133   1.130
 9907SOL    HW130620   6.876   0.212   1.169
 9907SOL    HW230621   6.853   0.124   1.034
 9908SOL     OW30622   4.952   1.624   4.311
 9908SOL    HW130623   4.983   1.599   4.220
 9908SOL    HW230624   4.946   1.724   4.318
 9909SOL     OW30625   4.216   0.571   3.922
 9909SOL    HW130626   4.304   0.578   3.876
 9909SOL    HW230627   4.228   0.532   4.013
 9910SOL     OW30628   1.656   3.864   2.702
 9910SOL    HW130629   1.588   3.840   2.772
 9910SOL    HW230630   1.655   3.963   2.688
 9911SOL     OW30631   3.151   6.620   1.964
 9911SOL    HW130632   3.079   6.570   2.013
 9911SOL    HW230633   3.146   6.597   1.866
 9912SOL     OW30634   3.938   1.064   1.301
 9912SOL    HW130635   3.952   0.992   1.233
 9912SOL    HW230636   4.025   1.086   1.345
 9913SOL     OW30637   6.571   4.291   1.396
 9913SOL    HW130638   6.607   4.266   1.486
 9913SOL    HW230639   6.516   4.374   1.404
 9914SOL     OW30640   5.405   2.067   4.390
 9914SOL    HW130641   5.370   2.090   4.299
 9914SOL    HW230642   5.495   2.025   4.382
 9915SOL     OW30643   5.114   0.746   3.915
 9915SOL    HW130644   5.127   0.845   3.924
 9915SOL    HW230645   5.022   0.727   3.881
 9916SOL     OW30646   1.856   2.466   3.270
 9916SOL    HW130647   1.818   2.381   3.308
 9916SOL    HW230648   1.788   2.509   3.211
 9917SOL     OW30649   5.566   4.032   0.037
 9917SOL    HW130650   5.660   4.065   0.046
 9917SOL    HW230651   5.566   3.932   0.041
 9918SOL     OW30652   3.560   1.291   3.745
 9918SOL    HW130653   3.470   1.279   3.786
 9918SOL    HW230654   3.554   1.353   3.668
 9919SOL     OW30655   6.517   5.004   1.329
 9919SOL    HW130656   6.537   5.051   1.415
 9919SOL    HW230657   6.598   5.005   1.270
 9920SOL     OW30658   4.916   1.270   2.001
 9920SOL    HW130659   4.965   1.355   2.020
 9920SOL    HW230660   4.825   1.275   2.042
 9921SOL     OW30661   3.826   0.172   5.784
 9921SOL    HW130662   3.883   0.092   5.805
 9921SOL    HW230663   3.852   0.248   5.843
 9922SOL     OW30664   2.968   4.380   0.319
 9922SOL    HW130665   2.986   4.412   0.412
 9922SOL    HW230666   2.979   4.280   0.315
 9923SOL     OW30667   5.162   4.733   6.840
 9923SOL    HW130668   5.198   4.647   6.878
 9923SOL    HW230669   5.115   4.785   6.912
 9924SOL     OW30670   6.253   2.001   5.203
 9924SOL    HW130671   6.266   1.916   5.153
 9924SOL    HW230672   6.271   1.986   5.300
 9925SOL     OW30673   6.626   3.206   4.489
 9925SOL    HW130674   6.591   3.294   4.522
 9925SOL    HW230675   6.598   3.134   4.552
 9926SOL     OW30676   3.825   2.654   0.963
 9926SOL    HW130677   3.817   2.750   0.993
 9926SOL    HW230678   3.918   2.637   0.932
 9927SOL     OW30679   0.042   6.665   0.508
 9927SOL    HW130680   0.073   6.695   0.598
 9927SOL    HW230681   0.085   6.722   0.438
 9928SOL     OW30682   5.456   4.693   2.630
 9928SOL    HW130683   5.468   4.666   2.534
 9928SOL    HW230684   5.362   4.723   2.645
 9929SOL     OW30685   2.921   4.700   5.564
 9929SOL    HW130686   2.893   4.604   5.571
 9929SOL    HW230687   2.967   4.715   5.476
 9930SOL     OW30688   6.773   6.401   4.891
 9930SOL    HW130689   6.756   6.499   4.898
 9930SOL    HW230690   6.862   6.379   4.931
 9931SOL     OW30691   0.389   5.789   3.840
 9931SOL    HW130692   0.421   5.751   3.927
 9931SOL    HW230693   0.313   5.733   3.806
 9932SOL     OW30694   3.115   4.352   6.909
 9932SOL    HW130695   3.214   4.362   6.910
 9932SOL    HW230696   3.073   4.432   6.952
 9933SOL     OW30697   0.195   5.926   3.588
 9933SOL    HW130698   0.190   5.841   3.641
 9933SOL    HW230699   0.291   5.949   3.571
 9934SOL     OW30700   5.338   2.048   5.488
 9934SOL    HW130701   5.310   2.045   5.584
 9934SOL    HW230702   5.362   2.142   5.463
 9935SOL     OW30703   2.525   6.590   0.099
 9935SOL    HW130704   2.555   6.556   0.188
 9935SOL    HW230705   2.595   6.571   0.031
 9936SOL     OW30706   6.505   5.252   6.808
 9936SOL    HW130707   6.432   5.219   6.748
 9936SOL    HW230708   6.465   5.287   6.893
 9937SOL     OW30709   6.538   1.556   0.735
 9937SOL    HW130710   6.492   1.497   0.802
 9937SOL    HW230711   6.498   1.647   0.739
 9938SOL     OW30712   6.798   5.247   2.403
 9938SOL    HW130713   6.804   5.240   2.503
 9938SOL    HW230714   6.784   5.156   2.365
 9939SOL     OW30715   4.143   2.489   0.910
 9939SOL    HW130716   4.085   2.452   0.983
 9939SOL    HW230717   4.214   2.547   0.950
 9940SOL     OW30718   1.072   0.437   0.944
 9940SOL    HW130719   1.036   0.348   0.970
 9940SOL    HW230720   0.997   0.501   0.929
 9941SOL     OW30721   3.114   4.025   5.575
 9941SOL    HW130722   3.212   4.009   5.561
 9941SOL    HW230723   3.065   3.938   5.570
 9942SOL     OW30724   2.788   5.649   2.139
 9942SOL    HW130725   2.720   5.706   2.093
 9942SOL    HW230726   2.868   5.704   2.162
 9943SOL     OW30727   0.036   4.803   5.208
 9943SOL    HW130728   0.018   4.708   5.233
 9943SOL    HW230729   6.977   4.856   5.216
 9944SOL     OW30730   1.401   4.586   6.469
 9944SOL    HW130731   1.444   4.516   6.412
 9944SOL    HW230732   1.303   4.569   6.476
 9945SOL     OW30733   5.935   5.408   6.564
 9945SOL    HW130734   5.866   5.470   6.600
 9945SOL    HW230735   5.939   5.414   6.465
 9946SOL     OW30736   4.760   1.150   3.518
 9946SOL    HW130737   4.742   1.189   3.428
 9946SOL    HW230738   4.677   1.107   3.554
 9947SOL     OW30739   1.458   2.690   5.058
 9947SOL    HW130740   1.373   2.739   5.035
 9947SOL    HW230741   1.485   2.712   5.151
 9948SOL     OW30742   5.296   4.018   5.006
 9948SOL    HW130743   5.241   4.098   4.984
 9948SOL    HW230744   5.340   4.031   5.094
 9949SOL     OW30745   6.737   4.963   4.462
 9949SOL    HW130746   6.711   4.869   4.438
 9949SOL    HW230747   6.738   4.972   4.562
 9950SOL     OW30748   5.600   5.904   4.916
 9950SOL    HW130749   5.648   5.991   4.909
 9950SOL    HW230750   5.646   5.846   4.984
 9951SOL     OW30751   6.675   0.596   4.602
 9951SOL    HW130752   6.765   0.628   4.573
 9951SOL    HW230753   6.661   0.619   4.698
 9952SOL     OW30754   0.898   3.534   1.150
 9952SOL    HW130755   0.871   3.587   1.069
 9952SOL    HW230756   0.895   3.593   1.231
 9953SOL     OW30757   6.066   3.035   4.201
 9953SOL    HW130758   5.976   3.013   4.164
 9953SOL    HW230759   6.122   2.952   4.205
 9954SOL     OW30760   6.482   0.381   6.025
 9954SOL    HW130761   6.462   0.393   6.123
 9954SOL    HW230762   6.460   0.288   5.998
 9955SOL     OW30763   6.267   3.540   5.235
 9955SOL    HW130764   6.214   3.609   5.186
 9955SOL    HW230765   6.321   3.584   5.307
 9956SOL     OW30766   1.439   0.123   2.367
 9956SOL    HW130767   1.495   0.062   2.310
 9956SOL    HW230768   1.393   0.070   2.438
 9957SOL     OW30769   5.109   5.555   2.439
 9957SOL    HW130770   5.209   5.550   2.436
 9957SOL    HW230771   5.075   5.491   2.507
 9958SOL     OW30772   3.973   5.520   0.635
 9958SOL    HW130773   3.958   5.605   0.685
 9958SOL    HW230774   3.903   5.510   0.564
 9959SOL     OW30775   4.096   3.619   5.210
 9959SOL    HW130776   4.095   3.628   5.110
 9959SOL    HW230777   4.146   3.696   5.249
 9960SOL     OW30778   0.012   6.850   2.451
 9960SOL    HW130779   6.998   6.865   2.361
 9960SOL    HW230780   0.079   6.922   2.470
 9961SOL     OW30781   1.493   5.451   4.524
 9961SOL    HW130782   1.554   5.440   4.602
 9961SOL    HW230783   1.507   5.375   4.459
 9962SOL     OW30784   6.409   6.902   2.868
 9962SOL    HW130785   6.508   6.894   2.881
 9962SOL    HW230786   6.363   6.869   2.950
 9963SOL     OW30787   3.012   2.741   6.505
 9963SOL    HW130788   2.958   2.824   6.493
 9963SOL    HW230789   2.973   2.686   6.579
 9964SOL     OW30790   5.034   4.768   5.591
 9964SOL    HW130791   4.995   4.850   5.549
 9964SOL    HW230792   5.110   4.735   5.535
 9965SOL     OW30793   3.708   6.543   6.278
 9965SOL    HW130794   3.669   6.528   6.187
 9965SOL    HW230795   3.635   6.571   6.341
 9966SOL     OW30796   1.684   5.586   1.753
 9966SOL    HW130797   1.710   5.496   1.718
 9966SOL    HW230798   1.747   5.655   1.716
 9967SOL     OW30799   0.556   6.492   2.122
 9967SOL    HW130800   0.478   6.551   2.144
 9967SOL    HW230801   0.524   6.414   2.069
 9968SOL     OW30802   3.653   3.885   1.263
 9968SOL    HW130803   3.611   3.976   1.261
 9968SOL    HW230804   3.751   3.893   1.278
 9969SOL     OW30805   2.011   2.574   2.396
 9969SOL    HW130806   1.996   2.673   2.399
 9969SOL    HW230807   2.097   2.556   2.348
 9970SOL     OW30808   5.073   3.685   2.582
 9970SOL    HW130809   4.991   3.709   2.634
 9970SOL    HW230810   5.086   3.750   2.508
 9971SOL     OW30811   1.992   5.092   1.635
 9971SOL    HW130812   2.001   5.168   1.571
 9971SOL    HW230813   2.028   5.009   1.593
 9972SOL     OW30814   5.073   4.966   1.477
 9972SOL    HW130815   5.154   4.950   1.420
 9972SOL    HW230816   4.994   4.984   1.417
 9973SOL     OW30817   5.386   2.125   4.097
 9973SOL    HW130818   5.423   2.039   4.063
 9973SOL    HW230819   5.460   2.191   4.107
 9974SOL     OW30820   0.568   2.760   2.605
 9974SOL    HW130821   0.506   2.825   2.559
 9974SOL    HW230822   0.590   2.794   2.696
 9975SOL     OW30823   6.163   4.401   0.085
 9975SOL    HW130824   6.111   4.384   0.168
 9975SOL    HW230825   6.257   4.372   0.098
 9976SOL     OW30826   1.192   6.554   5.599
 9976SOL    HW130827   1.173   6.457   5.614
 9976SOL    HW230828   1.183   6.574   5.501
 9977SOL     OW30829   6.836   5.309   5.374
 9977SOL    HW130830   6.849   5.408   5.365
 9977SOL    HW230831   6.925   5.265   5.389
 9978SOL     OW30832   0.418   2.571   4.532
 9978SOL    HW130833   0.339   2.526   4.575
 9978SOL    HW230834   0.386   2.645   4.473
 9979SOL     OW30835   5.975   5.190   5.328
 9979SOL    HW130836   5.936   5.282   5.337
 9979SOL    HW230837   5.908   5.122   5.360
 9980SOL     OW30838   2.019   0.960   6.275
 9980SOL    HW130839   2.063   0.939   6.187
 9980SOL    HW230840   1.934   0.908   6.282
 9981SOL     OW30841   2.660   1.503   3.046
 9981SOL    HW130842   2.672   1.421   3.102
 9981SOL    HW230843   2.565   1.532   3.050
 9982SOL     OW30844   6.504   6.278   4.469
 9982SOL    HW130845   6.461   6.235   4.548
 9982SOL    HW230846   6.473   6.373   4.461
 9983SOL     OW30847   6.723   1.802   2.665
 9983SOL    HW130848   6.643   1.860   2.651
 9983SOL    HW230849   6.695   1.706   2.670
 9984SOL     OW30850   2.271   0.808   0.198
 9984SOL    HW130851   2.345   0.825   0.133
 9984SOL    HW230852   2.184   0.799   0.148
 9985SOL     OW30853   1.104   0.932   0.970
 9985SOL    HW130854   1.161   0.989   0.911
 9985SOL    HW230855   1.015   0.917   0.927
 9986SOL     OW30856   5.690   4.535   6.080
 9986SOL    HW130857   5.666   4.564   5.987
 9986SOL    HW230858   5.746   4.453   6.076
 9987SOL     OW30859   0.489   2.812   4.159
 9987SOL    HW130860   0.546   2.867   4.220
 9987SOL    HW230861   0.456   2.870   4.084
 9988SOL     OW30862   6.688   5.937   4.122
 9988SOL    HW130863   6.657   6.030   4.105
 9988SOL    HW230864   6.746   5.936   4.204
 9989SOL     OW30865   0.049   3.567   3.920
 9989SOL    HW130866   6.991   3.591   3.968
 9989SOL    HW230867   0.077   3.474   3.945
 9990SOL     OW30868   2.350   5.401   2.450
 9990SOL    HW130869   2.396   5.313   2.437
 9990SOL    HW230870   2.382   5.466   2.381
 9991SOL     OW30871   2.321   2.345   3.612
 9991SOL    HW130872   2.396   2.411   3.621
 9991SOL    HW230873   2.256   2.358   3.687
 9992SOL     OW30874   5.502   5.527   6.953
 9992SOL    HW130875   5.527   5.432   6.932
 9992SOL    HW230876   5.488   5.536   0.026
 9993SOL     OW30877   3.112   1.329   0.640
 9993SOL    HW130878   3.134   1.399   0.707
 9993SOL    HW230879   3.107   1.240   0.685
 9994SOL     OW30880   6.391   4.323   3.260
 9994SOL    HW130881   6.315   4.313   3.195
 9994SOL    HW230882   6.472   4.277   3.222
 9995SOL     OW30883   4.440   1.248   2.615
 9995SOL    HW130884   4.523   1.207   2.651
 9995SOL    HW230885   4.404   1.192   2.541
 9996SOL     OW30886   3.056   3.417   0.905
 9996SOL    HW130887   3.051   3.318   0.908
 9996SOL    HW230888   3.068   3.448   0.811
 9997SOL     OW30889   3.260   1.623   5.835
 9997SOL    HW130890   3.295   1.716   5.822
 9997SOL    HW230891   3.333   1.565   5.870
 9998SOL     OW30892   5.700   4.766   6.246
 9998SOL    HW130893   5.724   4.839   6.182
 9998SOL    HW230894   5.720   4.677   6.205
 9999SOL     OW30895   6.240   2.934   5.788
 9999SOL    HW130896   6.287   2.913   5.874
 9999SOL    HW230897   6.217   3.032   5.786
10000SOL     OW30898   0.225   4.850   0.098
10000SOL    HW130899   0.214   4.771   0.159
10000SOL    HW230900   0.315   4.846   0.054
10001SOL     OW30901   5.106   6.806   2.013
10001SOL    HW130902   5.023   6.755   1.994
10001SOL    HW230903   5.150   6.769   2.096
10002SOL     OW30904   1.049   6.782   2.676
10002SOL    HW130905   1.022   6.800   2.582
10002SOL    HW230906   1.069   6.869   2.722
10003SOL     OW30907   4.046   1.975   3.527
10003SOL    HW130908   4.010   1.891   3.568
10003SOL    HW230909   4.131   2.002   3.572
10004SOL     OW30910   0.110   2.519   4.245
10004SOL    HW130911   0.119   2.446   4.179
10004SOL    HW230912   0.043   2.493   4.315
10005SOL     OW30913   5.712   0.245   4.357
10005SOL    HW130914   5.778   0.230   4.431
10005SOL    HW230915   5.713   0.341   4.329
10006SOL     OW30916   5.174   5.615   4.490
10006SOL    HW130917   5.083   5.655   4.479
10006SOL    HW230918   5.175   5.555   4.570
10007SOL     OW30919   6.591   4.461   5.289
10007SOL    HW130920   6.521   4.394   5.315
10007SOL    HW230921   6.566   4.505   5.203
10008SOL     OW30922   3.793   1.373   4.924
10008SOL    HW130923   3.790   1.274   4.906
10008SOL    HW230924   3.868   1.413   4.872
10009SOL     OW30925   2.012   3.855   1.653
10009SOL    HW130926   2.045   3.776   1.705
10009SOL    HW230927   2.062   3.862   1.566
10010SOL     OW30928   2.313   1.069   5.980
10010SOL    HW130929   2.261   0.988   5.954
10010SOL    HW230930   2.330   1.067   6.079
10011SOL     OW30931   6.380   0.951   5.975
10011SOL    HW130932   6.349   0.906   6.059
10011SOL    HW230933   6.439   0.888   5.924
10012SOL     OW30934   5.513   1.293   2.968
10012SOL    HW130935   5.472   1.202   2.978
10012SOL    HW230936   5.603   1.284   2.925
10013SOL     OW30937   0.236   1.246   3.485
10013SOL    HW130938   0.270   1.320   3.427
10013SOL    HW230939   0.169   1.283   3.549
10014SOL     OW30940   0.021   4.234   0.253
10014SOL    HW130941   6.963   4.190   0.283
10014SOL    HW230942   0.072   4.267   0.332
10015SOL     OW30943   2.800   5.084   0.560
10015SOL    HW130944   2.728   5.017   0.581
10015SOL    HW230945   2.761   5.176   0.563
10016SOL     OW30946   0.866   1.484   6.743
10016SOL    HW130947   0.776   1.457   6.709
10016SOL    HW230948   0.863   1.580   6.771
10017SOL     OW30949   3.324   1.864   3.297
10017SOL    HW130950   3.256   1.791   3.291
10017SOL    HW230951   3.278   1.951   3.314
10018SOL     OW30952   4.787   0.648   6.789
10018SOL    HW130953   4.763   0.740   6.818
10018SOL    HW230954   4.881   0.646   6.756
10019SOL     OW30955   0.225   1.395   2.974
10019SOL    HW130956   0.280   1.466   3.017
10019SOL    HW230957   0.280   1.347   2.905
10020SOL     OW30958   1.904   2.058   1.470
10020SOL    HW130959   1.867   1.971   1.501
10020SOL    HW230960   1.935   2.111   1.549
10021SOL     OW30961   0.303   2.801   1.191
10021SOL    HW130962   0.325   2.750   1.274
10021SOL    HW230963   0.363   2.880   1.183
10022SOL     OW30964   2.402   1.438   6.086
10022SOL    HW130965   2.316   1.432   6.036
10022SOL    HW230966   2.478   1.419   6.024
10023SOL     OW30967   0.045   5.009   0.864
10023SOL    HW130968   0.107   4.972   0.794
10023SOL    HW230969   6.981   4.966   0.856
10024SOL     OW30970   2.168   6.200   2.745
10024SOL    HW130971   2.080   6.161   2.719
10024SOL    HW230972   2.194   6.167   2.837
10025SOL     OW30973   1.481   0.589   0.874
10025SOL    HW130974   1.437   0.670   0.911
10025SOL    HW230975   1.580   0.598   0.881
10026SOL     OW30976   5.316   6.820   3.643
10026SOL    HW130977   5.403   6.772   3.660
10026SOL    HW230978   5.240   6.757   3.659
10027SOL     OW30979   5.943   3.498   4.811
10027SOL    HW130980   5.878   3.450   4.752
10027SOL    HW230981   5.942   3.596   4.790
10028SOL     OW30982   0.936   0.195   1.531
10028SOL    HW130983   1.012   0.181   1.468
10028SOL    HW230984   0.891   0.282   1.510
10029SOL     OW30985   5.204   2.494   3.902
10029SOL    HW130986   5.194   2.394   3.898
10029SOL    HW230987   5.145   2.530   3.975
10030SOL     OW30988   2.079   0.751   3.003
10030SOL    HW130989   2.035   0.729   2.916
10030SOL    HW230990   2.142   0.828   2.991
10031SOL     OW30991   5.525   4.788   4.163
10031SOL    HW130992   5.450   4.729   4.134
10031SOL    HW230993   5.565   4.832   4.083
10032SOL     OW30994   2.904   1.084   5.147
10032SOL    HW130995   2.916   1.043   5.057
10032SOL    HW230996   2.813   1.125   5.153
10033SOL     OW30997   6.975   3.750   4.617
10033SOL    HW130998   6.879   3.727   4.598
10033SOL    HW230999   6.984   3.782   4.711
10034SOL     OW31000   3.749   0.442   4.342
10034SOL    HW131001   3.738   0.367   4.278
10034SOL    HW231002   3.691   0.519   4.314
10035SOL     OW31003   6.659   5.450   1.797
10035SOL    HW131004   6.634   5.401   1.880
10035SOL    HW231005   6.654   5.548   1.814
10036SOL     OW31006   6.443   1.876   1.062
10036SOL    HW131007   6.504   1.809   1.021
10036SOL    HW231008   6.354   1.834   1.080
10037SOL     OW31009   0.045   1.499   6.647
10037SOL    HW131010   6.997   1.450   6.693
10037SOL    HW231011   0.024   1.597   6.644
10038SOL     OW31012   6.051   0.275   0.226
10038SOL    HW131013   6.091   0.269   0.317
10038SOL    HW231014   6.112   0.233   0.159
10039SOL     OW31015   3.393   0.705   3.427
10039SOL    HW131016   3.470   0.766   3.445
10039SOL    HW231017   3.403   0.621   3.479
10040SOL     OW31018   5.837   4.742   0.032
10040SOL    HW131019   5.793   4.655   0.055
10040SOL    HW231020   5.768   4.806   7.025
10041SOL     OW31021   3.406   6.038   0.232
10041SOL    HW131022   3.365   6.064   0.144
10041SOL    HW231023   3.489   5.985   0.215
10042SOL     OW31024   0.111   2.224   3.444
10042SOL    HW131025   0.104   2.259   3.351
10042SOL    HW231026   0.027   2.174   3.467
10043SOL     OW31027   6.277   1.588   5.724
10043SOL    HW131028   6.313   1.650   5.654
10043SOL    HW231029   6.352   1.535   5.763
10044SOL     OW31030   2.631   3.287   5.786
10044SOL    HW131031   2.614   3.386   5.788
10044SOL    HW231032   2.702   3.264   5.853
10045SOL     OW31033   4.167   0.918   0.663
10045SOL    HW131034   4.225   0.988   0.622
10045SOL    HW231035   4.097   0.889   0.597
10046SOL     OW31036   1.719   3.718   1.266
10046SOL    HW131037   1.667   3.767   1.196
10046SOL    HW231038   1.739   3.780   1.341
10047SOL     OW31039   0.750   3.440   6.456
10047SOL    HW131040   0.842   3.470   6.480
10047SOL    HW231041   0.683   3.499   6.502
10048SOL     OW31042   6.964   6.584   2.861
10048SOL    HW131043   6.924   6.629   2.941
10048SOL    HW231044   6.971   6.486   2.878
10049SOL     OW31045   0.373   2.237   6.422
10049SOL    HW131046   0.337   2.208   6.511
10049SOL    HW231047   0.456   2.291   6.436
10050SOL     OW31048   5.044   3.446   5.262
10050SOL    HW131049   5.049   3.376   5.333
10050SOL    HW231050   5.045   3.402   5.172
10051SOL     OW31051   0.887   4.256   5.011
10051SOL    HW131052   0.980   4.287   5.032
10051SOL    HW231053   0.885   4.156   5.006
10052SOL     OW31054   1.173   0.644   3.395
10052SOL    HW131055   1.169   0.643   3.295
10052SOL    HW231056   1.182   0.551   3.429
10053SOL     OW31057   4.819   5.415   4.275
10053SOL    HW131058   4.810   5.346   4.346
10053SOL    HW231059   4.915   5.442   4.267
10054SOL     OW31060   5.706   3.903   4.687
10054SOL    HW131061   5.702   3.998   4.720
10054SOL    HW231062   5.614   3.872   4.664
10055SOL     OW31063   6.275   2.566   6.804
10055SOL    HW131064   6.227   2.539   6.721
10055SOL    HW231065   6.247   2.507   6.880
10056SOL     OW31066   5.255   3.799   3.558
10056SOL    HW131067   5.256   3.882   3.502
10056SOL    HW231068   5.343   3.752   3.550
10057SOL     OW31069   6.000   4.092   6.450
10057SOL    HW131070   5.903   4.113   6.441
10057SOL    HW231071   6.011   4.002   6.492
10058SOL     OW31072   6.588   3.278   4.811
10058SOL    HW131073   6.628   3.210   4.873
10058SOL    HW231074   6.650   3.356   4.803
10059SOL     OW31075   6.227   1.600   0.621
10059SOL    HW131076   6.140   1.583   0.667
10059SOL    HW231077   6.277   1.514   0.611
10060SOL     OW31078   2.893   1.869   2.792
10060SOL    HW131079   2.884   1.899   2.887
10060SOL    HW231080   2.832   1.924   2.735
10061SOL     OW31081   4.236   1.238   3.662
10061SOL    HW131082   4.243   1.337   3.673
10061SOL    HW231083   4.243   1.216   3.564
10062SOL     OW31084   0.612   6.685   4.017
10062SOL    HW131085   0.600   6.752   3.943
10062SOL    HW231086   0.710   6.667   4.029
10063SOL     OW31087   1.878   2.269   4.921
10063SOL    HW131088   1.864   2.234   5.014
10063SOL    HW231089   1.790   2.272   4.874
10064SOL     OW31090   3.364   6.330   6.918
10064SOL    HW131091   3.294   6.399   6.938
10064SOL    HW231092   3.453   6.375   6.908
10065SOL     OW31093   1.080   0.421   1.743
10065SOL    HW131094   1.172   0.397   1.713
10065SOL    HW231095   1.014   0.394   1.673
10066SOL     OW31096   0.088   3.529   5.236
10066SOL    HW131097   0.136   3.579   5.308
10066SOL    HW231098   0.139   3.538   5.150
10067SOL     OW31099   0.839   2.838   6.721
10067SOL    HW131100   0.862   2.875   6.812
10067SOL    HW231101   0.911   2.863   6.656
10068SOL     OW31102   2.253   2.760   2.495
10068SOL    HW131103   2.167   2.810   2.509
10068SOL    HW231104   2.311   2.769   2.576
10069SOL     OW31105   3.685   5.058   1.773
10069SOL    HW131106   3.736   5.070   1.858
10069SOL    HW231107   3.659   5.148   1.737
10070SOL     OW31108   2.832   5.858   4.804
10070SOL    HW131109   2.815   5.867   4.902
10070SOL    HW231110   2.819   5.763   4.777
10071SOL     OW31111   0.396   6.765   3.738
10071SOL    HW131112   0.441   6.821   3.669
10071SOL    HW231113   0.405   6.669   3.713
10072SOL     OW31114   6.758   1.211   2.739
10072SOL    HW131115   6.842   1.170   2.773
10072SOL    HW231116   6.750   1.197   2.641
10073SOL     OW31117   6.362   2.826   4.144
10073SOL    HW131118   6.283   2.775   4.179
10073SOL    HW231119   6.389   2.896   4.211
10074SOL     OW31120   2.532   4.947   0.504
10074SOL    HW131121   2.482   4.912   0.584
10074SOL    HW231122   2.554   4.871   0.443
10075SOL     OW31123   1.954   1.783   2.176
10075SOL    HW131124   1.920   1.844   2.104
10075SOL    HW231125   1.968   1.692   2.139
10076SOL     OW31126   4.830   5.218   3.648
10076SOL    HW131127   4.833   5.249   3.553
10076SOL    HW231128   4.854   5.293   3.709
10077SOL     OW31129   6.293   3.449   6.628
10077SOL    HW131130   6.304   3.351   6.610
10077SOL    HW231131   6.196   3.471   6.639
10078SOL     OW31132   6.998   6.329   5.005
10078SOL    HW131133   0.008   6.384   4.929
10078SOL    HW231134   0.015   6.358   5.090
10079SOL     OW31135   5.132   2.988   3.093
10079SOL    HW131136   5.155   3.057   3.163
10079SOL    HW231137   5.210   2.977   3.031
10080SOL     OW31138   5.579   0.675   5.847
10080SOL    HW131139   5.674   0.643   5.839
10080SOL    HW231140   5.533   0.626   5.921
10081SOL     OW31141   2.043   2.090   0.392
10081SOL    HW131142   2.118   2.026   0.376
10081SOL    HW231143   2.023   2.141   0.308
10082SOL     OW31144   1.423   4.656   2.498
10082SOL    HW131145   1.480   4.709   2.561
10082SOL    HW231146   1.328   4.688   2.505
10083SOL     OW31147   3.850   5.118   3.910
10083SOL    HW131148   3.844   5.175   3.992
10083SOL    HW231149   3.763   5.070   3.897
10084SOL     OW31150   1.350   0.148   5.073
10084SOL    HW131151   1.399   0.176   5.156
10084SOL    HW231152   1.386   0.060   5.041
10085SOL     OW31153   4.018   6.433   0.372
10085SOL    HW131154   3.979   6.437   0.464
10085SOL    HW231155   4.044   6.525   0.342
10086SOL     OW31156   6.144   6.529   2.029
10086SOL    HW131157   6.227   6.551   1.977
10086SOL    HW231158   6.124   6.432   2.020
10087SOL     OW31159   1.315   6.411   4.537
10087SOL    HW131160   1.263   6.362   4.467
10087SOL    HW231161   1.412   6.413   4.511
10088SOL     OW31162   6.814   2.871   6.976
10088SOL    HW131163   6.900   2.863   0.001
10088SOL    HW231164   6.765   2.784   6.979
10089SOL     OW31165   4.320   2.037   2.337
10089SOL    HW131166   4.332   2.018   2.240
10089SOL    HW231167   4.260   2.116   2.349
10090SOL     OW31168   1.449   4.852   1.278
10090SOL    HW131169   1.501   4.918   1.224
10090SOL    HW231170   1.353   4.882   1.283
10091SOL     OW31171   6.147   4.962   5.427
10091SOL    HW131172   6.203   4.986   5.506
10091SOL    HW231173   6.065   5.019   5.425
10092SOL     OW31174   0.261   2.816   5.507
10092SOL    HW131175   0.336   2.769   5.461
10092SOL    HW231176   0.286   2.832   5.603
10093SOL     OW31177   5.736   3.925   6.081
10093SOL    HW131178   5.748   3.845   6.141
10093SOL    HW231179   5.818   3.982   6.085
10094SOL     OW31180   3.069   0.582   0.988
10094SOL    HW131181   3.077   0.497   0.937
10094SOL    HW231182   3.131   0.581   1.066
10095SOL     OW31183   5.090   2.897   5.422
10095SOL    HW131184   5.124   2.834   5.491
10095SOL    HW231185   5.001   2.933   5.450
10096SOL     OW31186   4.734   0.946   2.410
10096SOL    HW131187   4.750   0.892   2.493
10096SOL    HW231188   4.806   0.926   2.343
10097SOL     OW31189   1.109   1.815   6.647
10097SOL    HW131190   1.155   1.793   6.561
10097SOL    HW231191   1.089   1.731   6.697
10098SOL     OW31192   3.526   5.677   4.839
10098SOL    HW131193   3.472   5.626   4.772
10098SOL    HW231194   3.466   5.711   4.911
10099SOL     OW31195   0.123   4.622   2.487
10099SOL    HW131196   0.180   4.704   2.484
10099SOL    HW231197   0.165   4.551   2.431
10100SOL     OW31198   5.182   5.147   4.511
10100SOL    HW131199   5.107   5.112   4.455
10100SOL    HW231200   5.218   5.074   4.569
10101SOL     OW31201   0.832   2.361   1.477
10101SOL    HW131202   0.857   2.269   1.446
10101SOL    HW231203   0.807   2.359   1.574
10102SOL     OW31204   6.518   6.661   1.673
10102SOL    HW131205   6.452   6.605   1.624
10102SOL    HW231206   6.514   6.755   1.640
10103SOL     OW31207   0.034   6.755   5.780
10103SOL    HW131208   0.086   6.687   5.831
10103SOL    HW231209   6.986   6.790   5.837
10104SOL     OW31210   1.826   0.678   5.873
10104SOL    HW131211   1.879   0.739   5.813
10104SOL    HW231212   1.821   0.587   5.831
10105SOL     OW31213   2.219   0.874   5.413
10105SOL    HW131214   2.151   0.947   5.424
10105SOL    HW231215   2.288   0.881   5.485
10106SOL     OW31216   5.068   6.226   1.210
10106SOL    HW131217   4.990   6.164   1.214
10106SOL    HW231218   5.151   6.178   1.238
10107SOL     OW31219   5.547   4.524   6.887
10107SOL    HW131220   5.568   4.446   6.829
10107SOL    HW231221   5.551   4.608   6.833
10108SOL     OW31222   1.488   2.218   0.292
10108SOL    HW131223   1.451   2.126   0.304
10108SOL    HW231224   1.532   2.247   0.377
10109SOL     OW31225   0.681   1.487   0.523
10109SOL    HW131226   0.695   1.486   0.622
10109SOL    HW231227   0.608   1.552   0.501
10110SOL     OW31228   4.945   6.328   2.787
10110SOL    HW131229   5.014   6.280   2.732
10110SOL    HW231230   4.864   6.346   2.731
10111SOL     OW31231   1.461   1.640   2.144
10111SOL    HW131232   1.441   1.595   2.057
10111SOL    HW231233   1.392   1.711   2.161
10112SOL     OW31234   6.182   2.600   3.516
10112SOL    HW131235   6.256   2.650   3.471
10112SOL    HW231236   6.215   2.559   3.601
10113SOL     OW31237   5.733   1.206   6.613
10113SOL    HW131238   5.770   1.251   6.695
10113SOL    HW231239   5.635   1.189   6.626
10114SOL     OW31240   4.009   1.494   2.489
10114SOL    HW131241   3.936   1.494   2.558
10114SOL    HW231242   4.072   1.569   2.508
10115SOL     OW31243   3.109   2.061   5.249
10115SOL    HW131244   3.208   2.073   5.258
10115SOL    HW231245   3.067   2.147   5.220
10116SOL     OW31246   6.154   0.638   4.520
10116SOL    HW131247   6.168   0.608   4.615
10116SOL    HW231248   6.242   0.644   4.473
10117SOL     OW31249   6.493   5.416   3.961
10117SOL    HW131250   6.403   5.381   3.988
10117SOL    HW231251   6.542   5.448   4.043
10118SOL     OW31252   3.525   4.897   5.066
10118SOL    HW131253   3.476   4.929   4.984
10118SOL    HW231254   3.623   4.906   5.050
10119SOL     OW31255   0.214   5.189   4.771
10119SOL    HW131256   0.292   5.231   4.724
10119SOL    HW231257   0.205   5.094   4.743
10120SOL     OW31258   2.268   2.768   2.049
10120SOL    HW131259   2.263   2.862   2.083
10120SOL    HW231260   2.288   2.706   2.125
10121SOL     OW31261   6.492   4.154   0.676
10121SOL    HW131262   6.395   4.141   0.656
10121SOL    HW231263   6.523   4.087   0.743
10122SOL     OW31264   0.880   1.375   4.209
10122SOL    HW131265   0.966   1.398   4.163
10122SOL    HW231266   0.873   1.428   4.294
10123SOL     OW31267   6.093   5.899   0.841
10123SOL    HW131268   6.111   5.819   0.783
10123SOL    HW231269   6.023   5.956   0.798
10124SOL     OW31270   1.315   3.679   2.520
10124SOL    HW131271   1.322   3.638   2.429
10124SOL    HW231272   1.311   3.778   2.512
10125SOL     OW31273   1.211   1.818   6.395
10125SOL    HW131274   1.219   1.906   6.442
10125SOL    HW231275   1.302   1.787   6.367
10126SOL     OW31276   6.921   6.900   6.627
10126SOL    HW131277   6.951   6.870   6.536
10126SOL    HW231278   6.821   6.901   6.631
10127SOL     OW31279   2.276   5.154   6.198
10127SOL    HW131280   2.307   5.110   6.282
10127SOL    HW231281   2.331   5.235   6.179
10128SOL     OW31282   3.305   0.546   6.890
10128SOL    HW131283   3.366   0.519   6.965
10128SOL    HW231284   3.210   0.537   6.919
10129SOL     OW31285   6.043   1.450   3.907
10129SOL    HW131286   6.075   1.496   3.990
10129SOL    HW231287   5.949   1.477   3.888
10130SOL     OW31288   1.794   2.240   2.487
10130SOL    HW131289   1.731   2.316   2.474
10130SOL    HW231290   1.777   2.197   2.575
10131SOL     OW31291   1.781   0.709   4.168
10131SOL    HW131292   1.819   0.769   4.097
10131SOL    HW231293   1.739   0.765   4.240
10132SOL     OW31294   7.006   0.666   2.649
10132SOL    HW131295   6.907   0.651   2.651
10132SOL    HW231296   0.005   0.707   2.561
10133SOL     OW31297   5.071   6.437   0.484
10133SOL    HW131298   5.026   6.455   0.572
10133SOL    HW231299   5.161   6.480   0.483
10134SOL     OW31300   5.876   1.097   2.161
10134SOL    HW131301   5.901   1.117   2.066
10134SOL    HW231302   5.959   1.076   2.214
10135SOL     OW31303   5.735   6.829   2.673
10135SOL    HW131304   5.803   6.892   2.709
10135SOL    HW231305   5.647   6.875   2.665
10136SOL     OW31306   4.900   1.393   2.976
10136SOL    HW131307   4.862   1.422   2.888
10136SOL    HW231308   4.982   1.446   2.997
10137SOL     OW31309   6.593   5.575   5.777
10137SOL    HW131310   6.578   5.601   5.682
10137SOL    HW231311   6.515   5.604   5.832
10138SOL     OW31312   6.040   1.281   0.663
10138SOL    HW131313   6.109   1.217   0.629
10138SOL    HW231314   6.009   1.340   0.588
10139SOL     OW31315   3.362   3.649   5.509
10139SOL    HW131316   3.366   3.737   5.461
10139SOL    HW231317   3.446   3.598   5.491
10140SOL     OW31318   0.052   5.562   6.067
10140SOL    HW131319   0.039   5.474   6.021
10140SOL    HW231320   0.014   5.635   6.010
10141SOL     OW31321   2.600   1.610   4.369
10141SOL    HW131322   2.687   1.632   4.412
10141SOL    HW231323   2.566   1.523   4.404
10142SOL     OW31324   5.935   6.394   4.088
10142SOL    HW131325   5.861   6.455   4.060
10142SOL    HW231326   6.023   6.438   4.070
10143SOL     OW31327   5.877   2.995   0.075
10143SOL    HW131328   5.964   2.966   0.115
10143SOL    HW231329   5.816   3.028   0.148
10144SOL     OW31330   3.929   6.424   5.699
10144SOL    HW131331   4.017   6.470   5.685
10144SOL    HW231332   3.943   6.325   5.699
10145SOL     OW31333   5.207   6.222   6.652
10145SOL    HW131334   5.132   6.180   6.601
10145SOL    HW231335   5.178   6.310   6.689
10146SOL     OW31336   0.167   2.491   4.592
10146SOL    HW131337   0.103   2.441   4.533
10146SOL    HW231338   0.119   2.523   4.673
10147SOL     OW31339   4.864   5.592   6.376
10147SOL    HW131340   4.958   5.619   6.398
10147SOL    HW231341   4.812   5.672   6.347
10148SOL     OW31342   0.689   4.709   6.628
10148SOL    HW131343   0.683   4.633   6.693
10148SOL    HW231344   0.731   4.677   6.543
10149SOL     OW31345   4.509   3.989   0.655
10149SOL    HW131346   4.599   3.975   0.696
10149SOL    HW231347   4.451   4.038   0.719
10150SOL     OW31348   4.119   4.064   7.011
10150SOL    HW131349   4.203   4.106   0.020
10150SOL    HW231350   4.046   4.073   0.053
10151SOL     OW31351   6.290   6.716   5.101
10151SOL    HW131352   6.267   6.776   5.177
10151SOL    HW231353   6.380   6.676   5.116
10152SOL     OW31354   5.637   6.576   2.700
10152SOL    HW131355   5.706   6.647   2.691
10152SOL    HW231356   5.563   6.593   2.636
10153SOL     OW31357   5.340   4.362   3.578
10153SOL    HW131358   5.339   4.437   3.643
10153SOL    HW231359   5.281   4.384   3.500
10154SOL     OW31360   5.410   5.281   4.774
10154SOL    HW131361   5.484   5.302   4.838
10154SOL    HW231362   5.326   5.324   4.806
10155SOL     OW31363   4.570   1.979   5.192
10155SOL    HW131364   4.641   1.946   5.255
10155SOL    HW231365   4.551   2.075   5.211
10156SOL     OW31366   5.451   1.579   0.308
10156SOL    HW131367   5.512   1.657   0.300
10156SOL    HW231368   5.382   1.596   0.379
10157SOL     OW31369   0.439   3.131   1.267
10157SOL    HW131370   0.512   3.063   1.269
10157SOL    HW231371   0.429   3.171   1.358
10158SOL     OW31372   5.853   5.938   1.275
10158SOL    HW131373   5.797   5.963   1.196
10158SOL    HW231374   5.950   5.940   1.249
10159SOL     OW31375   3.467   3.265   2.625
10159SOL    HW131376   3.554   3.310   2.640
10159SOL    HW231377   3.479   3.166   2.632
10160SOL     OW31378   2.113   4.867   3.838
10160SOL    HW131379   2.067   4.908   3.917
10160SOL    HW231380   2.054   4.796   3.798
10161SOL     OW31381   4.500   3.924   5.914
10161SOL    HW131382   4.456   3.866   5.983
10161SOL    HW231383   4.551   3.997   5.960
10162SOL     OW31384   1.369   3.408   2.876
10162SOL    HW131385   1.423   3.475   2.825
10162SOL    HW231386   1.386   3.317   2.839
10163SOL     OW31387   1.257   6.295   5.108
10163SOL    HW131388   1.312   6.238   5.168
10163SOL    HW231389   1.200   6.357   5.163
10164SOL     OW31390   0.351   3.370   2.727
10164SOL    HW131391   0.383   3.329   2.813
10164SOL    HW231392   0.328   3.297   2.663
10165SOL     OW31393   6.757   3.520   4.200
10165SOL    HW131394   6.813   3.470   4.267
10165SOL    HW231395   6.815   3.588   4.154
10166SOL     OW31396   1.012   1.543   1.188
10166SOL    HW131397   1.082   1.504   1.128
10166SOL    HW231398   1.036   1.525   1.283
10167SOL     OW31399   1.304   0.136   6.651
10167SOL    HW131400   1.324   0.202   6.722
10167SOL    HW231401   1.378   0.069   6.644
10168SOL     OW31402   6.228   1.139   0.521
10168SOL    HW131403   6.242   1.078   0.443
10168SOL    HW231404   6.230   1.086   0.606
10169SOL     OW31405   6.226   2.501   3.811
10169SOL    HW131406   6.239   2.599   3.824
10169SOL    HW231407   6.188   2.461   3.894
10170SOL     OW31408   6.101   5.754   6.181
10170SOL    HW131409   6.191   5.711   6.188
10170SOL    HW231410   6.103   5.844   6.225
10171SOL     OW31411   1.988   3.785   5.990
10171SOL    HW131412   2.009   3.738   5.905
10171SOL    HW231413   1.985   3.884   5.975
10172SOL     OW31414   6.455   0.448   2.937
10172SOL    HW131415   6.468   0.372   3.000
10172SOL    HW231416   6.478   0.419   2.844
10173SOL     OW31417   3.302   4.594   5.951
10173SOL    HW131418   3.267   4.503   5.930
10173SOL    HW231419   3.252   4.633   6.028
10174SOL     OW31420   5.197   5.925   2.125
10174SOL    HW131421   5.104   5.888   2.129
10174SOL    HW231422   5.241   5.915   2.215
10175SOL     OW31423   0.306   1.510   4.169
10175SOL    HW131424   0.315   1.523   4.267
10175SOL    HW231425   0.210   1.521   4.142
10176SOL     OW31426   6.095   2.666   5.922
10176SOL    HW131427   6.104   2.758   5.885
10176SOL    HW231428   6.125   2.599   5.854
10177SOL     OW31429   2.576   0.745   2.494
10177SOL    HW131430   2.562   0.648   2.513
10177SOL    HW231431   2.552   0.799   2.575
10178SOL     OW31432   1.733   1.030   0.123
10178SOL    HW131433   1.799   0.967   0.164
10178SOL    HW231434   1.782   1.098   0.068
10179SOL     OW31435   0.611   4.332   1.467
10179SOL    HW131436   0.600   4.233   1.468
10179SOL    HW231437   0.662   4.359   1.385
10180SOL     OW31438   3.915   6.734   5.797
10180SOL    HW131439   3.839   6.763   5.737
10180SOL    HW231440   3.893   6.645   5.837
10181SOL     OW31441   6.799   3.375   1.885
10181SOL    HW131442   6.863   3.305   1.915
10181SOL    HW231443   6.845   3.464   1.885
10182SOL     OW31444   5.397   1.852   6.753
10182SOL    HW131445   5.416   1.911   6.831
10182SOL    HW231446   5.302   1.865   6.724
10183SOL     OW31447   6.265   2.804   6.646
10183SOL    HW131448   6.275   2.789   6.745
10183SOL    HW231449   6.206   2.733   6.608
10184SOL     OW31450   5.397   3.248   5.755
10184SOL    HW131451   5.364   3.221   5.664
10184SOL    HW231452   5.491   3.283   5.746
10185SOL     OW31453   4.324   5.500   2.613
10185SOL    HW131454   4.375   5.416   2.596
10185SOL    HW231455   4.233   5.493   2.571
10186SOL     OW31456   4.214   3.384   5.714
10186SOL    HW131457   4.303   3.414   5.749
10186SOL    HW231458   4.195   3.430   5.627
10187SOL     OW31459   2.069   5.211   6.024
10187SOL    HW131460   2.005   5.134   6.017
10187SOL    HW231461   2.139   5.189   6.092
10188SOL     OW31462   3.070   0.227   0.073
10188SOL    HW131463   3.025   0.272   0.150
10188SOL    HW231464   3.169   0.223   0.090
10189SOL     OW31465   0.832   2.106   6.348
10189SOL    HW131466   0.897   2.180   6.338
10189SOL    HW231467   0.787   2.089   6.260
10190SOL     OW31468   3.400   5.254   1.893
10190SOL    HW131469   3.403   5.323   1.821
10190SOL    HW231470   3.391   5.163   1.851
10191SOL     OW31471   5.573   5.700   0.305
10191SOL    HW131472   5.564   5.610   0.263
10191SOL    HW231473   5.556   5.771   0.237
10192SOL     OW31474   2.119   1.956   4.857
10192SOL    HW131475   2.037   1.979   4.910
10192SOL    HW231476   2.129   1.857   4.852
10193SOL     OW31477   3.910   3.931   3.138
10193SOL    HW131478   3.856   3.887   3.209
10193SOL    HW231479   3.984   3.870   3.110
10194SOL     OW31480   3.259   0.257   4.125
10194SOL    HW131481   3.238   0.168   4.165
10194SOL    HW231482   3.297   0.317   4.195
10195SOL     OW31483   4.532   6.947   2.019
10195SOL    HW131484   4.436   6.974   2.015
10195SOL    HW231485   4.548   6.870   1.957
10196SOL     OW31486   5.732   1.623   3.020
10196SOL    HW131487   5.774   1.536   2.997
10196SOL    HW231488   5.725   1.680   2.938
10197SOL     OW31489   6.117   0.781   2.446
10197SOL    HW131490   6.183   0.726   2.497
10197SOL    HW231491   6.036   0.797   2.503
10198SOL     OW31492   2.877   0.112   1.578
10198SOL    HW131493   2.919   0.047   1.515
10198SOL    HW231494   2.782   0.085   1.594
10199SOL     OW31495   0.382   1.449   6.997
10199SOL    HW131496   0.412   1.544   6.984
10199SOL    HW231497   0.446   1.403   0.034
10200SOL     OW31498   5.076   4.440   5.442
10200SOL    HW131499   5.014   4.455   5.519
10200SOL    HW231500   5.156   4.390   5.473
10201SOL     OW31501   0.947   5.350   2.127
10201SOL    HW131502   0.926   5.434   2.077
10201SOL    HW231503   0.972   5.372   2.221
10202SOL     OW31504   0.928   3.216   1.916
10202SOL    HW131505   0.876   3.148   1.967
10202SOL    HW231506   0.996   3.171   1.859
10203SOL     OW31507   1.990   2.892   2.447
10203SOL    HW131508   1.995   2.991   2.462
10203SOL    HW231509   1.895   2.861   2.454
10204SOL     OW31510   3.032   4.742   5.310
10204SOL    HW131511   2.999   4.659   5.265
10204SOL    HW231512   3.001   4.822   5.260
10205SOL     OW31513   5.282   2.173   3.165
10205SOL    HW131514   5.220   2.104   3.128
10205SOL    HW231515   5.357   2.188   3.101
10206SOL     OW31516   5.461   6.672   5.913
10206SOL    HW131517   5.449   6.574   5.925
10206SOL    HW231518   5.437   6.698   5.820
10207SOL     OW31519   3.557   1.044   3.159
10207SOL    HW131520   3.485   1.108   3.133
10207SOL    HW231521   3.562   1.039   3.259
10208SOL     OW31522   6.007   4.164   5.870
10208SOL    HW131523   6.033   4.121   5.957
10208SOL    HW231524   6.070   4.237   5.849
10209SOL     OW31525   6.648   6.864   6.686
10209SOL    HW131526   6.588   6.933   6.727
10209SOL    HW231527   6.673   6.796   6.755
10210SOL     OW31528   5.882   6.218   2.473
10210SOL    HW131529   5.943   6.178   2.404
10210SOL    HW231530   5.895   6.317   2.474
10211SOL     OW31531   3.690   6.048   5.409
10211SOL    HW131532   3.732   6.131   5.447
10211SOL    HW231533   3.751   6.008   5.342
10212SOL     OW31534   0.388   0.894   3.981
10212SOL    HW131535   0.367   0.820   4.044
10212SOL    HW231536   0.369   0.864   3.887
10213SOL     OW31537   6.187   1.825   3.628
10213SOL    HW131538   6.155   1.735   3.597
10213SOL    HW231539   6.112   1.874   3.672
10214SOL     OW31540   6.442   1.380   2.111
10214SOL    HW131541   6.387   1.392   2.193
10214SOL    HW231542   6.510   1.309   2.127
10215SOL     OW31543   3.644   3.618   6.869
10215SOL    HW131544   3.744   3.616   6.878
10215SOL    HW231545   3.620   3.635   6.773
10216SOL     OW31546   5.611   0.287   1.356
10216SOL    HW131547   5.594   0.355   1.427
10216SOL    HW231548   5.660   0.329   1.279
10217SOL     OW31549   2.572   2.173   4.380
10217SOL    HW131550   2.607   2.093   4.332
10217SOL    HW231551   2.511   2.144   4.454
10218SOL     OW31552   1.750   0.637   0.854
10218SOL    HW131553   1.834   0.614   0.903
10218SOL    HW231554   1.773   0.688   0.771
10219SOL     OW31555   1.009   2.732   1.700
10219SOL    HW131556   1.003   2.678   1.616
10219SOL    HW231557   1.057   2.680   1.771
10220SOL     OW31558   4.380   1.878   1.162
10220SOL    HW131559   4.398   1.917   1.072
10220SOL    HW231560   4.467   1.857   1.207
10221SOL     OW31561   2.654   0.459   5.295
10221SOL    HW131562   2.732   0.399   5.313
10221SOL    HW231563   2.661   0.495   5.203
10222SOL     OW31564   1.203   4.129   5.300
10222SOL    HW131565   1.132   4.200   5.299
10222SOL    HW231566   1.166   4.047   5.344
10223SOL     OW31567   1.523   4.382   6.972
10223SOL    HW131568   1.603   4.391   6.913
10223SOL    HW231569   1.538   4.308   0.012
10224SOL     OW31570   1.040   6.964   4.244
10224SOL    HW131571   1.079   6.959   4.336
10224SOL    HW231572   0.942   6.944   4.247
10225SOL     OW31573   6.621   6.357   5.165
10225SOL    HW131574   6.601   6.259   5.170
10225SOL    HW231575   6.698   6.373   5.103
10226SOL     OW31576   2.350   0.842   6.734
10226SOL    HW131577   2.274   0.908   6.733
10226SOL    HW231578   2.313   0.749   6.734
10227SOL     OW31579   4.645   4.490   0.164
10227SOL    HW131580   4.709   4.489   0.241
10227SOL    HW231581   4.696   4.489   0.078
10228SOL     OW31582   1.548   5.483   3.698
10228SOL    HW131583   1.627   5.494   3.638
10228SOL    HW231584   1.472   5.538   3.664
10229SOL     OW31585   1.233   0.227   3.262
10229SOL    HW131586   1.287   0.303   3.226
10229SOL    HW231587   1.199   0.250   3.353
10230SOL     OW31588   6.122   0.272   3.681
10230SOL    HW131589   6.031   0.271   3.639
10230SOL    HW231590   6.156   0.178   3.687
10231SOL     OW31591   5.666   6.679   4.955
10231SOL    HW131592   5.646   6.703   5.050
10231SOL    HW231593   5.610   6.601   4.927
10232SOL     OW31594   3.788   1.668   4.715
10232SOL    HW131595   3.834   1.693   4.629
10232SOL    HW231596   3.693   1.699   4.712
10233SOL     OW31597   4.559   3.124   5.862
10233SOL    HW131598   4.630   3.125   5.932
10233SOL    HW231599   4.477   3.170   5.897
10234SOL     OW31600   5.490   0.131   0.938
10234SOL    HW131601   5.445   0.219   0.953
10234SOL    HW231602   5.504   0.086   1.026
10235SOL     OW31603   4.594   1.906   0.036
10235SOL    HW131604   4.645   1.946   6.986
10235SOL    HW231605   4.497   1.902   0.012
10236SOL     OW31606   2.069   6.028   1.897
10236SOL    HW131607   2.072   5.988   1.988
10236SOL    HW231608   2.103   6.122   1.900
10237SOL     OW31609   6.189   4.084   2.603
10237SOL    HW131610   6.243   4.112   2.523
10237SOL    HW231611   6.246   4.032   2.666
10238SOL     OW31612   4.315   4.657   5.499
10238SOL    HW131613   4.247   4.611   5.443
10238SOL    HW231614   4.406   4.618   5.479
10239SOL     OW31615   0.300   4.120   5.187
10239SOL    HW131616   0.263   4.139   5.278
10239SOL    HW231617   0.229   4.084   5.128
10240SOL     OW31618   1.137   4.034   3.201
10240SOL    HW131619   1.208   4.103   3.217
10240SOL    HW231620   1.164   3.949   3.246
10241SOL     OW31621   0.869   1.487   2.801
10241SOL    HW131622   0.966   1.473   2.783
10241SOL    HW231623   0.815   1.446   2.727
10242SOL     OW31624   6.862   1.132   6.236
10242SOL    HW131625   6.764   1.121   6.220
10242SOL    HW231626   6.877   1.161   6.330
10243SOL     OW31627   0.772   5.391   1.515
10243SOL    HW131628   0.735   5.307   1.555
10243SOL    HW231629   0.869   5.377   1.494
10244SOL     OW31630   2.766   5.137   0.289
10244SOL    HW131631   2.785   5.053   0.238
10244SOL    HW231632   2.803   5.129   0.382
10245SOL     OW31633   1.457   2.984   7.012
10245SOL    HW131634   1.468   2.964   0.083
10245SOL    HW231635   1.370   2.948   6.980
10246SOL     OW31636   3.024   3.812   4.602
10246SOL    HW131637   3.012   3.797   4.700
10246SOL    HW231638   3.077   3.895   4.587
10247SOL     OW31639   6.862   5.043   6.269
10247SOL    HW131640   6.809   5.074   6.348
10247SOL    HW231641   6.801   5.009   6.198
10248SOL     OW31642   2.405   0.351   2.039
10248SOL    HW131643   2.320   0.307   2.011
10248SOL    HW231644   2.464   0.364   1.960
10249SOL     OW31645   4.596   0.887   5.748
10249SOL    HW131646   4.520   0.935   5.792
10249SOL    HW231647   4.596   0.908   5.650
10250SOL     OW31648   5.828   1.069   1.492
10250SOL    HW131649   5.761   1.137   1.461
10250SOL    HW231650   5.837   0.998   1.422
10251SOL     OW31651   2.834   2.682   6.783
10251SOL    HW131652   2.909   2.661   6.845
10251SOL    HW231653   2.826   2.610   6.714
10252SOL     OW31654   6.398   6.596   0.928
10252SOL    HW131655   6.472   6.578   0.992
10252SOL    HW231656   6.395   6.523   0.860
10253SOL     OW31657   5.048   4.555   0.224
10253SOL    HW131658   4.979   4.540   0.295
10253SOL    HW231659   5.006   4.538   0.134
10254SOL     OW31660   2.618   1.390   5.115
10254SOL    HW131661   2.567   1.472   5.087
10254SOL    HW231662   2.644   1.398   5.211
10255SOL     OW31663   2.124   5.488   2.117
10255SOL    HW131664   2.190   5.414   2.125
10255SOL    HW231665   2.133   5.549   2.196
10256SOL     OW31666   4.720   0.279   0.105
10256SOL    HW131667   4.787   0.353   0.094
10256SOL    HW231668   4.699   0.268   0.202
10257SOL     OW31669   1.385   5.144   6.160
10257SOL    HW131670   1.442   5.169   6.082
10257SOL    HW231671   1.303   5.201   6.160
10258SOL     OW31672   4.441   6.342   3.234
10258SOL    HW131673   4.481   6.433   3.223
10258SOL    HW231674   4.371   6.328   3.164
10259SOL     OW31675   0.384   4.228   4.297
10259SOL    HW131676   0.361   4.324   4.316
10259SOL    HW231677   0.448   4.224   4.221
10260SOL     OW31678   0.732   6.477   2.354
10260SOL    HW131679   0.827   6.483   2.323
10260SOL    HW231680   0.671   6.500   2.279
10261SOL     OW31681   0.318   5.254   1.761
10261SOL    HW131682   0.280   5.303   1.683
10261SOL    HW231683   0.402   5.299   1.791
10262SOL     OW31684   3.009   5.000   3.869
10262SOL    HW131685   3.023   5.071   3.939
10262SOL    HW231686   2.956   4.925   3.908
10263SOL     OW31687   5.421   1.565   6.291
10263SOL    HW131688   5.375   1.526   6.371
10263SOL    HW231689   5.513   1.595   6.317
10264SOL     OW31690   6.213   1.077   6.419
10264SOL    HW131691   6.213   1.142   6.343
10264SOL    HW231692   6.120   1.070   6.456
10265SOL     OW31693   3.677   1.593   3.115
10265SOL    HW131694   3.766   1.555   3.086
10265SOL    HW231695   3.651   1.667   3.053
10266SOL     OW31696   3.305   3.537   6.416
10266SOL    HW131697   3.360   3.558   6.334
10266SOL    HW231698   3.230   3.476   6.391
10267SOL     OW31699   0.012   1.691   6.969
10267SOL    HW131700   6.974   1.615   6.979
10267SOL    HW231701   0.020   1.715   6.872
10268SOL     OW31702   5.536   5.350   1.610
10268SOL    HW131703   5.465   5.341   1.539
10268SOL    HW231704   5.573   5.259   1.631
10269SOL     OW31705   1.878   2.609   6.043
10269SOL    HW131706   1.857   2.688   5.986
10269SOL    HW231707   1.974   2.613   6.071
10270SOL     OW31708   1.955   5.844   0.574
10270SOL    HW131709   1.981   5.821   0.667
10270SOL    HW231710   2.037   5.848   0.516
10271SOL     OW31711   3.939   3.415   1.530
10271SOL    HW131712   3.913   3.331   1.483
10271SOL    HW231713   4.007   3.464   1.476
10272SOL     OW31714   0.503   0.739   4.512
10272SOL    HW131715   0.581   0.737   4.449
10272SOL    HW231716   0.459   0.829   4.507
10273SOL     OW31717   3.694   5.713   4.436
10273SOL    HW131718   3.737   5.732   4.524
10273SOL    HW231719   3.594   5.711   4.448
10274SOL     OW31720   1.154   5.366   5.933
10274SOL    HW131721   1.165   5.341   6.029
10274SOL    HW231722   1.137   5.464   5.925
10275SOL     OW31723   0.880   6.331   2.796
10275SOL    HW131724   0.943   6.266   2.840
10275SOL    HW231725   0.929   6.382   2.726
10276SOL     OW31726   0.133   5.488   5.607
10276SOL    HW131727   0.137   5.401   5.559
10276SOL    HW231728   0.131   5.563   5.540
10277SOL     OW31729   3.233   6.403   3.933
10277SOL    HW131730   3.233   6.457   4.017
10277SOL    HW231731   3.204   6.460   3.856
10278SOL     OW31732   6.193   0.393   6.897
10278SOL    HW131733   6.102   0.424   6.925
10278SOL    HW231734   6.202   0.295   6.915
10279SOL     OW31735   2.858   0.317   4.712
10279SOL    HW131736   2.885   0.408   4.681
10279SOL    HW231737   2.759   0.306   4.701
10280SOL     OW31738   1.593   4.390   0.975
10280SOL    HW131739   1.493   4.397   0.967
10280SOL    HW231740   1.627   4.321   0.910
10281SOL     OW31741   4.665   1.247   2.074
10281SOL    HW131742   4.620   1.329   2.111
10281SOL    HW231743   4.651   1.171   2.137
10282SOL     OW31744   0.681   2.091   4.064
10282SOL    HW131745   0.619   2.079   4.141
10282SOL    HW231746   0.757   2.150   4.092
10283SOL     OW31747   0.875   3.028   0.688
10283SOL    HW131748   0.874   2.959   0.760
10283SOL    HW231749   0.965   3.029   0.644
10284SOL     OW31750   5.384   3.593   5.116
10284SOL    HW131751   5.314   3.531   5.082
10284SOL    HW231752   5.434   3.633   5.039
10285SOL     OW31753   4.772   0.730   0.824
10285SOL    HW131754   4.790   0.654   0.886
10285SOL    HW231755   4.803   0.815   0.866
10286SOL     OW31756   4.056   0.729   3.202
10286SOL    HW131757   4.043   0.793   3.126
10286SOL    HW231758   4.154   0.715   3.218
10287SOL     OW31759   1.441   6.854   1.381
10287SOL    HW131760   1.504   6.844   1.304
10287SOL    HW231761   1.381   6.774   1.385
10288SOL     OW31762   5.548   5.766   2.947
10288SOL    HW131763   5.642   5.783   2.919
10288SOL    HW231764   5.496   5.851   2.944
10289SOL     OW31765   2.993   1.256   1.689
10289SOL    HW131766   2.966   1.233   1.783
10289SOL    HW231767   2.911   1.261   1.632
10290SOL     OW31768   4.065   3.827   2.512
10290SOL    HW131769   4.078   3.765   2.434
10290SOL    HW231770   4.081   3.778   2.597
10291SOL     OW31771   3.491   0.415   3.910
10291SOL    HW131772   3.521   0.509   3.924
10291SOL    HW231773   3.401   0.402   3.951
10292SOL     OW31774   0.013   2.487   4.868
10292SOL    HW131775   0.050   2.450   4.953
10292SOL    HW231776   0.046   2.580   4.855
10293SOL     OW31777   2.059   5.945   3.106
10293SOL    HW131778   2.038   5.848   3.098
10293SOL    HW231779   1.977   5.995   3.136
10294SOL     OW31780   4.575   1.936   2.309
10294SOL    HW131781   4.476   1.938   2.318
10294SOL    HW231782   4.614   1.872   2.375
10295SOL     OW31783   0.216   4.880   5.431
10295SOL    HW131784   0.153   4.870   5.354
10295SOL    HW231785   0.200   4.806   5.497
10296SOL     OW31786   6.254   4.094   6.216
10296SOL    HW131787   6.266   4.050   6.305
10296SOL    HW231788   6.282   4.030   6.144
10297SOL     OW31789   1.376   6.044   3.739
10297SOL    HW131790   1.466   6.072   3.772
10297SOL    HW231791   1.327   5.997   3.812
10298SOL     OW31792   4.877   3.920   3.936
10298SOL    HW131793   4.972   3.948   3.949
10298SOL    HW231794   4.874   3.823   3.911
10299SOL     OW31795   4.332   4.631   3.450
10299SOL    HW131796   4.321   4.646   3.549
10299SOL    HW231797   4.370   4.540   3.435
10300SOL     OW31798   0.873   3.471   1.695
10300SOL    HW131799   0.862   3.406   1.620
10300SOL    HW231800   0.829   3.434   1.777
10301SOL     OW31801   5.895   1.717   3.292
10301SOL    HW131802   5.959   1.754   3.224
10301SOL    HW231803   5.947   1.671   3.365
10302SOL     OW31804   1.479   6.115   2.754
10302SOL    HW131805   1.398   6.166   2.784
10302SOL    HW231806   1.453   6.054   2.679
10303SOL     OW31807   3.738   3.461   1.248
10303SOL    HW131808   3.693   3.538   1.204
10303SOL    HW231809   3.669   3.397   1.282
10304SOL     OW31810   0.001   6.764   3.512
10304SOL    HW131811   0.061   6.704   3.459
10304SOL    HW231812   0.054   6.838   3.552
10305SOL     OW31813   2.184   5.899   6.980
10305SOL    HW131814   2.104   5.864   6.931
10305SOL    HW231815   2.205   5.839   0.030
10306SOL     OW31816   4.526   5.803   0.644
10306SOL    HW131817   4.460   5.749   0.697
10306SOL    HW231818   4.550   5.754   0.561
10307SOL     OW31819   1.153   1.190   6.525
10307SOL    HW131820   1.094   1.245   6.465
10307SOL    HW231821   1.241   1.175   6.481
10308SOL     OW31822   3.292   5.497   3.977
10308SOL    HW131823   3.362   5.552   4.023
10308SOL    HW231824   3.222   5.557   3.940
10309SOL     OW31825   5.960   6.401   3.202
10309SOL    HW131826   5.921   6.445   3.121
10309SOL    HW231827   6.058   6.418   3.206
10310SOL     OW31828   3.045   3.768   2.719
10310SOL    HW131829   3.041   3.728   2.811
10310SOL    HW231830   2.975   3.726   2.662
10311SOL     OW31831   0.442   5.602   0.590
10311SOL    HW131832   0.464   5.599   0.687
10311SOL    HW231833   0.421   5.696   0.563
10312SOL     OW31834   3.225   4.763   0.881
10312SOL    HW131835   3.222   4.824   0.802
10312SOL    HW231836   3.280   4.805   0.953
10313SOL     OW31837   4.571   0.122   2.599
10313SOL    HW131838   4.473   0.142   2.610
10313SOL    HW231839   4.624   0.201   2.629
10314SOL     OW31840   6.415   0.062   0.564
10314SOL    HW131841   6.358   0.005   0.504
10314SOL    HW231842   6.421   0.019   0.654
10315SOL     OW31843   6.375   5.519   5.010
10315SOL    HW131844   6.403   5.445   4.949
10315SOL    HW231845   6.275   5.522   5.014
10316SOL     OW31846   0.952   3.465   4.955
10316SOL    HW131847   0.903   3.410   4.887
10316SOL    HW231848   0.908   3.455   5.044
10317SOL     OW31849   4.356   4.924   6.137
10317SOL    HW131850   4.293   4.872   6.080
10317SOL    HW231851   4.388   4.866   6.212
10318SOL     OW31852   6.200   5.236   1.400
10318SOL    HW131853   6.179   5.266   1.307
10318SOL    HW231854   6.293   5.197   1.401
10319SOL     OW31855   6.879   5.048   3.282
10319SOL    HW131856   6.874   5.101   3.367
10319SOL    HW231857   6.801   5.070   3.224
10320SOL     OW31858   0.123   6.312   0.837
10320SOL    HW131859   0.146   6.215   0.852
10320SOL    HW231860   0.140   6.336   0.742
10321SOL     OW31861   4.519   5.446   4.622
10321SOL    HW131862   4.550   5.425   4.530
10321SOL    HW231863   4.438   5.391   4.643
10322SOL     OW31864   6.819   4.848   0.868
10322SOL    HW131865   6.845   4.752   0.879
10322SOL    HW231866   6.748   4.872   0.934
10323SOL     OW31867   5.621   3.230   6.168
10323SOL    HW131868   5.566   3.183   6.099
10323SOL    HW231869   5.613   3.183   6.256
10324SOL     OW31870   3.433   4.151   3.713
10324SOL    HW131871   3.379   4.112   3.639
10324SOL    HW231872   3.530   4.141   3.694
10325SOL     OW31873   0.390   3.361   3.052
10325SOL    HW131874   0.328   3.409   3.114
10325SOL    HW231875   0.352   3.270   3.032
10326SOL     OW31876   5.089   2.550   0.208
10326SOL    HW131877   5.000   2.518   0.177
10326SOL    HW231878   5.080   2.592   0.298
10327SOL     OW31879   0.478   0.745   2.955
10327SOL    HW131880   0.477   0.794   2.868
10327SOL    HW231881   0.388   0.706   2.973
10328SOL     OW31882   6.164   3.734   2.593
10328SOL    HW131883   6.146   3.760   2.688
10328SOL    HW231884   6.132   3.641   2.578
10329SOL     OW31885   3.192   0.119   2.652
10329SOL    HW131886   3.234   0.106   2.562
10329SOL    HW231887   3.156   0.032   2.686
10330SOL     OW31888   3.878   5.239   2.364
10330SOL    HW131889   3.844   5.144   2.367
10330SOL    HW231890   3.845   5.283   2.281
10331SOL     OW31891   5.349   0.976   3.842
10331SOL    HW131892   5.273   1.020   3.890
10331SOL    HW231893   5.398   1.043   3.787
10332SOL     OW31894   7.010   1.880   0.169
10332SOL    HW131895   7.022   1.827   0.085
10332SOL    HW231896   0.037   1.838   0.243
10333SOL     OW31897   6.051   5.483   4.370
10333SOL    HW131898   6.021   5.576   4.346
10333SOL    HW231899   6.072   5.479   4.468
10334SOL     OW31900   2.167   4.579   4.291
10334SOL    HW131901   2.123   4.666   4.272
10334SOL    HW231902   2.267   4.592   4.293
10335SOL     OW31903   2.453   5.153   1.155
10335SOL    HW131904   2.450   5.122   1.060
10335SOL    HW231905   2.540   5.199   1.172
10336SOL     OW31906   4.304   0.069   2.085
10336SOL    HW131907   4.255   0.145   2.044
10336SOL    HW231908   4.293   0.072   2.185
10337SOL     OW31909   0.116   5.393   4.933
10337SOL    HW131910   0.157   5.360   5.018
10337SOL    HW231911   0.117   5.321   4.864
10338SOL     OW31912   2.594   6.890   2.502
10338SOL    HW131913   2.626   6.983   2.482
10338SOL    HW231914   2.672   6.828   2.505
10339SOL     OW31915   2.533   6.529   1.468
10339SOL    HW131916   2.541   6.466   1.392
10339SOL    HW231917   2.436   6.548   1.485
10340SOL     OW31918   2.358   5.842   0.218
10340SOL    HW131919   2.412   5.767   0.180
10340SOL    HW231920   2.387   5.928   0.175
10341SOL     OW31921   2.381   1.521   2.200
10341SOL    HW131922   2.314   1.538   2.272
10341SOL    HW231923   2.436   1.604   2.185
10342SOL     OW31924   2.114   0.542   5.740
10342SOL    HW131925   2.189   0.566   5.679
10342SOL    HW231926   2.062   0.625   5.763
10343SOL     OW31927   2.660   3.785   5.955
10343SOL    HW131928   2.612   3.721   6.016
10343SOL    HW231929   2.670   3.874   6.001
10344SOL     OW31930   4.206   3.650   4.933
10344SOL    HW131931   4.304   3.660   4.955
10344SOL    HW231932   4.182   3.717   4.862
10345SOL     OW31933   2.020   1.480   6.904
10345SOL    HW131934   1.928   1.489   6.943
10345SOL    HW231935   2.047   1.566   6.861
10346SOL     OW31936   5.051   0.230   0.012
10346SOL    HW131937   5.045   0.147   0.067
10346SOL    HW231938   5.056   0.309   0.072
10347SOL     OW31939   5.213   1.920   1.626
10347SOL    HW131940   5.139   1.852   1.624
10347SOL    HW231941   5.201   1.984   1.550
10348SOL     OW31942   6.312   0.892   6.235
10348SOL    HW131943   6.365   0.830   6.293
10348SOL    HW231944   6.275   0.966   6.290
10349SOL     OW31945   6.331   1.475   1.336
10349SOL    HW131946   6.410   1.418   1.311
10349SOL    HW231947   6.363   1.566   1.361
10350SOL     OW31948   2.755   5.847   4.166
10350SOL    HW131949   2.799   5.820   4.251
10350SOL    HW231950   2.820   5.843   4.090
10351SOL     OW31951   5.598   5.324   5.396
10351SOL    HW131952   5.609   5.366   5.306
10351SOL    HW231953   5.596   5.395   5.466
10352SOL     OW31954   5.837   1.881   0.078
10352SOL    HW131955   5.891   1.906   7.023
10352SOL    HW231956   5.811   1.785   0.071
10353SOL     OW31957   0.319   2.850   3.147
10353SOL    HW131958   0.395   2.821   3.088
10353SOL    HW231959   0.292   2.774   3.205
10354SOL     OW31960   0.307   3.716   0.337
10354SOL    HW131961   0.300   3.633   0.391
10354SOL    HW231962   0.294   3.694   0.240
10355SOL     OW31963   1.388   0.160   0.600
10355SOL    HW131964   1.455   0.097   0.561
10355SOL    HW231965   1.330   0.197   0.526
10356SOL     OW31966   0.099   4.035   6.817
10356SOL    HW131967   0.048   4.102   6.763
10356SOL    HW231968   0.079   4.047   6.914
10357SOL     OW31969   1.121   3.243   6.174
10357SOL    HW131970   1.034   3.229   6.221
10357SOL    HW231971   1.104   3.274   6.081
10358SOL     OW31972   0.808   2.498   2.853
10358SOL    HW131973   0.770   2.454   2.935
10358SOL    HW231974   0.757   2.469   2.772
10359SOL     OW31975   5.155   2.300   2.455
10359SOL    HW131976   5.101   2.364   2.399
10359SOL    HW231977   5.139   2.207   2.423
10360SOL     OW31978   5.904   4.853   2.666
10360SOL    HW131979   5.907   4.921   2.739
10360SOL    HW231980   5.850   4.889   2.589
10361SOL     OW31981   0.518   1.501   1.472
10361SOL    HW131982   0.609   1.537   1.452
10361SOL    HW231983   0.516   1.463   1.564
10362SOL     OW31984   1.452   4.745   2.863
10362SOL    HW131985   1.435   4.800   2.945
10362SOL    HW231986   1.494   4.803   2.792
10363SOL     OW31987   5.094   3.885   0.616
10363SOL    HW131988   5.141   3.967   0.650
10363SOL    HW231989   5.093   3.815   0.688
10364SOL     OW31990   5.285   4.622   2.181
10364SOL    HW131991   5.372   4.661   2.210
10364SOL    HW231992   5.241   4.683   2.115
10365SOL     OW31993   6.113   5.578   0.447
10365SOL    HW131994   6.180   5.561   0.375
10365SOL    HW231995   6.021   5.564   0.410
10366SOL     OW31996   3.452   6.160   2.753
10366SOL    HW131997   3.416   6.217   2.826
10366SOL    HW231998   3.543   6.126   2.778
10367SOL     OW31999   6.071   2.043   0.742
10367SOL    HW132000   6.051   2.136   0.710
10367SOL    HW232001   6.142   2.003   0.685
10368SOL     OW32002   2.095   0.276   2.275
10368SOL    HW132003   2.110   0.305   2.369
10368SOL    HW232004   2.094   0.176   2.271
10369SOL     OW32005   2.929   6.424   5.371
10369SOL    HW132006   3.016   6.376   5.381
10369SOL    HW232007   2.940   6.519   5.402
10370SOL     OW32008   0.228   1.844   4.584
10370SOL    HW132009   0.254   1.753   4.549
10370SOL    HW232010   0.171   1.890   4.516
10371SOL     OW32011   3.382   5.912   3.283
10371SOL    HW132012   3.285   5.910   3.260
10371SOL    HW232013   3.422   5.821   3.268
10372SOL     OW32014   2.627   0.026   1.628
10372SOL    HW132015   2.563   0.102   1.617
10372SOL    HW232016   2.604   6.979   1.564
10373SOL     OW32017   6.971   1.761   5.716
10373SOL    HW132018   6.936   1.843   5.672
10373SOL    HW232019   6.895   1.712   5.760
10374SOL     OW32020   3.351   6.910   4.516
10374SOL    HW132021   3.269   6.852   4.510
10374SOL    HW232022   3.416   6.869   4.581
10375SOL     OW32023   4.253   2.700   0.005
10375SOL    HW132024   4.340   2.748   0.005
10375SOL    HW232025   4.179   2.765   7.012
10376SOL     OW32026   1.841   5.861   2.675
10376SOL    HW132027   1.813   5.782   2.621
10376SOL    HW232028   1.930   5.843   2.717
10377SOL     OW32029   0.206   1.558   2.202
10377SOL    HW132030   0.220   1.469   2.159
10377SOL    HW232031   0.179   1.545   2.298
10378SOL     OW32032   6.806   4.615   5.459
10378SOL    HW132033   6.874   4.576   5.397
10378SOL    HW232034   6.717   4.573   5.441
10379SOL     OW32035   2.412   6.860   3.999
10379SOL    HW132036   2.502   6.902   4.002
10379SOL    HW232037   2.380   6.844   4.093
10380SOL     OW32038   1.556   2.576   4.827
10380SOL    HW132039   1.501   2.629   4.892
10380SOL    HW232040   1.552   2.619   4.737
10381SOL     OW32041   4.410   4.336   1.522
10381SOL    HW132042   4.388   4.375   1.611
10381SOL    HW232043   4.369   4.245   1.515
10382SOL     OW32044   3.289   4.780   1.828
10382SOL    HW132045   3.377   4.746   1.860
10382SOL    HW232046   3.239   4.820   1.905
10383SOL     OW32047   2.361   4.511   0.124
10383SOL    HW132048   2.357   4.459   0.208
10383SOL    HW232049   2.408   4.458   0.053
10384SOL     OW32050   5.907   6.166   0.814
10384SOL    HW132051   5.925   6.239   0.880
10384SOL    HW232052   5.896   6.205   0.722
10385SOL     OW32053   3.663   4.809   6.084
10385SOL    HW132054   3.659   4.711   6.100
10385SOL    HW232055   3.664   4.857   6.172
10386SOL     OW32056   6.843   0.792   6.327
10386SOL    HW132057   6.825   0.854   6.404
10386SOL    HW232058   6.851   0.698   6.361
10387SOL     OW32059   4.900   3.220   2.847
10387SOL    HW132060   4.950   3.302   2.875
10387SOL    HW232061   4.838   3.243   2.772
10388SOL     OW32062   2.968   0.289   5.705
10388SOL    HW132063   2.920   0.288   5.792
10388SOL    HW232064   3.052   0.235   5.712
10389SOL     OW32065   6.692   3.647   6.950
10389SOL    HW132066   6.719   3.665   0.019
10389SOL    HW232067   6.769   3.606   6.901
10390SOL     OW32068   2.256   2.243   0.852
10390SOL    HW132069   2.302   2.189   0.781
10390SOL    HW232070   2.312   2.322   0.874
10391SOL     OW32071   0.418   6.443   3.226
10391SOL    HW132072   0.419   6.539   3.251
10391SOL    HW232073   0.505   6.418   3.184
10392SOL     OW32074   0.031   5.596   4.768
10392SOL    HW132075   0.057   5.531   4.840
10392SOL    HW232076   0.113   5.623   4.717
10393SOL     OW32077   2.167   3.818   3.812
10393SOL    HW132078   2.233   3.893   3.815
10393SOL    HW232079   2.080   3.848   3.852
10394SOL     OW32080   3.060   6.023   4.350
10394SOL    HW132081   2.988   6.077   4.305
10394SOL    HW232082   3.026   5.929   4.363
10395SOL     OW32083   0.102   6.423   1.093
10395SOL    HW132084   0.070   6.384   1.007
10395SOL    HW232085   0.160   6.357   1.140
10396SOL     OW32086   3.310   2.086   3.928
10396SOL    HW132087   3.239   2.147   3.892
10396SOL    HW232088   3.374   2.062   3.855
10397SOL     OW32089   3.128   2.053   2.539
10397SOL    HW132090   3.219   2.062   2.578
10397SOL    HW232091   3.131   2.073   2.441
10398SOL     OW32092   0.266   3.525   1.352
10398SOL    HW132093   0.359   3.525   1.388
10398SOL    HW232094   0.211   3.458   1.402
10399SOL     OW32095   5.639   2.886   2.939
10399SOL    HW132096   5.707   2.813   2.940
10399SOL    HW232097   5.560   2.860   2.994
10400SOL     OW32098   4.054   6.917   0.019
10400SOL    HW132099   3.955   6.916   0.014
10400SOL    HW232100   4.085   6.848   0.085
10401SOL     OW32101   6.231   0.757   3.546
10401SOL    HW132102   6.274   0.702   3.474
10401SOL    HW232103   6.285   0.749   3.630
10402SOL     OW32104   6.345   3.166   4.928
10402SOL    HW132105   6.414   3.209   4.870
10402SOL    HW232106   6.261   3.221   4.926
10403SOL     OW32107   3.742   0.734   3.878
10403SOL    HW132108   3.829   0.692   3.855
10403SOL    HW232109   3.673   0.709   3.810
10404SOL     OW32110   5.691   0.126   4.904
10404SOL    HW132111   5.711   0.084   4.816
10404SOL    HW232112   5.621   0.197   4.892
10405SOL     OW32113   0.291   1.614   6.089
10405SOL    HW132114   0.286   1.667   6.173
10405SOL    HW232115   0.338   1.668   6.018
10406SOL     OW32116   3.367   4.847   2.412
10406SOL    HW132117   3.396   4.817   2.321
10406SOL    HW232118   3.301   4.783   2.449
10407SOL     OW32119   3.307   6.290   5.910
10407SOL    HW132120   3.380   6.223   5.896
10407SOL    HW232121   3.244   6.288   5.832
10408SOL     OW32122   4.604   1.037   0.571
10408SOL    HW132123   4.505   1.038   0.558
10408SOL    HW232124   4.648   1.081   0.493
10409SOL     OW32125   0.187   4.289   1.175
10409SOL    HW132126   0.220   4.195   1.173
10409SOL    HW232127   0.099   4.294   1.127
10410SOL     OW32128   5.839   0.735   6.977
10410SOL    HW132129   5.861   0.831   6.962
10410SOL    HW232130   5.792   0.699   6.896
10411SOL     OW32131   3.692   6.498   3.061
10411SOL    HW132132   3.604   6.539   3.085
10411SOL    HW232133   3.714   6.518   2.966
10412SOL     OW32134   6.346   0.520   0.539
10412SOL    HW132135   6.377   0.602   0.491
10412SOL    HW232136   6.345   0.538   0.637
10413SOL     OW32137   6.133   2.268   0.978
10413SOL    HW132138   6.165   2.272   1.073
10413SOL    HW232139   6.201   2.220   0.922
10414SOL     OW32140   4.091   4.166   5.250
10414SOL    HW132141   4.107   4.234   5.178
10414SOL    HW232142   3.996   4.172   5.281
10415SOL     OW32143   0.301   4.504   5.313
10415SOL    HW132144   0.362   4.560   5.368
10415SOL    HW232145   0.354   4.434   5.265
10416SOL     OW32146   6.215   1.070   3.357
10416SOL    HW132147   6.224   1.132   3.278
10416SOL    HW232148   6.298   1.075   3.413
10417SOL     OW32149   3.788   5.448   4.367
10417SOL    HW132150   3.749   5.384   4.433
10417SOL    HW232151   3.767   5.542   4.394
10418SOL     OW32152   0.229   4.722   6.479
10418SOL    HW132153   0.179   4.789   6.533
10418SOL    HW232154   0.268   4.766   6.398
10419SOL     OW32155   1.272   0.413   6.555
10419SOL    HW132156   1.339   0.342   6.533
10419SOL    HW232157   1.271   0.482   6.483
10420SOL     OW32158   6.874   3.318   2.575
10420SOL    HW132159   6.803   3.263   2.618
10420SOL    HW232160   6.832   3.384   2.512
10421SOL     OW32161   0.253   1.591   3.568
10421SOL    HW132162   0.286   1.540   3.647
10421SOL    HW232163   0.329   1.616   3.510
10422SOL     OW32164   5.915   2.594   5.677
10422SOL    HW132165   5.966   2.510   5.656
10422SOL    HW232166   5.817   2.578   5.665
10423SOL     OW32167   5.239   4.914   4.650
10423SOL    HW132168   5.309   4.885   4.586
10423SOL    HW232169   5.160   4.853   4.644
10424SOL     OW32170   5.585   3.256   0.075
10424SOL    HW132171   5.673   3.262   0.028
10424SOL    HW232172   5.514   3.296   0.018
10425SOL     OW32173   2.047   6.728   2.062
10425SOL    HW132174   2.132   6.690   2.099
10425SOL    HW232175   2.067   6.816   2.018
10426SOL     OW32176   6.492   4.428   0.677
10426SOL    HW132177   6.393   4.427   0.686
10426SOL    HW232178   6.526   4.334   0.675
10427SOL     OW32179   3.821   1.457   0.054
10427SOL    HW132180   3.751   1.517   0.015
10427SOL    HW232181   3.870   1.506   0.126
10428SOL     OW32182   2.861   1.381   4.236
10428SOL    HW132183   2.799   1.384   4.314
10428SOL    HW232184   2.892   1.473   4.214
10429SOL     OW32185   0.341   5.398   1.206
10429SOL    HW132186   0.291   5.347   1.276
10429SOL    HW232187   0.310   5.493   1.204
10430SOL     OW32188   4.482   6.358   3.810
10430SOL    HW132189   4.385   6.352   3.787
10430SOL    HW232190   4.504   6.451   3.839
10431SOL     OW32191   3.299   6.399   4.799
10431SOL    HW132192   3.341   6.450   4.724
10431SOL    HW232193   3.265   6.312   4.766
10432SOL     OW32194   6.131   0.374   4.286
10432SOL    HW132195   6.187   0.412   4.360
10432SOL    HW232196   6.101   0.282   4.311
10433SOL     OW32197   1.771   6.967   1.468
10433SOL    HW132198   1.732   7.007   1.551
10433SOL    HW232199   1.799   6.873   1.486
10434SOL     OW32200   3.897   6.583   3.246
10434SOL    HW132201   3.972   6.619   3.190
10434SOL    HW232202   3.835   6.530   3.188
10435SOL     OW32203   6.943   0.466   4.771
10435SOL    HW132204   6.900   0.466   4.862
10435SOL    HW232205   7.023   0.527   4.773
10436SOL     OW32206   0.772   5.203   5.598
10436SOL    HW132207   0.732   5.261   5.668
10436SOL    HW232208   0.867   5.183   5.622
10437SOL     OW32209   5.946   4.618   5.284
10437SOL    HW132210   5.877   4.688   5.303
10437SOL    HW232211   6.028   4.637   5.338
10438SOL     OW32212   5.265   6.720   6.698
10438SOL    HW132213   5.204   6.789   6.738
10438SOL    HW232214   5.268   6.640   6.757
10439SOL     OW32215   3.706   1.890   5.936
10439SOL    HW132216   3.640   1.944   5.883
10439SOL    HW232217   3.793   1.887   5.888
10440SOL     OW32218   1.805   6.068   0.148
10440SOL    HW132219   1.762   6.158   0.149
10440SOL    HW232220   1.904   6.077   0.140
10441SOL     OW32221   4.817   1.424   0.195
10441SOL    HW132222   4.894   1.404   0.134
10441SOL    HW232223   4.766   1.502   0.161
10442SOL     OW32224   3.099   5.822   5.489
10442SOL    HW132225   3.131   5.816   5.583
10442SOL    HW232226   3.000   5.806   5.486
10443SOL     OW32227   5.175   3.572   4.854
10443SOL    HW132228   5.236   3.649   4.835
10443SOL    HW232229   5.082   3.606   4.865
10444SOL     OW32230   3.977   6.072   4.800
10444SOL    HW132231   3.877   6.083   4.801
10444SOL    HW232232   4.014   6.112   4.716
10445SOL     OW32233   0.487   5.348   3.936
10445SOL    HW132234   0.395   5.372   3.906
10445SOL    HW232235   0.504   5.389   4.026
10446SOL     OW32236   0.985   3.651   6.071
10446SOL    HW132237   1.015   3.707   5.994
10446SOL    HW232238   0.971   3.709   6.151
10447SOL     OW32239   6.739   1.471   1.812
10447SOL    HW132240   6.837   1.453   1.796
10447SOL    HW232241   6.729   1.535   1.888
10448SOL     OW32242   4.201   2.642   1.502
10448SOL    HW132243   4.106   2.618   1.481
10448SOL    HW232244   4.219   2.736   1.472
10449SOL     OW32245   2.493   5.703   4.727
10449SOL    HW132246   2.435   5.668   4.654
10449SOL    HW232247   2.515   5.629   4.791
10450SOL     OW32248   0.507   2.339   0.589
10450SOL    HW132249   0.575   2.298   0.651
10450SOL    HW232250   0.495   2.435   0.612
10451SOL     OW32251   2.506   5.183   2.388
10451SOL    HW132252   2.564   5.209   2.465
10451SOL    HW232253   2.527   5.089   2.361
10452SOL     OW32254   6.784   3.535   3.802
10452SOL    HW132255   6.685   3.547   3.807
10452SOL    HW232256   6.829   3.624   3.811
10453SOL     OW32257   5.389   6.231   1.541
10453SOL    HW132258   5.461   6.162   1.552
10453SOL    HW232259   5.427   6.310   1.494
10454SOL     OW32260   5.245   2.878   1.636
10454SOL    HW132261   5.216   2.946   1.702
10454SOL    HW232262   5.265   2.923   1.549
10455SOL     OW32263   0.810   4.767   3.308
10455SOL    HW132264   0.880   4.825   3.266
10455SOL    HW232265   0.767   4.816   3.384
10456SOL     OW32266   3.179   6.621   1.479
10456SOL    HW132267   3.210   6.533   1.516
10456SOL    HW232268   3.258   6.681   1.465
10457SOL     OW32269   3.413   3.249   3.034
10457SOL    HW132270   3.379   3.319   2.972
10457SOL    HW232271   3.462   3.292   3.110
10458SOL     OW32272   0.287   0.441   0.220
10458SOL    HW132273   0.353   0.404   0.284
10458SOL    HW232274   0.217   0.492   0.269
10459SOL     OW32275   5.463   5.620   3.164
10459SOL    HW132276   5.505   5.683   3.099
10459SOL    HW232277   5.402   5.557   3.115
10460SOL     OW32278   1.787   5.783   1.366
10460SOL    HW132279   1.797   5.804   1.463
10460SOL    HW232280   1.871   5.740   1.333
10461SOL     OW32281   1.161   6.316   5.692
10461SOL    HW132282   1.064   6.293   5.691
10461SOL    HW232283   1.185   6.354   5.781
10462SOL     OW32284   5.429   1.472   2.445
10462SOL    HW132285   5.454   1.386   2.400
10462SOL    HW232286   5.334   1.466   2.477
10463SOL     OW32287   3.791   3.925   5.784
10463SOL    HW132288   3.859   3.982   5.738
10463SOL    HW232289   3.777   3.841   5.733
10464SOL     OW32290   4.651   0.592   0.476
10464SOL    HW132291   4.737   0.630   0.509
10464SOL    HW232292   4.668   0.505   0.430
10465SOL     OW32293   6.397   0.163   0.196
10465SOL    HW132294   6.360   0.129   0.282
10465SOL    HW232295   6.371   0.101   0.122
10466SOL     OW32296   4.841   5.343   4.884
10466SOL    HW132297   4.866   5.402   4.808
10466SOL    HW232298   4.908   5.269   4.892
10467SOL     OW32299   1.581   1.701   5.500
10467SOL    HW132300   1.602   1.792   5.537
10467SOL    HW232301   1.493   1.670   5.536
10468SOL     OW32302   3.699   6.127   3.639
10468SOL    HW132303   3.771   6.103   3.573
10468SOL    HW232304   3.610   6.120   3.594
10469SOL     OW32305   3.409   3.865   0.966
10469SOL    HW132306   3.329   3.924   0.978
10469SOL    HW232307   3.418   3.841   0.869
10470SOL     OW32308   1.993   1.987   3.167
10470SOL    HW132309   1.996   1.897   3.123
10470SOL    HW232310   1.908   2.033   3.143
10471SOL     OW32311   2.177   3.496   1.090
10471SOL    HW132312   2.109   3.442   1.140
10471SOL    HW232313   2.257   3.510   1.148
10472SOL     OW32314   4.055   6.392   1.745
10472SOL    HW132315   4.147   6.430   1.739
10472SOL    HW232316   4.042   6.326   1.670
10473SOL     OW32317   5.640   7.020   0.532
10473SOL    HW132318   5.694   0.075   0.512
10473SOL    HW232319   5.701   6.942   0.548
10474SOL     OW32320   4.399   0.260   4.502
10474SOL    HW132321   4.397   0.162   4.479
10474SOL    HW232322   4.390   0.314   4.419
10475SOL     OW32323   4.845   6.082   1.178
10475SOL    HW132324   4.773   6.129   1.125
10475SOL    HW232325   4.822   5.985   1.184
10476SOL     OW32326   6.769   5.590   6.622
10476SOL    HW132327   6.720   5.626   6.543
10476SOL    HW232328   6.867   5.587   6.603
10477SOL     OW32329   6.118   3.742   5.085
10477SOL    HW132330   6.106   3.737   4.986
10477SOL    HW232331   6.105   3.836   5.116
10478SOL     OW32332   0.625   6.887   6.507
10478SOL    HW132333   0.528   6.892   6.532
10478SOL    HW232334   0.674   6.964   6.547
10479SOL     OW32335   1.131   1.927   1.730
10479SOL    HW132336   1.095   1.988   1.801
10479SOL    HW232337   1.223   1.957   1.704
10480SOL     OW32338   5.290   0.003   1.209
10480SOL    HW132339   5.238   0.076   1.163
10480SOL    HW232340   5.343   6.978   1.140
10481SOL     OW32341   2.480   1.323   4.745
10481SOL    HW132342   2.486   1.419   4.771
10481SOL    HW232343   2.566   1.277   4.768
10482SOL     OW32344   0.569   6.167   4.201
10482SOL    HW132345   0.546   6.256   4.162
10482SOL    HW232346   0.576   6.175   4.301
10483SOL     OW32347   6.606   5.211   0.449
10483SOL    HW132348   6.663   5.287   0.482
10483SOL    HW232349   6.539   5.245   0.383
10484SOL     OW32350   7.007   0.593   1.371
10484SOL    HW132351   0.045   0.579   1.446
10484SOL    HW232352   0.025   0.648   1.300
10485SOL     OW32353   3.854   3.971   2.874
10485SOL    HW132354   3.867   3.928   2.963
10485SOL    HW232355   3.939   3.965   2.821
10486SOL     OW32356   6.224   0.198   5.700
10486SOL    HW132357   6.298   0.211   5.635
10486SOL    HW232358   6.160   0.274   5.694
10487SOL     OW32359   4.749   1.858   1.705
10487SOL    HW132360   4.831   1.847   1.760
10487SOL    HW232361   4.725   1.772   1.661
10488SOL     OW32362   0.526   2.154   5.694
10488SOL    HW132363   0.622   2.155   5.722
10488SOL    HW232364   0.509   2.230   5.630
10489SOL     OW32365   5.858   5.614   3.749
10489SOL    HW132366   5.842   5.517   3.768
10489SOL    HW232367   5.796   5.669   3.804
10490SOL     OW32368   5.606   0.410   0.674
10490SOL    HW132369   5.540   0.339   0.696
10490SOL    HW232370   5.558   0.488   0.633
10491SOL     OW32371   1.849   2.975   6.084
10491SOL    HW132372   1.788   3.043   6.125
10491SOL    HW232373   1.795   2.903   6.041
10492SOL     OW32374   4.312   6.594   0.638
10492SOL    HW132375   4.300   6.691   0.656
10492SOL    HW232376   4.319   6.544   0.725
10493SOL     OW32377   4.025   5.315   1.057
10493SOL    HW132378   4.105   5.256   1.068
10493SOL    HW232379   4.038   5.399   1.108
10494SOL     OW32380   0.989   4.749   5.969
10494SOL    HW132381   1.024   4.671   5.917
10494SOL    HW232382   0.995   4.831   5.913
10495SOL     OW32383   0.114   6.174   6.681
10495SOL    HW132384   0.048   6.211   6.746
10495SOL    HW232385   0.201   6.223   6.690
10496SOL     OW32386   6.716   3.806   5.604
10496SOL    HW132387   6.781   3.856   5.662
10496SOL    HW232388   6.756   3.719   5.576
10497SOL     OW32389   2.046   6.655   1.726
10497SOL    HW132390   1.948   6.664   1.741
10497SOL    HW232391   2.074   6.716   1.652
10498SOL     OW32392   5.207   5.684   0.884
10498SOL    HW132393   5.233   5.717   0.793
10498SOL    HW232394   5.109   5.696   0.896
10499SOL     OW32395   5.871   5.686   1.393
10499SOL    HW132396   5.779   5.646   1.406
10499SOL    HW232397   5.862   5.778   1.356
10500SOL     OW32398   5.281   3.838   4.822
10500SOL    HW132399   5.209   3.876   4.764
10500SOL    HW232400   5.299   3.900   4.898
10501SOL     OW32401   2.752   5.484   2.635
10501SOL    HW132402   2.820   5.532   2.690
10501SOL    HW232403   2.787   5.471   2.542
10502SOL     OW32404   2.992   3.088   2.212
10502SOL    HW132405   3.074   3.082   2.155
10502SOL    HW232406   2.961   2.996   2.235
10503SOL     OW32407   0.103   4.086   6.359
10503SOL    HW132408   0.120   4.008   6.298
10503SOL    HW232409   0.006   4.111   6.354
10504SOL     OW32410   1.854   3.390   6.269
10504SOL    HW132411   1.765   3.416   6.231
10504SOL    HW232412   1.868   3.437   6.356
10505SOL     OW32413   5.815   5.697   2.353
10505SOL    HW132414   5.794   5.600   2.343
10505SOL    HW232415   5.777   5.748   2.275
10506SOL     OW32416   0.468   3.062   0.004
10506SOL    HW132417   0.411   3.084   6.951
10506SOL    HW232418   0.557   3.027   6.999
10507SOL     OW32419   2.722   4.215   0.114
10507SOL    HW132420   2.659   4.137   0.118
10507SOL    HW232421   2.815   4.181   0.098
10508SOL     OW32422   0.774   6.111   4.973
10508SOL    HW132423   0.865   6.090   5.008
10508SOL    HW232424   0.781   6.178   4.899
10509SOL     OW32425   4.926   3.037   4.271
10509SOL    HW132426   4.911   3.094   4.190
10509SOL    HW232427   4.904   3.089   4.353
10510SOL     OW32428   4.928   6.528   5.497
10510SOL    HW132429   4.979   6.611   5.518
10510SOL    HW232430   4.926   6.514   5.397
10511SOL     OW32431   2.782   1.040   1.872
10511SOL    HW132432   2.861   0.987   1.905
10511SOL    HW232433   2.803   1.138   1.879
10512SOL     OW32434   4.318   0.400   6.094
10512SOL    HW132435   4.279   0.376   6.183
10512SOL    HW232436   4.298   0.496   6.073
10513SOL     OW32437   5.899   3.187   2.459
10513SOL    HW132438   5.987   3.152   2.429
10513SOL    HW232439   5.899   3.197   2.558
10514SOL     OW32440   1.870   2.276   1.696
10514SOL    HW132441   1.885   2.374   1.706
10514SOL    HW232442   1.797   2.261   1.629
10515SOL     OW32443   1.991   2.415   4.312
10515SOL    HW132444   2.009   2.420   4.411
10515SOL    HW232445   2.074   2.386   4.265
10516SOL     OW32446   3.159   1.830   0.317
10516SOL    HW132447   3.087   1.786   0.263
10516SOL    HW232448   3.217   1.884   0.257
10517SOL     OW32449   1.719   3.420   3.223
10517SOL    HW132450   1.695   3.505   3.176
10517SOL    HW232451   1.660   3.346   3.192
10518SOL     OW32452   0.504   5.366   2.108
10518SOL    HW132453   0.568   5.400   2.176
10518SOL    HW232454   0.430   5.316   2.154
10519SOL     OW32455   3.079   5.376   2.012
10519SOL    HW132456   3.131   5.301   1.971
10519SOL    HW232457   3.136   5.458   2.017
10520SOL     OW32458   6.605   1.752   6.414
10520SOL    HW132459   6.627   1.697   6.494
10520SOL    HW232460   6.671   1.733   6.341
10521SOL     OW32461   5.958   3.681   1.480
10521SOL    HW132462   6.013   3.612   1.527
10521SOL    HW232463   5.880   3.707   1.537
10522SOL     OW32464   6.694   2.750   3.042
10522SOL    HW132465   6.647   2.800   3.114
10522SOL    HW232466   6.669   2.653   3.045
10523SOL     OW32467   0.729   4.504   4.403
10523SOL    HW132468   0.687   4.438   4.465
10523SOL    HW232469   0.754   4.586   4.454
10524SOL     OW32470   0.262   5.334   3.391
10524SOL    HW132471   0.212   5.297   3.312
10524SOL    HW232472   0.359   5.335   3.370
10525SOL     OW32473   4.507   0.871   4.969
10525SOL    HW132474   4.596   0.876   5.015
10525SOL    HW232475   4.508   0.796   4.903
10526SOL     OW32476   0.360   5.786   0.919
10526SOL    HW132477   0.380   5.856   0.988
10526SOL    HW232478   0.445   5.740   0.893
10527SOL     OW32479   0.261   1.422   5.497
10527SOL    HW132480   0.202   1.448   5.573
10527SOL    HW232481   0.208   1.422   5.412
10528SOL     OW32482   0.478   4.822   6.957
10528SOL    HW132483   0.541   4.744   6.954
10528SOL    HW232484   0.530   4.907   6.952
10529SOL     OW32485   1.883   6.020   5.937
10529SOL    HW132486   1.926   5.956   6.002
10529SOL    HW232487   1.797   5.981   5.905
10530SOL     OW32488   1.379   6.935   5.744
10530SOL    HW132489   1.371   0.003   5.777
10530SOL    HW232490   1.383   6.934   5.644
10531SOL     OW32491   3.054   2.653   5.433
10531SOL    HW132492   2.984   2.585   5.411
10531SOL    HW232493   3.038   2.690   5.525
10532SOL     OW32494   6.172   6.734   6.118
10532SOL    HW132495   6.232   6.707   6.193
10532SOL    HW232496   6.098   6.668   6.108
10533SOL     OW32497   3.187   5.789   4.235
10533SOL    HW132498   3.227   5.775   4.145
10533SOL    HW232499   3.204   5.882   4.266
10534SOL     OW32500   0.482   5.349   2.863
10534SOL    HW132501   0.468   5.370   2.767
10534SOL    HW232502   0.580   5.351   2.885
10535SOL     OW32503   2.716   1.502   2.265
10535SOL    HW132504   2.793   1.564   2.281
10535SOL    HW232505   2.690   1.458   2.352
10536SOL     OW32506   4.650   0.480   3.585
10536SOL    HW132507   4.659   0.405   3.651
10536SOL    HW232508   4.738   0.527   3.578
10537SOL     OW32509   4.696   6.673   3.489
10537SOL    HW132510   4.777   6.640   3.439
10537SOL    HW232511   4.639   6.728   3.427
10538SOL     OW32512   6.082   3.778   2.874
10538SOL    HW132513   6.176   3.813   2.873
10538SOL    HW232514   6.078   3.693   2.926
10539SOL     OW32515   5.998   5.809   2.529
10539SOL    HW132516   6.058   5.730   2.534
10539SOL    HW232517   5.909   5.780   2.492
10540SOL     OW32518   2.060   4.154   6.019
10540SOL    HW132519   2.149   4.153   6.064
10540SOL    HW232520   2.066   4.203   5.932
10541SOL     OW32521   2.953   3.220   4.739
10541SOL    HW132522   2.897   3.264   4.809
10541SOL    HW232523   2.925   3.252   4.649
10542SOL     OW32524   5.928   0.197   4.556
10542SOL    HW132525   5.986   0.162   4.482
10542SOL    HW232526   5.985   0.234   4.629
10543SOL     OW32527   6.688   2.333   5.751
10543SOL    HW132528   6.730   2.250   5.713
10543SOL    HW232529   6.662   2.317   5.846
10544SOL     OW32530   1.228   0.975   4.416
10544SOL    HW132531   1.304   1.014   4.467
10544SOL    HW232532   1.203   1.036   4.341
10545SOL     OW32533   1.679   2.599   2.935
10545SOL    HW132534   1.635   2.663   2.999
10545SOL    HW232535   1.624   2.593   2.851
10546SOL     OW32536   2.745   6.615   1.188
10546SOL    HW132537   2.743   6.579   1.281
10546SOL    HW232538   2.783   6.707   1.188
10547SOL     OW32539   4.809   6.995   4.728
10547SOL    HW132540   4.777   0.059   4.696
10547SOL    HW232541   4.895   7.006   4.777
10548SOL     OW32542   1.052   4.648   4.711
10548SOL    HW132543   1.145   4.628   4.743
10548SOL    HW232544   0.992   4.661   4.790
10549SOL     OW32545   0.478   1.677   0.575
10549SOL    HW132546   0.445   1.606   0.637
10549SOL    HW232547   0.419   1.680   0.494
10550SOL     OW32548   3.904   6.106   2.883
10550SOL    HW132549   3.977   6.041   2.862
10550SOL    HW232550   3.893   6.171   2.807
10551SOL     OW32551   2.937   1.869   6.002
10551SOL    HW132552   3.011   1.922   5.962
10551SOL    HW232553   2.966   1.774   6.014
10552SOL     OW32554   3.360   0.946   3.945
10552SOL    HW132555   3.418   0.933   4.025
10552SOL    HW232556   3.339   1.043   3.934
10553SOL     OW32557   0.224   5.181   0.564
10553SOL    HW132558   0.207   5.096   0.613
10553SOL    HW232559   0.191   5.173   0.470
10554SOL     OW32560   6.530   4.879   2.898
10554SOL    HW132561   6.585   4.950   2.941
10554SOL    HW232562   6.554   4.790   2.937
10555SOL     OW32563   2.939   1.645   0.615
10555SOL    HW132564   2.952   1.568   0.552
10555SOL    HW232565   2.981   1.727   0.576
10556SOL     OW32566   2.403   1.546   3.024
10556SOL    HW132567   2.374   1.474   3.087
10556SOL    HW232568   2.347   1.542   2.941
10557SOL     OW32569   1.812   3.984   4.502
10557SOL    HW132570   1.851   3.892   4.500
10557SOL    HW232571   1.847   4.033   4.582
10558SOL     OW32572   3.394   4.749   5.223
10558SOL    HW132573   3.444   4.808   5.159
10558SOL    HW232574   3.296   4.759   5.208
10559SOL     OW32575   3.665   0.122   0.523
10559SOL    HW132576   3.593   0.055   0.506
10559SOL    HW232577   3.719   0.094   0.602
10560SOL     OW32578   4.434   6.095   1.774
10560SOL    HW132579   4.495   6.084   1.852
10560SOL    HW232580   4.485   6.126   1.694
10561SOL     OW32581   4.897   4.314   1.763
10561SOL    HW132582   4.964   4.383   1.793
10561SOL    HW232583   4.825   4.359   1.710
10562SOL     OW32584   3.165   6.751   1.229
10562SOL    HW132585   3.255   6.743   1.272
10562SOL    HW232586   3.171   6.813   1.151
10563SOL     OW32587   0.572   6.908   0.926
10563SOL    HW132588   0.663   6.925   0.962
10563SOL    HW232589   0.549   6.811   0.936
10564SOL     OW32590   6.938   5.682   4.252
10564SOL    HW132591   6.907   5.595   4.291
10564SOL    HW232592   6.952   5.748   4.326
10565SOL     OW32593   6.456   0.098   5.544
10565SOL    HW132594   6.412   0.098   5.454
10565SOL    HW232595   6.554   0.077   5.532
10566SOL     OW32596   2.822   2.502   6.585
10566SOL    HW132597   2.730   2.531   6.556
10566SOL    HW232598   2.856   2.432   6.523
10567SOL     OW32599   1.890   2.228   6.148
10567SOL    HW132600   1.959   2.229   6.221
10567SOL    HW232601   1.821   2.298   6.166
10568SOL     OW32602   5.171   2.939   6.702
10568SOL    HW132603   5.084   2.891   6.695
10568SOL    HW232604   5.245   2.877   6.678
10569SOL     OW32605   5.340   0.096   1.610
10569SOL    HW132606   5.271   0.025   1.625
10569SOL    HW232607   5.386   0.080   1.523
10570SOL     OW32608   0.903   5.249   3.870
10570SOL    HW132609   0.940   5.156   3.877
10570SOL    HW232610   0.978   5.314   3.857
10571SOL     OW32611   6.963   4.673   6.232
10571SOL    HW132612   7.002   4.668   6.140
10571SOL    HW232613   0.001   4.722   6.292
10572SOL     OW32614   6.440   4.079   1.697
10572SOL    HW132615   6.540   4.083   1.696
10572SOL    HW232616   6.402   4.162   1.657
10573SOL     OW32617   5.699   0.505   4.310
10573SOL    HW132618   5.618   0.556   4.280
10573SOL    HW232619   5.778   0.530   4.253
10574SOL     OW32620   6.356   0.670   3.792
10574SOL    HW132621   6.328   0.596   3.731
10574SOL    HW232622   6.410   0.633   3.868
10575SOL     OW32623   5.420   0.960   3.046
10575SOL    HW132624   5.335   1.008   3.023
10575SOL    HW232625   5.408   0.910   3.132
10576SOL     OW32626   1.896   4.825   3.071
10576SOL    HW132627   1.864   4.847   2.979
10576SOL    HW232628   1.970   4.758   3.065
10577SOL     OW32629   3.178   6.353   0.499
10577SOL    HW132630   3.114   6.380   0.570
10577SOL    HW232631   3.235   6.277   0.531
10578SOL     OW32632   6.121   2.457   4.068
10578SOL    HW132633   6.117   2.539   4.125
10578SOL    HW232634   6.030   2.438   4.032
10579SOL     OW32635   3.008   3.813   1.300
10579SOL    HW132636   3.108   3.823   1.304
10579SOL    HW232637   2.984   3.738   1.239
10580SOL     OW32638   6.638   6.932   7.009
10580SOL    HW132639   6.730   6.959   0.013
10580SOL    HW232640   6.640   6.838   6.974
10581SOL     OW32641   5.457   6.513   2.915
10581SOL    HW132642   5.477   6.423   2.954
10581SOL    HW232643   5.525   6.535   2.845
10582SOL     OW32644   5.542   4.484   6.586
10582SOL    HW132645   5.562   4.581   6.578
10582SOL    HW232646   5.587   4.434   6.511
10583SOL     OW32647   3.076   6.868   3.507
10583SOL    HW132648   3.014   6.870   3.428
10583SOL    HW232649   3.111   6.775   3.518
10584SOL     OW32650   6.310   0.338   5.463
10584SOL    HW132651   6.268   0.416   5.417
10584SOL    HW232652   6.396   0.315   5.418
10585SOL     OW32653   0.205   1.904   6.580
10585SOL    HW132654   0.193   1.847   6.662
10585SOL    HW232655   0.243   1.992   6.606
10586SOL     OW32656   4.672   4.647   5.840
10586SOL    HW132657   4.744   4.593   5.884
10586SOL    HW232658   4.655   4.729   5.895
10587SOL     OW32659   0.588   5.925   5.420
10587SOL    HW132660   0.572   5.967   5.331
10587SOL    HW232661   0.581   5.825   5.411
10588SOL     OW32662   1.543   3.072   4.017
10588SOL    HW132663   1.584   2.993   3.972
10588SOL    HW232664   1.612   3.145   4.024
10589SOL     OW32665   5.452   6.352   4.994
10589SOL    HW132666   5.450   6.414   4.915
10589SOL    HW232667   5.398   6.271   4.973
10590SOL     OW32668   0.568   5.987   1.402
10590SOL    HW132669   0.530   5.905   1.446
10590SOL    HW232670   0.613   5.961   1.317
10591SOL     OW32671   1.168   1.228   1.509
10591SOL    HW132672   1.111   1.161   1.558
10591SOL    HW232673   1.192   1.191   1.419
10592SOL     OW32674   5.871   2.235   4.614
10592SOL    HW132675   5.871   2.138   4.588
10592SOL    HW232676   5.903   2.244   4.708
10593SOL     OW32677   2.842   6.167   0.485
10593SOL    HW132678   2.938   6.146   0.500
10593SOL    HW232679   2.801   6.200   0.570
10594SOL     OW32680   4.135   0.974   3.480
10594SOL    HW132681   4.083   0.889   3.471
10594SOL    HW232682   4.085   1.038   3.538
10595SOL     OW32683   5.709   0.639   0.802
10595SOL    HW132684   5.806   0.623   0.780
10595SOL    HW232685   5.652   0.587   0.739
10596SOL     OW32686   4.973   1.700   0.325
10596SOL    HW132687   4.892   1.708   0.266
10596SOL    HW232688   4.994   1.603   0.339
10597SOL     OW32689   2.261   0.786   5.961
10597SOL    HW132690   2.239   0.765   5.866
10597SOL    HW232691   2.360   0.780   5.974
10598SOL     OW32692   2.351   1.772   6.008
10598SOL    HW132693   2.418   1.791   6.079
10598SOL    HW232694   2.398   1.740   5.925
10599SOL     OW32695   6.403   4.570   5.931
10599SOL    HW132696   6.413   4.561   6.030
10599SOL    HW232697   6.334   4.640   5.911
10600SOL     OW32698   3.072   0.981   1.691
10600SOL    HW132699   3.110   0.981   1.784
10600SOL    HW232700   3.045   1.074   1.666
10601SOL     OW32701   0.226   6.566   5.860
10601SOL    HW132702   0.239   6.467   5.866
10601SOL    HW232703   0.278   6.611   5.932
10602SOL     OW32704   0.330   0.468   6.989
10602SOL    HW132705   0.311   0.463   0.061
10602SOL    HW232706   0.331   0.376   6.951
10603SOL     OW32707   4.434   6.838   1.623
10603SOL    HW132708   4.512   6.882   1.578
10603SOL    HW232709   4.383   6.785   1.556
10604SOL     OW32710   0.044   6.491   4.785
10604SOL    HW132711   0.077   6.421   4.721
10604SOL    HW232712   0.036   6.578   4.738
10605SOL     OW32713   2.166   0.102   0.409
10605SOL    HW132714   2.189   0.167   0.336
10605SOL    HW232715   2.184   0.009   0.377
10606SOL     OW32716   5.865   0.776   1.584
10606SOL    HW132717   5.931   0.851   1.572
10606SOL    HW232718   5.886   0.726   1.668
10607SOL     OW32719   4.330   3.971   6.633
10607SOL    HW132720   4.384   4.023   6.567
10607SOL    HW232721   4.345   3.873   6.618
10608SOL     OW32722   6.678   3.042   2.965
10608SOL    HW132723   6.684   2.943   2.973
10608SOL    HW232724   6.742   3.085   3.028
10609SOL     OW32725   4.086   6.778   0.492
10609SOL    HW132726   4.164   6.781   0.555
10609SOL    HW232727   4.022   6.707   0.522
10610SOL     OW32728   6.844   1.800   4.406
10610SOL    HW132729   6.885   1.779   4.495
10610SOL    HW232730   6.906   1.773   4.333
10611SOL     OW32731   2.576   5.412   4.602
10611SOL    HW132732   2.581   5.328   4.655
10611SOL    HW232733   2.481   5.432   4.579
10612SOL     OW32734   5.490   1.437   3.822
10612SOL    HW132735   5.490   1.505   3.749
10612SOL    HW232736   5.473   1.482   3.909
10613SOL     OW32737   5.961   6.188   4.297
10613SOL    HW132738   5.888   6.123   4.278
10613SOL    HW232739   5.975   6.247   4.218
10614SOL     OW32740   5.113   0.556   5.590
10614SOL    HW132741   5.169   0.637   5.606
10614SOL    HW232742   5.065   0.531   5.674
10615SOL     OW32743   2.638   1.418   5.928
10615SOL    HW132744   2.641   1.518   5.932
10615SOL    HW232745   2.668   1.387   5.838
10616SOL     OW32746   2.893   6.210   6.274
10616SOL    HW132747   2.849   6.297   6.255
10616SOL    HW232748   2.831   6.135   6.250
10617SOL     OW32749   2.555   3.547   1.710
10617SOL    HW132750   2.526   3.630   1.663
10617SOL    HW232751   2.478   3.508   1.760
10618SOL     OW32752   0.273   5.578   5.808
10618SOL    HW132753   0.263   5.545   5.902
10618SOL    HW232754   0.205   5.534   5.750
10619SOL     OW32755   0.295   2.221   2.952
10619SOL    HW132756   0.340   2.252   3.036
10619SOL    HW232757   0.258   2.130   2.966
10620SOL     OW32758   2.070   0.364   5.269
10620SOL    HW132759   2.140   0.307   5.226
10620SOL    HW232760   1.999   0.305   5.307
10621SOL     OW32761   0.978   3.955   2.808
10621SOL    HW132762   0.912   3.993   2.873
10621SOL    HW232763   1.070   3.982   2.836
10622SOL     OW32764   4.025   2.884   1.018
10622SOL    HW132765   3.935   2.925   1.000
10622SOL    HW232766   4.083   2.897   0.937
10623SOL     OW32767   5.625   6.111   5.622
10623SOL    HW132768   5.662   6.081   5.534
10623SOL    HW232769   5.677   6.191   5.653
10624SOL     OW32770   0.919   3.110   4.990
10624SOL    HW132771   0.890   3.152   4.904
10624SOL    HW232772   0.950   3.017   4.973
10625SOL     OW32773   0.157   3.305   6.748
10625SOL    HW132774   0.150   3.404   6.756
10625SOL    HW232775   0.181   3.280   6.654
10626SOL     OW32776   3.987   2.994   1.733
10626SOL    HW132777   3.978   3.093   1.744
10626SOL    HW232778   3.990   2.951   1.823
10627SOL     OW32779   6.165   0.498   6.230
10627SOL    HW132780   6.142   0.579   6.178
10627SOL    HW232781   6.087   0.470   6.285
10628SOL     OW32782   3.965   0.592   0.295
10628SOL    HW132783   3.880   0.549   0.264
10628SOL    HW232784   4.030   0.521   0.322
10629SOL     OW32785   3.297   4.995   5.339
10629SOL    HW132786   3.341   4.906   5.325
10629SOL    HW232787   3.332   5.060   5.271
10630SOL     OW32788   4.918   0.567   2.405
10630SOL    HW132789   4.831   0.518   2.406
10630SOL    HW232790   4.965   0.550   2.318
10631SOL     OW32791   4.476   5.022   6.453
10631SOL    HW132792   4.510   4.934   6.484
10631SOL    HW232793   4.378   5.015   6.431
10632SOL     OW32794   4.961   5.638   3.568
10632SOL    HW132795   4.951   5.703   3.644
10632SOL    HW232796   5.029   5.673   3.503
10633SOL     OW32797   2.127   2.748   1.650
10633SOL    HW132798   2.209   2.790   1.690
10633SOL    HW232799   2.048   2.767   1.708
10634SOL     OW32800   1.306   5.294   0.029
10634SOL    HW132801   1.386   5.327   7.005
10634SOL    HW232802   1.331   5.274   0.123
10635SOL     OW32803   2.022   3.487   0.458
10635SOL    HW132804   2.036   3.467   0.361
10635SOL    HW232805   1.946   3.432   0.492
10636SOL     OW32806   6.312   2.006   0.580
10636SOL    HW132807   6.353   1.935   0.638
10636SOL    HW232808   6.350   2.095   0.604
10637SOL     OW32809   2.666   5.782   6.586
10637SOL    HW132810   2.617   5.746   6.665
10637SOL    HW232811   2.612   5.853   6.543
10638SOL     OW32812   6.799   6.100   2.469
10638SOL    HW132813   6.795   6.197   2.445
10638SOL    HW232814   6.714   6.056   2.440
10639SOL     OW32815   2.167   3.660   1.776
10639SOL    HW132816   2.243   3.708   1.731
10639SOL    HW232817   2.205   3.595   1.842
10640SOL     OW32818   4.501   0.799   3.333
10640SOL    HW132819   4.509   0.851   3.248
10640SOL    HW232820   4.582   0.816   3.390
10641SOL     OW32821   1.387   1.658   3.439
10641SOL    HW132822   1.430   1.575   3.401
10641SOL    HW232823   1.412   1.667   3.535
10642SOL     OW32824   6.159   2.306   0.431
10642SOL    HW132825   6.239   2.300   0.490
10642SOL    HW232826   6.077   2.322   0.486
10643SOL     OW32827   2.183   5.934   5.029
10643SOL    HW132828   2.225   5.869   5.092
10643SOL    HW232829   2.143   6.010   5.082
10644SOL     OW32830   5.977   3.218   1.877
10644SOL    HW132831   5.893   3.257   1.840
10644SOL    HW232832   5.954   3.152   1.948
10645SOL     OW32833   2.186   2.908   3.624
10645SOL    HW132834   2.261   2.902   3.559
10645SOL    HW232835   2.222   2.927   3.715
10646SOL     OW32836   5.722   1.208   5.455
10646SOL    HW132837   5.721   1.152   5.538
10646SOL    HW232838   5.631   1.248   5.441
10647SOL     OW32839   4.222   5.227   5.440
10647SOL    HW132840   4.180   5.194   5.355
10647SOL    HW232841   4.202   5.164   5.514
10648SOL     OW32842   5.974   5.733   5.939
10648SOL    HW132843   5.983   5.647   5.889
10648SOL    HW232844   6.010   5.722   6.031
10649SOL     OW32845   0.807   3.101   3.655
10649SOL    HW132846   0.791   3.008   3.687
10649SOL    HW232847   0.830   3.099   3.557
10650SOL     OW32848   6.754   0.542   4.252
10650SOL    HW132849   6.658   0.571   4.246
10650SOL    HW232850   6.795   0.544   4.161
10651SOL     OW32851   5.389   6.302   6.142
10651SOL    HW132852   5.375   6.321   6.045
10651SOL    HW232853   5.443   6.218   6.151
10652SOL     OW32854   2.039   6.660   6.095
10652SOL    HW132855   2.082   6.699   6.177
10652SOL    HW232856   1.948   6.699   6.084
10653SOL     OW32857   3.719   6.144   4.788
10653SOL    HW132858   3.660   6.171   4.864
10653SOL    HW232859   3.665   6.094   4.720
10654SOL     OW32860   4.692   1.891   3.991
10654SOL    HW132861   4.626   1.952   4.035
10654SOL    HW232862   4.643   1.825   3.934
10655SOL     OW32863   2.085   4.796   1.494
10655SOL    HW132864   2.180   4.765   1.502
10655SOL    HW232865   2.034   4.769   1.576
10656SOL     OW32866   6.229   1.572   2.633
10656SOL    HW132867   6.191   1.632   2.704
10656SOL    HW232868   6.198   1.478   2.649
10657SOL     OW32869   6.046   1.467   4.333
10657SOL    HW132870   6.141   1.484   4.305
10657SOL    HW232871   6.037   1.373   4.365
10658SOL     OW32872   5.391   4.017   5.304
10658SOL    HW132873   5.390   4.100   5.360
10658SOL    HW232874   5.470   4.018   5.243
10659SOL     OW32875   1.328   4.590   1.027
10659SOL    HW132876   1.329   4.525   0.951
10659SOL    HW232877   1.394   4.663   1.009
10660SOL     OW32878   6.055   3.888   5.367
10660SOL    HW132879   6.005   3.804   5.348
10660SOL    HW232880   5.991   3.963   5.380
10661SOL     OW32881   1.211   4.834   0.795
10661SOL    HW132882   1.196   4.757   0.732
10661SOL    HW232883   1.308   4.841   0.816
10662SOL     OW32884   3.772   1.161   2.395
10662SOL    HW132885   3.674   1.176   2.409
10662SOL    HW232886   3.786   1.105   2.313
10663SOL     OW32887   0.517   1.618   3.484
10663SOL    HW132888   0.572   1.690   3.441
10663SOL    HW232889   0.571   1.574   3.556
10664SOL     OW32890   0.627   5.548   4.726
10664SOL    HW132891   0.718   5.512   4.750
10664SOL    HW232892   0.563   5.472   4.718
10665SOL     OW32893   2.322   2.603   6.619
10665SOL    HW132894   2.311   2.693   6.577
10665SOL    HW232895   2.418   2.577   6.619
10666SOL     OW32896   3.365   3.516   2.089
10666SOL    HW132897   3.404   3.454   2.157
10666SOL    HW232898   3.266   3.503   2.085
10667SOL     OW32899   4.858   1.433   3.508
10667SOL    HW132900   4.852   1.338   3.539
10667SOL    HW232901   4.875   1.493   3.587
10668SOL     OW32902   3.060   1.845   5.423
10668SOL    HW132903   3.069   1.923   5.362
10668SOL    HW232904   3.137   1.783   5.409
10669SOL     OW32905   5.765   0.263   0.897
10669SOL    HW132906   5.674   0.225   0.916
10669SOL    HW232907   5.758   0.331   0.823
10670SOL     OW32908   5.618   4.488   4.643
10670SOL    HW132909   5.715   4.513   4.642
10670SOL    HW232910   5.572   4.535   4.718
10671SOL     OW32911   1.096   1.272   4.518
10671SOL    HW132912   1.100   1.189   4.461
10671SOL    HW232913   1.179   1.277   4.574
10672SOL     OW32914   6.200   3.945   1.732
10672SOL    HW132915   6.287   3.989   1.711
10672SOL    HW232916   6.135   4.015   1.763
10673SOL     OW32917   1.653   6.724   0.366
10673SOL    HW132918   1.643   6.699   0.270
10673SOL    HW232919   1.744   6.764   0.381
10674SOL     OW32920   4.160   3.700   4.403
10674SOL    HW132921   4.173   3.602   4.415
10674SOL    HW232922   4.120   3.719   4.314
10675SOL     OW32923   3.234   0.654   6.159
10675SOL    HW132924   3.178   0.735   6.173
10675SOL    HW232925   3.323   0.681   6.121
10676SOL     OW32926   6.683   5.949   4.843
10676SOL    HW132927   6.597   5.938   4.892
10676SOL    HW232928   6.705   5.865   4.794
10677SOL     OW32929   1.242   1.090   1.287
10677SOL    HW132930   1.167   1.100   1.221
10677SOL    HW232931   1.271   0.995   1.291
10678SOL     OW32932   4.039   4.786   3.765
10678SOL    HW132933   4.075   4.858   3.706
10678SOL    HW232934   3.953   4.752   3.728
10679SOL     OW32935   3.998   5.788   6.727
10679SOL    HW132936   4.037   5.880   6.730
10679SOL    HW232937   3.994   5.750   6.819
10680SOL     OW32938   3.537   1.794   3.844
10680SOL    HW132939   3.512   1.790   3.748
10680SOL    HW232940   3.580   1.882   3.864
10681SOL     OW32941   0.098   3.403   0.032
10681SOL    HW132942   0.132   3.360   6.975
10681SOL    HW232943   0.163   3.473   0.062
10682SOL     OW32944   0.162   3.030   5.327
10682SOL    HW132945   0.210   3.024   5.240
10682SOL    HW232946   0.182   2.949   5.382
10683SOL     OW32947   4.365   0.830   3.585
10683SOL    HW132948   4.267   0.838   3.566
10683SOL    HW232949   4.412   0.796   3.503
10684SOL     OW32950   4.421   5.731   1.908
10684SOL    HW132951   4.475   5.762   1.986
10684SOL    HW232952   4.397   5.634   1.921
10685SOL     OW32953   0.259   5.914   0.621
10685SOL    HW132954   0.232   6.000   0.577
10685SOL    HW232955   0.204   5.840   0.584
10686SOL     OW32956   1.999   4.446   6.389
10686SOL    HW132957   1.947   4.513   6.441
10686SOL    HW232958   2.088   4.485   6.363
10687SOL     OW32959   6.685   4.440   4.186
10687SOL    HW132960   6.620   4.365   4.201
10687SOL    HW232961   6.767   4.404   4.142
10688SOL     OW32962   5.426   2.440   2.856
10688SOL    HW132963   5.341   2.451   2.804
10688SOL    HW232964   5.412   2.469   2.950
10689SOL     OW32965   0.040   6.904   1.923
10689SOL    HW132966   6.971   6.884   1.899
10689SOL    HW232967   0.054   6.888   2.021
10690SOL     OW32968   0.434   4.994   3.131
10690SOL    HW132969   0.465   4.974   3.224
10690SOL    HW232970   0.446   5.091   3.112
10691SOL     OW32971   2.027   1.621   1.584
10691SOL    HW132972   1.985   1.564   1.654
10691SOL    HW232973   2.055   1.709   1.624
10692SOL     OW32974   2.554   0.595   4.051
10692SOL    HW132975   2.565   0.508   4.004
10692SOL    HW232976   2.460   0.605   4.082
10693SOL     OW32977   0.999   5.831   1.118
10693SOL    HW132978   0.968   5.736   1.116
10693SOL    HW232979   1.005   5.866   1.025
10694SOL     OW32980   5.390   6.513   6.328
10694SOL    HW132981   5.487   6.525   6.351
10694SOL    HW232982   5.382   6.451   6.250
10695SOL     OW32983   1.117   2.232   1.619
10695SOL    HW132984   1.069   2.145   1.616
10695SOL    HW232985   1.208   2.222   1.580
10696SOL     OW32986   6.768   3.506   4.822
10696SOL    HW132987   6.845   3.519   4.885
10696SOL    HW232988   6.754   3.591   4.771
10697SOL     OW32989   6.969   0.134   5.758
10697SOL    HW132990   6.916   0.151   5.841
10697SOL    HW232991   6.928   0.185   5.682
10698SOL     OW32992   4.803   4.290   6.701
10698SOL    HW132993   4.900   4.284   6.677
10698SOL    HW232994   4.788   4.371   6.757
10699SOL     OW32995   4.063   5.131   1.453
10699SOL    HW132996   4.104   5.072   1.523
10699SOL    HW232997   4.052   5.080   1.368
10700SOL     OW32998   5.600   6.480   0.782
10700SOL    HW132999   5.607   6.433   0.694
10700SOL    HW233000   5.690   6.478   0.827
10701SOL     OW33001   2.940   6.937   5.944
10701SOL    HW133002   2.905   6.846   5.922
10701SOL    HW233003   2.889   6.975   6.021
10702SOL     OW33004   5.292   3.297   2.423
10702SOL    HW133005   5.348   3.264   2.347
10702SOL    HW233006   5.284   3.397   2.417
10703SOL     OW33007   2.512   2.674   5.585
10703SOL    HW133008   2.489   2.735   5.660
10703SOL    HW233009   2.523   2.581   5.620
10704SOL     OW33010   0.033   4.884   2.171
10704SOL    HW133011   0.004   4.935   2.090
10704SOL    HW233012   0.117   4.834   2.151
10705SOL     OW33013   6.204   5.113   2.006
10705SOL    HW133014   6.177   5.110   2.102
10705SOL    HW233015   6.237   5.023   1.978
10706SOL     OW33016   3.620   0.248   2.290
10706SOL    HW133017   3.637   0.156   2.323
10706SOL    HW233018   3.647   0.255   2.194
10707SOL     OW33019   0.614   6.854   3.528
10707SOL    HW133020   0.640   6.917   3.455
10707SOL    HW233021   0.621   6.902   3.616
10708SOL     OW33022   3.673   1.652   1.540
10708SOL    HW133023   3.711   1.566   1.508
10708SOL    HW233024   3.658   1.648   1.639
10709SOL     OW33025   5.273   5.062   4.893
10709SOL    HW133026   5.357   5.116   4.896
10709SOL    HW233027   5.261   5.027   4.800
10710SOL     OW33028   6.019   0.953   3.776
10710SOL    HW133029   5.923   0.968   3.798
10710SOL    HW233030   6.039   0.992   3.685
10711SOL     OW33031   1.949   6.526   3.875
10711SOL    HW133032   2.048   6.515   3.869
10711SOL    HW233033   1.920   6.602   3.817
10712SOL     OW33034   3.122   0.878   2.178
10712SOL    HW133035   3.171   0.815   2.238
10712SOL    HW233036   3.112   0.966   2.223
10713SOL     OW33037   0.599   3.252   0.868
10713SOL    HW133038   0.542   3.317   0.918
10713SOL    HW233039   0.575   3.252   0.771
10714SOL     OW33040   4.729   3.424   5.910
10714SOL    HW133041   4.759   3.329   5.921
10714SOL    HW233042   4.781   3.483   5.972
10715SOL     OW33043   4.636   0.503   2.389
10715SOL    HW133044   4.577   0.478   2.466
10715SOL    HW233045   4.604   0.589   2.349
10716SOL     OW33046   5.893   2.703   3.582
10716SOL    HW133047   5.970   2.661   3.536
10716SOL    HW233048   5.901   2.803   3.577
10717SOL     OW33049   1.934   2.561   1.252
10717SOL    HW133050   1.883   2.495   1.197
10717SOL    HW233051   1.990   2.618   1.192
10718SOL     OW33052   0.947   3.824   0.292
10718SOL    HW133053   0.940   3.893   0.220
10718SOL    HW233054   1.013   3.754   0.264
10719SOL     OW33055   7.023   5.491   2.583
10719SOL    HW133056   0.024   5.419   2.647
10719SOL    HW233057   0.021   5.580   2.620
10720SOL     OW33058   6.779   4.799   5.202
10720SOL    HW133059   6.691   4.845   5.209
10720SOL    HW233060   6.769   4.703   5.227
10721SOL     OW33061   4.993   3.245   5.443
10721SOL    HW133062   5.082   3.210   5.471
10721SOL    HW233063   4.921   3.207   5.501
10722SOL     OW33064   1.410   4.894   0.296
10722SOL    HW133065   1.360   4.842   0.227
10722SOL    HW233066   1.471   4.959   0.250
10723SOL     OW33067   0.005   2.577   6.696
10723SOL    HW133068   0.018   2.580   6.796
10723SOL    HW233069   0.051   2.656   6.654
10724SOL     OW33070   6.244   0.442   6.613
10724SOL    HW133071   6.246   0.408   6.707
10724SOL    HW233072   6.199   0.374   6.554
10725SOL     OW33073   1.889   5.875   5.195
10725SOL    HW133074   1.967   5.933   5.215
10725SOL    HW233075   1.827   5.921   5.131
10726SOL     OW33076   5.555   0.713   4.209
10726SOL    HW133077   5.463   0.706   4.172
10726SOL    HW233078   5.614   0.760   4.143
10727SOL     OW33079   0.343   5.850   5.830
10727SOL    HW133080   0.367   5.754   5.822
10727SOL    HW233081   0.340   5.876   5.927
10728SOL     OW33082   1.459   5.341   6.740
10728SOL    HW133083   1.420   5.415   6.684
10728SOL    HW233084   1.415   5.255   6.716
10729SOL     OW33085   4.778   1.322   2.438
10729SOL    HW133086   4.746   1.315   2.532
10729SOL    HW233087   4.772   1.232   2.394
10730SOL     OW33088   1.287   0.825   1.341
10730SOL    HW133089   1.223   0.752   1.313
10730SOL    HW233090   1.259   0.861   1.429
10731SOL     OW33091   3.422   1.061   0.906
10731SOL    HW133092   3.346   1.125   0.923
10731SOL    HW233093   3.426   1.038   0.809
10732SOL     OW33094   6.467   4.885   4.748
10732SOL    HW133095   6.547   4.833   4.718
10732SOL    HW233096   6.467   4.891   4.848
10733SOL     OW33097   6.885   1.455   7.007
10733SOL    HW133098   6.885   1.358   0.005
10733SOL    HW233099   6.795   1.480   6.970
10734SOL     OW33100   0.979   0.968   0.181
10734SOL    HW133101   1.019   0.981   0.272
10734SOL    HW233102   0.959   0.871   0.167
10735SOL     OW33103   0.058   2.832   2.494
10735SOL    HW133104   0.110   2.804   2.575
10735SOL    HW233105   7.005   2.887   2.522
10736SOL     OW33106   1.109   0.386   3.458
10736SOL    HW133107   1.101   0.367   3.556
10736SOL    HW233108   1.018   0.399   3.419
10737SOL     OW33109   1.337   1.991   0.265
10737SOL    HW133110   1.324   1.910   0.322
10737SOL    HW233111   1.272   1.990   0.189
10738SOL     OW33112   2.279   0.594   2.633
10738SOL    HW133113   2.270   0.693   2.633
10738SOL    HW233114   2.307   0.562   2.543
10739SOL     OW33115   1.694   1.273   1.071
10739SOL    HW133116   1.614   1.251   1.128
10739SOL    HW233117   1.678   1.358   1.022
10740SOL     OW33118   6.973   4.973   4.825
10740SOL    HW133119   6.936   4.888   4.864
10740SOL    HW233120   0.006   4.951   4.747
10741SOL     OW33121   4.473   0.853   0.953
10741SOL    HW133122   4.532   0.793   1.007
10741SOL    HW233123   4.528   0.927   0.914
10742SOL     OW33124   5.507   6.645   1.368
10742SOL    HW133125   5.543   6.700   1.443
10742SOL    HW233126   5.413   6.674   1.347
10743SOL     OW33127   1.293   1.724   5.544
10743SOL    HW133128   1.241   1.774   5.614
10743SOL    HW233129   1.272   1.626   5.551
10744SOL     OW33130   3.490   1.542   0.976
10744SOL    HW133131   3.483   1.471   0.907
10744SOL    HW233132   3.441   1.514   1.058
10745SOL     OW33133   0.317   5.728   6.425
10745SOL    HW133134   0.289   5.775   6.509
10745SOL    HW233135   0.352   5.638   6.448
10746SOL     OW33136   2.761   4.929   1.364
10746SOL    HW133137   2.736   4.872   1.442
10746SOL    HW233138   2.703   4.906   1.286
10747SOL     OW33139   4.310   1.261   4.745
10747SOL    HW133140   4.210   1.267   4.735
10747SOL    HW233141   4.334   1.263   4.842
10748SOL     OW33142   5.520   1.236   0.921
10748SOL    HW133143   5.519   1.257   0.823
10748SOL    HW233144   5.427   1.217   0.952
10749SOL     OW33145   0.156   5.675   3.771
10749SOL    HW133146   0.143   5.605   3.700
10749SOL    HW233147   0.080   5.672   3.836
10750SOL     OW33148   4.417   6.226   4.327
10750SOL    HW133149   4.495   6.197   4.272
10750SOL    HW233150   4.332   6.207   4.278
10751SOL     OW33151   1.889   4.782   4.640
10751SOL    HW133152   1.818   4.729   4.594
10751SOL    HW233153   1.859   4.877   4.649
10752SOL     OW33154   6.255   4.181   5.591
10752SOL    HW133155   6.241   4.189   5.690
10752SOL    HW233156   6.204   4.253   5.544
10753SOL     OW33157   4.957   4.556   4.580
10753SOL    HW133158   4.973   4.631   4.645
10753SOL    HW233159   5.016   4.569   4.500
10754SOL     OW33160   0.540   0.413   2.888
10754SOL    HW133161   0.628   0.455   2.866
10754SOL    HW233162   0.467   0.462   2.840
10755SOL     OW33163   0.071   0.846   0.461
10755SOL    HW133164   7.026   0.871   0.527
10755SOL    HW233165   0.114   0.928   0.424
10756SOL     OW33166   6.584   4.943   6.776
10756SOL    HW133167   6.522   4.888   6.833
10756SOL    HW233168   6.581   4.911   6.682
10757SOL     OW33169   1.599   2.828   0.402
10757SOL    HW133170   1.627   2.836   0.497
10757SOL    HW233171   1.574   2.733   0.382
10758SOL     OW33172   0.888   6.281   4.277
10758SOL    HW133173   0.921   6.218   4.348
10758SOL    HW233174   0.803   6.323   4.307
10759SOL     OW33175   1.960   3.027   1.559
10759SOL    HW133176   1.927   2.951   1.504
10759SOL    HW233177   2.060   3.027   1.560
10760SOL     OW33178   5.504   6.957   2.622
10760SOL    HW133179   5.477   6.994   2.533
10760SOL    HW233180   5.431   6.973   2.689
10761SOL     OW33181   0.942   6.165   6.144
10761SOL    HW133182   0.980   6.250   6.109
10761SOL    HW233183   1.001   6.089   6.120
10762SOL     OW33184   3.193   2.121   4.213
10762SOL    HW133185   3.236   2.038   4.179
10762SOL    HW233186   3.251   2.163   4.282
10763SOL     OW33187   4.965   0.052   3.160
10763SOL    HW133188   4.979   7.017   3.239
10763SOL    HW233189   4.868   0.072   3.151
10764SOL     OW33190   5.024   2.372   6.098
10764SOL    HW133191   5.075   2.310   6.039
10764SOL    HW233192   4.945   2.324   6.136
10765SOL     OW33193   5.264   2.756   0.927
10765SOL    HW133194   5.238   2.717   1.016
10765SOL    HW233195   5.356   2.795   0.934
10766SOL     OW33196   4.642   4.863   0.579
10766SOL    HW133197   4.544   4.856   0.563
10766SOL    HW233198   4.692   4.827   0.500
10767SOL     OW33199   1.803   0.226   0.820
10767SOL    HW133200   1.709   0.247   0.795
10767SOL    HW233201   1.846   0.171   0.748
10768SOL     OW33202   4.859   5.197   1.608
10768SOL    HW133203   4.765   5.182   1.578
10768SOL    HW233204   4.883   5.129   1.678
10769SOL     OW33205   2.266   4.215   5.257
10769SOL    HW133206   2.313   4.135   5.219
10769SOL    HW233207   2.245   4.198   5.354
10770SOL     OW33208   5.496   6.515   4.792
10770SOL    HW133209   5.578   6.471   4.757
10770SOL    HW233210   5.415   6.474   4.749
10771SOL     OW33211   5.329   0.320   3.132
10771SOL    HW133212   5.328   0.221   3.124
10771SOL    HW233213   5.328   0.347   3.228
10772SOL     OW33214   5.813   0.396   3.763
10772SOL    HW133215   5.867   0.473   3.798
10772SOL    HW233216   5.804   0.404   3.664
10773SOL     OW33217   5.989   5.095   5.900
10773SOL    HW133218   5.924   5.063   5.969
10773SOL    HW233219   6.067   5.139   5.946
10774SOL     OW33220   2.591   1.695   5.859
10774SOL    HW133221   2.660   1.767   5.856
10774SOL    HW233222   2.562   1.672   5.766
10775SOL     OW33223   0.456   4.658   2.310
10775SOL    HW133224   0.472   4.565   2.342
10775SOL    HW233225   0.460   4.720   2.388
10776SOL     OW33226   0.562   0.927   6.446
10776SOL    HW133227   0.629   0.962   6.513
10776SOL    HW233228   0.537   0.999   6.383
10777SOL     OW33229   4.137   5.753   2.081
10777SOL    HW133230   4.194   5.681   2.043
10777SOL    HW233231   4.044   5.718   2.096
10778SOL     OW33232   5.098   6.685   3.889
10778SOL    HW133233   5.058   6.603   3.847
10778SOL    HW233234   5.107   6.671   3.987
10779SOL     OW33235   6.656   2.832   3.299
10779SOL    HW133236   6.670   2.915   3.352
10779SOL    HW233237   6.719   2.761   3.332
10780SOL     OW33238   1.894   0.804   3.933
10780SOL    HW133239   1.993   0.820   3.928
10780SOL    HW233240   1.847   0.869   3.875
10781SOL     OW33241   4.489   0.903   4.232
10781SOL    HW133242   4.432   0.975   4.194
10781SOL    HW233243   4.475   0.898   4.331
10782SOL     OW33244   6.987   1.060   2.808
10782SOL    HW133245   0.014   1.026   2.730
10782SOL    HW233246   6.954   0.982   2.862
10783SOL     OW33247   0.615   2.354   2.696
10783SOL    HW133248   0.625   2.398   2.607
10783SOL    HW233249   0.534   2.295   2.695
10784SOL     OW33250   4.112   6.824   3.955
10784SOL    HW133251   4.116   6.724   3.955
10784SOL    HW233252   4.087   6.857   4.046
10785SOL     OW33253   0.340   4.486   0.552
10785SOL    HW133254   0.382   4.572   0.522
10785SOL    HW233255   0.333   4.484   0.651
10786SOL     OW33256   6.407   4.568   3.744
10786SOL    HW133257   6.372   4.575   3.651
10786SOL    HW233258   6.405   4.473   3.774
10787SOL     OW33259   1.439   1.374   5.916
10787SOL    HW133260   1.406   1.463   5.945
10787SOL    HW233261   1.508   1.341   5.981
10788SOL     OW33262   1.793   4.416   6.854
10788SOL    HW133263   1.871   4.355   6.868
10788SOL    HW233264   1.823   4.499   6.807
10789SOL     OW33265   6.307   2.958   6.414
10789SOL    HW133266   6.293   2.895   6.490
10789SOL    HW233267   6.237   2.943   6.344
10790SOL     OW33268   0.621   0.255   2.061
10790SOL    HW133269   0.651   0.225   1.970
10790SOL    HW233270   0.523   0.239   2.072
10791SOL     OW33271   0.048   6.433   1.914
10791SOL    HW133272   6.974   6.427   1.912
10791SOL    HW233273   0.085   6.347   1.949
10792SOL     OW33274   3.356   2.848   5.090
10792SOL    HW133275   3.389   2.829   5.183
10792SOL    HW233276   3.396   2.782   5.027
10793SOL     OW33277   5.775   3.057   5.670
10793SOL    HW133278   5.845   3.011   5.725
10793SOL    HW233279   5.709   2.989   5.636
10794SOL     OW33280   4.124   3.423   4.456
10794SOL    HW133281   4.117   3.415   4.555
10794SOL    HW233282   4.146   3.334   4.417
10795SOL     OW33283   0.286   5.110   2.648
10795SOL    HW133284   0.342   5.158   2.580
10795SOL    HW233285   0.228   5.043   2.601
10796SOL     OW33286   6.783   6.575   5.761
10796SOL    HW133287   6.850   6.549   5.692
10796SOL    HW233288   6.692   6.545   5.732
10797SOL     OW33289   2.871   2.395   1.031
10797SOL    HW133290   2.928   2.342   1.094
10797SOL    HW233291   2.902   2.490   1.031
10798SOL     OW33292   2.980   0.815   0.158
10798SOL    HW133293   3.025   0.830   0.246
10798SOL    HW233294   2.881   0.822   0.169
10799SOL     OW33295   4.268   1.554   2.190
10799SOL    HW133296   4.288   1.528   2.285
10799SOL    HW233297   4.169   1.559   2.178
10800SOL     OW33298   0.479   6.347   5.388
10800SOL    HW133299   0.458   6.294   5.306
10800SOL    HW233300   0.477   6.445   5.366
10801SOL     OW33301   1.276   0.412   0.113
10801SOL    HW133302   1.318   0.399   0.203
10801SOL    HW233303   1.245   0.507   0.104
10802SOL     OW33304   0.295   0.117   2.128
10802SOL    HW133305   0.195   0.113   2.123
10802SOL    HW233306   0.322   0.199   2.179
10803SOL     OW33307   1.759   5.400   5.593
10803SOL    HW133308   1.778   5.312   5.637
10803SOL    HW233309   1.669   5.397   5.550
10804SOL     OW33310   6.033   3.548   2.999
10804SOL    HW133311   5.943   3.520   2.966
10804SOL    HW233312   6.101   3.479   2.972
10805SOL     OW33313   4.605   6.986   5.390
10805SOL    HW133314   4.514   6.987   5.349
10805SOL    HW233315   4.673   7.004   5.320
10806SOL     OW33316   4.004   4.035   6.272
10806SOL    HW133317   4.003   4.008   6.176
10806SOL    HW233318   3.935   4.106   6.287
10807SOL     OW33319   1.885   6.959   3.350
10807SOL    HW133320   1.943   6.930   3.426
10807SOL    HW233321   1.789   6.956   3.378
10808SOL     OW33322   0.476   2.939   6.309
10808SOL    HW133323   0.508   2.928   6.403
10808SOL    HW233324   0.516   2.869   6.251
10809SOL     OW33325   2.262   4.075   3.894
10809SOL    HW133326   2.180   4.078   3.838
10809SOL    HW233327   2.328   4.142   3.859
10810SOL     OW33328   0.062   7.024   4.289
10810SOL    HW133329   0.018   7.008   4.200
10810SOL    HW233330   0.044   6.947   4.350
10811SOL     OW33331   4.377   4.591   5.848
10811SOL    HW133332   4.473   4.609   5.825
10811SOL    HW233333   4.332   4.547   5.770
10812SOL     OW33334   6.736   3.837   0.681
10812SOL    HW133335   6.756   3.854   0.585
10812SOL    HW233336   6.742   3.739   0.700
10813SOL     OW33337   0.692   3.865   5.928
10813SOL    HW133338   0.672   3.961   5.911
10813SOL    HW233339   0.721   3.821   5.843
10814SOL     OW33340   1.716   0.173   6.612
10814SOL    HW133341   1.646   0.102   6.610
10814SOL    HW233342   1.747   0.187   6.706
10815SOL     OW33343   4.849   3.072   3.070
10815SOL    HW133344   4.840   3.129   2.988
10815SOL    HW233345   4.944   3.043   3.080
10816SOL     OW33346   2.939   3.320   2.424
10816SOL    HW133347   2.890   3.393   2.378
10816SOL    HW233348   2.955   3.244   2.361
10817SOL     OW33349   3.745   0.361   3.457
10817SOL    HW133350   3.724   0.458   3.444
10817SOL    HW233351   3.780   0.346   3.549
10818SOL     OW33352   4.610   3.993   5.326
10818SOL    HW133353   4.692   4.012   5.380
10818SOL    HW233354   4.534   4.049   5.360
10819SOL     OW33355   5.927   4.860   6.393
10819SOL    HW133356   5.832   4.864   6.363
10819SOL    HW233357   5.954   4.765   6.407
10820SOL     OW33358   0.456   5.471   4.446
10820SOL    HW133359   0.501   5.468   4.357
10820SOL    HW233360   0.461   5.564   4.482
10821SOL     OW33361   4.367   6.976   3.231
10821SOL    HW133362   4.283   6.980   3.284
10821SOL    HW233363   4.348   6.939   3.140
10822SOL     OW33364   6.007   1.951   2.433
10822SOL    HW133365   5.982   1.983   2.342
10822SOL    HW233366   5.928   1.909   2.477
10823SOL     OW33367   0.948   0.447   2.158
10823SOL    HW133368   0.876   0.423   2.093
10823SOL    HW233369   1.035   0.407   2.127
10824SOL     OW33370   0.361   0.336   2.278
10824SOL    HW133371   0.405   0.300   2.360
10824SOL    HW233372   0.345   0.434   2.290
10825SOL     OW33373   2.452   1.958   0.399
10825SOL    HW133374   2.428   1.864   0.424
10825SOL    HW233375   2.469   1.963   0.301
10826SOL     OW33376   1.057   1.174   2.757
10826SOL    HW133377   1.042   1.115   2.678
10826SOL    HW233378   1.098   1.121   2.831
10827SOL     OW33379   0.489   3.642   5.126
10827SOL    HW133380   0.399   3.686   5.124
10827SOL    HW233381   0.488   3.561   5.068
10828SOL     OW33382   2.088   4.509   0.997
10828SOL    HW133383   2.122   4.454   0.920
10828SOL    HW233384   1.995   4.480   1.019
10829SOL     OW33385   5.389   2.830   0.117
10829SOL    HW133386   5.441   2.756   0.162
10829SOL    HW233387   5.313   2.791   0.065
10830SOL     OW33388   4.383   1.592   2.905
10830SOL    HW133389   4.479   1.599   2.931
10830SOL    HW233390   4.353   1.679   2.864
10831SOL     OW33391   2.957   6.169   2.034
10831SOL    HW133392   3.019   6.099   2.069
10831SOL    HW233393   2.897   6.130   1.965
10832SOL     OW33394   0.125   3.869   6.203
10832SOL    HW133395   0.117   3.814   6.286
10832SOL    HW233396   0.203   3.836   6.149
10833SOL     OW33397   0.267   1.615   1.334
10833SOL    HW133398   0.318   1.612   1.248
10833SOL    HW233399   0.330   1.598   1.410
10834SOL     OW33400   5.939   1.389   0.417
10834SOL    HW133401   5.990   1.307   0.390
10834SOL    HW233402   5.995   1.470   0.402
10835SOL     OW33403   6.041   3.411   0.066
10835SOL    HW133404   6.097   3.430   7.011
10835SOL    HW233405   6.101   3.395   0.145
10836SOL     OW33406   0.549   1.438   3.279
10836SOL    HW133407   0.641   1.400   3.269
10836SOL    HW233408   0.547   1.501   3.357
10837SOL     OW33409   6.903   4.792   1.676
10837SOL    HW133410   6.816   4.827   1.709
10837SOL    HW233411   6.965   4.869   1.656
10838SOL     OW33412   6.404   6.713   3.951
10838SOL    HW133413   6.372   6.803   3.978
10838SOL    HW233414   6.474   6.722   3.880
10839SOL     OW33415   4.180   3.930   0.760
10839SOL    HW133416   4.217   3.841   0.734
10839SOL    HW233417   4.083   3.935   0.734
10840SOL     OW33418   3.471   6.243   2.190
10840SOL    HW133419   3.498   6.339   2.183
10840SOL    HW233420   3.385   6.237   2.241
10841SOL     OW33421   5.901   4.561   4.838
10841SOL    HW133422   5.921   4.654   4.869
10841SOL    HW233423   5.926   4.552   4.742
10842SOL     OW33424   5.047   2.690   1.401
10842SOL    HW133425   4.980   2.621   1.373
10842SOL    HW233426   5.011   2.741   1.480
10843SOL     OW33427   1.454   1.295   1.222
10843SOL    HW133428   1.439   1.387   1.184
10843SOL    HW233429   1.382   1.234   1.188
10844SOL     OW33430   0.328   5.264   3.073
10844SOL    HW133431   0.368   5.279   2.982
10844SOL    HW233432   0.385   5.308   3.142
10845SOL     OW33433   4.051   6.311   5.451
10845SOL    HW133434   4.135   6.349   5.492
10845SOL    HW233435   3.978   6.380   5.456
10846SOL     OW33436   5.480   0.114   6.480
10846SOL    HW133437   5.384   0.140   6.490
10846SOL    HW233438   5.491   0.059   6.397
10847SOL     OW33439   3.453   2.507   6.941
10847SOL    HW133440   3.500   2.419   6.950
10847SOL    HW233441   3.516   2.574   6.902
10848SOL     OW33442   1.267   4.128   0.741
10848SOL    HW133443   1.332   4.078   0.684
10848SOL    HW233444   1.175   4.093   0.728
10849SOL     OW33445   2.572   4.630   4.078
10849SOL    HW133446   2.562   4.544   4.127
10849SOL    HW233447   2.562   4.614   3.980
10850SOL     OW33448   3.576   6.588   6.025
10850SOL    HW133449   3.481   6.610   6.003
10850SOL    HW233450   3.628   6.577   5.941
10851SOL     OW33451   3.272   3.688   0.745
10851SOL    HW133452   3.248   3.599   0.705
10851SOL    HW233453   3.317   3.744   0.675
10852SOL     OW33454   1.344   0.682   6.772
10852SOL    HW133455   1.274   0.611   6.765
10852SOL    HW233456   1.303   0.771   6.752
10853SOL     OW33457   2.448   2.919   5.716
10853SOL    HW133458   2.388   2.898   5.793
10853SOL    HW233459   2.409   2.993   5.662
10854SOL     OW33460   4.541   5.181   5.233
10854SOL    HW133461   4.489   5.097   5.247
10854SOL    HW233462   4.486   5.246   5.180
10855SOL     OW33463   4.105   0.855   6.718
10855SOL    HW133464   4.102   0.771   6.664
10855SOL    HW233465   4.173   0.917   6.679
10856SOL     OW33466   5.728   1.236   0.396
10856SOL    HW133467   5.730   1.176   0.477
10856SOL    HW233468   5.799   1.306   0.405
10857SOL     OW33469   1.033   2.456   2.610
10857SOL    HW133470   0.941   2.477   2.577
10857SOL    HW233471   1.087   2.540   2.616
10858SOL     OW33472   0.788   0.781   0.392
10858SOL    HW133473   0.703   0.781   0.341
10858SOL    HW233474   0.844   0.703   0.366
10859SOL     OW33475   0.830   4.698   4.557
10859SOL    HW133476   0.912   4.704   4.614
10859SOL    HW233477   0.794   4.789   4.540
10860SOL     OW33478   0.494   3.275   4.756
10860SOL    HW133479   0.475   3.283   4.658
10860SOL    HW233480   0.479   3.180   4.784
10861SOL     OW33481   3.445   3.763   3.210
10861SOL    HW133482   3.436   3.807   3.121
10861SOL    HW233483   3.417   3.828   3.282
10862SOL     OW33484   1.041   0.896   5.934
10862SOL    HW133485   1.025   0.846   6.020
10862SOL    HW233486   1.002   0.988   5.942
10863SOL     OW33487   1.656   0.649   4.625
10863SOL    HW133488   1.585   0.714   4.651
10863SOL    HW233489   1.618   0.556   4.624
10864SOL     OW33490   3.077   6.165   6.944
10864SOL    HW133491   3.090   6.152   0.016
10864SOL    HW233492   3.154   6.218   6.907
10865SOL     OW33493   6.559   1.139   0.926
10865SOL    HW133494   6.542   1.084   0.844
10865SOL    HW233495   6.506   1.223   0.922
10866SOL     OW33496   5.291   4.469   0.924
10866SOL    HW133497   5.290   4.391   0.986
10866SOL    HW233498   5.273   4.553   0.975
10867SOL     OW33499   3.289   4.131   0.886
10867SOL    HW133500   3.320   4.190   0.812
10867SOL    HW233501   3.192   4.146   0.903
10868SOL     OW33502   4.813   1.518   3.939
10868SOL    HW133503   4.860   1.583   3.879
10868SOL    HW233504   4.856   1.428   3.931
10869NA      NA33505   6.412   3.074   5.136
10870NA      NA33506   4.504   4.558   5.148
10871NA      NA33507   1.592   2.880   1.678
10872NA      NA33508   4.973   3.692   5.236
10873NA      NA33509   4.148   2.269   5.243
10874NA      NA33510   3.643   4.843   1.741
10875NA      NA33511   6.701   5.116   6.844
10876NA      NA33512   3.331   3.106   4.706
10877NA      NA33513   4.518   5.877   0.022
10878NA      NA33514   4.235   6.451   5.061
10879NA      NA33515   6.360   5.170   2.439
10880NA      NA33516   2.164   6.851   3.671
10881NA      NA33517   4.108   5.989   1.942
10882NA      NA33518   3.399   3.759   2.052
   7.02600   7.02600   7.02600
