Generated by trjconv : CNT in water t=  28.00000
33518
    1C        C    1   2.841   2.769   4.745
    1C        C    2   2.894   2.714   4.864
    1C        C    3   2.835   2.769   4.979
    1C        C    4   2.847   2.771   4.257
    1C        C    5   2.897   2.723   4.380
    1C        C    6   2.846   2.771   4.502
    1C        C    7   3.008   2.635   4.623
    1C        C    8   2.893   2.718   4.624
    1C        C    9   3.072   2.602   4.744
    1C        C   10   3.005   2.628   4.866
    1C        C   11   3.179   2.489   4.974
    1C        C   12   3.056   2.556   4.975
    1C        C   13   2.846   2.768   3.769
    1C        C   14   2.898   2.721   3.891
    1C        C   15   2.846   2.769   4.014
    1C        C   16   3.018   2.643   4.133
    1C        C   17   2.900   2.722   4.135
    1C        C   18   3.075   2.608   4.258
    1C        C   19   3.012   2.640   4.380
    1C        C   20   3.207   2.558   4.502
    1C        C   21   3.073   2.603   4.502
    1C        C   22   3.275   2.537   4.624
    1C        C   23   3.202   2.544   4.744
    1C        C   24   3.409   2.481   4.861
    1C        C   25   3.267   2.499   4.862
    1C        C   26   3.486   2.474   4.978
    1C        C   27   2.845   2.763   3.278
    1C        C   28   2.896   2.718   3.401
    1C        C   29   2.848   2.770   3.523
    1C        C   30   3.009   2.637   3.646
    1C        C   31   2.892   2.716   3.646
    1C        C   32   3.071   2.602   3.768
    1C        C   33   3.012   2.637   3.891
    1C        C   34   3.207   2.547   4.012
    1C        C   35   3.079   2.606   4.012
    1C        C   36   3.273   2.529   4.136
    1C        C   37   3.205   2.553   4.257
    1C        C   38   3.411   2.505   4.376
    1C        C   39   3.272   2.530   4.379
    1C        C   40   3.482   2.499   4.498
    1C        C   41   3.413   2.506   4.621
    1C        C   42   3.627   2.478   4.741
    1C        C   43   3.485   2.482   4.740
    1C        C   44   3.701   2.479   4.861
    1C        C   45   3.625   2.474   4.978
    1C        C   46   2.837   2.754   2.793
    1C        C   47   2.891   2.707   2.915
    1C        C   48   2.841   2.760   3.036
    1C        C   49   3.014   2.634   3.160
    1C        C   50   2.897   2.713   3.156
    1C        C   51   3.074   2.596   3.282
    1C        C   52   3.013   2.638   3.402
    1C        C   53   3.203   2.545   3.524
    1C        C   54   3.075   2.605   3.525
    1C        C   55   3.270   2.522   3.646
    1C        C   56   3.200   2.543   3.767
    1C        C   57   3.410   2.502   3.890
    1C        C   58   3.272   2.529   3.887
    1C        C   59   3.482   2.492   4.011
    1C        C   60   3.411   2.499   4.133
    1C        C   61   3.624   2.495   4.254
    1C        C   62   3.482   2.493   4.254
    1C        C   63   3.694   2.506   4.375
    1C        C   64   3.623   2.502   4.497
    1C        C   65   3.832   2.533   4.617
    1C        C   66   3.696   2.495   4.619
    1C        C   67   3.901   2.555   4.739
    1C        C   68   3.837   2.518   4.859
    1C        C   69   4.048   2.583   4.974
    1C        C   70   3.920   2.526   4.971
    1C        C   71   2.820   2.731   2.307
    1C        C   72   2.878   2.688   2.428
    1C        C   73   2.832   2.747   2.548
    1C        C   74   3.000   2.619   2.671
    1C        C   75   2.887   2.703   2.671
    1C        C   76   3.067   2.586   2.791
    1C        C   77   3.008   2.628   2.913
    1C        C   78   3.202   2.544   3.031
    1C        C   79   3.072   2.599   3.036
    1C        C   80   3.267   2.523   3.155
    1C        C   81   3.202   2.536   3.279
    1C        C   82   3.409   2.492   3.399
    1C        C   83   3.270   2.519   3.402
    1C        C   84   3.480   2.486   3.522
    1C        C   85   3.409   2.498   3.644
    1C        C   86   3.620   2.498   3.765
    1C        C   87   3.479   2.493   3.767
    1C        C   88   3.692   2.514   3.885
    1C        C   89   3.623   2.508   4.009
    1C        C   90   3.829   2.549   4.133
    1C        C   91   3.692   2.514   4.132
    1C        C   92   3.898   2.569   4.255
    1C        C   93   3.832   2.539   4.377
    1C        C   94   4.025   2.631   4.495
    1C        C   95   3.900   2.564   4.498
    1C        C   96   4.084   2.671   4.616
    1C        C   97   4.025   2.624   4.735
    1C        C   98   4.185   2.762   4.856
    1C        C   99   4.091   2.655   4.858
    1C        C  100   4.213   2.836   4.972
    1C        C  101   2.813   2.717   2.067
    1C        C  102   2.989   2.592   2.186
    1C        C  103   2.873   2.676   2.187
    1C        C  104   3.062   2.574   2.307
    1C        C  105   2.997   2.611   2.427
    1C        C  106   3.195   2.536   2.545
    1C        C  107   3.062   2.584   2.549
    1C        C  108   3.268   2.514   2.664
    1C        C  109   3.200   2.538   2.786
    1C        C  110   3.406   2.491   2.908
    1C        C  111   3.267   2.516   2.908
    1C        C  112   3.475   2.493   3.031
    1C        C  113   3.406   2.497   3.155
    1C        C  114   3.619   2.501   3.275
    1C        C  115   3.478   2.490   3.276
    1C        C  116   3.689   2.508   3.398
    1C        C  117   3.620   2.500   3.521
    1C        C  118   3.827   2.544   3.641
    1C        C  119   3.691   2.507   3.643
    1C        C  120   3.892   2.567   3.765
    1C        C  121   3.830   2.544   3.889
    1C        C  122   4.020   2.639   4.009
    1C        C  123   3.896   2.571   4.011
    1C        C  124   4.080   2.678   4.131
    1C        C  125   4.021   2.637   4.253
    1C        C  126   4.195   2.762   4.374
    1C        C  127   4.086   2.672   4.374
    1C        C  128   4.241   2.818   4.495
    1C        C  129   4.186   2.769   4.616
    1C        C  130   4.321   2.934   4.739
    1C        C  131   4.240   2.817   4.737
    1C        C  132   4.355   2.999   4.860
    1C        C  133   4.286   2.954   4.973
    1C        C  134   3.172   2.472   2.077
    1C        C  135   3.035   2.504   2.083
    1C        C  136   3.259   2.480   2.187
    1C        C  137   3.194   2.521   2.306
    1C        C  138   3.403   2.477   2.420
    1C        C  139   3.265   2.506   2.427
    1C        C  140   3.477   2.479   2.541
    1C        C  141   3.407   2.488   2.663
    1C        C  142   3.617   2.480   2.789
    1C        C  143   3.476   2.480   2.786
    1C        C  144   3.689   2.499   2.909
    1C        C  145   3.616   2.495   3.030
    1C        C  146   3.826   2.536   3.151
    1C        C  147   3.688   2.508   3.151
    1C        C  148   3.895   2.560   3.272
    1C        C  149   3.827   2.537   3.394
    1C        C  150   4.020   2.622   3.518
    1C        C  151   3.892   2.561   3.517
    1C        C  152   4.076   2.666   3.640
    1C        C  153   4.016   2.636   3.764
    1C        C  154   4.191   2.758   3.883
    1C        C  155   4.076   2.677   3.885
    1C        C  156   4.242   2.807   4.005
    1C        C  157   4.195   2.760   4.130
    1C        C  158   4.336   2.917   4.248
    1C        C  159   4.250   2.805   4.251
    1C        C  160   4.368   2.983   4.369
    1C        C  161   4.329   2.928   4.493
    1C        C  162   4.437   3.110   4.612
    1C        C  163   4.363   2.990   4.616
    1C        C  164   4.466   3.179   4.732
    1C        C  165   4.431   3.117   4.854
    1C        C  166   4.511   3.316   4.973
    1C        C  167   4.475   3.182   4.971
    1C        C  168   3.477   2.436   2.065
    1C        C  169   3.398   2.460   2.178
    1C        C  170   3.615   2.461   2.300
    1C        C  171   3.473   2.461   2.298
    1C        C  172   3.686   2.481   2.421
    1C        C  173   3.618   2.487   2.544
    1C        C  174   3.825   2.529   2.661
    1C        C  175   3.688   2.492   2.667
    1C        C  176   3.890   2.556   2.783
    1C        C  177   3.826   2.531   2.907
    1C        C  178   4.021   2.615   3.028
    1C        C  179   3.895   2.551   3.029
    1C        C  180   4.081   2.659   3.148
    1C        C  181   4.020   2.625   3.271
    1C        C  182   4.190   2.748   3.395
    1C        C  183   4.077   2.663   3.395
    1C        C  184   4.241   2.800   3.516
    1C        C  185   4.187   2.754   3.638
    1C        C  186   4.332   2.911   3.761
    1C        C  187   4.241   2.803   3.759
    1C        C  188   4.374   2.972   3.882
    1C        C  189   4.331   2.917   4.005
    1C        C  190   4.442   3.101   4.125
    1C        C  191   4.374   2.977   4.126
    1C        C  192   4.463   3.171   4.246
    1C        C  193   4.429   3.110   4.369
    1C        C  194   4.503   3.311   4.489
    1C        C  195   4.460   3.176   4.490
    1C        C  196   4.505   3.385   4.609
    1C        C  197   4.499   3.317   4.733
    1C        C  198   4.549   3.529   4.848
    1C        C  199   4.526   3.388   4.853
    1C        C  200   4.578   3.615   4.959
    1C        C  201   3.615   2.414   2.066
    1C        C  202   3.827   2.500   2.178
    1C        C  203   3.693   2.450   2.181
    1C        C  204   3.894   2.536   2.298
    1C        C  205   3.823   2.518   2.419
    1C        C  206   4.016   2.616   2.538
    1C        C  207   3.890   2.552   2.538
    1C        C  208   4.075   2.659   2.659
    1C        C  209   4.013   2.626   2.782
    1C        C  210   4.187   2.743   2.903
    1C        C  211   4.076   2.656   2.905
    1C        C  212   4.244   2.790   3.024
    1C        C  213   4.193   2.745   3.148
    1C        C  214   4.330   2.903   3.268
    1C        C  215   4.245   2.791   3.272
    1C        C  216   4.369   2.966   3.389
    1C        C  217   4.331   2.909   3.512
    1C        C  218   4.426   3.095   3.636
    1C        C  219   4.368   2.966   3.636
    1C        C  220   4.452   3.164   3.756
    1C        C  221   4.436   3.099   3.880
    1C        C  222   4.491   3.304   4.000
    1C        C  223   4.463   3.166   4.001
    1C        C  224   4.513   3.374   4.121
    1C        C  225   4.503   3.306   4.244
    1C        C  226   4.517   3.519   4.363
    1C        C  227   4.520   3.377   4.365
    1C        C  228   4.516   3.595   4.482
    1C        C  229   4.523   3.525   4.604
    1C        C  230   4.491   3.734   4.726
    1C        C  231   4.531   3.598   4.725
    1C        C  232   4.485   3.812   4.843
    1C        C  233   4.539   3.749   4.956
    1C        C  234   4.011   2.610   2.061
    1C        C  235   3.890   2.542   2.061
    1C        C  236   4.082   2.644   2.177
    1C        C  237   4.020   2.601   2.296
    1C        C  238   4.197   2.729   2.415
    1C        C  239   4.080   2.648   2.416
    1C        C  240   4.250   2.779   2.536
    1C        C  241   4.191   2.739   2.658
    1C        C  242   4.330   2.897   2.778
    1C        C  243   4.243   2.786   2.781
    1C        C  244   4.370   2.956   2.901
    1C        C  245   4.333   2.899   3.025
    1C        C  246   4.436   3.087   3.144
    1C        C  247   4.371   2.961   3.146
    1C        C  248   4.453   3.154   3.267
    1C        C  249   4.428   3.094   3.392
    1C        C  250   4.489   3.298   3.510
    1C        C  251   4.451   3.163   3.514
    1C        C  252   4.502   3.370   3.631
    1C        C  253   4.491   3.300   3.753
    1C        C  254   4.509   3.512   3.875
    1C        C  255   4.500   3.371   3.875
    1C        C  256   4.510   3.585   3.996
    1C        C  257   4.516   3.515   4.119
    1C        C  258   4.489   3.726   4.240
    1C        C  259   4.517   3.588   4.240
    1C        C  260   4.467   3.798   4.359
    1C        C  261   4.489   3.734   4.483
    1C        C  262   4.424   3.937   4.601
    1C        C  263   4.473   3.804   4.604
    1C        C  264   4.400   4.009   4.720
    1C        C  265   4.432   3.943   4.841
    1C        C  266   4.325   4.128   4.953
    1C        C  267   4.389   4.005   4.959
    1C        C  268   4.267   2.764   2.060
    1C        C  269   4.197   2.726   2.175
    1C        C  270   4.341   2.890   2.293
    1C        C  271   4.248   2.782   2.295
    1C        C  272   4.384   2.947   2.415
    1C        C  273   4.344   2.884   2.535
    1C        C  274   4.443   3.075   2.656
    1C        C  275   4.372   2.953   2.655
    1C        C  276   4.467   3.144   2.777
    1C        C  277   4.435   3.081   2.899
    1C        C  278   4.497   3.285   3.020
    1C        C  279   4.467   3.147   3.020
    1C        C  280   4.500   3.357   3.141
    1C        C  281   4.487   3.291   3.266
    1C        C  282   4.513   3.505   3.385
    1C        C  283   4.506   3.364   3.385
    1C        C  284   4.522   3.578   3.506
    1C        C  285   4.516   3.511   3.630
    1C        C  286   4.492   3.721   3.752
    1C        C  287   4.511   3.581   3.752
    1C        C  288   4.471   3.791   3.873
    1C        C  289   4.488   3.724   3.996
    1C        C  290   4.423   3.928   4.113
    1C        C  291   4.470   3.795   4.118
    1C        C  292   4.389   3.990   4.235
    1C        C  293   4.419   3.931   4.360
    1C        C  294   4.324   4.125   4.476
    1C        C  295   4.394   4.002   4.480
    1C        C  296   4.277   4.182   4.596
    1C        C  297   4.321   4.127   4.719
    1C        C  298   4.199   4.312   4.833
    1C        C  299   4.280   4.194   4.837
    1C        C  300   4.164   4.393   4.946
    1C        C  301   4.345   2.879   2.056
    1C        C  302   4.473   3.061   2.173
    1C        C  303   4.393   2.942   2.172
    1C        C  304   4.481   3.135   2.294
    1C        C  305   4.453   3.070   2.416
    1C        C  306   4.508   3.278   2.532
    1C        C  307   4.479   3.140   2.536
    1C        C  308   4.508   3.353   2.651
    1C        C  309   4.490   3.284   2.773
    1C        C  310   4.512   3.493   2.896
    1C        C  311   4.504   3.352   2.896
    1C        C  312   4.508   3.566   3.017
    1C        C  313   4.510   3.498   3.141
    1C        C  314   4.483   3.712   3.262
    1C        C  315   4.503   3.572   3.261
    1C        C  316   4.471   3.783   3.384
    1C        C  317   4.497   3.717   3.506
    1C        C  318   4.420   3.916   3.625
    1C        C  319   4.478   3.787   3.627
    1C        C  320   4.387   3.981   3.746
    1C        C  321   4.420   3.923   3.870
    1C        C  322   4.316   4.111   3.987
    1C        C  323   4.388   3.989   3.991
    1C        C  324   4.275   4.167   4.110
    1C        C  325   4.317   4.112   4.233
    1C        C  326   4.183   4.281   4.348
    1C        C  327   4.280   4.178   4.352
    1C        C  328   4.132   4.332   4.469
    1C        C  329   4.186   4.289   4.593
    1C        C  330   4.019   4.429   4.713
    1C        C  331   4.137   4.350   4.711
    1C        C  332   3.965   4.489   4.829
    1C        C  333   4.048   4.470   4.941
    1C        C  334   4.549   3.264   2.060
    1C        C  335   4.529   3.126   2.058
    1C        C  336   4.534   3.345   2.174
    1C        C  337   4.511   3.274   2.294
    1C        C  338   4.518   3.493   2.407
    1C        C  339   4.517   3.352   2.412
    1C        C  340   4.515   3.562   2.530
    1C        C  341   4.514   3.494   2.654
    1C        C  342   4.491   3.706   2.774
    1C        C  343   4.511   3.566   2.776
    1C        C  344   4.473   3.776   2.895
    1C        C  345   4.487   3.705   3.017
    1C        C  346   4.425   3.911   3.136
    1C        C  347   4.469   3.777   3.137
    1C        C  348   4.394   3.978   3.256
    1C        C  349   4.424   3.916   3.379
    1C        C  350   4.316   4.098   3.498
    1C        C  351   4.391   3.978   3.502
    1C        C  352   4.272   4.156   3.619
    1C        C  353   4.312   4.101   3.742
    1C        C  354   4.174   4.262   3.863
    1C        C  355   4.277   4.165   3.863
    1C        C  356   4.121   4.311   3.985
    1C        C  357   4.176   4.268   4.107
    1C        C  358   4.011   4.405   4.227
    1C        C  359   4.128   4.326   4.226
    1C        C  360   3.948   4.444   4.348
    1C        C  361   4.015   4.411   4.468
    1C        C  362   3.823   4.504   4.591
    1C        C  363   3.953   4.450   4.589
    1C        C  364   3.759   4.545   4.710
    1C        C  365   3.835   4.544   4.829
    1C        C  366   3.624   4.590   4.946
    1C        C  367   3.760   4.563   4.945
    1C        C  368   4.506   3.564   2.054
    1C        C  369   4.518   3.485   2.169
    1C        C  370   4.504   3.706   2.287
    1C        C  371   4.513   3.565   2.286
    1C        C  372   4.479   3.775   2.408
    1C        C  373   4.490   3.701   2.528
    1C        C  374   4.422   3.902   2.648
    1C        C  375   4.474   3.771   2.650
    1C        C  376   4.388   3.967   2.769
    1C        C  377   4.425   3.909   2.892
    1C        C  378   4.319   4.094   3.010
    1C        C  379   4.396   3.976   3.014
    1C        C  380   4.272   4.149   3.132
    1C        C  381   4.313   4.094   3.255
    1C        C  382   4.175   4.258   3.372
    1C        C  383   4.273   4.155   3.376
    1C        C  384   4.123   4.305   3.495
    1C        C  385   4.176   4.260   3.618
    1C        C  386   4.004   4.384   3.738
    1C        C  387   4.120   4.303   3.740
    1C        C  388   3.942   4.422   3.859
    1C        C  389   4.002   4.388   3.982
    1C        C  390   3.817   4.489   4.105
    1C        C  391   3.947   4.433   4.104
    1C        C  392   3.747   4.516   4.225
    1C        C  393   3.819   4.500   4.346
    1C        C  394   3.615   4.550   4.471
    1C        C  395   3.754   4.523   4.469
    1C        C  396   3.543   4.561   4.592
    1C        C  397   3.619   4.562   4.712
    1C        C  398   3.404   4.554   4.836
    1C        C  399   3.545   4.569   4.832
    1C        C  400   3.334   4.516   4.951
    1C        C  401   4.496   3.702   2.048
    1C        C  402   4.453   3.914   2.164
    1C        C  403   4.488   3.777   2.166
    1C        C  404   4.409   3.975   2.283
    1C        C  405   4.431   3.907   2.405
    1C        C  406   4.326   4.093   2.523
    1C        C  407   4.397   3.971   2.527
    1C        C  408   4.277   4.148   2.643
    1C        C  409   4.314   4.087   2.765
    1C        C  410   4.173   4.246   2.886
    1C        C  411   4.273   4.146   2.887
    1C        C  412   4.119   4.296   3.006
    1C        C  413   4.171   4.247   3.128
    1C        C  414   3.999   4.374   3.248
    1C        C  415   4.116   4.295   3.249
    1C        C  416   3.940   4.411   3.371
    1C        C  417   4.001   4.377   3.494
    1C        C  418   3.810   4.471   3.615
    1C        C  419   3.938   4.409   3.615
    1C        C  420   3.748   4.501   3.738
    1C        C  421   3.810   4.473   3.862
    1C        C  422   3.605   4.523   3.981
    1C        C  423   3.744   4.500   3.984
    1C        C  424   3.538   4.533   4.105
    1C        C  425   3.608   4.542   4.227
    1C        C  426   3.400   4.540   4.352
    1C        C  427   3.541   4.550   4.351
    1C        C  428   3.329   4.536   4.474
    1C        C  429   3.402   4.554   4.593
    1C        C  430   3.192   4.518   4.717
    1C        C  431   3.330   4.552   4.715
    1C        C  432   3.121   4.495   4.838
    1C        C  433   3.197   4.495   4.956
    1C        C  434   4.381   4.120   2.048
    1C        C  435   4.448   3.996   2.051
    1C        C  436   4.302   4.160   2.159
    1C        C  437   4.331   4.095   2.282
    1C        C  438   4.183   4.252   2.399
    1C        C  439   4.281   4.150   2.402
    1C        C  440   4.126   4.295   2.521
    1C        C  441   4.174   4.245   2.644
    1C        C  442   4.003   4.374   2.762
    1C        C  443   4.118   4.292   2.764
    1C        C  444   3.941   4.412   2.884
    1C        C  445   4.007   4.382   3.005
    1C        C  446   3.807   4.461   3.124
    1C        C  447   3.940   4.413   3.126
    1C        C  448   3.744   4.485   3.248
    1C        C  449   3.811   4.469   3.372
    1C        C  450   3.604   4.523   3.494
    1C        C  451   3.742   4.492   3.493
    1C        C  452   3.536   4.531   3.617
    1C        C  453   3.609   4.526   3.739
    1C        C  454   3.393   4.535   3.858
    1C        C  455   3.535   4.534   3.859
    1C        C  456   3.328   4.525   3.984
    1C        C  457   3.397   4.528   4.107
    1C        C  458   3.190   4.500   4.231
    1C        C  459   3.328   4.529   4.231
    1C        C  460   3.122   4.479   4.353
    1C        C  461   3.191   4.506   4.473
    1C        C  462   2.992   4.438   4.597
    1C        C  463   3.123   4.491   4.596
    1C        C  464   2.932   4.398   4.719
    1C        C  465   2.989   4.442   4.842
    1C        C  466   2.797   4.337   4.956
    1C        C  467   2.901   4.431   4.954
    1C        C  468   4.115   4.275   2.042
    1C        C  469   4.184   4.242   2.160
    1C        C  470   4.004   4.371   2.276
    1C        C  471   4.123   4.293   2.278
    1C        C  472   3.941   4.401   2.398
    1C        C  473   4.006   4.370   2.520
    1C        C  474   3.811   4.461   2.638
    1C        C  475   3.942   4.408   2.639
    1C        C  476   3.742   4.481   2.760
    1C        C  477   3.809   4.462   2.882
    1C        C  478   3.601   4.516   3.008
    1C        C  479   3.737   4.479   3.002
    1C        C  480   3.532   4.523   3.131
    1C        C  481   3.606   4.513   3.251
    1C        C  482   3.393   4.524   3.370
    1C        C  483   3.534   4.529   3.371
    1C        C  484   3.323   4.523   3.493
    1C        C  485   3.395   4.530   3.614
    1C        C  486   3.184   4.501   3.741
    1C        C  487   3.323   4.525   3.736
    1C        C  488   3.121   4.475   3.865
    1C        C  489   3.191   4.493   3.986
    1C        C  490   2.995   4.416   4.110
    1C        C  491   3.123   4.476   4.109
    1C        C  492   2.937   4.383   4.234
    1C        C  493   2.996   4.415   4.358
    1C        C  494   2.817   4.306   4.479
    1C        C  495   2.928   4.394   4.480
    1C        C  496   2.776   4.251   4.602
    1C        C  497   2.820   4.310   4.723
    1C        C  498   2.664   4.162   4.840
    1C        C  499   2.753   4.271   4.841
    1C        C  500   2.596   4.110   4.951
    1C        C  501   3.996   4.346   2.039
    1C        C  502   3.810   4.461   2.154
    1C        C  503   3.937   4.398   2.155
    1C        C  504   3.741   4.483   2.276
    1C        C  505   3.811   4.455   2.396
    1C        C  506   3.602   4.501   2.519
    1C        C  507   3.741   4.478   2.517
    1C        C  508   3.530   4.514   2.640
    1C        C  509   3.603   4.508   2.762
    1C        C  510   3.392   4.521   2.881
    1C        C  511   3.533   4.520   2.884
    1C        C  512   3.318   4.518   3.002
    1C        C  513   3.391   4.526   3.123
    1C        C  514   3.186   4.485   3.251
    1C        C  515   3.323   4.519   3.247
    1C        C  516   3.120   4.463   3.374
    1C        C  517   3.185   4.494   3.495
    1C        C  518   2.991   4.413   3.620
    1C        C  519   3.118   4.475   3.618
    1C        C  520   2.936   4.373   3.744
    1C        C  521   2.998   4.404   3.867
    1C        C  522   2.831   4.276   3.993
    1C        C  523   2.941   4.365   3.990
    1C        C  524   2.781   4.234   4.118
    1C        C  525   2.830   4.290   4.238
    1C        C  526   2.690   4.130   4.362
    1C        C  527   2.772   4.246   4.359
    1C        C  528   2.655   4.069   4.484
    1C        C  529   2.692   4.137   4.602
    1C        C  530   2.578   3.958   4.724
    1C        C  531   2.639   4.087   4.723
    1C        C  532   2.540   3.899   4.847
    1C        C  533   2.530   3.987   4.960
    1C        C  534   3.614   4.553   2.039
    1C        C  535   3.744   4.502   2.038
    1C        C  536   3.531   4.531   2.153
    1C        C  537   3.602   4.512   2.275
    1C        C  538   3.391   4.516   2.399
    1C        C  539   3.532   4.518   2.398
    1C        C  540   3.317   4.511   2.519
    1C        C  541   3.389   4.511   2.641
    1C        C  542   3.179   4.481   2.762
    1C        C  543   3.317   4.512   2.762
    1C        C  544   3.112   4.465   2.885
    1C        C  545   3.181   4.487   3.007
    1C        C  546   2.990   4.400   3.132
    1C        C  547   3.116   4.466   3.130
    1C        C  548   2.931   4.363   3.254
    1C        C  549   2.991   4.406   3.375
    1C        C  550   2.827   4.276   3.503
    1C        C  551   2.933   4.369   3.499
    1C        C  552   2.779   4.226   3.627
    1C        C  553   2.832   4.278   3.747
    1C        C  554   2.692   4.119   3.873
    1C        C  555   2.782   4.228   3.869
    1C        C  556   2.656   4.060   3.996
    1C        C  557   2.695   4.122   4.117
    1C        C  558   2.594   3.940   4.242
    1C        C  559   2.659   4.065   4.241
    1C        C  560   2.562   3.874   4.364
    1C        C  561   2.592   3.942   4.484
    1C        C  562   2.525   3.744   4.610
    1C        C  563   2.562   3.880   4.607
    1C        C  564   2.510   3.677   4.734
    1C        C  565   2.520   3.757   4.851
    1C        C  566   2.524   3.545   4.977
    1C        C  567   2.513   3.683   4.970
    1C        C  568   3.324   4.465   2.042
    1C        C  569   3.391   4.508   2.157
    1C        C  570   3.178   4.479   2.277
    1C        C  571   3.317   4.506   2.278
    1C        C  572   3.110   4.457   2.399
    1C        C  573   3.179   4.484   2.520
    1C        C  574   2.981   4.401   2.643
    1C        C  575   3.109   4.460   2.641
    1C        C  576   2.924   4.362   2.766
    1C        C  577   2.987   4.399   2.886
    1C        C  578   2.819   4.274   3.012
    1C        C  579   2.932   4.359   3.010
    1C        C  580   2.774   4.220   3.134
    1C        C  581   2.825   4.269   3.257
    1C        C  582   2.691   4.113   3.381
    1C        C  583   2.774   4.227   3.382
    1C        C  584   2.656   4.056   3.506
    1C        C  585   2.692   4.115   3.629
    1C        C  586   2.586   3.933   3.753
    1C        C  587   2.651   4.058   3.752
    1C        C  588   2.564   3.868   3.876
    1C        C  589   2.594   3.933   3.997
    1C        C  590   2.535   3.734   4.126
    1C        C  591   2.567   3.872   4.122
    1C        C  592   2.513   3.665   4.247
    1C        C  593   2.526   3.738   4.368
    1C        C  594   2.499   3.529   4.493
    1C        C  595   2.510   3.670   4.490
    1C        C  596   2.510   3.462   4.617
    1C        C  597   2.510   3.535   4.738
    1C        C  598   2.531   3.326   4.859
    1C        C  599   2.522   3.467   4.861
    1C        C  600   2.530   3.244   4.973
    1C        C  601   3.190   4.431   2.040
    1C        C  602   2.977   4.393   2.158
    1C        C  603   3.113   4.439   2.157
    1C        C  604   2.920   4.354   2.282
    1C        C  605   2.986   4.390   2.401
    1C        C  606   2.816   4.261   2.526
    1C        C  607   2.923   4.353   2.523
    1C        C  608   2.767   4.215   2.649
    1C        C  609   2.817   4.270   2.770
    1C        C  610   2.685   4.105   2.894
    1C        C  611   2.767   4.220   2.892
    1C        C  612   2.644   4.049   3.017
    1C        C  613   2.682   4.113   3.138
    1C        C  614   2.590   3.925   3.262
    1C        C  615   2.644   4.055   3.261
    1C        C  616   2.563   3.866   3.387
    1C        C  617   2.592   3.930   3.510
    1C        C  618   2.527   3.728   3.635
    1C        C  619   2.564   3.864   3.631
    1C        C  620   2.510   3.661   3.758
    1C        C  621   2.525   3.732   3.880
    1C        C  622   2.511   3.524   4.005
    1C        C  623   2.522   3.665   4.004
    1C        C  624   2.511   3.452   4.127
    1C        C  625   2.506   3.524   4.249
    1C        C  626   2.529   3.316   4.375
    1C        C  627   2.509   3.456   4.373
    1C        C  628   2.548   3.249   4.498
    1C        C  629   2.532   3.323   4.617
    1C        C  630   2.588   3.117   4.739
    1C        C  631   2.550   3.254   4.739
    1C        C  632   2.607   3.042   4.859
    1C        C  633   2.559   3.107   4.977
    1C        C  634   2.773   4.305   2.050
    1C        C  635   2.887   4.387   2.047
    1C        C  636   2.743   4.228   2.162
    1C        C  637   2.802   4.273   2.282
    1C        C  638   2.667   4.110   2.407
    1C        C  639   2.757   4.219   2.405
    1C        C  640   2.631   4.049   2.529
    1C        C  641   2.676   4.107   2.649
    1C        C  642   2.575   3.922   2.772
    1C        C  643   2.641   4.047   2.773
    1C        C  644   2.554   3.856   2.895
    1C        C  645   2.584   3.922   3.017
    1C        C  646   2.525   3.721   3.143
    1C        C  647   2.563   3.857   3.141
    1C        C  648   2.522   3.654   3.267
    1C        C  649   2.532   3.728   3.387
    1C        C  650   2.513   3.520   3.516
    1C        C  651   2.517   3.661   3.511
    1C        C  652   2.508   3.451   3.639
    1C        C  653   2.502   3.520   3.763
    1C        C  654   2.529   3.311   3.887
    1C        C  655   2.503   3.450   3.885
    1C        C  656   2.548   3.244   4.010
    1C        C  657   2.530   3.312   4.132
    1C        C  658   2.607   3.117   4.254
    1C        C  659   2.546   3.244   4.255
    1C        C  660   2.638   3.055   4.377
    1C        C  661   2.600   3.117   4.498
    1C        C  662   2.704   2.933   4.623
    1C        C  663   2.627   3.051   4.620
    1C        C  664   2.742   2.871   4.744
    1C        C  665   2.692   2.927   4.864
    1C        C  666   2.736   2.866   4.983
    1C        C  667   2.678   4.018   2.055
    1C        C  668   2.679   4.102   2.167
    1C        C  669   2.585   3.910   2.290
    1C        C  670   2.634   4.043   2.287
    1C        C  671   2.555   3.844   2.411
    1C        C  672   2.577   3.918   2.529
    1C        C  673   2.509   3.718   2.655
    1C        C  674   2.551   3.853   2.652
    1C        C  675   2.501   3.648   2.778
    1C        C  676   2.521   3.719   2.899
    1C        C  677   2.509   3.509   3.025
    1C        C  678   2.513   3.650   3.022
    1C        C  679   2.509   3.442   3.149
    1C        C  680   2.507   3.513   3.271
    1C        C  681   2.534   3.306   3.398
    1C        C  682   2.513   3.446   3.395
    1C        C  683   2.556   3.243   3.522
    1C        C  684   2.532   3.312   3.643
    1C        C  685   2.598   3.110   3.767
    1C        C  686   2.547   3.242   3.764
    1C        C  687   2.632   3.047   3.888
    1C        C  688   2.601   3.113   4.009
    1C        C  689   2.714   2.934   4.135
    1C        C  690   2.635   3.051   4.132
    1C        C  691   2.756   2.879   4.258
    1C        C  692   2.711   2.934   4.380
    1C        C  693   2.757   2.880   4.503
    1C        C  694   2.628   3.887   2.053
    1C        C  695   2.522   3.703   2.171
    1C        C  696   2.573   3.834   2.171
    1C        C  697   2.502   3.635   2.294
    1C        C  698   2.520   3.707   2.414
    1C        C  699   2.482   3.502   2.540
    1C        C  700   2.495   3.642   2.537
    1C        C  701   2.492   3.433   2.662
    1C        C  702   2.499   3.507   2.782
    1C        C  703   2.529   3.296   2.908
    1C        C  704   2.511   3.437   2.904
    1C        C  705   2.541   3.229   3.032
    1C        C  706   2.530   3.302   3.152
    1C        C  707   2.593   3.103   3.276
    1C        C  708   2.547   3.236   3.276
    1C        C  709   2.628   3.042   3.399
    1C        C  710   2.606   3.111   3.520
    1C        C  711   2.716   2.934   3.645
    1C        C  712   2.636   3.050   3.644
    1C        C  713   2.756   2.877   3.768
    1C        C  714   2.707   2.927   3.891
    1C        C  715   2.749   2.871   4.014
    1C        C  716   2.451   3.494   2.059
    1C        C  717   2.492   3.628   2.057
    1C        C  718   2.470   3.420   2.180
    1C        C  719   2.475   3.496   2.300
    1C        C  720   2.513   3.288   2.420
    1C        C  721   2.476   3.424   2.422
    1C        C  722   2.537   3.222   2.542
    1C        C  723   2.520   3.294   2.663
    1C        C  724   2.588   3.094   2.786
    1C        C  725   2.541   3.227   2.786
    1C        C  726   2.614   3.031   2.910
    1C        C  727   2.588   3.095   3.033
    1C        C  728   2.705   2.920   3.153
    1C        C  729   2.623   3.035   3.155
    1C        C  730   2.747   2.865   3.276
    1C        C  731   2.707   2.925   3.398
    1C        C  732   2.752   2.875   3.522
    1C        C  733   2.492   3.198   2.063
    1C        C  734   2.491   3.278   2.178
    1C        C  735   2.588   3.086   2.297
    1C        C  736   2.526   3.215   2.300
    1C        C  737   2.613   3.021   2.420
    1C        C  738   2.586   3.089   2.541
    1C        C  739   2.689   2.907   2.666
    1C        C  740   2.616   3.028   2.664
    1C        C  741   2.743   2.858   2.788
    1C        C  742   2.694   2.914   2.908
    1C        C  743   2.748   2.867   3.029
    1C        C  744   2.537   3.067   2.073
    1C        C  745   2.681   2.890   2.181
    1C        C  746   2.604   3.008   2.181
    1C        C  747   2.724   2.836   2.305
    1C        C  748   2.683   2.899   2.424
    1C        C  749   2.733   2.848   2.546
    1C        C  750   2.730   2.829   2.065
    1C        C  751   3.668   2.322   1.963
    1C        O  752   3.649   2.198   1.977
    1C        O  753   3.667   2.354   1.827
    1C        C  754   4.608   3.040   1.967
    1C        O  755   4.607   3.063   1.843
    1C        O  756   4.730   2.994   2.017
    1C        C  757   4.464   4.229   1.990
    1C        O  758   4.558   4.276   2.059
    1C        O  759   4.448   4.292   1.866
    1C        C  760   3.581   4.670   1.954
    1C        O  761   3.600   4.787   1.998
    1C        O  762   3.626   4.678   1.822
    1C        C  763   2.889   4.465   1.922
    1C        O  764   2.922   4.404   1.817
    1C        O  765   2.838   4.596   1.914
    1C        C  766   2.326   3.472   1.983
    1C        O  767   2.333   3.485   1.857
    1C        O  768   2.193   3.471   2.027
    1C        C  769   4.695   3.580   5.043
    1C        O  770   4.690   3.541   5.162
    1C        O  771   4.820   3.638   5.022
    1C        C  772   4.253   4.436   5.056
    1C        O  773   4.211   4.427   5.174
    1C        O  774   4.348   4.537   5.036
    1C        C  775   4.153   2.508   5.047
    1C        O  776   4.222   2.415   4.999
    1C        O  777   4.188   2.515   5.183
    1C        C  778   2.879   4.543   5.048
    1C        O  779   2.816   4.644   5.004
    1C        O  780   2.883   4.528   5.187
    1C        C  781   2.454   3.046   5.062
    1C        O  782   2.362   2.968   5.025
    1C        O  783   2.450   3.078   5.197
    1C        C  784   2.393   3.997   5.016
    1C        O  785   2.303   4.057   4.952
    1C        O  786   2.363   3.967   5.150
    1C        C  787   2.955   2.414   1.998
    1C        O  788   2.891   2.455   1.897
    1C        O  789   2.904   2.294   2.047
    1C        C  790   3.166   2.370   5.061
    1C        O  791   3.101   2.267   5.028
    1C        O  792   3.201   2.383   5.196
    1C        H  793   4.326   2.980   5.069
    1C        H  794   4.191   2.791   5.067
    1C        H  795   4.499   3.123   5.057
    1C        H  796   4.483   3.377   5.056
    1C        H  797   4.529   3.800   5.050
    1C        H  798   4.371   3.944   5.045
    1C        H  799   4.354   4.187   5.037
    1C        H  800   4.046   4.554   5.008
    1C        H  801   3.785   4.501   5.029
    1C        H  802   3.583   4.632   5.035
    1C        H  803   3.386   4.450   5.017
    1C        H  804   3.150   4.502   5.052
    1C        H  805   3.884   2.480   5.061
    1C        H  806   3.668   2.434   5.068
    1C        H  807   2.986   2.547   5.056
    1C        H  808   3.443   2.427   5.064
    1C        H  809   2.848   2.722   5.075
    1C        H  810   2.680   2.877   5.073
    1C        H  811   2.501   3.289   5.066
    1C        H  812   2.566   3.499   5.065
    1C        H  813   2.487   3.740   5.057
    1C        H  814   2.576   4.183   5.027
    1C        H  815   2.737   4.329   5.045
    1C        H  816   2.684   2.855   1.972
    1C        H  817   2.820   2.655   1.980
    1C        H  818   3.210   2.501   1.982
    1C        H  819   3.428   2.410   1.973
    1C        H  820   3.828   2.562   1.976
    1C        H  821   4.053   2.635   1.966
    1C        H  822   4.272   2.688   1.985
    1C        H  823   4.389   2.907   1.962
    1C        H  824   4.631   3.299   2.002
    1C        H  825   4.516   3.519   1.957
    1C        H  826   4.540   3.746   1.960
    1C        H  827   3.792   4.496   1.942
    1C        H  828   3.958   4.380   1.945
    1C        H  829   4.150   4.234   1.950
    1C        H  830   4.524   3.981   1.977
    1C        H  831   2.656   3.829   1.968
    1C        H  832   2.735   4.045   1.968
    1C        H  833   2.704   4.320   1.969
    1C        H  834   3.378   4.445   1.952
    1C        H  835   3.144   4.400   1.949
    1C        H  836   2.550   3.010   1.983
    1C        H  837   2.461   3.234   1.967
    1C        H  838   2.462   3.685   1.971
    2V3OU   H29  839   2.785   3.545   0.829
    2V3OU   C27  840   2.776   3.501   0.932
    2V3OU   H27  841   2.728   3.571   1.005
    2V3OU   H28  842   2.719   3.405   0.923
    2V3OU   O11  843   2.906   3.469   0.983
    2V3OU   C15  844   2.917   3.394   1.099
    2V3OU   C13  845   3.047   3.377   1.151
    2V3OU   C14  846   3.075   3.268   1.234
    2V3OU   C16  847   2.973   3.181   1.269
    2V3OU    H6  848   2.990   3.096   1.337
    2V3OU   C12  849   3.212   3.225   1.268
    2V3OU    O2  850   3.240   3.116   1.322
    2V3OU   C10  851   3.326   3.305   1.218
    2V3OU    C8  852   3.458   3.268   1.240
    2V3OU   O10  853   3.487   3.150   1.299
    2V3OU   H26  854   3.398   3.117   1.321
    2V3OU    C6  855   3.563   3.348   1.185
    2V3OU    C5  856   3.535   3.463   1.111
    2V3OU    C4  857   3.700   3.289   1.183
    2V3OU    H4  858   3.726   3.225   1.272
    2V3OU    H5  859   3.705   3.225   1.090
    2V3OU    C2  860   3.812   3.394   1.179
    2V3OU    O6  861   3.805   3.469   1.301
    2V3OU   H21  862   3.763   3.551   1.270
    2V3OU    C3  863   3.780   3.492   1.066
    2V3OU    H2  864   3.864   3.565   1.056
    2V3OU    H3  865   3.779   3.437   0.969
    2V3OU   C25  866   3.945   3.319   1.171
    2V3OU    O7  867   3.998   3.288   1.064
    2V3OU   C26  868   4.024   3.284   1.296
    2V3OU   H22  869   4.058   3.379   1.344
    2V3OU   H23  870   4.107   3.213   1.271
    2V3OU    O8  871   3.952   3.207   1.389
    2V3OU   H24  872   3.922   3.263   1.463
    2V3OU    C1  873   3.645   3.560   1.081
    2V3OU    H1  874   3.620   3.614   0.985
    2V3OU    O3  875   3.654   3.650   1.192
    2V3OU   C19  876   3.614   3.787   1.188
    2V3OU    H9  877   3.518   3.796   1.129
    2V3OU    O4  878   3.716   3.846   1.112
    2V3OU   C20  879   3.846   3.872   1.165
    2V3OU   H10  880   3.890   3.769   1.179
    2V3OU   C24  881   3.603   3.853   1.326
    2V3OU   H16  882   3.536   3.792   1.391
    2V3OU   H17  883   3.562   3.956   1.313
    2V3OU   C23  884   3.739   3.870   1.394
    2V3OU   H15  885   3.785   3.766   1.409
    2V3OU    N1  886   3.722   3.952   1.512
    2V3OU   H19  887   3.801   3.926   1.567
    2V3OU   H20  888   3.642   3.922   1.564
    2V3OU   C21  889   3.843   3.941   1.302
    2V3OU   H11  890   3.943   3.909   1.342
    2V3OU    O5  891   3.823   4.082   1.313
    2V3OU   H18  892   3.778   4.101   1.396
    2V3OU   C22  893   3.914   3.947   1.051
    2V3OU   H12  894   3.860   4.044   1.038
    2V3OU   H13  895   3.909   3.885   0.958
    2V3OU   H14  896   4.020   3.967   1.078
    2V3OU   C11  897   3.159   3.468   1.119
    2V3OU    O1  898   3.132   3.588   1.100
    2V3OU    C9  899   3.297   3.425   1.149
    2V3OU    C7  900   3.398   3.499   1.088
    2V3OU    O9  901   3.380   3.607   1.004
    2V3OU   H25  902   3.286   3.620   0.984
    2V3OU   C17  903   2.818   3.308   1.148
    2V3OU    H7  904   2.712   3.331   1.138
    2V3OU   C18  905   2.840   3.201   1.234
    2V3OU    H8  906   2.758   3.152   1.288
    3SOL     OW  907   0.671   4.381   0.795
    3SOL    HW1  908   0.685   4.344   0.703
    3SOL    HW2  909   0.713   4.320   0.862
    4SOL     OW  910   5.883   1.084   2.118
    4SOL    HW1  911   5.946   1.009   2.102
    4SOL    HW2  912   5.794   1.062   2.078
    5SOL     OW  913   3.689   2.964   1.165
    5SOL    HW1  914   3.736   3.021   1.232
    5SOL    HW2  915   3.591   2.962   1.186
    6SOL     OW  916   2.729   2.329   0.337
    6SOL    HW1  917   2.732   2.248   0.396
    6SOL    HW2  918   2.634   2.349   0.313
    7SOL     OW  919   6.145   1.274   1.733
    7SOL    HW1  920   6.061   1.326   1.717
    7SOL    HW2  921   6.138   1.185   1.688
    8SOL     OW  922   3.214   1.979   3.462
    8SOL    HW1  923   3.225   1.892   3.510
    8SOL    HW2  924   3.186   2.050   3.527
    9SOL     OW  925   6.677   4.284   5.922
    9SOL    HW1  926   6.587   4.243   5.909
    9SOL    HW2  927   6.677   4.377   5.886
   10SOL     OW  928   0.122   4.576   0.869
   10SOL    HW1  929   0.222   4.573   0.862
   10SOL    HW2  930   0.084   4.485   0.853
   11SOL     OW  931   4.109   6.875   6.718
   11SOL    HW1  932   4.187   6.842   6.771
   11SOL    HW2  933   4.026   6.826   6.746
   12SOL     OW  934   5.229   6.629   2.652
   12SOL    HW1  935   5.195   6.723   2.650
   12SOL    HW2  936   5.325   6.627   2.623
   13SOL     OW  937   1.859   0.391   2.803
   13SOL    HW1  938   1.936   0.328   2.812
   13SOL    HW2  939   1.792   0.353   2.740
   14SOL     OW  940   2.763   6.799   2.990
   14SOL    HW1  941   2.671   6.837   2.985
   14SOL    HW2  942   2.819   6.836   2.915
   15SOL     OW  943   2.430   6.467   6.383
   15SOL    HW1  944   2.389   6.551   6.418
   15SOL    HW2  945   2.527   6.483   6.362
   16SOL     OW  946   6.437   2.033   6.916
   16SOL    HW1  947   6.393   1.988   6.993
   16SOL    HW2  948   6.461   1.965   6.846
   17SOL     OW  949   4.022   6.154   2.726
   17SOL    HW1  950   3.981   6.075   2.772
   17SOL    HW2  951   3.958   6.231   2.728
   18SOL     OW  952   1.323   1.068   6.753
   18SOL    HW1  953   1.274   1.092   6.836
   18SOL    HW2  954   1.350   0.972   6.757
   19SOL     OW  955   1.119   6.780   0.977
   19SOL    HW1  956   1.198   6.721   0.962
   19SOL    HW2  957   1.124   6.820   1.069
   20SOL     OW  958   3.378   0.672   4.134
   20SOL    HW1  959   3.439   0.694   4.209
   20SOL    HW2  960   3.407   0.721   4.052
   21SOL     OW  961   2.936   3.070   1.874
   21SOL    HW1  962   2.921   2.973   1.855
   21SOL    HW2  963   2.857   3.123   1.843
   22SOL     OW  964   0.769   1.264   5.673
   22SOL    HW1  965   0.706   1.188   5.662
   22SOL    HW2  966   0.755   1.308   5.762
   23SOL     OW  967   3.222   6.241   4.846
   23SOL    HW1  968   3.280   6.245   4.927
   23SOL    HW2  969   3.278   6.227   4.765
   24SOL     OW  970   4.084   1.444   5.031
   24SOL    HW1  971   4.074   1.526   4.975
   24SOL    HW2  972   4.004   1.385   5.019
   25SOL     OW  973   2.317   5.449   0.837
   25SOL    HW1  974   2.287   5.354   0.839
   25SOL    HW2  975   2.391   5.459   0.770
   26SOL     OW  976   5.651   1.073   2.919
   26SOL    HW1  977   5.637   1.167   2.889
   26SOL    HW2  978   5.566   1.038   2.958
   27SOL     OW  979   6.290   0.309   2.660
   27SOL    HW1  980   6.214   0.252   2.693
   27SOL    HW2  981   6.306   0.384   2.724
   28SOL     OW  982   2.732   0.683   0.215
   28SOL    HW1  983   2.754   0.666   0.311
   28SOL    HW2  984   2.633   0.693   0.204
   29SOL     OW  985   4.445   2.999   1.639
   29SOL    HW1  986   4.498   3.045   1.710
   29SOL    HW2  987   4.496   2.920   1.605
   30SOL     OW  988   4.088   0.982   5.402
   30SOL    HW1  989   4.056   1.073   5.375
   30SOL    HW2  990   4.172   0.991   5.456
   31SOL     OW  991   0.864   1.312   5.428
   31SOL    HW1  992   0.851   1.405   5.393
   31SOL    HW2  993   0.845   1.310   5.526
   32SOL     OW  994   6.953   2.237   2.300
   32SOL    HW1  995   6.860   2.217   2.268
   32SOL    HW2  996   7.004   2.284   2.228
   33SOL     OW  997   1.557   1.542   5.524
   33SOL    HW1  998   1.605   1.454   5.523
   33SOL    HW2  999   1.515   1.556   5.614
   34SOL     OW 1000   0.544   1.120   5.141
   34SOL    HW1 1001   0.594   1.120   5.228
   34SOL    HW2 1002   0.606   1.091   5.068
   35SOL     OW 1003   4.314   2.021   6.394
   35SOL    HW1 1004   4.224   2.016   6.438
   35SOL    HW2 1005   4.383   1.983   6.455
   36SOL     OW 1006   1.375   1.840   5.870
   36SOL    HW1 1007   1.373   1.906   5.795
   36SOL    HW2 1008   1.294   1.853   5.927
   37SOL     OW 1009   2.616   6.629   1.394
   37SOL    HW1 1010   2.628   6.677   1.481
   37SOL    HW2 1011   2.684   6.662   1.328
   38SOL     OW 1012   0.092   5.962   2.069
   38SOL    HW1 1013   0.033   5.944   2.148
   38SOL    HW2 1014   0.186   5.938   2.092
   39SOL     OW 1015   6.860   2.890   6.313
   39SOL    HW1 1016   6.894   2.982   6.330
   39SOL    HW2 1017   6.761   2.893   6.301
   40SOL     OW 1018   0.003   1.343   1.419
   40SOL    HW1 1019   0.041   1.333   1.327
   40SOL    HW2 1020   6.919   1.340   1.415
   41SOL     OW 1021   1.504   0.990   5.956
   41SOL    HW1 1022   1.504   1.087   5.932
   41SOL    HW2 1023   1.416   0.967   5.998
   42SOL     OW 1024   3.744   0.198   0.582
   42SOL    HW1 1025   3.673   0.268   0.570
   42SOL    HW2 1026   3.784   0.175   0.494
   43SOL     OW 1027   4.499   5.484   5.457
   43SOL    HW1 1028   4.595   5.463   5.478
   43SOL    HW2 1029   4.460   5.410   5.403
   44SOL     OW 1030   0.916   3.987   6.833
   44SOL    HW1 1031   0.816   3.988   6.838
   44SOL    HW2 1032   0.954   4.014   6.921
   45SOL     OW 1033   2.195   0.288   1.318
   45SOL    HW1 1034   2.247   0.204   1.328
   45SOL    HW2 1035   2.257   0.367   1.316
   46SOL     OW 1036   1.113   5.363   4.306
   46SOL    HW1 1037   1.155   5.379   4.396
   46SOL    HW2 1038   1.168   5.408   4.236
   47SOL     OW 1039   5.732   4.431   2.788
   47SOL    HW1 1040   5.654   4.422   2.726
   47SOL    HW2 1041   5.761   4.340   2.818
   48SOL     OW 1042   0.573   1.096   5.618
   48SOL    HW1 1043   0.492   1.152   5.603
   48SOL    HW2 1044   0.545   1.003   5.644
   49SOL     OW 1045   5.627   3.520   0.372
   49SOL    HW1 1046   5.532   3.536   0.346
   49SOL    HW2 1047   5.680   3.496   0.291
   50SOL     OW 1048   0.375   3.770   4.929
   50SOL    HW1 1049   0.437   3.838   4.891
   50SOL    HW2 1050   0.303   3.749   4.863
   51SOL     OW 1051   3.731   5.374   1.950
   51SOL    HW1 1052   3.805   5.344   1.890
   51SOL    HW2 1053   3.645   5.334   1.918
   52SOL     OW 1054   0.974   2.383   2.119
   52SOL    HW1 1055   0.945   2.342   2.033
   52SOL    HW2 1056   0.894   2.406   2.174
   53SOL     OW 1057   5.062   6.220   4.206
   53SOL    HW1 1058   5.130   6.195   4.275
   53SOL    HW2 1059   5.099   6.203   4.115
   54SOL     OW 1060   5.232   4.656   5.403
   54SOL    HW1 1061   5.192   4.617   5.486
   54SOL    HW2 1062   5.322   4.695   5.425
   55SOL     OW 1063   3.704   1.865   0.899
   55SOL    HW1 1064   3.746   1.790   0.849
   55SOL    HW2 1065   3.617   1.836   0.938
   56SOL     OW 1066   0.678   0.056   1.686
   56SOL    HW1 1067   0.582   0.064   1.710
   56SOL    HW2 1068   0.728   0.010   1.759
   57SOL     OW 1069   5.791   0.999   1.403
   57SOL    HW1 1070   5.808   1.098   1.399
   57SOL    HW2 1071   5.703   0.979   1.361
   58SOL     OW 1072   6.631   0.202   6.902
   58SOL    HW1 1073   6.588   0.291   6.888
   58SOL    HW2 1074   6.723   0.202   6.864
   59SOL     OW 1075   0.538   0.251   5.066
   59SOL    HW1 1076   0.485   0.318   5.016
   59SOL    HW2 1077   0.566   0.177   5.005
   60SOL     OW 1078   5.126   6.791   4.946
   60SOL    HW1 1079   5.166   6.811   5.036
   60SOL    HW2 1080   5.180   6.836   4.876
   61SOL     OW 1081   4.063   0.050   5.370
   61SOL    HW1 1082   3.964   0.061   5.359
   61SOL    HW2 1083   4.111   0.118   5.315
   62SOL     OW 1084   2.914   0.843   5.253
   62SOL    HW1 1085   2.955   0.760   5.291
   62SOL    HW2 1086   2.986   0.908   5.230
   63SOL     OW 1087   6.811   3.309   3.727
   63SOL    HW1 1088   6.863   3.225   3.739
   63SOL    HW2 1089   6.790   3.322   3.630
   64SOL     OW 1090   0.095   2.384   5.324
   64SOL    HW1 1091   0.108   2.295   5.369
   64SOL    HW2 1092   0.121   2.376   5.228
   65SOL     OW 1093   0.832   3.756   5.918
   65SOL    HW1 1094   0.819   3.670   5.967
   65SOL    HW2 1095   0.884   3.739   5.834
   66SOL     OW 1096   2.427   0.895   0.904
   66SOL    HW1 1097   2.424   0.838   0.986
   66SOL    HW2 1098   2.362   0.859   0.836
   67SOL     OW 1099   4.707   5.359   4.199
   67SOL    HW1 1100   4.765   5.359   4.281
   67SOL    HW2 1101   4.736   5.433   4.138
   68SOL     OW 1102   5.450   2.572   6.972
   68SOL    HW1 1103   5.368   2.610   6.929
   68SOL    HW2 1104   5.495   2.510   6.909
   69SOL     OW 1105   2.508   2.501   6.036
   69SOL    HW1 1106   2.439   2.560   6.078
   69SOL    HW2 1107   2.462   2.430   5.982
   70SOL     OW 1108   6.202   6.648   2.478
   70SOL    HW1 1109   6.120   6.608   2.519
   70SOL    HW2 1110   6.184   6.743   2.453
   71SOL     OW 1111   1.864   4.467   2.324
   71SOL    HW1 1112   1.914   4.507   2.246
   71SOL    HW2 1113   1.838   4.373   2.302
   72SOL     OW 1114   3.379   5.292   3.447
   72SOL    HW1 1115   3.424   5.381   3.457
   72SOL    HW2 1116   3.439   5.220   3.481
   73SOL     OW 1117   3.677   2.654   6.592
   73SOL    HW1 1118   3.643   2.591   6.522
   73SOL    HW2 1119   3.673   2.748   6.556
   74SOL     OW 1120   4.911   0.032   6.304
   74SOL    HW1 1121   4.960   6.962   6.323
   74SOL    HW2 1122   4.951   0.106   6.358
   75SOL     OW 1123   3.269   5.003   5.338
   75SOL    HW1 1124   3.332   4.981   5.264
   75SOL    HW2 1125   3.265   5.102   5.350
   76SOL     OW 1126   2.565   3.050   1.106
   76SOL    HW1 1127   2.526   3.142   1.113
   76SOL    HW2 1128   2.505   2.985   1.152
   77SOL     OW 1129   5.444   4.373   6.436
   77SOL    HW1 1130   5.375   4.302   6.426
   77SOL    HW2 1131   5.405   4.462   6.412
   78SOL     OW 1132   6.038   6.648   6.115
   78SOL    HW1 1133   6.060   6.730   6.062
   78SOL    HW2 1134   5.939   6.633   6.114
   79SOL     OW 1135   3.357   6.892   0.482
   79SOL    HW1 1136   3.396   6.837   0.408
   79SOL    HW2 1137   3.344   6.986   0.450
   80SOL     OW 1138   0.287   0.944   4.709
   80SOL    HW1 1139   0.201   0.953   4.659
   80SOL    HW2 1140   0.344   1.024   4.692
   81SOL     OW 1141   1.828   0.297   3.392
   81SOL    HW1 1142   1.784   0.284   3.481
   81SOL    HW2 1143   1.815   0.215   3.336
   82SOL     OW 1144   6.599   4.536   5.868
   82SOL    HW1 1145   6.648   4.600   5.926
   82SOL    HW2 1146   6.514   4.578   5.835
   83SOL     OW 1147   6.385   6.643   5.851
   83SOL    HW1 1148   6.477   6.611   5.873
   83SOL    HW2 1149   6.321   6.566   5.850
   84SOL     OW 1150   6.414   3.778   1.633
   84SOL    HW1 1151   6.416   3.703   1.699
   84SOL    HW2 1152   6.362   3.750   1.552
   85SOL     OW 1153   0.711   0.681   5.161
   85SOL    HW1 1154   0.645   0.748   5.127
   85SOL    HW2 1155   0.763   0.644   5.084
   86SOL     OW 1156   2.248   0.905   4.635
   86SOL    HW1 1157   2.278   0.845   4.561
   86SOL    HW2 1158   2.320   0.970   4.657
   87SOL     OW 1159   4.597   0.135   1.993
   87SOL    HW1 1160   4.653   0.088   1.925
   87SOL    HW2 1161   4.507   0.153   1.954
   88SOL     OW 1162   6.169   1.056   1.571
   88SOL    HW1 1163   6.200   1.068   1.477
   88SOL    HW2 1164   6.088   0.996   1.572
   89SOL     OW 1165   2.043   1.564   5.382
   89SOL    HW1 1166   2.040   1.601   5.289
   89SOL    HW2 1167   1.967   1.601   5.435
   90SOL     OW 1168   6.670   5.702   3.667
   90SOL    HW1 1169   6.720   5.765   3.607
   90SOL    HW2 1170   6.591   5.748   3.706
   91SOL     OW 1171   4.454   4.773   4.674
   91SOL    HW1 1172   4.370   4.793   4.725
   91SOL    HW2 1173   4.500   4.859   4.652
   92SOL     OW 1174   2.914   5.811   1.329
   92SOL    HW1 1175   2.844   5.837   1.395
   92SOL    HW2 1176   2.987   5.762   1.376
   93SOL     OW 1177   3.137   4.672   5.863
   93SOL    HW1 1178   3.061   4.691   5.801
   93SOL    HW2 1179   3.220   4.715   5.827
   94SOL     OW 1180   2.207   6.735   1.907
   94SOL    HW1 1181   2.134   6.753   1.973
   94SOL    HW2 1182   2.293   6.720   1.956
   95SOL     OW 1183   6.636   0.162   5.137
   95SOL    HW1 1184   6.640   0.172   5.237
   95SOL    HW2 1185   6.656   0.067   5.113
   96SOL     OW 1186   1.964   0.031   4.927
   96SOL    HW1 1187   1.981   0.048   4.830
   96SOL    HW2 1188   1.868   0.006   4.941
   97SOL     OW 1189   6.176   3.142   4.614
   97SOL    HW1 1190   6.183   3.172   4.709
   97SOL    HW2 1191   6.106   3.072   4.606
   98SOL     OW 1192   5.521   1.409   6.019
   98SOL    HW1 1193   5.446   1.453   5.970
   98SOL    HW2 1194   5.562   1.339   5.961
   99SOL     OW 1195   5.024   1.868   0.980
   99SOL    HW1 1196   4.997   1.796   1.043
   99SOL    HW2 1197   4.973   1.952   1.001
  100SOL     OW 1198   6.214   5.341   6.618
  100SOL    HW1 1199   6.130   5.392   6.600
  100SOL    HW2 1200   6.281   5.401   6.661
  101SOL     OW 1201   0.989   6.691   4.511
  101SOL    HW1 1202   1.085   6.687   4.481
  101SOL    HW2 1203   0.947   6.601   4.501
  102SOL     OW 1204   3.991   0.242   3.262
  102SOL    HW1 1205   3.905   0.287   3.286
  102SOL    HW2 1206   4.052   0.244   3.341
  103SOL     OW 1207   3.443   1.854   1.644
  103SOL    HW1 1208   3.499   1.778   1.610
  103SOL    HW2 1209   3.503   1.924   1.684
  104SOL     OW 1210   0.358   6.486   2.176
  104SOL    HW1 1211   0.282   6.420   2.173
  104SOL    HW2 1212   0.410   6.481   2.091
  105SOL     OW 1213   5.335   0.858   6.021
  105SOL    HW1 1214   5.389   0.918   5.962
  105SOL    HW2 1215   5.240   0.889   6.022
  106SOL     OW 1216   3.280   6.656   1.280
  106SOL    HW1 1217   3.363   6.706   1.305
  106SOL    HW2 1218   3.305   6.576   1.226
  107SOL     OW 1219   2.495   3.082   0.728
  107SOL    HW1 1220   2.561   3.140   0.680
  107SOL    HW2 1221   2.543   3.022   0.791
  108SOL     OW 1222   4.806   3.989   4.912
  108SOL    HW1 1223   4.850   3.937   4.985
  108SOL    HW2 1224   4.740   4.052   4.951
  109SOL     OW 1225   5.930   0.892   1.596
  109SOL    HW1 1226   5.904   0.961   1.664
  109SOL    HW2 1227   5.894   0.917   1.506
  110SOL     OW 1228   3.377   6.258   4.553
  110SOL    HW1 1229   3.382   6.162   4.579
  110SOL    HW2 1230   3.342   6.266   4.460
  111SOL     OW 1231   3.232   1.334   3.343
  111SOL    HW1 1232   3.146   1.291   3.314
  111SOL    HW2 1233   3.247   1.315   3.440
  112SOL     OW 1234   6.737   1.332   6.668
  112SOL    HW1 1235   6.654   1.378   6.699
  112SOL    HW2 1236   6.752   1.351   6.571
  113SOL     OW 1237   6.813   6.404   3.381
  113SOL    HW1 1238   6.811   6.478   3.314
  113SOL    HW2 1239   6.813   6.442   3.473
  114SOL     OW 1240   1.141   6.324   0.362
  114SOL    HW1 1241   1.188   6.389   0.420
  114SOL    HW2 1242   1.198   6.301   0.283
  115SOL     OW 1243   5.181   0.364   5.404
  115SOL    HW1 1244   5.258   0.417   5.439
  115SOL    HW2 1245   5.159   0.395   5.311
  116SOL     OW 1246   6.312   4.133   2.886
  116SOL    HW1 1247   6.218   4.100   2.887
  116SOL    HW2 1248   6.353   4.122   2.977
  117SOL     OW 1249   1.094   6.648   6.660
  117SOL    HW1 1250   1.170   6.646   6.596
  117SOL    HW2 1251   1.123   6.691   6.746
  118SOL     OW 1252   2.341   1.154   3.019
  118SOL    HW1 1253   2.413   1.088   2.999
  118SOL    HW2 1254   2.346   1.180   3.116
  119SOL     OW 1255   6.615   2.615   6.340
  119SOL    HW1 1256   6.681   2.687   6.318
  119SOL    HW2 1257   6.650   2.527   6.309
  120SOL     OW 1258   5.211   6.526   1.519
  120SOL    HW1 1259   5.147   6.603   1.516
  120SOL    HW2 1260   5.299   6.555   1.482
  121SOL     OW 1261   2.792   2.947   5.736
  121SOL    HW1 1262   2.831   2.858   5.712
  121SOL    HW2 1263   2.693   2.939   5.745
  122SOL     OW 1264   0.955   3.558   4.691
  122SOL    HW1 1265   0.943   3.582   4.595
  122SOL    HW2 1266   1.052   3.559   4.715
  123SOL     OW 1267   0.083   2.270   2.074
  123SOL    HW1 1268   0.081   2.298   1.978
  123SOL    HW2 1269   0.173   2.231   2.095
  124SOL     OW 1270   4.776   3.843   1.209
  124SOL    HW1 1271   4.837   3.788   1.266
  124SOL    HW2 1272   4.800   3.940   1.219
  125SOL     OW 1273   2.290   3.626   1.633
  125SOL    HW1 1274   2.256   3.718   1.651
  125SOL    HW2 1275   2.273   3.568   1.714
  126SOL     OW 1276   4.166   4.220   0.719
  126SOL    HW1 1277   4.232   4.224   0.644
  126SOL    HW2 1278   4.080   4.263   0.691
  127SOL     OW 1279   0.793   5.401   5.679
  127SOL    HW1 1280   0.844   5.487   5.684
  127SOL    HW2 1281   0.772   5.370   5.772
  128SOL     OW 1282   4.520   2.632   0.519
  128SOL    HW1 1283   4.542   2.692   0.442
  128SOL    HW2 1284   4.506   2.539   0.485
  129SOL     OW 1285   2.764   3.803   0.258
  129SOL    HW1 1286   2.855   3.798   0.299
  129SOL    HW2 1287   2.772   3.837   0.165
  130SOL     OW 1288   2.006   2.530   4.882
  130SOL    HW1 1289   2.053   2.507   4.797
  130SOL    HW2 1290   2.008   2.630   4.895
  131SOL     OW 1291   5.778   1.550   2.028
  131SOL    HW1 1292   5.757   1.572   1.933
  131SOL    HW2 1293   5.712   1.484   2.063
  132SOL     OW 1294   0.608   2.276   2.474
  132SOL    HW1 1295   0.680   2.336   2.440
  132SOL    HW2 1296   0.648   2.198   2.522
  133SOL     OW 1297   6.466   5.680   2.808
  133SOL    HW1 1298   6.423   5.728   2.732
  133SOL    HW2 1299   6.463   5.737   2.890
  134SOL     OW 1300   1.444   3.114   2.500
  134SOL    HW1 1301   1.442   3.098   2.599
  134SOL    HW2 1302   1.427   3.211   2.482
  135SOL     OW 1303   4.410   1.344   4.317
  135SOL    HW1 1304   4.443   1.431   4.355
  135SOL    HW2 1305   4.321   1.359   4.274
  136SOL     OW 1306   4.750   4.667   5.585
  136SOL    HW1 1307   4.788   4.586   5.630
  136SOL    HW2 1308   4.663   4.643   5.542
  137SOL     OW 1309   3.473   0.543   5.672
  137SOL    HW1 1310   3.573   0.540   5.675
  137SOL    HW2 1311   3.443   0.557   5.578
  138SOL     OW 1312   5.951   4.537   5.831
  138SOL    HW1 1313   5.876   4.472   5.819
  138SOL    HW2 1314   6.038   4.488   5.832
  139SOL     OW 1315   3.339   5.797   5.529
  139SOL    HW1 1316   3.380   5.786   5.439
  139SOL    HW2 1317   3.409   5.784   5.600
  140SOL     OW 1318   0.054   4.301   4.671
  140SOL    HW1 1319   6.987   4.271   4.718
  140SOL    HW2 1320   0.134   4.263   4.717
  141SOL     OW 1321   1.270   1.697   2.277
  141SOL    HW1 1322   1.185   1.690   2.329
  141SOL    HW2 1323   1.250   1.712   2.180
  142SOL     OW 1324   1.713   4.889   1.307
  142SOL    HW1 1325   1.771   4.966   1.280
  142SOL    HW2 1326   1.709   4.884   1.407
  143SOL     OW 1327   5.194   4.097   2.214
  143SOL    HW1 1328   5.139   4.031   2.163
  143SOL    HW2 1329   5.135   4.146   2.279
  144SOL     OW 1330   2.755   6.378   1.127
  144SOL    HW1 1331   2.662   6.344   1.117
  144SOL    HW2 1332   2.753   6.476   1.147
  145SOL     OW 1333   6.621   5.274   0.712
  145SOL    HW1 1334   6.667   5.260   0.799
  145SOL    HW2 1335   6.644   5.199   0.650
  146SOL     OW 1336   6.848   4.518   0.636
  146SOL    HW1 1337   6.768   4.465   0.606
  146SOL    HW2 1338   6.918   4.456   0.671
  147SOL     OW 1339   6.079   2.686   0.844
  147SOL    HW1 1340   6.027   2.706   0.926
  147SOL    HW2 1341   6.026   2.711   0.763
  148SOL     OW 1342   0.999   5.413   5.111
  148SOL    HW1 1343   1.051   5.329   5.099
  148SOL    HW2 1344   0.914   5.408   5.058
  149SOL     OW 1345   3.178   1.095   6.248
  149SOL    HW1 1346   3.204   1.188   6.222
  149SOL    HW2 1347   3.255   1.033   6.231
  150SOL     OW 1348   6.996   5.905   5.019
  150SOL    HW1 1349   6.906   5.922   4.980
  150SOL    HW2 1350   6.987   5.860   5.108
  151SOL     OW 1351   4.334   0.736   1.884
  151SOL    HW1 1352   4.317   0.783   1.970
  151SOL    HW2 1353   4.323   0.801   1.808
  152SOL     OW 1354   2.829   0.940   4.853
  152SOL    HW1 1355   2.858   0.971   4.762
  152SOL    HW2 1356   2.890   0.866   4.884
  153SOL     OW 1357   1.164   0.618   2.703
  153SOL    HW1 1358   1.086   0.651   2.756
  153SOL    HW2 1359   1.139   0.532   2.657
  154SOL     OW 1360   6.892   1.698   2.980
  154SOL    HW1 1361   6.868   1.794   2.973
  154SOL    HW2 1362   6.811   1.641   2.965
  155SOL     OW 1363   0.500   1.063   2.981
  155SOL    HW1 1364   0.485   0.979   3.033
  155SOL    HW2 1365   0.461   1.141   3.031
  156SOL     OW 1366   0.315   2.405   1.437
  156SOL    HW1 1367   0.360   2.468   1.373
  156SOL    HW2 1368   0.385   2.359   1.492
  157SOL     OW 1369   6.196   2.746   2.591
  157SOL    HW1 1370   6.160   2.839   2.590
  157SOL    HW2 1371   6.296   2.749   2.597
  158SOL     OW 1372   1.999   2.078   4.170
  158SOL    HW1 1373   1.979   2.040   4.080
  158SOL    HW2 1374   1.942   2.034   4.239
  159SOL     OW 1375   4.921   3.156   2.118
  159SOL    HW1 1376   4.835   3.110   2.094
  159SOL    HW2 1377   4.997   3.109   2.073
  160SOL     OW 1378   6.300   4.292   6.089
  160SOL    HW1 1379   6.360   4.235   6.032
  160SOL    HW2 1380   6.329   4.286   6.184
  161SOL     OW 1381   3.074   4.682   5.296
  161SOL    HW1 1382   2.996   4.630   5.262
  161SOL    HW2 1383   3.100   4.752   5.228
  162SOL     OW 1384   4.684   5.964   2.445
  162SOL    HW1 1385   4.769   5.984   2.395
  162SOL    HW2 1386   4.688   5.870   2.481
  163SOL     OW 1387   5.945   0.681   1.886
  163SOL    HW1 1388   5.857   0.666   1.931
  163SOL    HW2 1389   5.935   0.668   1.787
  164SOL     OW 1390   6.407   2.955   0.992
  164SOL    HW1 1391   6.493   2.977   1.037
  164SOL    HW2 1392   6.388   2.857   1.002
  165SOL     OW 1393   6.389   3.645   6.946
  165SOL    HW1 1394   6.372   3.668   6.850
  165SOL    HW2 1395   6.303   3.618   6.989
  166SOL     OW 1396   1.446   0.555   0.961
  166SOL    HW1 1397   1.530   0.532   1.011
  166SOL    HW2 1398   1.440   0.654   0.950
  167SOL     OW 1399   6.407   2.409   1.226
  167SOL    HW1 1400   6.343   2.485   1.214
  167SOL    HW2 1401   6.439   2.408   1.320
  168SOL     OW 1402   2.568   5.435   1.559
  168SOL    HW1 1403   2.495   5.501   1.571
  168SOL    HW2 1404   2.566   5.369   1.633
  169SOL     OW 1405   1.109   6.911   1.239
  169SOL    HW1 1406   1.028   6.967   1.256
  169SOL    HW2 1407   1.112   6.837   1.306
  170SOL     OW 1408   0.389   1.295   3.074
  170SOL    HW1 1409   0.357   1.264   3.163
  170SOL    HW2 1410   0.451   1.373   3.086
  171SOL     OW 1411   3.786   3.903   0.382
  171SOL    HW1 1412   3.802   3.806   0.367
  171SOL    HW2 1413   3.697   3.929   0.345
  172SOL     OW 1414   0.155   2.929   1.559
  172SOL    HW1 1415   0.179   2.960   1.467
  172SOL    HW2 1416   0.077   2.981   1.593
  173SOL     OW 1417   0.387   6.767   5.792
  173SOL    HW1 1418   0.292   6.751   5.765
  173SOL    HW2 1419   0.389   6.800   5.887
  174SOL     OW 1420   2.542   5.828   3.913
  174SOL    HW1 1421   2.586   5.781   3.837
  174SOL    HW2 1422   2.505   5.761   3.977
  175SOL     OW 1423   0.670   5.045   3.349
  175SOL    HW1 1424   0.720   5.074   3.430
  175SOL    HW2 1425   0.593   5.107   3.334
  176SOL     OW 1426   2.645   5.012   6.924
  176SOL    HW1 1427   2.719   4.967   6.973
  176SOL    HW2 1428   2.658   5.111   6.925
  177SOL     OW 1429   4.504   1.963   2.940
  177SOL    HW1 1430   4.407   1.948   2.925
  177SOL    HW2 1431   4.524   1.960   3.038
  178SOL     OW 1432   5.377   3.975   5.811
  178SOL    HW1 1433   5.392   3.876   5.816
  178SOL    HW2 1434   5.372   4.003   5.715
  179SOL     OW 1435   3.108   6.872   0.597
  179SOL    HW1 1436   3.119   6.865   0.696
  179SOL    HW2 1437   3.193   6.904   0.556
  180SOL     OW 1438   1.058   2.074   6.898
  180SOL    HW1 1439   1.150   2.037   6.910
  180SOL    HW2 1440   1.004   2.011   6.842
  181SOL     OW 1441   2.881   3.722   4.534
  181SOL    HW1 1442   2.974   3.748   4.559
  181SOL    HW2 1443   2.823   3.803   4.532
  182SOL     OW 1444   5.050   2.758   4.513
  182SOL    HW1 1445   5.130   2.752   4.573
  182SOL    HW2 1446   5.015   2.666   4.494
  183SOL     OW 1447   6.036   1.794   2.425
  183SOL    HW1 1448   6.111   1.734   2.454
  183SOL    HW2 1449   6.042   1.808   2.326
  184SOL     OW 1450   0.371   4.385   2.742
  184SOL    HW1 1451   0.395   4.331   2.661
  184SOL    HW2 1452   0.272   4.395   2.747
  185SOL     OW 1453   2.582   3.271   6.416
  185SOL    HW1 1454   2.504   3.212   6.397
  185SOL    HW2 1455   2.636   3.283   6.333
  186SOL     OW 1456   5.847   6.231   3.518
  186SOL    HW1 1457   5.893   6.221   3.429
  186SOL    HW2 1458   5.771   6.167   3.524
  187SOL     OW 1459   5.456   6.818   4.062
  187SOL    HW1 1460   5.364   6.787   4.086
  187SOL    HW2 1461   5.495   6.869   4.139
  188SOL     OW 1462   5.842   1.949   4.617
  188SOL    HW1 1463   5.898   1.879   4.573
  188SOL    HW2 1464   5.835   2.029   4.558
  189SOL     OW 1465   1.289   4.505   3.132
  189SOL    HW1 1466   1.237   4.541   3.209
  189SOL    HW2 1467   1.386   4.525   3.144
  190SOL     OW 1468   3.460   0.921   6.459
  190SOL    HW1 1469   3.378   0.970   6.492
  190SOL    HW2 1470   3.525   0.987   6.423
  191SOL     OW 1471   5.214   6.120   6.241
  191SOL    HW1 1472   5.275   6.048   6.274
  191SOL    HW2 1473   5.173   6.091   6.155
  192SOL     OW 1474   6.166   0.770   0.381
  192SOL    HW1 1475   6.153   0.680   0.340
  192SOL    HW2 1476   6.260   0.779   0.414
  193SOL     OW 1477   5.994   4.615   0.131
  193SOL    HW1 1478   6.016   4.690   0.068
  193SOL    HW2 1479   6.010   4.528   0.086
  194SOL     OW 1480   4.234   0.140   4.680
  194SOL    HW1 1481   4.330   0.167   4.681
  194SOL    HW2 1482   4.225   0.045   4.709
  195SOL     OW 1483   6.780   5.027   3.169
  195SOL    HW1 1484   6.741   4.936   3.177
  195SOL    HW2 1485   6.751   5.069   3.083
  196SOL     OW 1486   0.732   1.241   0.660
  196SOL    HW1 1487   0.744   1.203   0.752
  196SOL    HW2 1488   0.641   1.218   0.626
  197SOL     OW 1489   1.755   0.965   0.404
  197SOL    HW1 1490   1.692   0.894   0.372
  197SOL    HW2 1491   1.718   1.055   0.380
  198SOL     OW 1492   2.963   1.141   4.230
  198SOL    HW1 1493   2.884   1.199   4.249
  198SOL    HW2 1494   3.024   1.141   4.310
  199SOL     OW 1495   1.002   1.840   5.099
  199SOL    HW1 1496   1.091   1.812   5.133
  199SOL    HW2 1497   0.966   1.769   5.037
  200SOL     OW 1498   5.927   2.363   6.856
  200SOL    HW1 1499   5.889   2.424   6.925
  200SOL    HW2 1500   6.014   2.326   6.889
  201SOL     OW 1501   6.805   1.369   5.969
  201SOL    HW1 1502   6.735   1.437   5.993
  201SOL    HW2 1503   6.785   1.284   6.017
  202SOL     OW 1504   4.964   0.305   0.139
  202SOL    HW1 1505   4.905   0.288   0.060
  202SOL    HW2 1506   5.042   0.361   0.111
  203SOL     OW 1507   6.396   3.240   6.572
  203SOL    HW1 1508   6.437   3.202   6.655
  203SOL    HW2 1509   6.462   3.300   6.527
  204SOL     OW 1510   6.041   0.603   5.339
  204SOL    HW1 1511   5.986   0.537   5.289
  204SOL    HW2 1512   6.121   0.557   5.377
  205SOL     OW 1513   1.959   4.066   3.037
  205SOL    HW1 1514   1.987   4.160   3.018
  205SOL    HW2 1515   1.872   4.067   3.086
  206SOL     OW 1516   0.626   3.783   0.735
  206SOL    HW1 1517   0.555   3.741   0.791
  206SOL    HW2 1518   0.588   3.806   0.645
  207SOL     OW 1519   6.229   2.997   4.881
  207SOL    HW1 1520   6.243   3.094   4.861
  207SOL    HW2 1521   6.291   2.969   4.954
  208SOL     OW 1522   0.937   2.836   5.018
  208SOL    HW1 1523   0.939   2.872   5.111
  208SOL    HW2 1524   0.938   2.913   4.953
  209SOL     OW 1525   6.768   4.565   2.646
  209SOL    HW1 1526   6.761   4.661   2.618
  209SOL    HW2 1527   6.686   4.539   2.698
  210SOL     OW 1528   4.692   3.524   0.836
  210SOL    HW1 1529   4.625   3.463   0.794
  210SOL    HW2 1530   4.703   3.606   0.779
  211SOL     OW 1531   1.655   1.452   1.728
  211SOL    HW1 1532   1.601   1.478   1.808
  211SOL    HW2 1533   1.707   1.530   1.695
  212SOL     OW 1534   2.172   3.850   1.694
  212SOL    HW1 1535   2.246   3.878   1.755
  212SOL    HW2 1536   2.091   3.907   1.710
  213SOL     OW 1537   1.076   5.401   1.084
  213SOL    HW1 1538   1.150   5.432   1.023
  213SOL    HW2 1539   1.012   5.477   1.099
  214SOL     OW 1540   5.518   6.686   2.297
  214SOL    HW1 1541   5.583   6.692   2.221
  214SOL    HW2 1542   5.443   6.750   2.281
  215SOL     OW 1543   1.865   5.071   2.737
  215SOL    HW1 1544   1.805   5.150   2.732
  215SOL    HW2 1545   1.904   5.052   2.647
  216SOL     OW 1546   1.693   6.094   3.097
  216SOL    HW1 1547   1.729   6.186   3.114
  216SOL    HW2 1548   1.593   6.097   3.094
  217SOL     OW 1549   0.541   5.373   5.609
  217SOL    HW1 1550   0.515   5.314   5.532
  217SOL    HW2 1551   0.641   5.373   5.618
  218SOL     OW 1552   2.634   2.098   5.602
  218SOL    HW1 1553   2.643   2.191   5.568
  218SOL    HW2 1554   2.724   2.056   5.611
  219SOL     OW 1555   4.353   2.277   1.350
  219SOL    HW1 1556   4.286   2.288   1.424
  219SOL    HW2 1557   4.306   2.283   1.262
  220SOL     OW 1558   2.923   6.650   0.591
  220SOL    HW1 1559   2.952   6.606   0.676
  220SOL    HW2 1560   2.956   6.745   0.589
  221SOL     OW 1561   4.815   4.577   2.051
  221SOL    HW1 1562   4.874   4.496   2.056
  221SOL    HW2 1563   4.862   4.648   1.998
  222SOL     OW 1564   1.893   4.520   6.584
  222SOL    HW1 1565   1.872   4.617   6.571
  222SOL    HW2 1566   1.909   4.501   6.681
  223SOL     OW 1567   6.431   2.208   5.143
  223SOL    HW1 1568   6.475   2.151   5.212
  223SOL    HW2 1569   6.477   2.297   5.138
  224SOL     OW 1570   3.497   2.323   5.774
  224SOL    HW1 1571   3.539   2.273   5.699
  224SOL    HW2 1572   3.491   2.264   5.854
  225SOL     OW 1573   4.196   6.052   6.768
  225SOL    HW1 1574   4.253   5.975   6.795
  225SOL    HW2 1575   4.165   6.040   6.674
  226SOL     OW 1576   1.951   2.419   0.167
  226SOL    HW1 1577   1.914   2.374   0.085
  226SOL    HW2 1578   1.879   2.428   0.235
  227SOL     OW 1579   1.400   3.927   0.892
  227SOL    HW1 1580   1.306   3.943   0.921
  227SOL    HW2 1581   1.458   4.003   0.920
  228SOL     OW 1582   1.007   0.750   2.406
  228SOL    HW1 1583   0.952   0.689   2.349
  228SOL    HW2 1584   1.070   0.803   2.349
  229SOL     OW 1585   3.902   0.299   5.790
  229SOL    HW1 1586   3.959   0.380   5.801
  229SOL    HW2 1587   3.949   0.233   5.731
  230SOL     OW 1588   5.479   4.465   6.115
  230SOL    HW1 1589   5.475   4.470   6.015
  230SOL    HW2 1590   5.504   4.373   6.143
  231SOL     OW 1591   5.195   1.356   6.945
  231SOL    HW1 1592   5.221   1.286   6.879
  231SOL    HW2 1593   5.207   1.446   6.904
  232SOL     OW 1594   1.385   1.980   5.615
  232SOL    HW1 1595   1.347   2.048   5.553
  232SOL    HW2 1596   1.378   1.890   5.573
  233SOL     OW 1597   3.598   1.745   2.785
  233SOL    HW1 1598   3.632   1.832   2.819
  233SOL    HW2 1599   3.532   1.706   2.850
  234SOL     OW 1600   5.107   0.398   0.811
  234SOL    HW1 1601   5.192   0.402   0.865
  234SOL    HW2 1602   5.042   0.337   0.857
  235SOL     OW 1603   5.278   3.148   2.626
  235SOL    HW1 1604   5.241   3.221   2.567
  235SOL    HW2 1605   5.332   3.085   2.570
  236SOL     OW 1606   4.137   3.487   5.964
  236SOL    HW1 1607   4.151   3.524   6.056
  236SOL    HW2 1608   4.047   3.444   5.958
  237SOL     OW 1609   5.621   3.669   2.713
  237SOL    HW1 1610   5.668   3.674   2.801
  237SOL    HW2 1611   5.602   3.574   2.691
  238SOL     OW 1612   6.012   1.714   0.469
  238SOL    HW1 1613   6.007   1.684   0.374
  238SOL    HW2 1614   6.095   1.679   0.511
  239SOL     OW 1615   1.146   3.551   0.313
  239SOL    HW1 1616   1.165   3.498   0.231
  239SOL    HW2 1617   1.209   3.629   0.319
  240SOL     OW 1618   4.977   3.368   4.285
  240SOL    HW1 1619   4.967   3.343   4.189
  240SOL    HW2 1620   4.943   3.293   4.342
  241SOL     OW 1621   2.646   2.014   3.966
  241SOL    HW1 1622   2.582   2.037   4.039
  241SOL    HW2 1623   2.696   1.931   3.990
  242SOL     OW 1624   3.724   3.495   2.605
  242SOL    HW1 1625   3.745   3.412   2.554
  242SOL    HW2 1626   3.762   3.489   2.697
  243SOL     OW 1627   4.148   2.687   6.400
  243SOL    HW1 1628   4.074   2.697   6.466
  243SOL    HW2 1629   4.172   2.776   6.362
  244SOL     OW 1630   5.032   3.484   5.048
  244SOL    HW1 1631   4.996   3.393   5.028
  244SOL    HW2 1632   4.960   3.552   5.036
  245SOL     OW 1633   3.524   1.497   3.193
  245SOL    HW1 1634   3.611   1.473   3.150
  245SOL    HW2 1635   3.540   1.527   3.287
  246SOL     OW 1636   6.815   1.145   2.469
  246SOL    HW1 1637   6.739   1.137   2.404
  246SOL    HW2 1638   6.889   1.084   2.441
  247SOL     OW 1639   1.617   1.718   1.329
  247SOL    HW1 1640   1.637   1.649   1.259
  247SOL    HW2 1641   1.676   1.702   1.409
  248SOL     OW 1642   3.212   3.610   1.498
  248SOL    HW1 1643   3.241   3.660   1.580
  248SOL    HW2 1644   3.112   3.600   1.500
  249SOL     OW 1645   5.125   6.517   5.042
  249SOL    HW1 1646   5.070   6.599   5.058
  249SOL    HW2 1647   5.066   6.443   5.010
  250SOL     OW 1648   4.253   2.400   0.023
  250SOL    HW1 1649   4.262   2.347   0.108
  250SOL    HW2 1650   4.233   2.495   0.046
  251SOL     OW 1651   4.108   4.942   5.123
  251SOL    HW1 1652   4.165   4.868   5.159
  251SOL    HW2 1653   4.050   4.978   5.195
  252SOL     OW 1654   6.556   6.453   4.894
  252SOL    HW1 1655   6.533   6.373   4.949
  252SOL    HW2 1656   6.646   6.441   4.852
  253SOL     OW 1657   4.133   6.264   6.382
  253SOL    HW1 1658   4.130   6.258   6.282
  253SOL    HW2 1659   4.071   6.196   6.421
  254SOL     OW 1660   6.337   1.879   5.493
  254SOL    HW1 1661   6.278   1.942   5.544
  254SOL    HW2 1662   6.281   1.805   5.454
  255SOL     OW 1663   0.950   4.373   6.900
  255SOL    HW1 1664   0.934   4.406   6.993
  255SOL    HW2 1665   1.026   4.308   6.901
  256SOL     OW 1666   5.152   2.277   5.034
  256SOL    HW1 1667   5.178   2.221   5.112
  256SOL    HW2 1668   5.205   2.362   5.035
  257SOL     OW 1669   4.653   6.378   2.227
  257SOL    HW1 1670   4.564   6.406   2.192
  257SOL    HW2 1671   4.645   6.355   2.324
  258SOL     OW 1672   2.040   3.331   5.876
  258SOL    HW1 1673   1.961   3.271   5.883
  258SOL    HW2 1674   2.102   3.296   5.806
  259SOL     OW 1675   3.249   6.894   3.953
  259SOL    HW1 1676   3.186   6.951   4.006
  259SOL    HW2 1677   3.298   6.833   4.014
  260SOL     OW 1678   3.867   5.483   3.191
  260SOL    HW1 1679   3.824   5.402   3.229
  260SOL    HW2 1680   3.966   5.472   3.191
  261SOL     OW 1681   3.993   5.107   0.043
  261SOL    HW1 1682   3.943   5.021   0.045
  261SOL    HW2 1683   4.034   5.124   0.133
  262SOL     OW 1684   0.955   3.759   6.678
  262SOL    HW1 1685   0.960   3.827   6.752
  262SOL    HW2 1686   0.860   3.748   6.650
  263SOL     OW 1687   1.152   0.116   4.020
  263SOL    HW1 1688   1.125   0.183   4.090
  263SOL    HW2 1689   1.245   0.136   3.989
  264SOL     OW 1690   6.558   3.026   6.697
  264SOL    HW1 1691   6.579   3.063   6.787
  264SOL    HW2 1692   6.641   2.990   6.655
  265SOL     OW 1693   0.398   0.383   3.144
  265SOL    HW1 1694   0.299   0.395   3.147
  265SOL    HW2 1695   0.420   0.291   3.111
  266SOL     OW 1696   3.635   0.232   5.808
  266SOL    HW1 1697   3.726   0.263   5.835
  266SOL    HW2 1698   3.567   0.264   5.874
  267SOL     OW 1699   1.990   0.143   3.062
  267SOL    HW1 1700   2.052   0.079   3.017
  267SOL    HW2 1701   2.025   0.236   3.051
  268SOL     OW 1702   3.468   2.627   0.983
  268SOL    HW1 1703   3.561   2.659   1.000
  268SOL    HW2 1704   3.433   2.669   0.899
  269SOL     OW 1705   5.020   1.957   0.405
  269SOL    HW1 1706   4.963   1.892   0.457
  269SOL    HW2 1707   5.075   2.011   0.469
  270SOL     OW 1708   5.748   0.852   0.629
  270SOL    HW1 1709   5.795   0.820   0.548
  270SOL    HW2 1710   5.745   0.952   0.629
  271SOL     OW 1711   0.533   4.094   6.520
  271SOL    HW1 1712   0.552   4.164   6.451
  271SOL    HW2 1713   0.534   4.003   6.477
  272SOL     OW 1714   3.027   5.917   3.205
  272SOL    HW1 1715   3.021   5.918   3.105
  272SOL    HW2 1716   3.031   6.010   3.240
  273SOL     OW 1717   1.493   5.339   6.036
  273SOL    HW1 1718   1.405   5.340   5.990
  273SOL    HW2 1719   1.480   5.356   6.134
  274SOL     OW 1720   4.851   2.381   3.881
  274SOL    HW1 1721   4.900   2.344   3.801
  274SOL    HW2 1722   4.757   2.401   3.856
  275SOL     OW 1723   6.222   6.503   1.622
  275SOL    HW1 1724   6.237   6.550   1.709
  275SOL    HW2 1725   6.311   6.482   1.580
  276SOL     OW 1726   0.898   0.315   4.994
  276SOL    HW1 1727   0.942   0.277   5.075
  276SOL    HW2 1728   0.901   0.248   4.920
  277SOL     OW 1729   1.903   4.254   0.894
  277SOL    HW1 1730   1.866   4.165   0.922
  277SOL    HW2 1731   1.888   4.321   0.967
  278SOL     OW 1732   0.330   2.893   2.959
  278SOL    HW1 1733   0.417   2.929   2.925
  278SOL    HW2 1734   0.348   2.819   3.023
  279SOL     OW 1735   6.482   1.047   3.315
  279SOL    HW1 1736   6.552   1.012   3.378
  279SOL    HW2 1737   6.431   0.970   3.275
  280SOL     OW 1738   1.960   4.619   2.881
  280SOL    HW1 1739   1.909   4.538   2.852
  280SOL    HW2 1740   2.035   4.592   2.941
  281SOL     OW 1741   2.417   4.739   0.848
  281SOL    HW1 1742   2.439   4.672   0.776
  281SOL    HW2 1743   2.484   4.733   0.921
  282SOL     OW 1744   2.213   1.217   5.816
  282SOL    HW1 1745   2.260   1.283   5.875
  282SOL    HW2 1746   2.130   1.259   5.779
  283SOL     OW 1747   3.646   2.959   5.912
  283SOL    HW1 1748   3.714   2.938   5.843
  283SOL    HW2 1749   3.559   2.981   5.868
  284SOL     OW 1750   0.598   3.381   3.928
  284SOL    HW1 1751   0.637   3.412   4.015
  284SOL    HW2 1752   0.613   3.451   3.858
  285SOL     OW 1753   4.977   4.766   4.009
  285SOL    HW1 1754   4.880   4.749   3.996
  285SOL    HW2 1755   5.030   4.711   3.944
  286SOL     OW 1756   3.007   4.128   0.489
  286SOL    HW1 1757   2.994   4.182   0.405
  286SOL    HW2 1758   2.982   4.184   0.568
  287SOL     OW 1759   1.261   2.875   0.185
  287SOL    HW1 1760   1.220   2.871   0.276
  287SOL    HW2 1761   1.249   2.787   0.139
  288SOL     OW 1762   4.814   3.348   1.274
  288SOL    HW1 1763   4.829   3.426   1.213
  288SOL    HW2 1764   4.774   3.272   1.222
  289SOL     OW 1765   3.979   5.521   6.903
  289SOL    HW1 1766   4.016   5.585   6.971
  289SOL    HW2 1767   4.019   5.430   6.917
  290SOL     OW 1768   1.579   1.134   4.720
  290SOL    HW1 1769   1.623   1.164   4.635
  290SOL    HW2 1770   1.636   1.064   4.763
  291SOL     OW 1771   6.342   2.479   2.938
  291SOL    HW1 1772   6.415   2.425   2.979
  291SOL    HW2 1773   6.298   2.534   3.009
  292SOL     OW 1774   3.510   0.543   3.626
  292SOL    HW1 1775   3.427   0.587   3.662
  292SOL    HW2 1776   3.526   0.457   3.674
  293SOL     OW 1777   3.772   5.165   3.711
  293SOL    HW1 1778   3.785   5.115   3.796
  293SOL    HW2 1779   3.773   5.263   3.730
  294SOL     OW 1780   5.009   0.648   0.913
  294SOL    HW1 1781   5.093   0.695   0.940
  294SOL    HW2 1782   5.031   0.558   0.876
  295SOL     OW 1783   5.792   0.016   3.633
  295SOL    HW1 1784   5.737   0.095   3.606
  295SOL    HW2 1785   5.861   7.015   3.562
  296SOL     OW 1786   2.437   2.031   3.060
  296SOL    HW1 1787   2.532   2.050   3.082
  296SOL    HW2 1788   2.422   1.932   3.059
  297SOL     OW 1789   1.738   4.850   2.308
  297SOL    HW1 1790   1.667   4.821   2.372
  297SOL    HW2 1791   1.718   4.942   2.274
  298SOL     OW 1792   6.565   4.845   0.808
  298SOL    HW1 1793   6.498   4.784   0.851
  298SOL    HW2 1794   6.525   4.937   0.800
  299SOL     OW 1795   5.893   1.986   4.302
  299SOL    HW1 1796   5.935   2.076   4.315
  299SOL    HW2 1797   5.796   1.992   4.326
  300SOL     OW 1798   6.246   6.751   2.049
  300SOL    HW1 1799   6.332   6.746   2.101
  300SOL    HW2 1800   6.174   6.704   2.101
  301SOL     OW 1801   4.725   2.631   5.606
  301SOL    HW1 1802   4.706   2.713   5.552
  301SOL    HW2 1803   4.666   2.630   5.686
  302SOL     OW 1804   1.135   5.797   4.257
  302SOL    HW1 1805   1.087   5.738   4.322
  302SOL    HW2 1806   1.161   5.745   4.176
  303SOL     OW 1807   6.336   0.261   3.583
  303SOL    HW1 1808   6.401   0.198   3.624
  303SOL    HW2 1809   6.243   0.234   3.608
  304SOL     OW 1810   3.497   0.149   3.394
  304SOL    HW1 1811   3.564   0.156   3.468
  304SOL    HW2 1812   3.486   0.053   3.369
  305SOL     OW 1813   1.591   4.666   0.871
  305SOL    HW1 1814   1.589   4.743   0.935
  305SOL    HW2 1815   1.560   4.696   0.781
  306SOL     OW 1816   1.982   0.835   3.595
  306SOL    HW1 1817   1.908   0.899   3.616
  306SOL    HW2 1818   1.989   0.824   3.496
  307SOL     OW 1819   3.419   0.387   1.512
  307SOL    HW1 1820   3.343   0.418   1.569
  307SOL    HW2 1821   3.483   0.333   1.567
  308SOL     OW 1822   0.460   4.612   3.699
  308SOL    HW1 1823   0.549   4.623   3.655
  308SOL    HW2 1824   0.391   4.590   3.630
  309SOL     OW 1825   3.456   4.896   5.180
  309SOL    HW1 1826   3.556   4.905   5.173
  309SOL    HW2 1827   3.433   4.801   5.199
  310SOL     OW 1828   1.468   6.103   6.169
  310SOL    HW1 1829   1.474   6.084   6.071
  310SOL    HW2 1830   1.424   6.025   6.215
  311SOL     OW 1831   0.244   0.697   1.416
  311SOL    HW1 1832   0.280   0.735   1.331
  311SOL    HW2 1833   0.319   0.678   1.479
  312SOL     OW 1834   4.019   1.384   5.556
  312SOL    HW1 1835   3.977   1.314   5.498
  312SOL    HW2 1836   3.968   1.470   5.547
  313SOL     OW 1837   0.225   4.932   1.253
  313SOL    HW1 1838   0.257   4.968   1.340
  313SOL    HW2 1839   0.213   4.833   1.259
  314SOL     OW 1840   3.406   5.702   1.931
  314SOL    HW1 1841   3.462   5.777   1.967
  314SOL    HW2 1842   3.350   5.736   1.856
  315SOL     OW 1843   1.197   3.708   2.631
  315SOL    HW1 1844   1.218   3.749   2.719
  315SOL    HW2 1845   1.129   3.763   2.583
  316SOL     OW 1846   2.169   3.088   4.589
  316SOL    HW1 1847   2.208   3.181   4.591
  316SOL    HW2 1848   2.219   3.030   4.653
  317SOL     OW 1849   6.744   1.137   0.325
  317SOL    HW1 1850   6.663   1.080   0.307
  317SOL    HW2 1851   6.823   1.096   0.280
  318SOL     OW 1852   2.930   4.053   1.021
  318SOL    HW1 1853   2.955   3.967   1.066
  318SOL    HW2 1854   2.881   4.112   1.085
  319SOL     OW 1855   0.840   0.161   6.434
  319SOL    HW1 1856   0.937   0.187   6.442
  319SOL    HW2 1857   0.811   0.166   6.339
  320SOL     OW 1858   5.445   3.111   1.061
  320SOL    HW1 1859   5.427   3.198   1.107
  320SOL    HW2 1860   5.544   3.097   1.053
  321SOL     OW 1861   2.067   1.567   2.477
  321SOL    HW1 1862   2.089   1.661   2.450
  321SOL    HW2 1863   2.150   1.511   2.472
  322SOL     OW 1864   3.264   2.799   5.318
  322SOL    HW1 1865   3.210   2.793   5.401
  322SOL    HW2 1866   3.264   2.711   5.271
  323SOL     OW 1867   1.577   4.153   1.896
  323SOL    HW1 1868   1.631   4.124   1.818
  323SOL    HW2 1869   1.619   4.119   1.980
  324SOL     OW 1870   0.054   2.537   4.362
  324SOL    HW1 1871   7.002   2.502   4.426
  324SOL    HW2 1872   0.077   2.632   4.386
  325SOL     OW 1873   2.175   1.917   2.837
  325SOL    HW1 1874   2.190   1.872   2.925
  325SOL    HW2 1875   2.209   1.858   2.763
  326SOL     OW 1876   1.488   3.968   4.505
  326SOL    HW1 1877   1.514   3.874   4.484
  326SOL    HW2 1878   1.547   4.003   4.577
  327SOL     OW 1879   6.296   3.853   6.271
  327SOL    HW1 1880   6.229   3.790   6.232
  327SOL    HW2 1881   6.388   3.822   6.248
  328SOL     OW 1882   3.589   5.909   2.537
  328SOL    HW1 1883   3.536   5.836   2.494
  328SOL    HW2 1884   3.533   5.991   2.546
  329SOL     OW 1885   3.524   4.097   2.440
  329SOL    HW1 1886   3.543   4.026   2.508
  329SOL    HW2 1887   3.433   4.136   2.456
  330SOL     OW 1888   2.509   2.093   1.799
  330SOL    HW1 1889   2.596   2.102   1.848
  330SOL    HW2 1890   2.452   2.024   1.844
  331SOL     OW 1891   6.306   3.873   5.411
  331SOL    HW1 1892   6.242   3.922   5.472
  331SOL    HW2 1893   6.284   3.776   5.411
  332SOL     OW 1894   3.912   1.917   3.652
  332SOL    HW1 1895   3.853   1.840   3.676
  332SOL    HW2 1896   3.968   1.942   3.731
  333SOL     OW 1897   4.851   6.665   0.673
  333SOL    HW1 1898   4.918   6.629   0.739
  333SOL    HW2 1899   4.771   6.699   0.723
  334SOL     OW 1900   4.949   6.434   2.909
  334SOL    HW1 1901   4.887   6.355   2.908
  334SOL    HW2 1902   5.036   6.408   2.949
  335SOL     OW 1903   3.322   0.170   2.505
  335SOL    HW1 1904   3.402   0.223   2.532
  335SOL    HW2 1905   3.351   0.089   2.453
  336SOL     OW 1906   3.803   0.546   4.713
  336SOL    HW1 1907   3.704   0.555   4.713
  336SOL    HW2 1908   3.840   0.588   4.630
  337SOL     OW 1909   0.191   4.083   2.050
  337SOL    HW1 1910   0.254   4.044   2.117
  337SOL    HW2 1911   0.185   4.182   2.063
  338SOL     OW 1912   2.199   2.403   1.273
  338SOL    HW1 1913   2.217   2.462   1.351
  338SOL    HW2 1914   2.128   2.337   1.295
  339SOL     OW 1915   4.130   1.367   3.496
  339SOL    HW1 1916   4.076   1.450   3.481
  339SOL    HW2 1917   4.083   1.289   3.455
  340SOL     OW 1918   4.846   3.916   4.662
  340SOL    HW1 1919   4.860   3.817   4.655
  340SOL    HW2 1920   4.819   3.940   4.755
  341SOL     OW 1921   4.454   4.545   5.654
  341SOL    HW1 1922   4.404   4.495   5.584
  341SOL    HW2 1923   4.515   4.483   5.703
  342SOL     OW 1924   6.001   3.959   0.669
  342SOL    HW1 1925   6.019   3.864   0.645
  342SOL    HW2 1926   6.072   3.992   0.730
  343SOL     OW 1927   2.228   0.909   2.596
  343SOL    HW1 1928   2.312   0.963   2.589
  343SOL    HW2 1929   2.249   0.812   2.582
  344SOL     OW 1930   3.686   6.634   0.270
  344SOL    HW1 1931   3.769   6.601   0.224
  344SOL    HW2 1932   3.709   6.715   0.325
  345SOL     OW 1933   1.572   1.467   5.226
  345SOL    HW1 1934   1.578   1.477   5.325
  345SOL    HW2 1935   1.657   1.426   5.192
  346SOL     OW 1936   3.059   1.093   5.238
  346SOL    HW1 1937   2.986   1.140   5.188
  346SOL    HW2 1938   3.148   1.125   5.206
  347SOL     OW 1939   5.217   6.405   6.117
  347SOL    HW1 1940   5.226   6.387   6.019
  347SOL    HW2 1941   5.230   6.319   6.167
  348SOL     OW 1942   2.552   6.665   2.817
  348SOL    HW1 1943   2.578   6.598   2.887
  348SOL    HW2 1944   2.465   6.639   2.776
  349SOL     OW 1945   2.570   5.302   2.245
  349SOL    HW1 1946   2.538   5.367   2.315
  349SOL    HW2 1947   2.543   5.209   2.271
  350SOL     OW 1948   4.718   3.291   0.983
  350SOL    HW1 1949   4.654   3.217   0.963
  350SOL    HW2 1950   4.689   3.375   0.937
  351SOL     OW 1951   3.499   1.783   1.025
  351SOL    HW1 1952   3.434   1.788   0.950
  351SOL    HW2 1953   3.453   1.806   1.111
  352SOL     OW 1954   2.958   2.027   6.156
  352SOL    HW1 1955   3.044   2.035   6.107
  352SOL    HW2 1956   2.976   2.024   6.254
  353SOL     OW 1957   2.056   0.078   1.199
  353SOL    HW1 1958   2.046   0.022   1.281
  353SOL    HW2 1959   2.102   0.164   1.223
  354SOL     OW 1960   5.066   0.100   2.091
  354SOL    HW1 1961   5.041   0.141   2.179
  354SOL    HW2 1962   5.016   0.015   2.078
  355SOL     OW 1963   0.854   1.163   2.476
  355SOL    HW1 1964   0.857   1.180   2.574
  355SOL    HW2 1965   0.820   1.244   2.429
  356SOL     OW 1966   3.281   0.097   2.804
  356SOL    HW1 1967   3.288   0.169   2.873
  356SOL    HW2 1968   3.318   0.132   2.717
  357SOL     OW 1969   1.364   5.180   5.130
  357SOL    HW1 1970   1.309   5.096   5.133
  357SOL    HW2 1971   1.319   5.250   5.185
  358SOL     OW 1972   4.496   0.955   3.240
  358SOL    HW1 1973   4.550   1.007   3.175
  358SOL    HW2 1974   4.413   1.006   3.264
  359SOL     OW 1975   0.025   1.667   0.163
  359SOL    HW1 1976   0.063   1.575   0.170
  359SOL    HW2 1977   6.971   1.680   0.234
  360SOL     OW 1978   4.804   0.288   6.938
  360SOL    HW1 1979   4.766   0.196   6.942
  360SOL    HW2 1980   4.749   0.344   6.877
  361SOL     OW 1981   3.083   0.230   2.581
  361SOL    HW1 1982   3.086   0.314   2.634
  361SOL    HW2 1983   3.172   0.212   2.540
  362SOL     OW 1984   2.939   3.880   0.700
  362SOL    HW1 1985   2.847   3.848   0.720
  362SOL    HW2 1986   2.939   3.979   0.689
  363SOL     OW 1987   5.224   4.724   3.667
  363SOL    HW1 1988   5.139   4.679   3.639
  363SOL    HW2 1989   5.214   4.823   3.655
  364SOL     OW 1990   2.752   5.886   6.680
  364SOL    HW1 1991   2.815   5.840   6.618
  364SOL    HW2 1992   2.750   5.984   6.659
  365SOL     OW 1993   4.685   6.401   3.166
  365SOL    HW1 1994   4.644   6.400   3.075
  365SOL    HW2 1995   4.697   6.495   3.197
  366SOL     OW 1996   5.481   1.038   0.401
  366SOL    HW1 1997   5.442   1.116   0.449
  366SOL    HW2 1998   5.550   1.071   0.336
  367SOL     OW 1999   5.299   2.165   2.207
  367SOL    HW1 2000   5.292   2.068   2.233
  367SOL    HW2 2001   5.278   2.175   2.110
  368SOL     OW 2002   0.477   5.242   5.371
  368SOL    HW1 2003   0.520   5.161   5.411
  368SOL    HW2 2004   0.423   5.215   5.291
  369SOL     OW 2005   0.948   3.912   1.753
  369SOL    HW1 2006   1.042   3.897   1.720
  369SOL    HW2 2007   0.938   3.870   1.843
  370SOL     OW 2008   3.884   1.851   6.414
  370SOL    HW1 2009   3.849   1.809   6.498
  370SOL    HW2 2010   3.876   1.787   6.339
  371SOL     OW 2011   3.493   2.638   6.353
  371SOL    HW1 2012   3.559   2.695   6.304
  371SOL    HW2 2013   3.424   2.697   6.396
  372SOL     OW 2014   2.180   5.354   0.233
  372SOL    HW1 2015   2.160   5.375   0.137
  372SOL    HW2 2016   2.205   5.438   0.281
  373SOL     OW 2017   6.026   6.745   6.416
  373SOL    HW1 2018   6.055   6.670   6.475
  373SOL    HW2 2019   6.051   6.725   6.322
  374SOL     OW 2020   5.151   0.908   1.244
  374SOL    HW1 2021   5.057   0.901   1.212
  374SOL    HW2 2022   5.202   0.972   1.186
  375SOL     OW 2023   6.640   4.482   1.321
  375SOL    HW1 2024   6.660   4.580   1.316
  375SOL    HW2 2025   6.597   4.452   1.236
  376SOL     OW 2026   2.042   4.042   4.971
  376SOL    HW1 2027   2.019   3.974   5.041
  376SOL    HW2 2028   2.141   4.048   4.963
  377SOL     OW 2029   5.061   1.142   4.002
  377SOL    HW1 2030   5.011   1.091   4.071
  377SOL    HW2 2031   5.040   1.105   3.911
  378SOL     OW 2032   5.232   2.124   5.269
  378SOL    HW1 2033   5.316   2.095   5.317
  378SOL    HW2 2034   5.183   2.190   5.326
  379SOL     OW 2035   6.328   2.730   1.509
  379SOL    HW1 2036   6.409   2.704   1.562
  379SOL    HW2 2037   6.288   2.813   1.548
  380SOL     OW 2038   0.987   2.335   0.319
  380SOL    HW1 2039   1.052   2.410   0.305
  380SOL    HW2 2040   0.945   2.343   0.410
  381SOL     OW 2041   4.869   4.816   0.055
  381SOL    HW1 2042   4.846   4.859   0.142
  381SOL    HW2 2043   4.864   4.883   6.997
  382SOL     OW 2044   2.046   5.578   6.571
  382SOL    HW1 2045   2.002   5.534   6.493
  382SOL    HW2 2046   2.064   5.674   6.550
  383SOL     OW 2047   6.183   1.285   6.945
  383SOL    HW1 2048   6.257   1.340   6.983
  383SOL    HW2 2049   6.151   1.326   6.860
  384SOL     OW 2050   0.624   5.295   4.595
  384SOL    HW1 2051   0.698   5.292   4.662
  384SOL    HW2 2052   0.589   5.388   4.588
  385SOL     OW 2053   4.870   5.281   1.041
  385SOL    HW1 2054   4.892   5.262   1.137
  385SOL    HW2 2055   4.809   5.210   1.006
  386SOL     OW 2056   2.240   5.608   4.505
  386SOL    HW1 2057   2.334   5.607   4.471
  386SOL    HW2 2058   2.189   5.532   4.464
  387SOL     OW 2059   0.257   0.572   5.532
  387SOL    HW1 2060   0.313   0.495   5.562
  387SOL    HW2 2061   0.295   0.609   5.446
  388SOL     OW 2062   0.408   1.849   4.571
  388SOL    HW1 2063   0.462   1.901   4.637
  388SOL    HW2 2064   0.457   1.846   4.483
  389SOL     OW 2065   5.070   3.644   2.559
  389SOL    HW1 2066   4.995   3.629   2.623
  389SOL    HW2 2067   5.086   3.743   2.550
  390SOL     OW 2068   3.486   2.791   0.520
  390SOL    HW1 2069   3.443   2.714   0.473
  390SOL    HW2 2070   3.496   2.868   0.456
  391SOL     OW 2071   4.074   3.781   3.917
  391SOL    HW1 2072   4.059   3.703   3.978
  391SOL    HW2 2073   4.051   3.866   3.964
  392SOL     OW 2074   2.321   3.951   1.450
  392SOL    HW1 2075   2.267   4.000   1.382
  392SOL    HW2 2076   2.265   3.933   1.530
  393SOL     OW 2077   1.242   5.951   1.218
  393SOL    HW1 2078   1.159   5.910   1.257
  393SOL    HW2 2079   1.218   6.002   1.136
  394SOL     OW 2080   5.953   1.243   6.072
  394SOL    HW1 2081   5.885   1.306   6.109
  394SOL    HW2 2082   5.927   1.149   6.094
  395SOL     OW 2083   6.218   5.092   6.542
  395SOL    HW1 2084   6.316   5.073   6.548
  395SOL    HW2 2085   6.201   5.188   6.562
  396SOL     OW 2086   0.766   0.905   1.265
  396SOL    HW1 2087   0.822   0.987   1.264
  396SOL    HW2 2088   0.804   0.838   1.201
  397SOL     OW 2089   4.830   2.142   4.745
  397SOL    HW1 2090   4.883   2.198   4.681
  397SOL    HW2 2091   4.891   2.102   4.813
  398SOL     OW 2092   0.047   1.456   3.060
  398SOL    HW1 2093   0.007   1.541   3.027
  398SOL    HW2 2094   0.080   1.468   3.153
  399SOL     OW 2095   6.108   5.410   3.868
  399SOL    HW1 2096   6.115   5.509   3.873
  399SOL    HW2 2097   6.086   5.373   3.958
  400SOL     OW 2098   6.903   6.470   3.020
  400SOL    HW1 2099   6.861   6.537   3.081
  400SOL    HW2 2100   6.991   6.503   2.989
  401SOL     OW 2101   1.201   6.081   5.065
  401SOL    HW1 2102   1.298   6.101   5.081
  401SOL    HW2 2103   1.189   5.983   5.048
  402SOL     OW 2104   6.267   0.963   4.308
  402SOL    HW1 2105   6.190   0.975   4.245
  402SOL    HW2 2106   6.346   0.927   4.259
  403SOL     OW 2107   2.370   1.689   5.125
  403SOL    HW1 2108   2.280   1.706   5.164
  403SOL    HW2 2109   2.427   1.771   5.133
  404SOL     OW 2110   2.823   5.633   3.489
  404SOL    HW1 2111   2.914   5.652   3.453
  404SOL    HW2 2112   2.759   5.701   3.454
  405SOL     OW 2113   2.627   4.571   3.810
  405SOL    HW1 2114   2.716   4.595   3.771
  405SOL    HW2 2115   2.620   4.609   3.902
  406SOL     OW 2116   0.605   6.763   6.699
  406SOL    HW1 2117   0.636   6.849   6.658
  406SOL    HW2 2118   0.674   6.692   6.684
  407SOL     OW 2119   2.022   3.736   4.308
  407SOL    HW1 2120   1.996   3.817   4.256
  407SOL    HW2 2121   1.974   3.736   4.396
  408SOL     OW 2122   2.608   2.342   2.040
  408SOL    HW1 2123   2.690   2.357   1.985
  408SOL    HW2 2124   2.529   2.381   1.994
  409SOL     OW 2125   0.532   2.641   2.343
  409SOL    HW1 2126   0.497   2.735   2.343
  409SOL    HW2 2127   0.527   2.604   2.436
  410SOL     OW 2128   1.657   3.415   1.757
  410SOL    HW1 2129   1.693   3.470   1.832
  410SOL    HW2 2130   1.701   3.441   1.672
  411SOL     OW 2131   6.813   1.545   1.118
  411SOL    HW1 2132   6.902   1.512   1.150
  411SOL    HW2 2133   6.740   1.506   1.175
  412SOL     OW 2134   2.401   4.322   2.904
  412SOL    HW1 2135   2.427   4.308   2.809
  412SOL    HW2 2136   2.453   4.398   2.943
  413SOL     OW 2137   6.456   5.250   2.752
  413SOL    HW1 2138   6.446   5.336   2.803
  413SOL    HW2 2139   6.497   5.269   2.663
  414SOL     OW 2140   2.395   0.185   2.816
  414SOL    HW1 2141   2.464   0.114   2.806
  414SOL    HW2 2142   2.367   0.191   2.912
  415SOL     OW 2143   5.641   3.193   0.331
  415SOL    HW1 2144   5.602   3.215   0.420
  415SOL    HW2 2145   5.737   3.221   0.329
  416SOL     OW 2146   5.900   3.529   0.202
  416SOL    HW1 2147   5.921   3.620   0.240
  416SOL    HW2 2148   5.825   3.537   0.136
  417SOL     OW 2149   2.382   2.342   5.363
  417SOL    HW1 2150   2.422   2.362   5.273
  417SOL    HW2 2151   2.347   2.249   5.364
  418SOL     OW 2152   3.600   5.905   6.690
  418SOL    HW1 2153   3.512   5.942   6.719
  418SOL    HW2 2154   3.667   5.917   6.763
  419SOL     OW 2155   5.723   0.392   0.711
  419SOL    HW1 2156   5.744   0.350   0.800
  419SOL    HW2 2157   5.806   0.434   0.674
  420SOL     OW 2158   3.109   6.811   0.867
  420SOL    HW1 2159   3.181   6.872   0.900
  420SOL    HW2 2160   3.042   6.796   0.939
  421SOL     OW 2161   5.388   4.801   2.921
  421SOL    HW1 2162   5.474   4.751   2.911
  421SOL    HW2 2163   5.372   4.855   2.839
  422SOL     OW 2164   4.140   1.632   2.472
  422SOL    HW1 2165   4.162   1.574   2.550
  422SOL    HW2 2166   4.041   1.649   2.470
  423SOL     OW 2167   2.659   0.996   5.768
  423SOL    HW1 2168   2.675   0.900   5.745
  423SOL    HW2 2169   2.637   1.004   5.865
  424SOL     OW 2170   1.378   4.364   4.608
  424SOL    HW1 2171   1.380   4.303   4.528
  424SOL    HW2 2172   1.449   4.336   4.673
  425SOL     OW 2173   3.437   1.491   0.103
  425SOL    HW1 2174   3.449   1.416   0.168
  425SOL    HW2 2175   3.404   1.572   0.152
  426SOL     OW 2176   2.423   2.645   3.267
  426SOL    HW1 2177   2.337   2.615   3.225
  426SOL    HW2 2178   2.500   2.607   3.216
  427SOL     OW 2179   4.506   1.582   4.479
  427SOL    HW1 2180   4.590   1.582   4.535
  427SOL    HW2 2181   4.516   1.648   4.405
  428SOL     OW 2182   2.372   2.152   6.054
  428SOL    HW1 2183   2.431   2.104   6.118
  428SOL    HW2 2184   2.425   2.184   5.975
  429SOL     OW 2185   0.036   6.964   2.983
  429SOL    HW1 2186   0.109   0.005   2.943
  429SOL    HW2 2187   0.069   6.922   3.067
  430SOL     OW 2188   2.004   1.360   3.526
  430SOL    HW1 2189   1.911   1.397   3.534
  430SOL    HW2 2190   2.034   1.366   3.431
  431SOL     OW 2191   2.317   0.983   1.329
  431SOL    HW1 2192   2.408   0.942   1.321
  431SOL    HW2 2193   2.318   1.054   1.399
  432SOL     OW 2194   5.087   1.851   1.571
  432SOL    HW1 2195   5.102   1.947   1.547
  432SOL    HW2 2196   5.162   1.818   1.628
  433SOL     OW 2197   2.211   4.175   6.902
  433SOL    HW1 2198   2.247   4.243   6.838
  433SOL    HW2 2199   2.146   4.116   6.853
  434SOL     OW 2200   3.711   5.611   2.621
  434SOL    HW1 2201   3.730   5.533   2.681
  434SOL    HW2 2202   3.796   5.650   2.589
  435SOL     OW 2203   3.054   2.519   6.723
  435SOL    HW1 2204   2.983   2.458   6.687
  435SOL    HW2 2205   3.122   2.536   6.651
  436SOL     OW 2206   5.239   6.492   2.900
  436SOL    HW1 2207   5.217   6.545   2.818
  436SOL    HW2 2208   5.336   6.467   2.898
  437SOL     OW 2209   6.944   0.875   5.732
  437SOL    HW1 2210   0.006   0.938   5.731
  437SOL    HW2 2211   6.864   0.921   5.770
  438SOL     OW 2212   0.808   3.690   1.655
  438SOL    HW1 2213   0.846   3.628   1.587
  438SOL    HW2 2214   0.859   3.776   1.654
  439SOL     OW 2215   0.265   1.227   6.265
  439SOL    HW1 2216   0.216   1.219   6.178
  439SOL    HW2 2217   0.362   1.207   6.251
  440SOL     OW 2218   3.629   1.570   1.221
  440SOL    HW1 2219   3.683   1.486   1.225
  440SOL    HW2 2220   3.652   1.628   1.299
  441SOL     OW 2221   1.019   4.544   2.562
  441SOL    HW1 2222   0.978   4.572   2.475
  441SOL    HW2 2223   1.036   4.624   2.618
  442SOL     OW 2224   3.258   3.133   4.917
  442SOL    HW1 2225   3.305   3.221   4.908
  442SOL    HW2 2226   3.165   3.142   4.882
  443SOL     OW 2227   4.966   2.396   2.307
  443SOL    HW1 2228   4.967   2.338   2.225
  443SOL    HW2 2229   5.012   2.348   2.382
  444SOL     OW 2230   3.946   2.504   1.045
  444SOL    HW1 2231   4.027   2.538   0.997
  444SOL    HW2 2232   3.871   2.494   0.980
  445SOL     OW 2233   2.048   5.614   3.870
  445SOL    HW1 2234   2.134   5.599   3.822
  445SOL    HW2 2235   1.994   5.683   3.822
  446SOL     OW 2236   6.970   6.908   0.643
  446SOL    HW1 2237   0.018   6.938   0.571
  446SOL    HW2 2238   7.010   6.928   0.733
  447SOL     OW 2239   6.575   3.445   0.099
  447SOL    HW1 2240   6.619   3.407   0.181
  447SOL    HW2 2241   6.480   3.415   0.096
  448SOL     OW 2242   3.412   6.714   4.102
  448SOL    HW1 2243   3.474   6.741   4.177
  448SOL    HW2 2244   3.462   6.657   4.037
  449SOL     OW 2245   0.831   3.547   4.942
  449SOL    HW1 2246   0.752   3.486   4.939
  449SOL    HW2 2247   0.869   3.557   4.850
  450SOL     OW 2248   6.310   4.163   3.429
  450SOL    HW1 2249   6.406   4.183   3.448
  450SOL    HW2 2250   6.273   4.108   3.504
  451SOL     OW 2251   2.520   1.481   6.521
  451SOL    HW1 2252   2.524   1.528   6.433
  451SOL    HW2 2253   2.425   1.472   6.550
  452SOL     OW 2254   4.585   5.472   1.356
  452SOL    HW1 2255   4.536   5.459   1.442
  452SOL    HW2 2256   4.549   5.410   1.287
  453SOL     OW 2257   3.877   0.971   6.972
  453SOL    HW1 2258   3.924   1.020   0.030
  453SOL    HW2 2259   3.839   0.886   7.007
  454SOL     OW 2260   6.925   3.062   3.792
  454SOL    HW1 2261   6.923   2.992   3.720
  454SOL    HW2 2262   6.853   3.043   3.859
  455SOL     OW 2263   6.244   5.232   0.084
  455SOL    HW1 2264   6.157   5.232   0.034
  455SOL    HW2 2265   6.227   5.216   0.181
  456SOL     OW 2266   1.740   1.420   3.541
  456SOL    HW1 2267   1.679   1.344   3.566
  456SOL    HW2 2268   1.709   1.460   3.455
  457SOL     OW 2269   3.148   5.625   0.550
  457SOL    HW1 2270   3.220   5.623   0.481
  457SOL    HW2 2271   3.078   5.556   0.527
  458SOL     OW 2272   3.162   1.171   4.442
  458SOL    HW1 2273   3.246   1.135   4.401
  458SOL    HW2 2274   3.156   1.269   4.423
  459SOL     OW 2275   3.034   1.414   3.721
  459SOL    HW1 2276   2.994   1.436   3.810
  459SOL    HW2 2277   2.990   1.469   3.650
  460SOL     OW 2278   0.917   1.680   6.894
  460SOL    HW1 2279   0.886   1.723   6.979
  460SOL    HW2 2280   0.944   1.750   6.829
  461SOL     OW 2281   1.127   6.923   4.990
  461SOL    HW1 2282   1.107   6.987   4.916
  461SOL    HW2 2283   1.132   6.830   4.953
  462SOL     OW 2284   3.514   4.341   5.291
  462SOL    HW1 2285   3.534   4.407   5.363
  462SOL    HW2 2286   3.596   4.288   5.270
  463SOL     OW 2287   5.117   6.229   3.119
  463SOL    HW1 2288   5.213   6.254   3.129
  463SOL    HW2 2289   5.067   6.259   3.201
  464SOL     OW 2290   4.459   5.964   4.567
  464SOL    HW1 2291   4.474   5.866   4.583
  464SOL    HW2 2292   4.391   5.999   4.631
  465SOL     OW 2293   0.574   5.246   0.767
  465SOL    HW1 2294   0.543   5.324   0.822
  465SOL    HW2 2295   0.633   5.279   0.693
  466SOL     OW 2296   3.852   5.027   3.964
  466SOL    HW1 2297   3.769   5.080   3.983
  466SOL    HW2 2298   3.858   4.951   4.029
  467SOL     OW 2299   6.569   6.631   1.396
  467SOL    HW1 2300   6.548   6.534   1.401
  467SOL    HW2 2301   6.593   6.656   1.302
  468SOL     OW 2302   2.443   6.192   6.472
  468SOL    HW1 2303   2.529   6.169   6.518
  468SOL    HW2 2304   2.447   6.286   6.438
  469SOL     OW 2305   3.573   4.744   5.470
  469SOL    HW1 2306   3.517   4.684   5.413
  469SOL    HW2 2307   3.520   4.825   5.496
  470SOL     OW 2308   2.544   4.972   2.221
  470SOL    HW1 2309   2.616   4.987   2.153
  470SOL    HW2 2310   2.455   4.993   2.180
  471SOL     OW 2311   1.583   1.842   4.828
  471SOL    HW1 2312   1.518   1.786   4.777
  471SOL    HW2 2313   1.618   1.791   4.906
  472SOL     OW 2314   5.292   4.145   6.336
  472SOL    HW1 2315   5.195   4.168   6.331
  472SOL    HW2 2316   5.327   4.130   6.244
  473SOL     OW 2317   5.607   3.368   1.711
  473SOL    HW1 2318   5.532   3.361   1.776
  473SOL    HW2 2319   5.613   3.283   1.658
  474SOL     OW 2320   5.213   5.056   3.433
  474SOL    HW1 2321   5.283   5.043   3.503
  474SOL    HW2 2322   5.122   5.049   3.475
  475SOL     OW 2323   4.492   1.436   0.525
  475SOL    HW1 2324   4.557   1.510   0.508
  475SOL    HW2 2325   4.537   1.348   0.509
  476SOL     OW 2326   1.158   3.099   0.067
  476SOL    HW1 2327   1.193   3.129   6.994
  476SOL    HW2 2328   1.205   3.015   0.094
  477SOL     OW 2329   6.061   5.770   3.501
  477SOL    HW1 2330   6.149   5.816   3.500
  477SOL    HW2 2331   6.074   5.672   3.486
  478SOL     OW 2332   6.795   5.219   2.049
  478SOL    HW1 2333   6.857   5.142   2.055
  478SOL    HW2 2334   6.739   5.223   2.132
  479SOL     OW 2335   3.507   3.763   2.974
  479SOL    HW1 2336   3.578   3.832   2.990
  479SOL    HW2 2337   3.423   3.790   3.020
  480SOL     OW 2338   0.222   0.244   1.927
  480SOL    HW1 2339   0.149   0.303   1.962
  480SOL    HW2 2340   0.220   0.245   1.827
  481SOL     OW 2341   6.076   6.038   0.773
  481SOL    HW1 2342   6.029   5.949   0.776
  481SOL    HW2 2343   6.163   6.031   0.822
  482SOL     OW 2344   3.358   4.934   2.595
  482SOL    HW1 2345   3.285   4.930   2.526
  482SOL    HW2 2346   3.318   4.930   2.686
  483SOL     OW 2347   6.215   1.428   4.540
  483SOL    HW1 2348   6.200   1.330   4.525
  483SOL    HW2 2349   6.314   1.445   4.548
  484SOL     OW 2350   2.453   5.295   3.368
  484SOL    HW1 2351   2.549   5.318   3.385
  484SOL    HW2 2352   2.411   5.264   3.452
  485SOL     OW 2353   4.408   2.337   0.612
  485SOL    HW1 2354   4.401   2.359   0.514
  485SOL    HW2 2355   4.502   2.311   0.634
  486SOL     OW 2356   6.120   6.058   5.353
  486SOL    HW1 2357   6.106   6.018   5.262
  486SOL    HW2 2358   6.084   6.151   5.354
  487SOL     OW 2359   6.466   0.828   6.769
  487SOL    HW1 2360   6.405   0.906   6.756
  487SOL    HW2 2361   6.432   0.770   6.843
  488SOL     OW 2362   1.737   6.118   3.641
  488SOL    HW1 2363   1.741   6.132   3.740
  488SOL    HW2 2364   1.824   6.147   3.599
  489SOL     OW 2365   2.643   4.555   5.280
  489SOL    HW1 2366   2.615   4.473   5.330
  489SOL    HW2 2367   2.732   4.541   5.239
  490SOL     OW 2368   1.440   3.558   5.022
  490SOL    HW1 2369   1.379   3.479   5.028
  490SOL    HW2 2370   1.457   3.580   4.926
  491SOL     OW 2371   6.361   3.475   1.489
  491SOL    HW1 2372   6.380   3.511   1.397
  491SOL    HW2 2373   6.444   3.477   1.544
  492SOL     OW 2374   1.684   2.661   5.398
  492SOL    HW1 2375   1.694   2.696   5.492
  492SOL    HW2 2376   1.772   2.666   5.351
  493SOL     OW 2377   1.234   5.427   3.619
  493SOL    HW1 2378   1.264   5.514   3.658
  493SOL    HW2 2379   1.214   5.440   3.522
  494SOL     OW 2380   2.895   0.405   2.878
  494SOL    HW1 2381   2.813   0.445   2.837
  494SOL    HW2 2382   2.976   0.437   2.828
  495SOL     OW 2383   3.887   4.614   0.402
  495SOL    HW1 2384   3.981   4.643   0.417
  495SOL    HW2 2385   3.861   4.633   0.307
  496SOL     OW 2386   4.779   0.085   3.382
  496SOL    HW1 2387   4.712   0.146   3.425
  496SOL    HW2 2388   4.737   0.037   3.306
  497SOL     OW 2389   4.732   2.883   1.029
  497SOL    HW1 2390   4.674   2.925   1.098
  497SOL    HW2 2391   4.716   2.784   1.027
  498SOL     OW 2392   1.011   0.119   0.997
  498SOL    HW1 2393   0.911   0.117   1.006
  498SOL    HW2 2394   1.053   0.080   1.079
  499SOL     OW 2395   3.089   6.516   6.657
  499SOL    HW1 2396   2.991   6.510   6.681
  499SOL    HW2 2397   3.100   6.573   6.576
  500SOL     OW 2398   6.296   1.559   6.492
  500SOL    HW1 2399   6.209   1.554   6.442
  500SOL    HW2 2400   6.284   1.616   6.573
  501SOL     OW 2401   1.986   2.204   4.824
  501SOL    HW1 2402   1.968   2.292   4.780
  501SOL    HW2 2403   2.025   2.219   4.915
  502SOL     OW 2404   2.285   3.027   6.706
  502SOL    HW1 2405   2.188   3.014   6.726
  502SOL    HW2 2406   2.329   2.939   6.693
  503SOL     OW 2407   4.541   5.128   0.783
  503SOL    HW1 2408   4.607   5.061   0.818
  503SOL    HW2 2409   4.503   5.095   0.697
  504SOL     OW 2410   6.172   0.509   0.305
  504SOL    HW1 2411   6.240   0.487   0.375
  504SOL    HW2 2412   6.152   0.427   0.251
  505SOL     OW 2413   0.153   3.689   5.350
  505SOL    HW1 2414   0.179   3.644   5.265
  505SOL    HW2 2415   0.080   3.755   5.332
  506SOL     OW 2416   2.486   5.830   2.309
  506SOL    HW1 2417   2.417   5.765   2.338
  506SOL    HW2 2418   2.524   5.877   2.389
  507SOL     OW 2419   2.729   6.730   3.605
  507SOL    HW1 2420   2.784   6.810   3.582
  507SOL    HW2 2421   2.632   6.753   3.599
  508SOL     OW 2422   0.475   5.057   2.951
  508SOL    HW1 2423   0.497   5.108   2.867
  508SOL    HW2 2424   0.382   5.023   2.945
  509SOL     OW 2425   4.834   0.497   6.112
  509SOL    HW1 2426   4.817   0.399   6.122
  509SOL    HW2 2427   4.899   0.526   6.182
  510SOL     OW 2428   6.512   4.108   0.536
  510SOL    HW1 2429   6.421   4.092   0.498
  510SOL    HW2 2430   6.558   4.021   0.549
  511SOL     OW 2431   0.285   1.795   0.680
  511SOL    HW1 2432   0.260   1.700   0.659
  511SOL    HW2 2433   0.383   1.807   0.666
  512SOL     OW 2434   1.581   2.142   4.909
  512SOL    HW1 2435   1.583   2.044   4.891
  512SOL    HW2 2436   1.580   2.192   4.823
  513SOL     OW 2437   5.823   5.515   2.876
  513SOL    HW1 2438   5.834   5.561   2.788
  513SOL    HW2 2439   5.795   5.581   2.945
  514SOL     OW 2440   5.085   1.355   4.403
  514SOL    HW1 2441   5.048   1.446   4.425
  514SOL    HW2 2442   5.011   1.288   4.404
  515SOL     OW 2443   3.268   0.540   6.719
  515SOL    HW1 2444   3.286   0.450   6.760
  515SOL    HW2 2445   3.205   0.591   6.777
  516SOL     OW 2446   0.615   5.500   2.693
  516SOL    HW1 2447   0.520   5.531   2.702
  516SOL    HW2 2448   0.674   5.579   2.676
  517SOL     OW 2449   3.853   5.318   0.962
  517SOL    HW1 2450   3.834   5.328   1.060
  517SOL    HW2 2451   3.911   5.394   0.931
  518SOL     OW 2452   2.053   6.937   3.753
  518SOL    HW1 2453   2.151   6.942   3.769
  518SOL    HW2 2454   2.011   0.009   3.778
  519SOL     OW 2455   6.839   6.900   2.819
  519SOL    HW1 2456   6.923   6.906   2.872
  519SOL    HW2 2457   6.862   6.886   2.722
  520SOL     OW 2458   3.781   5.453   0.581
  520SOL    HW1 2459   3.703   5.456   0.643
  520SOL    HW2 2460   3.750   5.469   0.487
  521SOL     OW 2461   6.858   6.810   5.230
  521SOL    HW1 2462   6.825   6.786   5.321
  521SOL    HW2 2463   6.784   6.853   5.177
  522SOL     OW 2464   3.524   4.839   6.451
  522SOL    HW1 2465   3.483   4.750   6.473
  522SOL    HW2 2466   3.619   4.825   6.421
  523SOL     OW 2467   1.681   0.291   5.972
  523SOL    HW1 2468   1.652   0.375   5.925
  523SOL    HW2 2469   1.753   0.312   6.038
  524SOL     OW 2470   6.424   1.311   1.099
  524SOL    HW1 2471   6.450   1.244   1.029
  524SOL    HW2 2472   6.411   1.264   1.187
  525SOL     OW 2473   0.952   3.201   3.702
  525SOL    HW1 2474   0.909   3.220   3.614
  525SOL    HW2 2475   0.882   3.200   3.774
  526SOL     OW 2476   4.083   6.218   4.306
  526SOL    HW1 2477   4.155   6.221   4.376
  526SOL    HW2 2478   4.065   6.310   4.272
  527SOL     OW 2479   6.521   1.145   0.894
  527SOL    HW1 2480   6.517   1.114   0.800
  527SOL    HW2 2481   6.475   1.079   0.954
  528SOL     OW 2482   0.115   1.669   3.881
  528SOL    HW1 2483   0.034   1.689   3.936
  528SOL    HW2 2484   0.103   1.708   3.790
  529SOL     OW 2485   1.056   1.547   6.210
  529SOL    HW1 2486   1.016   1.559   6.119
  529SOL    HW2 2487   1.145   1.502   6.202
  530SOL     OW 2488   3.478   4.560   1.656
  530SOL    HW1 2489   3.549   4.579   1.725
  530SOL    HW2 2490   3.453   4.645   1.610
  531SOL     OW 2491   6.888   1.671   5.900
  531SOL    HW1 2492   6.956   1.735   5.935
  531SOL    HW2 2493   6.825   1.646   5.974
  532SOL     OW 2494   3.750   1.165   6.809
  532SOL    HW1 2495   3.773   1.081   6.858
  532SOL    HW2 2496   3.811   1.174   6.729
  533SOL     OW 2497   3.845   0.308   4.926
  533SOL    HW1 2498   3.773   0.345   4.985
  533SOL    HW2 2499   3.804   0.271   4.843
  534SOL     OW 2500   1.986   4.075   1.364
  534SOL    HW1 2501   1.901   4.079   1.311
  534SOL    HW2 2502   2.003   4.165   1.405
  535SOL     OW 2503   4.569   4.497   3.542
  535SOL    HW1 2504   4.477   4.535   3.552
  535SOL    HW2 2505   4.617   4.502   3.629
  536SOL     OW 2506   6.471   6.333   1.471
  536SOL    HW1 2507   6.406   6.268   1.432
  536SOL    HW2 2508   6.564   6.307   1.446
  537SOL     OW 2509   3.343   1.681   2.837
  537SOL    HW1 2510   3.302   1.642   2.755
  537SOL    HW2 2511   3.274   1.731   2.889
  538SOL     OW 2512   4.177   5.435   5.775
  538SOL    HW1 2513   4.156   5.532   5.787
  538SOL    HW2 2514   4.276   5.423   5.768
  539SOL     OW 2515   2.180   0.036   0.126
  539SOL    HW1 2516   2.175   6.958   0.090
  539SOL    HW2 2517   2.091   0.081   0.114
  540SOL     OW 2518   2.516   1.651   5.462
  540SOL    HW1 2519   2.548   1.633   5.369
  540SOL    HW2 2520   2.487   1.747   5.469
  541SOL     OW 2521   5.201   5.636   2.130
  541SOL    HW1 2522   5.214   5.645   2.031
  541SOL    HW2 2523   5.196   5.727   2.171
  542SOL     OW 2524   4.156   5.708   5.772
  542SOL    HW1 2525   4.167   5.805   5.794
  542SOL    HW2 2526   4.192   5.689   5.681
  543SOL     OW 2527   6.164   1.797   5.145
  543SOL    HW1 2528   6.111   1.867   5.097
  543SOL    HW2 2529   6.127   1.785   5.238
  544SOL     OW 2530   1.168   2.753   1.078
  544SOL    HW1 2531   1.101   2.690   1.118
  544SOL    HW2 2532   1.211   2.806   1.151
  545SOL     OW 2533   7.015   5.446   0.606
  545SOL    HW1 2534   0.093   5.419   0.584
  545SOL    HW2 2535   6.952   5.372   0.582
  546SOL     OW 2536   6.718   5.833   2.884
  546SOL    HW1 2537   6.771   5.793   2.809
  546SOL    HW2 2538   6.622   5.841   2.857
  547SOL     OW 2539   3.862   6.230   6.585
  547SOL    HW1 2540   3.770   6.249   6.619
  547SOL    HW2 2541   3.906   6.163   6.645
  548SOL     OW 2542   4.025   2.917   0.108
  548SOL    HW1 2543   3.961   2.994   0.105
  548SOL    HW2 2544   4.064   2.903   0.017
  549SOL     OW 2545   5.369   2.363   3.726
  549SOL    HW1 2546   5.320   2.388   3.809
  549SOL    HW2 2547   5.425   2.282   3.744
  550SOL     OW 2548   0.277   5.526   3.915
  550SOL    HW1 2549   0.353   5.461   3.906
  550SOL    HW2 2550   0.232   5.513   4.004
  551SOL     OW 2551   5.451   0.735   0.679
  551SOL    HW1 2552   5.534   0.792   0.681
  551SOL    HW2 2553   5.471   0.646   0.720
  552SOL     OW 2554   0.190   0.439   4.876
  552SOL    HW1 2555   0.288   0.417   4.870
  552SOL    HW2 2556   0.177   0.514   4.941
  553SOL     OW 2557   3.640   2.330   5.365
  553SOL    HW1 2558   3.720   2.374   5.406
  553SOL    HW2 2559   3.667   2.285   5.280
  554SOL     OW 2560   6.942   5.179   0.526
  554SOL    HW1 2561   0.013   5.130   0.523
  554SOL    HW2 2562   6.868   5.115   0.548
  555SOL     OW 2563   3.277   4.386   5.861
  555SOL    HW1 2564   3.215   4.333   5.803
  555SOL    HW2 2565   3.237   4.476   5.879
  556SOL     OW 2566   5.575   6.115   3.060
  556SOL    HW1 2567   5.546   6.097   2.966
  556SOL    HW2 2568   5.673   6.136   3.062
  557SOL     OW 2569   6.495   3.801   0.116
  557SOL    HW1 2570   6.461   3.740   0.044
  557SOL    HW2 2571   6.474   3.761   0.206
  558SOL     OW 2572   3.034   3.417   1.778
  558SOL    HW1 2573   3.017   3.408   1.876
  558SOL    HW2 2574   3.107   3.484   1.762
  559SOL     OW 2575   5.998   0.992   6.319
  559SOL    HW1 2576   6.082   1.041   6.294
  559SOL    HW2 2577   5.950   1.042   6.391
  560SOL     OW 2578   1.380   2.300   3.355
  560SOL    HW1 2579   1.423   2.334   3.438
  560SOL    HW2 2580   1.379   2.200   3.355
  561SOL     OW 2581   0.149   4.337   0.109
  561SOL    HW1 2582   0.151   4.437   0.111
  561SOL    HW2 2583   0.242   4.302   0.119
  562SOL     OW 2584   3.377   5.879   3.221
  562SOL    HW1 2585   3.400   5.863   3.125
  562SOL    HW2 2586   3.457   5.859   3.279
  563SOL     OW 2587   0.456   1.121   4.583
  563SOL    HW1 2588   0.393   1.183   4.536
  563SOL    HW2 2589   0.547   1.128   4.541
  564SOL     OW 2590   5.758   1.476   5.582
  564SOL    HW1 2591   5.834   1.455   5.520
  564SOL    HW2 2592   5.701   1.394   5.593
  565SOL     OW 2593   3.214   3.536   3.924
  565SOL    HW1 2594   3.246   3.574   3.837
  565SOL    HW2 2595   3.128   3.488   3.909
  566SOL     OW 2596   1.563   2.720   3.464
  566SOL    HW1 2597   1.542   2.625   3.485
  566SOL    HW2 2598   1.493   2.779   3.504
  567SOL     OW 2599   1.694   3.240   5.354
  567SOL    HW1 2600   1.778   3.263   5.402
  567SOL    HW2 2601   1.652   3.323   5.317
  568SOL     OW 2602   1.150   0.690   6.752
  568SOL    HW1 2603   1.081   0.624   6.723
  568SOL    HW2 2604   1.206   0.650   6.825
  569SOL     OW 2605   5.249   3.434   5.347
  569SOL    HW1 2606   5.331   3.484   5.320
  569SOL    HW2 2607   5.169   3.473   5.300
  570SOL     OW 2608   3.266   0.343   6.223
  570SOL    HW1 2609   3.240   0.250   6.251
  570SOL    HW2 2610   3.185   0.401   6.225
  571SOL     OW 2611   2.478   4.373   1.792
  571SOL    HW1 2612   2.521   4.340   1.708
  571SOL    HW2 2613   2.515   4.463   1.814
  572SOL     OW 2614   2.857   1.497   4.906
  572SOL    HW1 2615   2.793   1.438   4.956
  572SOL    HW2 2616   2.830   1.501   4.810
  573SOL     OW 2617   0.652   6.963   5.904
  573SOL    HW1 2618   0.600   0.006   5.966
  573SOL    HW2 2619   0.732   7.012   5.870
  574SOL     OW 2620   2.748   0.727   5.768
  574SOL    HW1 2621   2.652   0.704   5.756
  574SOL    HW2 2622   2.762   0.766   5.859
  575SOL     OW 2623   4.008   3.524   0.554
  575SOL    HW1 2624   3.943   3.471   0.610
  575SOL    HW2 2625   4.010   3.487   0.462
  576SOL     OW 2626   0.399   0.837   3.137
  576SOL    HW1 2627   0.323   0.833   3.072
  576SOL    HW2 2628   0.458   0.757   3.124
  577SOL     OW 2629   0.074   6.659   2.447
  577SOL    HW1 2630   0.025   6.671   2.534
  577SOL    HW2 2631   0.007   6.646   2.373
  578SOL     OW 2632   4.154   6.607   0.733
  578SOL    HW1 2633   4.070   6.574   0.776
  578SOL    HW2 2634   4.217   6.531   0.720
  579SOL     OW 2635   0.704   3.765   2.121
  579SOL    HW1 2636   0.777   3.740   2.057
  579SOL    HW2 2637   0.618   3.723   2.091
  580SOL     OW 2638   4.873   4.573   4.732
  580SOL    HW1 2639   4.864   4.671   4.714
  580SOL    HW2 2640   4.969   4.551   4.748
  581SOL     OW 2641   2.171   2.367   3.764
  581SOL    HW1 2642   2.269   2.366   3.742
  581SOL    HW2 2643   2.159   2.388   3.861
  582SOL     OW 2644   5.505   3.938   4.807
  582SOL    HW1 2645   5.584   3.877   4.796
  582SOL    HW2 2646   5.515   3.990   4.892
  583SOL     OW 2647   3.508   5.480   5.388
  583SOL    HW1 2648   3.466   5.442   5.470
  583SOL    HW2 2649   3.600   5.513   5.409
  584SOL     OW 2650   3.837   0.933   5.211
  584SOL    HW1 2651   3.826   0.930   5.310
  584SOL    HW2 2652   3.934   0.938   5.189
  585SOL     OW 2653   3.583   6.283   1.823
  585SOL    HW1 2654   3.492   6.249   1.797
  585SOL    HW2 2655   3.581   6.383   1.828
  586SOL     OW 2656   3.746   0.397   1.203
  586SOL    HW1 2657   3.734   0.356   1.293
  586SOL    HW2 2658   3.746   0.325   1.134
  587SOL     OW 2659   4.668   0.897   2.976
  587SOL    HW1 2660   4.665   0.984   3.026
  587SOL    HW2 2661   4.747   0.844   3.006
  588SOL     OW 2662   2.369   4.348   2.451
  588SOL    HW1 2663   2.324   4.335   2.363
  588SOL    HW2 2664   2.367   4.263   2.503
  589SOL     OW 2665   3.390   4.523   6.528
  589SOL    HW1 2666   3.391   4.531   6.428
  589SOL    HW2 2667   3.295   4.514   6.559
  590SOL     OW 2668   2.242   1.804   6.182
  590SOL    HW1 2669   2.315   1.818   6.116
  590SOL    HW2 2670   2.266   1.727   6.242
  591SOL     OW 2671   3.019   0.476   4.210
  591SOL    HW1 2672   3.106   0.440   4.175
  591SOL    HW2 2673   2.946   0.411   4.189
  592SOL     OW 2674   4.693   2.286   4.097
  592SOL    HW1 2675   4.596   2.270   4.074
  592SOL    HW2 2676   4.741   2.316   4.015
  593SOL     OW 2677   1.283   0.261   0.358
  593SOL    HW1 2678   1.323   0.345   0.324
  593SOL    HW2 2679   1.355   0.202   0.395
  594SOL     OW 2680   3.444   1.130   5.145
  594SOL    HW1 2681   3.410   1.066   5.215
  594SOL    HW2 2682   3.366   1.170   5.097
  595SOL     OW 2683   6.542   3.775   2.114
  595SOL    HW1 2684   6.474   3.845   2.137
  595SOL    HW2 2685   6.559   3.718   2.195
  596SOL     OW 2686   5.815   4.718   4.219
  596SOL    HW1 2687   5.895   4.778   4.213
  596SOL    HW2 2688   5.831   4.636   4.165
  597SOL     OW 2689   4.028   1.307   6.258
  597SOL    HW1 2690   4.058   1.376   6.192
  597SOL    HW2 2691   4.104   1.286   6.320
  598SOL     OW 2692   3.204   2.931   2.553
  598SOL    HW1 2693   3.195   2.874   2.635
  598SOL    HW2 2694   3.275   2.999   2.568
  599SOL     OW 2695   2.025   4.725   1.015
  599SOL    HW1 2696   2.063   4.775   1.092
  599SOL    HW2 2697   2.098   4.675   0.969
  600SOL     OW 2698   0.407   3.420   6.312
  600SOL    HW1 2699   0.468   3.367   6.371
  600SOL    HW2 2700   0.365   3.359   6.244
  601SOL     OW 2701   7.007   0.324   5.657
  601SOL    HW1 2702   0.082   0.284   5.646
  601SOL    HW2 2703   7.014   0.423   5.660
  602SOL     OW 2704   0.878   0.660   3.516
  602SOL    HW1 2705   0.898   0.751   3.552
  602SOL    HW2 2706   0.843   0.667   3.423
  603SOL     OW 2707   1.234   1.788   4.169
  603SOL    HW1 2708   1.329   1.816   4.152
  603SOL    HW2 2709   1.226   1.690   4.154
  604SOL     OW 2710   5.344   2.431   0.768
  604SOL    HW1 2711   5.304   2.458   0.681
  604SOL    HW2 2712   5.273   2.429   0.839
  605SOL     OW 2713   5.743   6.400   2.048
  605SOL    HW1 2714   5.716   6.349   2.129
  605SOL    HW2 2715   5.739   6.341   1.968
  606SOL     OW 2716   3.226   6.616   5.132
  606SOL    HW1 2717   3.216   6.520   5.159
  606SOL    HW2 2718   3.145   6.668   5.161
  607SOL     OW 2719   1.682   3.282   6.012
  607SOL    HW1 2720   1.630   3.361   6.046
  607SOL    HW2 2721   1.766   3.271   6.065
  608SOL     OW 2722   3.264   1.304   0.489
  608SOL    HW1 2723   3.283   1.360   0.570
  608SOL    HW2 2724   3.175   1.328   0.451
  609SOL     OW 2725   3.987   3.034   2.620
  609SOL    HW1 2726   3.914   3.066   2.681
  609SOL    HW2 2727   4.066   3.095   2.627
  610SOL     OW 2728   4.972   2.954   1.930
  610SOL    HW1 2729   4.875   2.956   1.957
  610SOL    HW2 2730   4.979   2.975   1.833
  611SOL     OW 2731   3.705   1.769   2.206
  611SOL    HW1 2732   3.635   1.710   2.165
  611SOL    HW2 2733   3.730   1.841   2.141
  612SOL     OW 2734   4.353   5.177   4.469
  612SOL    HW1 2735   4.256   5.164   4.489
  612SOL    HW2 2736   4.401   5.206   4.551
  613SOL     OW 2737   3.732   5.371   6.057
  613SOL    HW1 2738   3.694   5.282   6.082
  613SOL    HW2 2739   3.704   5.439   6.124
  614SOL     OW 2740   3.584   6.191   5.927
  614SOL    HW1 2741   3.572   6.189   6.027
  614SOL    HW2 2742   3.516   6.132   5.885
  615SOL     OW 2743   6.912   4.964   3.801
  615SOL    HW1 2744   6.969   5.039   3.836
  615SOL    HW2 2745   6.826   4.962   3.851
  616SOL     OW 2746   5.750   2.513   3.896
  616SOL    HW1 2747   5.765   2.601   3.942
  616SOL    HW2 2748   5.825   2.451   3.916
  617SOL     OW 2749   2.117   0.351   6.258
  617SOL    HW1 2750   2.206   0.318   6.227
  617SOL    HW2 2751   2.093   0.307   6.344
  618SOL     OW 2752   2.209   0.572   2.810
  618SOL    HW1 2753   2.129   0.577   2.750
  618SOL    HW2 2754   2.278   0.513   2.769
  619SOL     OW 2755   1.245   2.627   6.784
  619SOL    HW1 2756   1.178   2.562   6.821
  619SOL    HW2 2757   1.220   2.650   6.691
  620SOL     OW 2758   4.423   3.721   0.713
  620SOL    HW1 2759   4.325   3.723   0.731
  620SOL    HW2 2760   4.473   3.752   0.794
  621SOL     OW 2761   7.001   6.106   1.109
  621SOL    HW1 2762   0.045   6.184   1.128
  621SOL    HW2 2763   0.027   6.022   1.144
  622SOL     OW 2764   0.878   1.271   6.929
  622SOL    HW1 2765   0.977   1.274   6.922
  622SOL    HW2 2766   0.842   1.204   6.864
  623SOL     OW 2767   6.723   5.747   5.086
  623SOL    HW1 2768   6.710   5.828   5.029
  623SOL    HW2 2769   6.693   5.767   5.180
  624SOL     OW 2770   0.677   1.570   1.591
  624SOL    HW1 2771   0.694   1.620   1.506
  624SOL    HW2 2772   0.579   1.557   1.603
  625SOL     OW 2773   1.463   1.152   2.000
  625SOL    HW1 2774   1.415   1.201   1.928
  625SOL    HW2 2775   1.492   1.063   1.965
  626SOL     OW 2776   3.377   5.595   4.779
  626SOL    HW1 2777   3.476   5.610   4.768
  626SOL    HW2 2778   3.362   5.530   4.853
  627SOL     OW 2779   4.515   6.176   6.993
  627SOL    HW1 2780   4.497   6.140   6.901
  627SOL    HW2 2781   4.607   6.149   0.006
  628SOL     OW 2782   4.989   3.532   3.284
  628SOL    HW1 2783   4.958   3.608   3.228
  628SOL    HW2 2784   4.967   3.446   3.239
  629SOL     OW 2785   1.838   6.835   1.001
  629SOL    HW1 2786   1.918   6.783   1.032
  629SOL    HW2 2787   1.827   6.824   0.903
  630SOL     OW 2788   2.422   0.812   2.213
  630SOL    HW1 2789   2.473   0.757   2.279
  630SOL    HW2 2790   2.359   0.754   2.162
  631SOL     OW 2791   2.471   1.521   4.097
  631SOL    HW1 2792   2.379   1.513   4.060
  631SOL    HW2 2793   2.469   1.507   4.196
  632SOL     OW 2794   2.919   0.350   0.554
  632SOL    HW1 2795   2.895   0.333   0.650
  632SOL    HW2 2796   3.014   0.383   0.550
  633SOL     OW 2797   2.239   0.184   4.775
  633SOL    HW1 2798   2.239   0.239   4.859
  633SOL    HW2 2799   2.146   0.157   4.753
  634SOL     OW 2800   3.102   5.612   2.049
  634SOL    HW1 2801   3.092   5.586   1.953
  634SOL    HW2 2802   3.176   5.557   2.090
  635SOL     OW 2803   3.110   0.275   2.190
  635SOL    HW1 2804   3.139   0.180   2.179
  635SOL    HW2 2805   3.054   0.302   2.111
  636SOL     OW 2806   4.957   4.688   6.474
  636SOL    HW1 2807   5.000   4.774   6.502
  636SOL    HW2 2808   4.872   4.707   6.424
  637SOL     OW 2809   5.840   5.243   6.445
  637SOL    HW1 2810   5.742   5.259   6.452
  637SOL    HW2 2811   5.858   5.171   6.379
  638SOL     OW 2812   5.854   1.737   3.406
  638SOL    HW1 2813   5.770   1.710   3.359
  638SOL    HW2 2814   5.834   1.803   3.477
  639SOL     OW 2815   3.957   3.618   1.840
  639SOL    HW1 2816   3.862   3.591   1.852
  639SOL    HW2 2817   3.998   3.636   1.930
  640SOL     OW 2818   2.753   2.364   5.174
  640SOL    HW1 2819   2.835   2.330   5.127
  640SOL    HW2 2820   2.758   2.340   5.271
  641SOL     OW 2821   0.094   6.685   4.516
  641SOL    HW1 2822   0.066   6.604   4.567
  641SOL    HW2 2823   0.064   6.767   4.563
  642SOL     OW 2824   0.513   4.455   6.063
  642SOL    HW1 2825   0.592   4.398   6.041
  642SOL    HW2 2826   0.429   4.405   6.041
  643SOL     OW 2827   5.631   6.285   4.724
  643SOL    HW1 2828   5.614   6.347   4.801
  643SOL    HW2 2829   5.548   6.277   4.669
  644SOL     OW 2830   3.201   6.296   1.609
  644SOL    HW1 2831   3.216   6.323   1.514
  644SOL    HW2 2832   3.268   6.227   1.635
  645SOL     OW 2833   0.592   3.003   2.913
  645SOL    HW1 2834   0.617   3.054   2.830
  645SOL    HW2 2835   0.646   2.920   2.919
  646SOL     OW 2836   1.707   3.096   4.302
  646SOL    HW1 2837   1.727   3.182   4.349
  646SOL    HW2 2838   1.742   3.101   4.208
  647SOL     OW 2839   5.668   4.569   0.528
  647SOL    HW1 2840   5.660   4.475   0.562
  647SOL    HW2 2841   5.594   4.587   0.463
  648SOL     OW 2842   4.195   2.213   3.898
  648SOL    HW1 2843   4.124   2.204   3.967
  648SOL    HW2 2844   4.153   2.220   3.808
  649SOL     OW 2845   4.351   4.480   1.545
  649SOL    HW1 2846   4.254   4.456   1.538
  649SOL    HW2 2847   4.365   4.571   1.505
  650SOL     OW 2848   5.636   4.998   0.465
  650SOL    HW1 2849   5.574   5.007   0.543
  650SOL    HW2 2850   5.719   4.950   0.494
  651SOL     OW 2851   1.400   5.909   6.333
  651SOL    HW1 2852   1.500   5.912   6.322
  651SOL    HW2 2853   1.372   5.817   6.359
  652SOL     OW 2854   4.935   2.625   1.415
  652SOL    HW1 2855   4.843   2.639   1.380
  652SOL    HW2 2856   4.993   2.586   1.344
  653SOL     OW 2857   3.481   5.474   2.583
  653SOL    HW1 2858   3.520   5.384   2.560
  653SOL    HW2 2859   3.554   5.539   2.599
  654SOL     OW 2860   0.100   5.135   6.886
  654SOL    HW1 2861   0.054   5.199   6.825
  654SOL    HW2 2862   0.038   5.109   6.960
  655SOL     OW 2863   1.660   1.865   0.274
  655SOL    HW1 2864   1.741   1.901   0.320
  655SOL    HW2 2865   1.682   1.777   0.231
  656SOL     OW 2866   1.856   6.431   1.185
  656SOL    HW1 2867   1.872   6.446   1.283
  656SOL    HW2 2868   1.881   6.338   1.160
  657SOL     OW 2869   3.958   0.480   0.170
  657SOL    HW1 2870   4.015   0.479   0.088
  657SOL    HW2 2871   3.917   0.571   0.180
  658SOL     OW 2872   3.730   5.523   0.087
  658SOL    HW1 2873   3.721   5.483   7.011
  658SOL    HW2 2874   3.684   5.612   0.090
  659SOL     OW 2875   3.658   0.283   6.208
  659SOL    HW1 2876   3.610   0.344   6.271
  659SOL    HW2 2877   3.756   0.287   6.227
  660SOL     OW 2878   2.901   6.631   3.367
  660SOL    HW1 2879   2.915   6.535   3.342
  660SOL    HW2 2880   2.858   6.636   3.457
  661SOL     OW 2881   6.415   4.866   2.651
  661SOL    HW1 2882   6.512   4.844   2.652
  661SOL    HW2 2883   6.372   4.835   2.736
  662SOL     OW 2884   4.494   2.355   6.902
  662SOL    HW1 2885   4.529   2.264   6.882
  662SOL    HW2 2886   4.416   2.349   6.963
  663SOL     OW 2887   1.114   4.256   4.625
  663SOL    HW1 2888   1.201   4.304   4.621
  663SOL    HW2 2889   1.104   4.210   4.713
  664SOL     OW 2890   5.858   6.970   6.351
  664SOL    HW1 2891   5.909   6.886   6.372
  664SOL    HW2 2892   5.762   6.947   6.332
  665SOL     OW 2893   1.666   3.984   2.103
  665SOL    HW1 2894   1.580   3.933   2.115
  665SOL    HW2 2895   1.725   3.936   2.038
  666SOL     OW 2896   4.253   0.765   2.498
  666SOL    HW1 2897   4.187   0.829   2.460
  666SOL    HW2 2898   4.228   0.743   2.592
  667SOL     OW 2899   0.502   0.387   1.368
  667SOL    HW1 2900   0.550   0.475   1.362
  667SOL    HW2 2901   0.440   0.389   1.447
  668SOL     OW 2902   5.249   3.190   6.939
  668SOL    HW1 2903   5.341   3.226   6.925
  668SOL    HW2 2904   5.183   3.248   6.891
  669SOL     OW 2905   5.096   1.512   3.177
  669SOL    HW1 2906   5.062   1.486   3.087
  669SOL    HW2 2907   5.094   1.611   3.187
  670SOL     OW 2908   4.201   2.216   2.348
  670SOL    HW1 2909   4.208   2.186   2.443
  670SOL    HW2 2910   4.116   2.183   2.309
  671SOL     OW 2911   1.167   5.677   1.699
  671SOL    HW1 2912   1.239   5.608   1.703
  671SOL    HW2 2913   1.080   5.633   1.675
  672SOL     OW 2914   0.739   0.083   1.050
  672SOL    HW1 2915   0.694   0.026   0.981
  672SOL    HW2 2916   0.680   0.090   1.130
  673SOL     OW 2917   6.245   6.991   6.601
  673SOL    HW1 2918   6.147   7.012   6.598
  673SOL    HW2 2919   6.298   0.060   6.609
  674SOL     OW 2920   5.303   7.007   4.292
  674SOL    HW1 2921   5.393   0.034   4.290
  674SOL    HW2 2922   5.303   6.931   4.358
  675SOL     OW 2923   1.032   4.947   2.071
  675SOL    HW1 2924   0.954   4.912   2.122
  675SOL    HW2 2925   1.003   4.970   1.978
  676SOL     OW 2926   2.507   5.788   6.597
  676SOL    HW1 2927   2.437   5.858   6.586
  676SOL    HW2 2928   2.586   5.826   6.646
  677SOL     OW 2929   5.547   0.636   1.419
  677SOL    HW1 2930   5.504   0.726   1.412
  677SOL    HW2 2931   5.536   0.587   1.332
  678SOL     OW 2932   0.699   5.255   4.095
  678SOL    HW1 2933   0.616   5.308   4.077
  678SOL    HW2 2934   0.706   5.237   4.193
  679SOL     OW 2935   4.896   1.377   5.807
  679SOL    HW1 2936   4.904   1.420   5.897
  679SOL    HW2 2937   4.964   1.417   5.745
  680SOL     OW 2938   6.013   6.571   4.396
  680SOL    HW1 2939   5.953   6.586   4.318
  680SOL    HW2 2940   6.046   6.477   4.395
  681SOL     OW 2941   4.120   4.759   2.655
  681SOL    HW1 2942   4.200   4.753   2.595
  681SOL    HW2 2943   4.042   4.795   2.604
  682SOL     OW 2944   6.409   1.303   2.718
  682SOL    HW1 2945   6.441   1.398   2.720
  682SOL    HW2 2946   6.466   1.251   2.654
  683SOL     OW 2947   3.405   4.897   0.282
  683SOL    HW1 2948   3.460   4.829   0.233
  683SOL    HW2 2949   3.425   4.988   0.247
  684SOL     OW 2950   6.311   1.911   6.321
  684SOL    HW1 2951   6.254   1.993   6.316
  684SOL    HW2 2952   6.377   1.920   6.395
  685SOL     OW 2953   3.123   6.761   3.689
  685SOL    HW1 2954   3.108   6.833   3.621
  685SOL    HW2 2955   3.156   6.802   3.774
  686SOL     OW 2956   3.348   0.220   5.443
  686SOL    HW1 2957   3.438   0.235   5.401
  686SOL    HW2 2958   3.278   0.218   5.372
  687SOL     OW 2959   0.092   0.999   4.497
  687SOL    HW1 2960   0.009   1.018   4.550
  687SOL    HW2 2961   0.124   1.084   4.455
  688SOL     OW 2962   5.144   3.331   0.176
  688SOL    HW1 2963   5.204   3.300   0.102
  688SOL    HW2 2964   5.200   3.367   0.251
  689SOL     OW 2965   2.675   5.490   0.156
  689SOL    HW1 2966   2.702   5.558   0.225
  689SOL    HW2 2967   2.756   5.457   0.108
  690SOL     OW 2968   5.674   3.735   4.124
  690SOL    HW1 2969   5.657   3.670   4.198
  690SOL    HW2 2970   5.608   3.809   4.128
  691SOL     OW 2971   5.504   0.997   2.281
  691SOL    HW1 2972   5.451   1.019   2.200
  691SOL    HW2 2973   5.461   0.922   2.331
  692SOL     OW 2974   1.097   6.995   3.408
  692SOL    HW1 2975   1.161   6.919   3.394
  692SOL    HW2 2976   1.141   0.049   3.465
  693SOL     OW 2977   6.040   4.067   2.359
  693SOL    HW1 2978   6.084   4.152   2.390
  693SOL    HW2 2979   5.949   4.088   2.323
  694SOL     OW 2980   4.498   4.691   4.388
  694SOL    HW1 2981   4.551   4.617   4.346
  694SOL    HW2 2982   4.522   4.697   4.485
  695SOL     OW 2983   4.540   6.930   4.101
  695SOL    HW1 2984   4.460   6.898   4.151
  695SOL    HW2 2985   4.622   6.883   4.134
  696SOL     OW 2986   6.224   4.471   1.803
  696SOL    HW1 2987   6.257   4.384   1.765
  696SOL    HW2 2988   6.298   4.537   1.803
  697SOL     OW 2989   0.452   6.265   2.905
  697SOL    HW1 2990   0.375   6.321   2.874
  697SOL    HW2 2991   0.448   6.175   2.863
  698SOL     OW 2992   5.806   6.194   6.033
  698SOL    HW1 2993   5.802   6.228   6.127
  698SOL    HW2 2994   5.778   6.266   5.969
  699SOL     OW 2995   4.022   3.202   0.737
  699SOL    HW1 2996   3.950   3.172   0.798
  699SOL    HW2 2997   4.080   3.125   0.712
  700SOL     OW 2998   3.924   6.600   5.411
  700SOL    HW1 2999   4.023   6.614   5.420
  700SOL    HW2 3000   3.894   6.638   5.323
  701SOL     OW 3001   4.555   4.544   2.083
  701SOL    HW1 3002   4.651   4.564   2.065
  701SOL    HW2 3003   4.537   4.448   2.066
  702SOL     OW 3004   4.067   0.579   4.853
  702SOL    HW1 3005   3.973   0.551   4.832
  702SOL    HW2 3006   4.109   0.511   4.914
  703SOL     OW 3007   3.782   2.837   0.620
  703SOL    HW1 3008   3.816   2.909   0.560
  703SOL    HW2 3009   3.683   2.844   0.628
  704SOL     OW 3010   3.860   1.732   0.243
  704SOL    HW1 3011   3.872   1.636   0.266
  704SOL    HW2 3012   3.904   1.789   0.312
  705SOL     OW 3013   0.043   6.366   5.728
  705SOL    HW1 3014   0.006   6.449   5.685
  705SOL    HW2 3015   0.093   6.313   5.659
  706SOL     OW 3016   4.139   0.296   4.903
  706SOL    HW1 3017   4.043   0.298   4.930
  706SOL    HW2 3018   4.149   0.244   4.818
  707SOL     OW 3019   3.361   5.002   4.105
  707SOL    HW1 3020   3.265   4.982   4.126
  707SOL    HW2 3021   3.415   4.998   4.189
  708SOL     OW 3022   3.110   6.130   3.823
  708SOL    HW1 3023   3.196   6.098   3.783
  708SOL    HW2 3024   3.061   6.187   3.756
  709SOL     OW 3025   2.135   0.097   1.938
  709SOL    HW1 3026   2.104   0.113   1.844
  709SOL    HW2 3027   2.106   0.006   1.967
  710SOL     OW 3028   4.825   2.965   2.622
  710SOL    HW1 3029   4.797   3.026   2.548
  710SOL    HW2 3030   4.825   3.014   2.709
  711SOL     OW 3031   6.982   1.325   1.147
  711SOL    HW1 3032   6.895   1.314   1.100
  711SOL    HW2 3033   0.035   1.267   1.103
  712SOL     OW 3034   5.068   4.006   0.212
  712SOL    HW1 3035   5.093   3.939   0.142
  712SOL    HW2 3036   5.069   4.098   0.172
  713SOL     OW 3037   4.243   2.885   6.083
  713SOL    HW1 3038   4.208   2.928   6.000
  713SOL    HW2 3039   4.190   2.917   6.161
  714SOL     OW 3040   4.451   6.563   2.783
  714SOL    HW1 3041   4.362   6.519   2.801
  714SOL    HW2 3042   4.453   6.652   2.828
  715SOL     OW 3043   5.922   4.239   5.512
  715SOL    HW1 3044   5.993   4.246   5.582
  715SOL    HW2 3045   5.924   4.148   5.471
  716SOL     OW 3046   3.507   1.832   3.612
  716SOL    HW1 3047   3.424   1.812   3.664
  716SOL    HW2 3048   3.519   1.931   3.607
  717SOL     OW 3049   4.942   5.118   3.964
  717SOL    HW1 3050   4.942   5.038   4.024
  717SOL    HW2 3051   5.036   5.135   3.932
  718SOL     OW 3052   6.500   1.699   5.335
  718SOL    HW1 3053   6.477   1.762   5.409
  718SOL    HW2 3054   6.454   1.728   5.251
  719SOL     OW 3055   4.653   5.404   2.586
  719SOL    HW1 3056   4.668   5.306   2.573
  719SOL    HW2 3057   4.691   5.455   2.509
  720SOL     OW 3058   3.212   1.720   1.285
  720SOL    HW1 3059   3.219   1.806   1.234
  720SOL    HW2 3060   3.216   1.739   1.383
  721SOL     OW 3061   0.169   2.915   2.206
  721SOL    HW1 3062   0.075   2.914   2.240
  721SOL    HW2 3063   0.232   2.921   2.283
  722SOL     OW 3064   5.681   6.337   1.780
  722SOL    HW1 3065   5.669   6.243   1.750
  722SOL    HW2 3066   5.592   6.384   1.779
  723SOL     OW 3067   2.011   0.673   4.375
  723SOL    HW1 3068   2.010   0.638   4.281
  723SOL    HW2 3069   1.921   0.659   4.416
  724SOL     OW 3070   1.394   2.846   4.909
  724SOL    HW1 3071   1.353   2.810   4.993
  724SOL    HW2 3072   1.481   2.799   4.893
  725SOL     OW 3073   1.598   4.034   3.522
  725SOL    HW1 3074   1.662   4.059   3.449
  725SOL    HW2 3075   1.642   3.970   3.585
  726SOL     OW 3076   2.212   3.853   0.423
  726SOL    HW1 3077   2.236   3.928   0.486
  726SOL    HW2 3078   2.291   3.792   0.413
  727SOL     OW 3079   3.663   5.256   4.606
  727SOL    HW1 3080   3.576   5.299   4.627
  727SOL    HW2 3081   3.736   5.303   4.656
  728SOL     OW 3082   5.982   3.611   3.609
  728SOL    HW1 3083   5.898   3.601   3.556
  728SOL    HW2 3084   5.997   3.707   3.632
  729SOL     OW 3085   0.795   5.152   0.399
  729SOL    HW1 3086   0.727   5.164   0.326
  729SOL    HW2 3087   0.756   5.095   0.471
  730SOL     OW 3088   4.202   1.611   3.162
  730SOL    HW1 3089   4.191   1.696   3.111
  730SOL    HW2 3090   4.278   1.620   3.227
  731SOL     OW 3091   4.903   4.325   4.964
  731SOL    HW1 3092   4.915   4.307   4.866
  731SOL    HW2 3093   4.926   4.242   5.015
  732SOL     OW 3094   4.499   0.545   4.330
  732SOL    HW1 3095   4.485   0.610   4.405
  732SOL    HW2 3096   4.586   0.565   4.285
  733SOL     OW 3097   0.532   4.984   4.175
  733SOL    HW1 3098   0.499   5.075   4.201
  733SOL    HW2 3099   0.617   4.993   4.123
  734SOL     OW 3100   5.874   5.968   3.301
  734SOL    HW1 3101   5.787   6.014   3.321
  734SOL    HW2 3102   5.866   5.871   3.326
  735SOL     OW 3103   4.527   0.661   2.834
  735SOL    HW1 3104   4.438   0.706   2.833
  735SOL    HW2 3105   4.585   0.705   2.903
  736SOL     OW 3106   1.775   1.976   3.955
  736SOL    HW1 3107   1.745   2.065   3.992
  736SOL    HW2 3108   1.713   1.948   3.882
  737SOL     OW 3109   3.392   0.954   6.152
  737SOL    HW1 3110   3.479   0.961   6.201
  737SOL    HW2 3111   3.399   0.881   6.084
  738SOL     OW 3112   1.653   5.358   0.163
  738SOL    HW1 3113   1.556   5.364   0.189
  738SOL    HW2 3114   1.685   5.264   0.176
  739SOL     OW 3115   1.823   0.561   3.282
  739SOL    HW1 3116   1.830   0.574   3.183
  739SOL    HW2 3117   1.827   0.463   3.303
  740SOL     OW 3118   4.714   2.844   3.030
  740SOL    HW1 3119   4.755   2.769   3.082
  740SOL    HW2 3120   4.683   2.811   2.941
  741SOL     OW 3121   2.942   1.650   2.797
  741SOL    HW1 3122   2.986   1.608   2.876
  741SOL    HW2 3123   3.010   1.664   2.725
  742SOL     OW 3124   2.304   0.502   2.453
  742SOL    HW1 3125   2.205   0.491   2.467
  742SOL    HW2 3126   2.327   0.476   2.359
  743SOL     OW 3127   0.092   6.622   2.850
  743SOL    HW1 3128   0.151   6.550   2.813
  743SOL    HW2 3129   0.148   6.701   2.876
  744SOL     OW 3130   5.392   1.714   1.054
  744SOL    HW1 3131   5.462   1.644   1.066
  744SOL    HW2 3132   5.408   1.761   0.967
  745SOL     OW 3133   1.831   0.038   5.595
  745SOL    HW1 3134   1.772   7.003   5.532
  745SOL    HW2 3135   1.846   0.130   5.560
  746SOL     OW 3136   6.137   5.803   4.781
  746SOL    HW1 3137   6.053   5.752   4.761
  746SOL    HW2 3138   6.124   5.899   4.759
  747SOL     OW 3139   3.711   5.282   2.469
  747SOL    HW1 3140   3.716   5.365   2.415
  747SOL    HW2 3141   3.637   5.224   2.435
  748SOL     OW 3142   6.141   4.778   2.096
  748SOL    HW1 3143   6.090   4.735   2.022
  748SOL    HW2 3144   6.159   4.874   2.073
  749SOL     OW 3145   4.787   4.272   4.496
  749SOL    HW1 3146   4.841   4.266   4.579
  749SOL    HW2 3147   4.789   4.183   4.448
  750SOL     OW 3148   2.693   2.077   3.146
  750SOL    HW1 3149   2.656   2.166   3.170
  750SOL    HW2 3150   2.746   2.085   3.061
  751SOL     OW 3151   4.123   0.153   0.452
  751SOL    HW1 3152   4.192   0.088   0.481
  751SOL    HW2 3153   4.135   0.173   0.354
  752SOL     OW 3154   3.007   3.200   4.484
  752SOL    HW1 3155   2.960   3.287   4.474
  752SOL    HW2 3156   3.032   3.164   4.394
  753SOL     OW 3157   3.752   3.820   3.515
  753SOL    HW1 3158   3.799   3.876   3.582
  753SOL    HW2 3159   3.816   3.754   3.475
  754SOL     OW 3160   4.787   0.453   6.702
  754SOL    HW1 3161   4.691   0.434   6.683
  754SOL    HW2 3162   4.840   0.443   6.617
  755SOL     OW 3163   4.672   4.176   5.139
  755SOL    HW1 3164   4.582   4.165   5.181
  755SOL    HW2 3165   4.686   4.273   5.117
  756SOL     OW 3166   3.101   5.471   5.730
  756SOL    HW1 3167   3.067   5.515   5.647
  756SOL    HW2 3168   3.024   5.453   5.791
  757SOL     OW 3169   1.389   6.756   1.866
  757SOL    HW1 3170   1.363   6.847   1.835
  757SOL    HW2 3171   1.477   6.730   1.826
  758SOL     OW 3172   3.851   1.296   4.986
  758SOL    HW1 3173   3.799   1.349   5.053
  758SOL    HW2 3174   3.822   1.200   4.990
  759SOL     OW 3175   6.916   2.827   3.621
  759SOL    HW1 3176   7.014   2.835   3.606
  759SOL    HW2 3177   6.900   2.787   3.712
  760SOL     OW 3178   6.949   5.706   4.297
  760SOL    HW1 3179   0.032   5.692   4.286
  760SOL    HW2 3180   6.904   5.617   4.305
  761SOL     OW 3181   4.735   4.841   5.944
  761SOL    HW1 3182   4.804   4.821   5.875
  761SOL    HW2 3183   4.774   4.901   6.014
  762SOL     OW 3184   4.049   5.911   3.316
  762SOL    HW1 3185   4.060   5.824   3.363
  762SOL    HW2 3186   3.976   5.904   3.248
  763SOL     OW 3187   5.623   1.307   0.687
  763SOL    HW1 3188   5.657   1.397   0.660
  763SOL    HW2 3189   5.589   1.311   0.781
  764SOL     OW 3190   5.314   6.230   4.937
  764SOL    HW1 3191   5.342   6.156   4.876
  764SOL    HW2 3192   5.376   6.234   5.016
  765SOL     OW 3193   5.730   6.197   0.463
  765SOL    HW1 3194   5.771   6.106   0.451
  765SOL    HW2 3195   5.801   6.267   0.461
  766SOL     OW 3196   2.584   2.016   3.712
  766SOL    HW1 3197   2.656   1.991   3.648
  766SOL    HW2 3198   2.622   2.028   3.804
  767SOL     OW 3199   6.609   5.902   3.233
  767SOL    HW1 3200   6.610   5.980   3.295
  767SOL    HW2 3201   6.624   5.818   3.285
  768SOL     OW 3202   2.681   5.695   1.653
  768SOL    HW1 3203   2.646   5.653   1.570
  768SOL    HW2 3204   2.707   5.624   1.718
  769SOL     OW 3205   3.585   1.662   5.394
  769SOL    HW1 3206   3.557   1.609   5.314
  769SOL    HW2 3207   3.504   1.704   5.436
  770SOL     OW 3208   0.784   4.770   5.808
  770SOL    HW1 3209   0.816   4.676   5.792
  770SOL    HW2 3210   0.856   4.823   5.853
  771SOL     OW 3211   1.282   4.712   2.392
  771SOL    HW1 3212   1.297   4.613   2.396
  771SOL    HW2 3213   1.211   4.737   2.458
  772SOL     OW 3214   6.273   4.799   0.516
  772SOL    HW1 3215   6.261   4.712   0.468
  772SOL    HW2 3216   6.286   4.872   0.450
  773SOL     OW 3217   1.773   4.987   4.305
  773SOL    HW1 3218   1.836   5.064   4.297
  773SOL    HW2 3219   1.682   5.014   4.275
  774SOL     OW 3220   1.831   2.284   3.951
  774SOL    HW1 3221   1.744   2.277   3.902
  774SOL    HW2 3222   1.901   2.322   3.890
  775SOL     OW 3223   0.630   4.250   2.098
  775SOL    HW1 3224   0.571   4.184   2.051
  775SOL    HW2 3225   0.622   4.339   2.053
  776SOL     OW 3226   3.308   4.887   6.999
  776SOL    HW1 3227   3.360   4.861   0.065
  776SOL    HW2 3228   3.327   4.820   6.926
  777SOL     OW 3229   1.829   3.735   6.642
  777SOL    HW1 3230   1.748   3.748   6.699
  777SOL    HW2 3231   1.905   3.790   6.677
  778SOL     OW 3232   3.732   5.370   6.863
  778SOL    HW1 3233   3.677   5.378   6.780
  778SOL    HW2 3234   3.828   5.388   6.842
  779SOL     OW 3235   5.854   2.092   3.437
  779SOL    HW1 3236   5.820   2.186   3.430
  779SOL    HW2 3237   5.919   2.074   3.363
  780SOL     OW 3238   6.061   1.625   4.662
  780SOL    HW1 3239   6.101   1.550   4.609
  780SOL    HW2 3240   6.010   1.686   4.601
  781SOL     OW 3241   0.724   5.086   6.524
  781SOL    HW1 3242   0.684   5.176   6.506
  781SOL    HW2 3243   0.672   5.041   6.597
  782SOL     OW 3244   2.103   4.291   5.442
  782SOL    HW1 3245   2.071   4.347   5.366
  782SOL    HW2 3246   2.168   4.223   5.409
  783SOL     OW 3247   6.968   4.930   6.149
  783SOL    HW1 3248   6.882   4.981   6.153
  783SOL    HW2 3249   0.023   4.979   6.201
  784SOL     OW 3250   2.068   5.697   6.092
  784SOL    HW1 3251   2.145   5.633   6.089
  784SOL    HW2 3252   2.098   5.783   6.133
  785SOL     OW 3253   0.437   0.050   3.698
  785SOL    HW1 3254   0.499   6.993   3.729
  785SOL    HW2 3255   0.357   0.053   3.758
  786SOL     OW 3256   6.049   1.042   4.724
  786SOL    HW1 3257   6.076   1.068   4.817
  786SOL    HW2 3258   6.046   0.942   4.718
  787SOL     OW 3259   2.150   6.555   0.428
  787SOL    HW1 3260   2.090   6.594   0.498
  787SOL    HW2 3261   2.215   6.625   0.398
  788SOL     OW 3262   2.024   3.448   2.260
  788SOL    HW1 3263   2.091   3.461   2.187
  788SOL    HW2 3264   2.050   3.368   2.315
  789SOL     OW 3265   3.418   5.201   2.559
  789SOL    HW1 3266   3.438   5.241   2.649
  789SOL    HW2 3267   3.397   5.104   2.570
  790SOL     OW 3268   6.807   3.473   2.185
  790SOL    HW1 3269   6.838   3.568   2.196
  790SOL    HW2 3270   6.885   3.411   2.196
  791SOL     OW 3271   3.489   1.525   3.469
  791SOL    HW1 3272   3.405   1.533   3.415
  791SOL    HW2 3273   3.502   1.610   3.521
  792SOL     OW 3274   2.318   0.401   0.454
  792SOL    HW1 3275   2.349   0.445   0.370
  792SOL    HW2 3276   2.342   0.304   0.452
  793SOL     OW 3277   1.938   5.915   4.549
  793SOL    HW1 3278   1.839   5.920   4.564
  793SOL    HW2 3279   1.956   5.882   4.456
  794SOL     OW 3280   3.202   3.690   2.318
  794SOL    HW1 3281   3.298   3.718   2.327
  794SOL    HW2 3282   3.144   3.754   2.369
  795SOL     OW 3283   4.431   6.856   5.338
  795SOL    HW1 3284   4.449   6.905   5.423
  795SOL    HW2 3285   4.379   6.914   5.275
  796SOL     OW 3286   1.189   2.689   6.545
  796SOL    HW1 3287   1.262   2.756   6.527
  796SOL    HW2 3288   1.110   2.711   6.488
  797SOL     OW 3289   3.394   6.951   0.930
  797SOL    HW1 3290   3.479   6.952   0.982
  797SOL    HW2 3291   3.410   6.913   0.839
  798SOL     OW 3292   4.825   4.229   1.537
  798SOL    HW1 3293   4.870   4.308   1.579
  798SOL    HW2 3294   4.726   4.240   1.541
  799SOL     OW 3295   3.680   3.274   5.287
  799SOL    HW1 3296   3.679   3.248   5.191
  799SOL    HW2 3297   3.592   3.251   5.329
  800SOL     OW 3298   5.661   3.153   2.929
  800SOL    HW1 3299   5.562   3.160   2.922
  800SOL    HW2 3300   5.694   3.073   2.878
  801SOL     OW 3301   2.137   5.449   6.778
  801SOL    HW1 3302   2.085   5.500   6.710
  801SOL    HW2 3303   2.233   5.479   6.777
  802SOL     OW 3304   4.069   2.504   5.988
  802SOL    HW1 3305   4.001   2.564   5.945
  802SOL    HW2 3306   4.034   2.472   6.076
  803SOL     OW 3307   2.620   2.329   3.210
  803SOL    HW1 3308   2.583   2.395   3.144
  803SOL    HW2 3309   2.719   2.326   3.203
  804SOL     OW 3310   4.660   6.922   3.182
  804SOL    HW1 3311   4.616   7.008   3.154
  804SOL    HW2 3312   4.657   6.857   3.106
  805SOL     OW 3313   3.678   1.951   3.868
  805SOL    HW1 3314   3.670   1.914   3.775
  805SOL    HW2 3315   3.589   1.983   3.899
  806SOL     OW 3316   4.200   5.897   6.236
  806SOL    HW1 3317   4.126   5.956   6.270
  806SOL    HW2 3318   4.231   5.930   6.147
  807SOL     OW 3319   1.122   6.471   6.276
  807SOL    HW1 3320   1.165   6.510   6.357
  807SOL    HW2 3321   1.176   6.393   6.244
  808SOL     OW 3322   5.363   2.311   6.078
  808SOL    HW1 3323   5.372   2.408   6.057
  808SOL    HW2 3324   5.354   2.259   5.994
  809SOL     OW 3325   3.266   6.540   6.081
  809SOL    HW1 3326   3.166   6.528   6.078
  809SOL    HW2 3327   3.291   6.616   6.021
  810SOL     OW 3328   4.100   4.048   6.648
  810SOL    HW1 3329   4.060   3.959   6.627
  810SOL    HW2 3330   4.125   4.051   6.745
  811SOL     OW 3331   5.587   5.758   4.992
  811SOL    HW1 3332   5.663   5.694   5.007
  811SOL    HW2 3333   5.567   5.763   4.894
  812SOL     OW 3334   1.357   2.713   0.873
  812SOL    HW1 3335   1.367   2.626   0.824
  812SOL    HW2 3336   1.277   2.708   0.933
  813SOL     OW 3337   3.254   1.848   5.265
  813SOL    HW1 3338   3.335   1.847   5.207
  813SOL    HW2 3339   3.280   1.824   5.359
  814SOL     OW 3340   0.405   4.668   1.280
  814SOL    HW1 3341   0.475   4.733   1.310
  814SOL    HW2 3342   0.385   4.683   1.183
  815SOL     OW 3343   4.659   0.728   3.738
  815SOL    HW1 3344   4.727   0.728   3.812
  815SOL    HW2 3345   4.606   0.644   3.742
  816SOL     OW 3346   5.373   3.746   6.273
  816SOL    HW1 3347   5.285   3.792   6.272
  816SOL    HW2 3348   5.446   3.814   6.269
  817SOL     OW 3349   7.012   5.287   6.680
  817SOL    HW1 3350   0.064   5.309   6.609
  817SOL    HW2 3351   6.938   5.234   6.639
  818SOL     OW 3352   6.540   0.966   5.481
  818SOL    HW1 3353   6.543   0.956   5.580
  818SOL    HW2 3354   6.458   0.922   5.445
  819SOL     OW 3355   5.736   3.692   1.918
  819SOL    HW1 3356   5.806   3.715   1.851
  819SOL    HW2 3357   5.738   3.594   1.937
  820SOL     OW 3358   2.485   1.916   5.460
  820SOL    HW1 3359   2.558   1.963   5.509
  820SOL    HW2 3360   2.397   1.934   5.505
  821SOL     OW 3361   5.166   3.293   6.031
  821SOL    HW1 3362   5.073   3.292   5.992
  821SOL    HW2 3363   5.233   3.303   5.957
  822SOL     OW 3364   6.857   4.393   3.209
  822SOL    HW1 3365   6.777   4.440   3.174
  822SOL    HW2 3366   6.939   4.426   3.161
  823SOL     OW 3367   1.897   2.871   4.242
  823SOL    HW1 3368   1.867   2.948   4.186
  823SOL    HW2 3369   1.842   2.790   4.221
  824SOL     OW 3370   5.301   0.522   6.499
  824SOL    HW1 3371   5.277   0.443   6.442
  824SOL    HW2 3372   5.217   0.565   6.533
  825SOL     OW 3373   6.189   5.683   1.117
  825SOL    HW1 3374   6.177   5.638   1.028
  825SOL    HW2 3375   6.285   5.705   1.131
  826SOL     OW 3376   3.751   1.999   0.432
  826SOL    HW1 3377   3.849   1.986   0.416
  826SOL    HW2 3378   3.707   2.026   0.346
  827SOL     OW 3379   3.672   3.194   4.658
  827SOL    HW1 3380   3.716   3.122   4.711
  827SOL    HW2 3381   3.578   3.167   4.636
  828SOL     OW 3382   0.688   6.351   6.203
  828SOL    HW1 3383   0.602   6.308   6.231
  828SOL    HW2 3384   0.669   6.440   6.161
  829SOL     OW 3385   3.833   3.327   1.607
  829SOL    HW1 3386   3.903   3.311   1.677
  829SOL    HW2 3387   3.743   3.335   1.651
  830SOL     OW 3388   6.907   3.802   6.167
  830SOL    HW1 3389   6.993   3.841   6.134
  830SOL    HW2 3390   6.844   3.875   6.192
  831SOL     OW 3391   5.992   1.450   3.200
  831SOL    HW1 3392   5.985   1.541   3.158
  831SOL    HW2 3393   5.954   1.382   3.137
  832SOL     OW 3394   3.081   2.164   4.742
  832SOL    HW1 3395   3.072   2.201   4.835
  832SOL    HW2 3396   3.177   2.162   4.716
  833SOL     OW 3397   3.746   2.940   6.553
  833SOL    HW1 3398   3.805   3.008   6.596
  833SOL    HW2 3399   3.686   2.985   6.486
  834SOL     OW 3400   5.959   3.414   0.693
  834SOL    HW1 3401   5.945   3.410   0.792
  834SOL    HW2 3402   5.938   3.325   0.653
  835SOL     OW 3403   6.468   6.707   5.261
  835SOL    HW1 3404   6.378   6.679   5.228
  835SOL    HW2 3405   6.510   6.632   5.312
  836SOL     OW 3406   5.780   6.643   4.100
  836SOL    HW1 3407   5.813   6.677   4.012
  836SOL    HW2 3408   5.803   6.546   4.109
  837SOL     OW 3409   0.927   0.585   6.451
  837SOL    HW1 3410   0.973   0.617   6.368
  837SOL    HW2 3411   0.834   0.558   6.430
  838SOL     OW 3412   1.334   5.762   3.052
  838SOL    HW1 3413   1.338   5.705   2.970
  838SOL    HW2 3414   1.413   5.741   3.110
  839SOL     OW 3415   1.117   2.661   0.092
  839SOL    HW1 3416   1.089   2.734   0.029
  839SOL    HW2 3417   1.114   2.573   0.045
  840SOL     OW 3418   4.400   5.276   0.440
  840SOL    HW1 3419   4.311   5.323   0.434
  840SOL    HW2 3420   4.473   5.341   0.420
  841SOL     OW 3421   3.099   5.303   6.319
  841SOL    HW1 3422   3.131   5.396   6.336
  841SOL    HW2 3423   3.155   5.261   6.247
  842SOL     OW 3424   4.589   6.717   1.582
  842SOL    HW1 3425   4.619   6.738   1.675
  842SOL    HW2 3426   4.650   6.762   1.516
  843SOL     OW 3427   1.392   0.296   2.090
  843SOL    HW1 3428   1.323   0.368   2.080
  843SOL    HW2 3429   1.472   0.319   2.035
  844SOL     OW 3430   6.935   6.634   1.701
  844SOL    HW1 3431   0.004   6.658   1.749
  844SOL    HW2 3432   6.887   6.563   1.752
  845SOL     OW 3433   3.846   1.449   1.573
  845SOL    HW1 3434   3.923   1.491   1.620
  845SOL    HW2 3435   3.871   1.433   1.477
  846SOL     OW 3436   1.139   1.164   1.291
  846SOL    HW1 3437   1.085   1.109   1.354
  846SOL    HW2 3438   1.106   1.151   1.198
  847SOL     OW 3439   2.508   3.259   1.395
  847SOL    HW1 3440   2.495   3.352   1.430
  847SOL    HW2 3441   2.469   3.252   1.304
  848SOL     OW 3442   6.429   6.023   0.860
  848SOL    HW1 3443   6.428   6.090   0.786
  848SOL    HW2 3444   6.510   5.965   0.851
  849SOL     OW 3445   5.275   3.256   6.263
  849SOL    HW1 3446   5.209   3.258   6.338
  849SOL    HW2 3447   5.226   3.268   6.176
  850SOL     OW 3448   2.058   1.213   4.582
  850SOL    HW1 3449   2.002   1.296   4.585
  850SOL    HW2 3450   2.150   1.236   4.550
  851SOL     OW 3451   5.036   2.606   6.072
  851SOL    HW1 3452   5.033   2.513   6.037
  851SOL    HW2 3453   5.117   2.653   6.038
  852SOL     OW 3454   6.805   4.979   1.712
  852SOL    HW1 3455   6.840   4.903   1.656
  852SOL    HW2 3456   6.840   5.065   1.677
  853SOL     OW 3457   3.355   2.796   0.785
  853SOL    HW1 3458   3.388   2.787   0.691
  853SOL    HW2 3459   3.261   2.763   0.790
  854SOL     OW 3460   6.844   0.058   6.139
  854SOL    HW1 3461   6.805   0.137   6.186
  854SOL    HW2 3462   6.895   0.087   6.058
  855SOL     OW 3463   4.821   1.911   0.185
  855SOL    HW1 3464   4.857   1.854   0.112
  855SOL    HW2 3465   4.881   1.904   0.265
  856SOL     OW 3466   1.742   5.761   1.809
  856SOL    HW1 3467   1.666   5.733   1.751
  856SOL    HW2 3468   1.826   5.716   1.777
  857SOL     OW 3469   0.013   6.370   4.914
  857SOL    HW1 3470   6.954   6.397   4.854
  857SOL    HW2 3471   0.044   6.449   4.966
  858SOL     OW 3472   3.307   4.022   0.234
  858SOL    HW1 3473   3.208   4.018   0.219
  858SOL    HW2 3474   3.355   4.018   0.146
  859SOL     OW 3475   4.665   5.835   5.647
  859SOL    HW1 3476   4.607   5.862   5.724
  859SOL    HW2 3477   4.724   5.759   5.675
  860SOL     OW 3478   4.531   3.273   6.421
  860SOL    HW1 3479   4.603   3.204   6.428
  860SOL    HW2 3480   4.569   3.356   6.379
  861SOL     OW 3481   0.842   5.922   2.420
  861SOL    HW1 3482   0.929   5.893   2.380
  861SOL    HW2 3483   0.813   6.009   2.381
  862SOL     OW 3484   0.958   4.426   3.931
  862SOL    HW1 3485   0.899   4.378   3.866
  862SOL    HW2 3486   0.910   4.437   4.018
  863SOL     OW 3487   5.489   0.408   1.601
  863SOL    HW1 3488   5.488   0.417   1.701
  863SOL    HW2 3489   5.529   0.490   1.560
  864SOL     OW 3490   6.036   5.023   3.096
  864SOL    HW1 3491   6.102   4.982   3.159
  864SOL    HW2 3492   6.079   5.037   3.007
  865SOL     OW 3493   1.473   5.117   4.594
  865SOL    HW1 3494   1.463   5.136   4.692
  865SOL    HW2 3495   1.571   5.109   4.572
  866SOL     OW 3496   4.046   6.992   1.530
  866SOL    HW1 3497   3.949   6.993   1.557
  866SOL    HW2 3498   4.098   0.036   1.591
  867SOL     OW 3499   5.641   3.713   5.090
  867SOL    HW1 3500   5.730   3.701   5.132
  867SOL    HW2 3501   5.631   3.809   5.061
  868SOL     OW 3502   0.859   1.672   2.188
  868SOL    HW1 3503   0.769   1.659   2.231
  868SOL    HW2 3504   0.854   1.645   2.092
  869SOL     OW 3505   0.558   3.116   2.098
  869SOL    HW1 3506   0.655   3.092   2.104
  869SOL    HW2 3507   0.514   3.062   2.026
  870SOL     OW 3508   3.858   4.792   1.784
  870SOL    HW1 3509   3.768   4.751   1.800
  870SOL    HW2 3510   3.923   4.720   1.760
  871SOL     OW 3511   4.574   1.635   3.825
  871SOL    HW1 3512   4.530   1.581   3.897
  871SOL    HW2 3513   4.505   1.691   3.779
  872SOL     OW 3514   1.651   2.855   5.136
  872SOL    HW1 3515   1.578   2.797   5.172
  872SOL    HW2 3516   1.711   2.801   5.077
  873SOL     OW 3517   3.924   0.304   6.285
  873SOL    HW1 3518   3.921   0.392   6.333
  873SOL    HW2 3519   3.962   0.235   6.346
  874SOL     OW 3520   6.351   3.960   2.224
  874SOL    HW1 3521   6.271   3.916   2.265
  874SOL    HW2 3522   6.322   4.039   2.170
  875SOL     OW 3523   5.558   5.323   2.321
  875SOL    HW1 3524   5.572   5.283   2.231
  875SOL    HW2 3525   5.519   5.414   2.312
  876SOL     OW 3526   6.185   1.184   6.231
  876SOL    HW1 3527   6.144   1.234   6.154
  876SOL    HW2 3528   6.268   1.231   6.261
  877SOL     OW 3529   1.459   3.335   6.800
  877SOL    HW1 3530   1.463   3.286   6.887
  877SOL    HW2 3531   1.438   3.272   6.726
  878SOL     OW 3532   3.946   6.475   4.277
  878SOL    HW1 3533   3.862   6.452   4.228
  878SOL    HW2 3534   3.935   6.456   4.374
  879SOL     OW 3535   5.478   6.898   5.883
  879SOL    HW1 3536   5.431   6.934   5.964
  879SOL    HW2 3537   5.467   6.962   5.808
  880SOL     OW 3538   3.509   2.902   3.215
  880SOL    HW1 3539   3.421   2.903   3.167
  880SOL    HW2 3540   3.504   2.964   3.294
  881SOL     OW 3541   4.193   2.375   0.763
  881SOL    HW1 3542   4.219   2.431   0.841
  881SOL    HW2 3543   4.270   2.370   0.699
  882SOL     OW 3544   1.818   2.834   3.373
  882SOL    HW1 3545   1.905   2.796   3.404
  882SOL    HW2 3546   1.746   2.767   3.385
  883SOL     OW 3547   2.346   6.464   2.764
  883SOL    HW1 3548   2.286   6.531   2.810
  883SOL    HW2 3549   2.313   6.449   2.671
  884SOL     OW 3550   2.558   3.467   5.878
  884SOL    HW1 3551   2.594   3.390   5.931
  884SOL    HW2 3552   2.506   3.527   5.938
  885SOL     OW 3553   4.334   3.058   6.516
  885SOL    HW1 3554   4.417   3.106   6.486
  885SOL    HW2 3555   4.285   3.114   6.582
  886SOL     OW 3556   3.586   1.515   6.541
  886SOL    HW1 3557   3.492   1.547   6.530
  886SOL    HW2 3558   3.586   1.427   6.589
  887SOL     OW 3559   4.068   0.947   5.091
  887SOL    HW1 3560   4.105   0.868   5.139
  887SOL    HW2 3561   4.144   1.004   5.058
  888SOL     OW 3562   0.831   7.008   1.911
  888SOL    HW1 3563   0.871   0.082   1.928
  888SOL    HW2 3564   0.746   6.998   1.964
  889SOL     OW 3565   0.345   4.057   0.803
  889SOL    HW1 3566   0.332   4.138   0.747
  889SOL    HW2 3567   0.299   3.979   0.760
  890SOL     OW 3568   2.135   5.809   4.673
  890SOL    HW1 3569   2.052   5.847   4.633
  890SOL    HW2 3570   2.182   5.751   4.606
  891SOL     OW 3571   4.941   4.600   2.340
  891SOL    HW1 3572   4.946   4.546   2.256
  891SOL    HW2 3573   5.026   4.652   2.350
  892SOL     OW 3574   2.454   4.237   1.066
  892SOL    HW1 3575   2.412   4.279   0.985
  892SOL    HW2 3576   2.463   4.138   1.050
  893SOL     OW 3577   1.634   5.270   2.570
  893SOL    HW1 3578   1.700   5.241   2.501
  893SOL    HW2 3579   1.541   5.251   2.537
  894SOL     OW 3580   0.890   4.867   1.261
  894SOL    HW1 3581   0.959   4.796   1.248
  894SOL    HW2 3582   0.932   4.947   1.303
  895SOL     OW 3583   0.042   5.241   4.271
  895SOL    HW1 3584   0.134   5.213   4.298
  895SOL    HW2 3585   7.007   5.161   4.240
  896SOL     OW 3586   6.918   1.032   6.364
  896SOL    HW1 3587   6.897   0.963   6.433
  896SOL    HW2 3588   6.951   0.987   6.281
  897SOL     OW 3589   5.533   0.954   0.950
  897SOL    HW1 3590   5.591   0.946   0.868
  897SOL    HW2 3591   5.544   0.871   1.005
  898SOL     OW 3592   3.851   1.267   3.028
  898SOL    HW1 3593   3.936   1.235   3.070
  898SOL    HW2 3594   3.787   1.191   3.020
  899SOL     OW 3595   6.472   6.561   6.987
  899SOL    HW1 3596   6.560   6.538   0.013
  899SOL    HW2 3597   6.431   6.639   0.018
  900SOL     OW 3598   5.116   5.633   6.638
  900SOL    HW1 3599   5.212   5.613   6.619
  900SOL    HW2 3600   5.108   5.724   6.680
  901SOL     OW 3601   1.400   0.655   3.102
  901SOL    HW1 3602   1.347   0.726   3.056
  901SOL    HW2 3603   1.341   0.603   3.163
  902SOL     OW 3604   0.039   3.119   1.720
  902SOL    HW1 3605   0.058   3.065   1.803
  902SOL    HW2 3606   0.116   3.178   1.699
  903SOL     OW 3607   6.812   0.661   0.491
  903SOL    HW1 3608   6.784   0.589   0.555
  903SOL    HW2 3609   6.786   0.750   0.527
  904SOL     OW 3610   2.633   0.959   3.291
  904SOL    HW1 3611   2.578   1.036   3.322
  904SOL    HW2 3612   2.574   0.891   3.246
  905SOL     OW 3613   5.953   2.163   6.040
  905SOL    HW1 3614   5.942   2.207   5.950
  905SOL    HW2 3615   5.874   2.105   6.058
  906SOL     OW 3616   5.530   3.416   0.793
  906SOL    HW1 3617   5.485   3.356   0.727
  906SOL    HW2 3618   5.541   3.507   0.753
  907SOL     OW 3619   5.408   4.084   6.577
  907SOL    HW1 3620   5.364   4.110   6.491
  907SOL    HW2 3621   5.498   4.046   6.558
  908SOL     OW 3622   0.119   3.819   3.300
  908SOL    HW1 3623   0.094   3.736   3.349
  908SOL    HW2 3624   0.163   3.883   3.364
  909SOL     OW 3625   5.180   5.124   5.924
  909SOL    HW1 3626   5.214   5.169   5.842
  909SOL    HW2 3627   5.256   5.076   5.969
  910SOL     OW 3628   3.414   4.412   0.369
  910SOL    HW1 3629   3.395   4.318   0.398
  910SOL    HW2 3630   3.467   4.410   0.285
  911SOL     OW 3631   1.101   4.581   5.866
  911SOL    HW1 3632   1.144   4.555   5.952
  911SOL    HW2 3633   1.026   4.517   5.846
  912SOL     OW 3634   5.179   1.361   5.288
  912SOL    HW1 3635   5.140   1.386   5.199
  912SOL    HW2 3636   5.107   1.322   5.346
  913SOL     OW 3637   4.499   6.077   2.907
  913SOL    HW1 3638   4.540   6.131   2.981
  913SOL    HW2 3639   4.419   6.028   2.941
  914SOL     OW 3640   3.177   6.655   5.667
  914SOL    HW1 3641   3.209   6.741   5.628
  914SOL    HW2 3642   3.240   6.581   5.643
  915SOL     OW 3643   5.243   5.562   1.416
  915SOL    HW1 3644   5.244   5.622   1.336
  915SOL    HW2 3645   5.316   5.494   1.407
  916SOL     OW 3646   1.221   3.467   2.743
  916SOL    HW1 3647   1.302   3.417   2.715
  916SOL    HW2 3648   1.225   3.560   2.707
  917SOL     OW 3649   0.409   0.068   6.532
  917SOL    HW1 3650   0.399   6.989   6.562
  917SOL    HW2 3651   0.505   0.095   6.537
  918SOL     OW 3652   3.346   6.122   6.937
  918SOL    HW1 3653   3.365   6.061   7.014
  918SOL    HW2 3654   3.306   6.207   6.970
  919SOL     OW 3655   4.536   0.741   6.493
  919SOL    HW1 3656   4.510   0.816   6.433
  919SOL    HW2 3657   4.563   0.777   6.582
  920SOL     OW 3658   3.113   4.708   1.769
  920SOL    HW1 3659   3.022   4.678   1.799
  920SOL    HW2 3660   3.148   4.644   1.701
  921SOL     OW 3661   4.666   5.451   5.205
  921SOL    HW1 3662   4.668   5.544   5.170
  921SOL    HW2 3663   4.701   5.450   5.299
  922SOL     OW 3664   3.060   3.739   3.220
  922SOL    HW1 3665   3.101   3.817   3.268
  922SOL    HW2 3666   3.132   3.685   3.177
  923SOL     OW 3667   2.434   3.850   5.939
  923SOL    HW1 3668   2.346   3.840   5.893
  923SOL    HW2 3669   2.430   3.925   6.005
  924SOL     OW 3670   0.522   3.393   1.300
  924SOL    HW1 3671   0.611   3.407   1.344
  924SOL    HW2 3672   0.498   3.296   1.304
  925SOL     OW 3673   0.371   1.529   6.860
  925SOL    HW1 3674   0.438   1.455   6.848
  925SOL    HW2 3675   0.409   1.614   6.825
  926SOL     OW 3676   2.122   2.080   1.004
  926SOL    HW1 3677   2.071   2.052   1.085
  926SOL    HW2 3678   2.117   2.180   0.995
  927SOL     OW 3679   6.717   3.282   4.731
  927SOL    HW1 3680   6.796   3.323   4.685
  927SOL    HW2 3681   6.633   3.322   4.695
  928SOL     OW 3682   2.813   5.115   5.818
  928SOL    HW1 3683   2.724   5.157   5.838
  928SOL    HW2 3684   2.821   5.097   5.720
  929SOL     OW 3685   0.598   1.944   4.778
  929SOL    HW1 3686   0.632   1.862   4.824
  929SOL    HW2 3687   0.571   2.012   4.845
  930SOL     OW 3688   6.031   5.190   5.218
  930SOL    HW1 3689   5.975   5.108   5.231
  930SOL    HW2 3690   6.010   5.230   5.128
  931SOL     OW 3691   6.058   0.689   3.644
  931SOL    HW1 3692   6.038   0.782   3.612
  931SOL    HW2 3693   6.090   0.693   3.739
  932SOL     OW 3694   3.664   6.912   3.637
  932SOL    HW1 3695   3.697   7.006   3.625
  932SOL    HW2 3696   3.661   6.890   3.735
  933SOL     OW 3697   0.966   5.389   1.936
  933SOL    HW1 3698   0.996   5.366   2.028
  933SOL    HW2 3699   0.873   5.356   1.921
  934SOL     OW 3700   1.744   2.875   0.498
  934SOL    HW1 3701   1.763   2.826   0.412
  934SOL    HW2 3702   1.648   2.904   0.498
  935SOL     OW 3703   5.394   2.782   5.404
  935SOL    HW1 3704   5.445   2.818   5.326
  935SOL    HW2 3705   5.452   2.722   5.458
  936SOL     OW 3706   1.872   0.556   6.425
  936SOL    HW1 3707   1.891   0.609   6.342
  936SOL    HW2 3708   1.955   0.508   6.454
  937SOL     OW 3709   3.182   2.512   6.455
  937SOL    HW1 3710   3.166   2.440   6.387
  937SOL    HW2 3711   3.159   2.601   6.416
  938SOL     OW 3712   4.928   6.214   5.186
  938SOL    HW1 3713   4.969   6.235   5.097
  938SOL    HW2 3714   4.996   6.169   5.244
  939SOL     OW 3715   1.469   0.368   4.426
  939SOL    HW1 3716   1.463   0.269   4.409
  939SOL    HW2 3717   1.469   0.417   4.339
  940SOL     OW 3718   1.934   5.547   0.571
  940SOL    HW1 3719   1.926   5.592   0.660
  940SOL    HW2 3720   1.994   5.468   0.579
  941SOL     OW 3721   3.865   6.902   0.922
  941SOL    HW1 3722   3.871   6.999   0.900
  941SOL    HW2 3723   3.957   6.862   0.921
  942SOL     OW 3724   6.513   5.292   0.091
  942SOL    HW1 3725   6.419   5.261   0.081
  942SOL    HW2 3726   6.552   5.308   0.000
  943SOL     OW 3727   3.598   6.316   1.013
  943SOL    HW1 3728   3.652   6.262   0.948
  943SOL    HW2 3729   3.574   6.260   1.092
  944SOL     OW 3730   6.517   6.164   3.109
  944SOL    HW1 3731   6.575   6.183   3.029
  944SOL    HW2 3732   6.490   6.068   3.109
  945SOL     OW 3733   0.420   5.344   6.677
  945SOL    HW1 3734   0.347   5.404   6.645
  945SOL    HW2 3735   0.502   5.397   6.696
  946SOL     OW 3736   6.008   1.868   3.822
  946SOL    HW1 3737   6.067   1.931   3.873
  946SOL    HW2 3738   5.914   1.902   3.824
  947SOL     OW 3739   3.771   4.122   2.515
  947SOL    HW1 3740   3.674   4.126   2.491
  947SOL    HW2 3741   3.826   4.158   2.440
  948SOL     OW 3742   3.406   1.537   4.075
  948SOL    HW1 3743   3.429   1.455   4.021
  948SOL    HW2 3744   3.477   1.552   4.144
  949SOL     OW 3745   2.623   0.168   5.507
  949SOL    HW1 3746   2.584   0.244   5.454
  949SOL    HW2 3747   2.552   0.101   5.527
  950SOL     OW 3748   0.091   6.842   1.862
  950SOL    HW1 3749   0.182   6.800   1.855
  950SOL    HW2 3750   0.048   6.814   1.947
  951SOL     OW 3751   1.425   0.069   3.196
  951SOL    HW1 3752   1.389   7.008   3.250
  951SOL    HW2 3753   1.437   0.040   3.101
  952SOL     OW 3754   3.765   1.526   3.061
  952SOL    HW1 3755   3.830   1.595   3.030
  952SOL    HW2 3756   3.813   1.439   3.075
  953SOL     OW 3757   1.096   6.032   5.790
  953SOL    HW1 3758   1.172   6.078   5.745
  953SOL    HW2 3759   1.016   6.034   5.731
  954SOL     OW 3760   4.786   6.564   2.549
  954SOL    HW1 3761   4.689   6.583   2.538
  954SOL    HW2 3762   4.821   6.613   2.629
  955SOL     OW 3763   3.167   4.633   1.452
  955SOL    HW1 3764   3.108   4.701   1.409
  955SOL    HW2 3765   3.111   4.556   1.484
  956SOL     OW 3766   3.255   0.416   0.876
  956SOL    HW1 3767   3.267   0.512   0.901
  956SOL    HW2 3768   3.344   0.378   0.848
  957SOL     OW 3769   5.990   6.730   3.265
  957SOL    HW1 3770   5.914   6.665   3.268
  957SOL    HW2 3771   5.988   6.788   3.346
  958SOL     OW 3772   5.846   5.705   2.128
  958SOL    HW1 3773   5.856   5.614   2.088
  958SOL    HW2 3774   5.917   5.765   2.091
  959SOL     OW 3775   4.806   0.377   3.050
  959SOL    HW1 3776   4.773   0.289   3.018
  959SOL    HW2 3777   4.889   0.364   3.104
  960SOL     OW 3778   1.627   6.456   5.559
  960SOL    HW1 3779   1.621   6.486   5.463
  960SOL    HW2 3780   1.672   6.367   5.563
  961SOL     OW 3781   3.742   1.245   3.861
  961SOL    HW1 3782   3.753   1.154   3.899
  961SOL    HW2 3783   3.696   1.304   3.927
  962SOL     OW 3784   0.128   0.154   4.890
  962SOL    HW1 3785   0.142   0.243   4.846
  962SOL    HW2 3786   0.198   0.090   4.860
  963SOL     OW 3787   5.941   2.608   1.415
  963SOL    HW1 3788   5.935   2.562   1.326
  963SOL    HW2 3789   5.855   2.598   1.463
  964SOL     OW 3790   3.519   6.346   4.895
  964SOL    HW1 3791   3.554   6.383   4.809
  964SOL    HW2 3792   3.521   6.417   4.966
  965SOL     OW 3793   5.097   1.767   4.017
  965SOL    HW1 3794   5.187   1.800   4.043
  965SOL    HW2 3795   5.100   1.668   4.004
  966SOL     OW 3796   5.523   0.762   3.145
  966SOL    HW1 3797   5.499   0.749   3.242
  966SOL    HW2 3798   5.445   0.738   3.088
  967SOL     OW 3799   3.742   5.520   5.830
  967SOL    HW1 3800   3.801   5.599   5.850
  967SOL    HW2 3801   3.749   5.453   5.903
  968SOL     OW 3802   3.918   0.521   1.424
  968SOL    HW1 3803   3.860   0.440   1.411
  968SOL    HW2 3804   3.862   0.604   1.419
  969SOL     OW 3805   2.847   3.566   6.861
  969SOL    HW1 3806   2.770   3.503   6.854
  969SOL    HW2 3807   2.894   3.552   6.948
  970SOL     OW 3808   4.345   6.327   5.195
  970SOL    HW1 3809   4.286   6.282   5.264
  970SOL    HW2 3810   4.380   6.258   5.132
  971SOL     OW 3811   5.152   3.590   3.553
  971SOL    HW1 3812   5.192   3.680   3.540
  971SOL    HW2 3813   5.137   3.547   3.464
  972SOL     OW 3814   0.459   2.095   0.802
  972SOL    HW1 3815   0.375   2.129   0.760
  972SOL    HW2 3816   0.513   2.172   0.835
  973SOL     OW 3817   6.415   2.561   4.756
  973SOL    HW1 3818   6.432   2.466   4.781
  973SOL    HW2 3819   6.421   2.572   4.657
  974SOL     OW 3820   0.864   3.279   1.686
  974SOL    HW1 3821   0.923   3.337   1.630
  974SOL    HW2 3822   0.920   3.209   1.732
  975SOL     OW 3823   3.103   0.224   1.628
  975SOL    HW1 3824   3.162   0.305   1.620
  975SOL    HW2 3825   3.135   0.153   1.566
  976SOL     OW 3826   6.846   3.077   4.137
  976SOL    HW1 3827   6.776   3.028   4.085
  976SOL    HW2 3828   6.910   3.011   4.176
  977SOL     OW 3829   6.626   1.500   2.097
  977SOL    HW1 3830   6.608   1.425   2.033
  977SOL    HW2 3831   6.586   1.478   2.186
  978SOL     OW 3832   5.118   2.470   0.906
  978SOL    HW1 3833   5.064   2.504   0.829
  978SOL    HW2 3834   5.074   2.496   0.992
  979SOL     OW 3835   0.072   5.038   6.452
  979SOL    HW1 3836   0.117   5.004   6.534
  979SOL    HW2 3837   0.132   5.025   6.373
  980SOL     OW 3838   4.835   1.550   3.776
  980SOL    HW1 3839   4.744   1.591   3.788
  980SOL    HW2 3840   4.872   1.577   3.687
  981SOL     OW 3841   0.678   6.015   5.465
  981SOL    HW1 3842   0.670   6.060   5.554
  981SOL    HW2 3843   0.645   5.921   5.473
  982SOL     OW 3844   0.025   1.168   6.713
  982SOL    HW1 3845   0.016   1.093   6.648
  982SOL    HW2 3846   6.955   1.180   6.762
  983SOL     OW 3847   0.072   3.831   2.507
  983SOL    HW1 3848   0.116   3.918   2.488
  983SOL    HW2 3849   0.140   3.758   2.509
  984SOL     OW 3850   0.201   3.369   3.894
  984SOL    HW1 3851   0.108   3.403   3.907
  984SOL    HW2 3852   0.236   3.401   3.806
  985SOL     OW 3853   5.828   5.358   5.316
  985SOL    HW1 3854   5.845   5.366   5.218
  985SOL    HW2 3855   5.882   5.282   5.352
  986SOL     OW 3856   4.207   5.423   1.666
  986SOL    HW1 3857   4.158   5.461   1.587
  986SOL    HW2 3858   4.300   5.400   1.639
  987SOL     OW 3859   4.745   4.556   4.490
  987SOL    HW1 3860   4.721   4.460   4.478
  987SOL    HW2 3861   4.769   4.572   4.586
  988SOL     OW 3862   2.987   4.846   2.186
  988SOL    HW1 3863   2.903   4.792   2.177
  988SOL    HW2 3864   3.046   4.829   2.107
  989SOL     OW 3865   0.336   2.746   1.206
  989SOL    HW1 3866   0.397   2.818   1.173
  989SOL    HW2 3867   0.387   2.683   1.265
  990SOL     OW 3868   3.424   0.208   5.143
  990SOL    HW1 3869   3.492   0.231   5.213
  990SOL    HW2 3870   3.420   0.283   5.076
  991SOL     OW 3871   1.422   6.072   3.689
  991SOL    HW1 3872   1.403   6.107   3.781
  991SOL    HW2 3873   1.515   6.099   3.662
  992SOL     OW 3874   6.393   3.398   0.700
  992SOL    HW1 3875   6.327   3.394   0.626
  992SOL    HW2 3876   6.386   3.315   0.756
  993SOL     OW 3877   1.923   5.452   6.353
  993SOL    HW1 3878   1.960   5.385   6.289
  993SOL    HW2 3879   1.861   5.514   6.305
  994SOL     OW 3880   2.663   0.202   1.559
  994SOL    HW1 3881   2.708   0.278   1.512
  994SOL    HW2 3882   2.587   0.236   1.614
  995SOL     OW 3883   5.737   4.352   5.865
  995SOL    HW1 3884   5.676   4.432   5.867
  995SOL    HW2 3885   5.683   4.269   5.879
  996SOL     OW 3886   3.954   6.485   4.984
  996SOL    HW1 3887   4.051   6.506   4.988
  996SOL    HW2 3888   3.906   6.556   4.933
  997SOL     OW 3889   1.340   6.163   3.265
  997SOL    HW1 3890   1.357   6.140   3.169
  997SOL    HW2 3891   1.370   6.257   3.282
  998SOL     OW 3892   4.455   0.330   0.298
  998SOL    HW1 3893   4.459   0.400   0.226
  998SOL    HW2 3894   4.497   0.366   0.381
  999SOL     OW 3895   5.741   3.019   2.257
  999SOL    HW1 3896   5.651   2.987   2.227
  999SOL    HW2 3897   5.794   2.941   2.290
 1000SOL     OW 3898   5.790   1.777   2.161
 1000SOL    HW1 3899   5.790   1.687   2.118
 1000SOL    HW2 3900   5.883   1.801   2.189
 1001SOL     OW 3901   2.310   6.563   3.100
 1001SOL    HW1 3902   2.398   6.561   3.051
 1001SOL    HW2 3903   2.291   6.472   3.137
 1002SOL     OW 3904   3.758   2.326   0.701
 1002SOL    HW1 3905   3.726   2.413   0.662
 1002SOL    HW2 3906   3.857   2.320   0.692
 1003SOL     OW 3907   0.662   1.338   3.964
 1003SOL    HW1 3908   0.587   1.323   3.900
 1003SOL    HW2 3909   0.664   1.263   4.031
 1004SOL     OW 3910   4.769   1.451   4.470
 1004SOL    HW1 3911   4.852   1.488   4.513
 1004SOL    HW2 3912   4.713   1.407   4.540
 1005SOL     OW 3913   0.918   5.545   1.712
 1005SOL    HW1 3914   0.959   5.513   1.798
 1005SOL    HW2 3915   0.845   5.482   1.685
 1006SOL     OW 3916   1.945   4.907   1.500
 1006SOL    HW1 3917   1.954   4.948   1.410
 1006SOL    HW2 3918   1.999   4.823   1.505
 1007SOL     OW 3919   4.643   1.184   6.407
 1007SOL    HW1 3920   4.690   1.216   6.325
 1007SOL    HW2 3921   4.710   1.156   6.475
 1008SOL     OW 3922   0.477   4.642   5.157
 1008SOL    HW1 3923   0.430   4.722   5.195
 1008SOL    HW2 3924   0.431   4.559   5.187
 1009SOL     OW 3925   6.448   6.429   6.441
 1009SOL    HW1 3926   6.472   6.481   6.523
 1009SOL    HW2 3927   6.368   6.469   6.398
 1010SOL     OW 3928   2.993   3.861   0.401
 1010SOL    HW1 3929   3.005   3.959   0.414
 1010SOL    HW2 3930   3.040   3.812   0.475
 1011SOL     OW 3931   0.196   5.269   2.395
 1011SOL    HW1 3932   0.265   5.245   2.464
 1011SOL    HW2 3933   0.239   5.321   2.321
 1012SOL     OW 3934   5.198   5.871   3.249
 1012SOL    HW1 3935   5.257   5.794   3.224
 1012SOL    HW2 3936   5.247   5.932   3.312
 1013SOL     OW 3937   0.514   1.161   6.225
 1013SOL    HW1 3938   0.608   1.153   6.257
 1013SOL    HW2 3939   0.511   1.150   6.126
 1014SOL     OW 3940   0.877   4.897   4.308
 1014SOL    HW1 3941   0.821   4.919   4.228
 1014SOL    HW2 3942   0.922   4.809   4.295
 1015SOL     OW 3943   3.194   6.371   0.063
 1015SOL    HW1 3944   3.105   6.409   0.089
 1015SOL    HW2 3945   3.229   6.316   0.140
 1016SOL     OW 3946   6.688   4.823   0.293
 1016SOL    HW1 3947   6.643   4.808   0.381
 1016SOL    HW2 3948   6.748   4.746   0.273
 1017SOL     OW 3949   2.144   1.005   2.265
 1017SOL    HW1 3950   2.230   1.039   2.302
 1017SOL    HW2 3951   2.069   1.032   2.325
 1018SOL     OW 3952   5.810   6.532   5.425
 1018SOL    HW1 3953   5.778   6.556   5.517
 1018SOL    HW2 3954   5.904   6.563   5.414
 1019SOL     OW 3955   6.197   3.625   1.152
 1019SOL    HW1 3956   6.153   3.535   1.155
 1019SOL    HW2 3957   6.281   3.618   1.098
 1020SOL     OW 3958   5.304   1.350   1.362
 1020SOL    HW1 3959   5.345   1.390   1.444
 1020SOL    HW2 3960   5.244   1.274   1.387
 1021SOL     OW 3961   1.282   6.662   0.489
 1021SOL    HW1 3962   1.345   6.740   0.497
 1021SOL    HW2 3963   1.289   6.606   0.572
 1022SOL     OW 3964   1.536   4.983   6.037
 1022SOL    HW1 3965   1.546   5.082   6.030
 1022SOL    HW2 3966   1.505   4.959   6.129
 1023SOL     OW 3967   0.857   1.394   2.306
 1023SOL    HW1 3968   0.806   1.447   2.238
 1023SOL    HW2 3969   0.926   1.452   2.349
 1024SOL     OW 3970   1.835   2.543   4.225
 1024SOL    HW1 3971   1.848   2.538   4.324
 1024SOL    HW2 3972   1.920   2.573   4.182
 1025SOL     OW 3973   4.443   4.103   1.123
 1025SOL    HW1 3974   4.441   4.192   1.076
 1025SOL    HW2 3975   4.378   4.104   1.198
 1026SOL     OW 3976   3.225   2.881   1.761
 1026SOL    HW1 3977   3.156   2.809   1.749
 1026SOL    HW2 3978   3.222   2.915   1.855
 1027SOL     OW 3979   6.448   0.112   0.090
 1027SOL    HW1 3980   6.492   0.113   0.001
 1027SOL    HW2 3981   6.496   0.048   0.150
 1028SOL     OW 3982   1.042   4.701   3.167
 1028SOL    HW1 3983   1.037   4.657   3.077
 1028SOL    HW2 3984   1.114   4.770   3.166
 1029SOL     OW 3985   0.283   0.763   4.889
 1029SOL    HW1 3986   0.276   0.829   4.814
 1029SOL    HW2 3987   0.191   0.736   4.917
 1030SOL     OW 3988   3.995   3.659   0.848
 1030SOL    HW1 3989   4.030   3.753   0.845
 1030SOL    HW2 3990   4.070   3.595   0.833
 1031SOL     OW 3991   3.691   2.568   0.614
 1031SOL    HW1 3992   3.712   2.666   0.607
 1031SOL    HW2 3993   3.675   2.531   0.522
 1032SOL     OW 3994   1.484   1.346   1.220
 1032SOL    HW1 3995   1.450   1.410   1.151
 1032SOL    HW2 3996   1.462   1.380   1.311
 1033SOL     OW 3997   6.612   6.891   2.134
 1033SOL    HW1 3998   6.545   6.952   2.092
 1033SOL    HW2 3999   6.679   6.863   2.065
 1034SOL     OW 4000   2.601   0.896   5.416
 1034SOL    HW1 4001   2.699   0.909   5.409
 1034SOL    HW2 4002   2.560   0.975   5.463
 1035SOL     OW 4003   1.419   0.470   0.292
 1035SOL    HW1 4004   1.464   0.495   0.206
 1035SOL    HW2 4005   1.439   0.541   0.361
 1036SOL     OW 4006   5.138   1.449   2.286
 1036SOL    HW1 4007   5.089   1.506   2.221
 1036SOL    HW2 4008   5.114   1.477   2.379
 1037SOL     OW 4009   1.476   3.693   2.914
 1037SOL    HW1 4010   1.533   3.663   2.990
 1037SOL    HW2 4011   1.380   3.686   2.940
 1038SOL     OW 4012   1.893   6.485   0.110
 1038SOL    HW1 4013   1.803   6.519   0.084
 1038SOL    HW2 4014   1.922   6.529   0.195
 1039SOL     OW 4015   2.998   3.696   2.653
 1039SOL    HW1 4016   2.958   3.693   2.562
 1039SOL    HW2 4017   3.038   3.786   2.669
 1040SOL     OW 4018   3.743   1.392   2.638
 1040SOL    HW1 4019   3.718   1.385   2.735
 1040SOL    HW2 4020   3.699   1.472   2.598
 1041SOL     OW 4021   6.894   6.597   6.653
 1041SOL    HW1 4022   6.823   6.668   6.645
 1041SOL    HW2 4023   6.882   6.530   6.580
 1042SOL     OW 4024   5.267   3.856   4.123
 1042SOL    HW1 4025   5.240   3.860   4.027
 1042SOL    HW2 4026   5.237   3.770   4.163
 1043SOL     OW 4027   2.547   2.093   3.420
 1043SOL    HW1 4028   2.556   1.994   3.406
 1043SOL    HW2 4029   2.554   2.140   3.332
 1044SOL     OW 4030   5.928   4.444   2.316
 1044SOL    HW1 4031   6.010   4.393   2.341
 1044SOL    HW2 4032   5.951   4.540   2.303
 1045SOL     OW 4033   2.439   0.455   2.677
 1045SOL    HW1 4034   2.414   0.495   2.589
 1045SOL    HW2 4035   2.400   0.363   2.684
 1046SOL     OW 4036   3.043   2.592   0.596
 1046SOL    HW1 4037   3.084   2.680   0.572
 1046SOL    HW2 4038   3.050   2.578   0.695
 1047SOL     OW 4039   3.710   0.892   3.505
 1047SOL    HW1 4040   3.716   0.798   3.539
 1047SOL    HW2 4041   3.614   0.914   3.484
 1048SOL     OW 4042   0.740   0.241   2.429
 1048SOL    HW1 4043   0.789   0.156   2.447
 1048SOL    HW2 4044   0.695   0.234   2.339
 1049SOL     OW 4045   3.488   6.725   0.692
 1049SOL    HW1 4046   3.455   6.632   0.706
 1049SOL    HW2 4047   3.427   6.772   0.627
 1050SOL     OW 4048   2.514   1.935   4.616
 1050SOL    HW1 4049   2.524   1.884   4.701
 1050SOL    HW2 4050   2.587   1.908   4.553
 1051SOL     OW 4051   1.770   2.016   5.451
 1051SOL    HW1 4052   1.682   2.023   5.405
 1051SOL    HW2 4053   1.770   1.938   5.513
 1052SOL     OW 4054   4.364   2.292   6.482
 1052SOL    HW1 4055   4.422   2.316   6.404
 1052SOL    HW2 4056   4.339   2.196   6.475
 1053SOL     OW 4057   5.154   3.037   3.982
 1053SOL    HW1 4058   5.202   2.969   3.927
 1053SOL    HW2 4059   5.207   3.121   3.987
 1054SOL     OW 4060   4.770   5.447   6.515
 1054SOL    HW1 4061   4.831   5.519   6.479
 1054SOL    HW2 4062   4.683   5.488   6.543
 1055SOL     OW 4063   5.366   5.623   6.229
 1055SOL    HW1 4064   5.413   5.645   6.144
 1055SOL    HW2 4065   5.372   5.525   6.247
 1056SOL     OW 4066   3.773   3.625   0.411
 1056SOL    HW1 4067   3.864   3.612   0.452
 1056SOL    HW2 4068   3.772   3.586   0.319
 1057SOL     OW 4069   2.798   3.258   6.656
 1057SOL    HW1 4070   2.779   3.239   6.560
 1057SOL    HW2 4071   2.843   3.347   6.665
 1058SOL     OW 4072   3.034   2.047   2.066
 1058SOL    HW1 4073   2.993   2.137   2.079
 1058SOL    HW2 4074   3.043   2.029   1.968
 1059SOL     OW 4075   2.066   6.013   2.448
 1059SOL    HW1 4076   2.013   6.095   2.465
 1059SOL    HW2 4077   2.152   6.017   2.499
 1060SOL     OW 4078   6.397   0.226   5.569
 1060SOL    HW1 4079   6.400   0.319   5.606
 1060SOL    HW2 4080   6.367   0.163   5.641
 1061SOL     OW 4081   6.834   3.409   6.421
 1061SOL    HW1 4082   6.915   3.448   6.378
 1061SOL    HW2 4083   6.848   3.404   6.520
 1062SOL     OW 4084   3.021   4.491   5.504
 1062SOL    HW1 4085   2.926   4.514   5.523
 1062SOL    HW2 4086   3.070   4.573   5.472
 1063SOL     OW 4087   2.701   6.473   4.146
 1063SOL    HW1 4088   2.666   6.491   4.238
 1063SOL    HW2 4089   2.747   6.384   4.145
 1064SOL     OW 4090   1.186   4.147   0.620
 1064SOL    HW1 4091   1.162   4.119   0.527
 1064SOL    HW2 4092   1.256   4.085   0.656
 1065SOL     OW 4093   5.802   1.030   4.952
 1065SOL    HW1 4094   5.831   1.094   4.881
 1065SOL    HW2 4095   5.744   0.959   4.912
 1066SOL     OW 4096   4.720   6.310   0.842
 1066SOL    HW1 4097   4.779   6.322   0.762
 1066SOL    HW2 4098   4.724   6.215   0.873
 1067SOL     OW 4099   3.276   1.051   0.381
 1067SOL    HW1 4100   3.301   1.140   0.419
 1067SOL    HW2 4101   3.249   0.989   0.455
 1068SOL     OW 4102   5.960   3.186   1.928
 1068SOL    HW1 4103   5.968   3.193   2.027
 1068SOL    HW2 4104   6.014   3.259   1.885
 1069SOL     OW 4105   0.099   2.641   2.972
 1069SOL    HW1 4106   0.033   2.567   2.956
 1069SOL    HW2 4107   0.181   2.625   2.918
 1070SOL     OW 4108   0.737   0.935   2.387
 1070SOL    HW1 4109   0.784   0.922   2.300
 1070SOL    HW2 4110   0.784   1.005   2.441
 1071SOL     OW 4111   0.630   2.967   5.607
 1071SOL    HW1 4112   0.719   3.012   5.611
 1071SOL    HW2 4113   0.607   2.947   5.512
 1072SOL     OW 4114   2.460   1.351   1.697
 1072SOL    HW1 4115   2.420   1.419   1.636
 1072SOL    HW2 4116   2.512   1.398   1.769
 1073SOL     OW 4117   5.213   2.088   2.897
 1073SOL    HW1 4118   5.278   2.085   2.822
 1073SOL    HW2 4119   5.147   2.162   2.882
 1074SOL     OW 4120   3.514   5.505   2.085
 1074SOL    HW1 4121   3.473   5.576   2.028
 1074SOL    HW2 4122   3.610   5.493   2.060
 1075SOL     OW 4123   6.638   3.992   4.804
 1075SOL    HW1 4124   6.619   4.089   4.790
 1075SOL    HW2 4125   6.702   3.960   4.734
 1076SOL     OW 4126   2.292   4.164   5.280
 1076SOL    HW1 4127   2.340   4.079   5.256
 1076SOL    HW2 4128   2.254   4.205   5.197
 1077SOL     OW 4129   6.944   6.359   0.800
 1077SOL    HW1 4130   6.944   6.441   0.742
 1077SOL    HW2 4131   6.854   6.348   0.842
 1078SOL     OW 4132   5.493   6.509   4.177
 1078SOL    HW1 4133   5.507   6.444   4.103
 1078SOL    HW2 4134   5.555   6.587   4.166
 1079SOL     OW 4135   1.010   6.464   1.337
 1079SOL    HW1 4136   1.041   6.368   1.338
 1079SOL    HW2 4137   0.956   6.480   1.254
 1080SOL     OW 4138   4.958   5.605   0.196
 1080SOL    HW1 4139   4.963   5.659   0.280
 1080SOL    HW2 4140   4.905   5.522   0.213
 1081SOL     OW 4141   6.998   6.750   3.416
 1081SOL    HW1 4142   6.928   6.816   3.389
 1081SOL    HW2 4143   0.070   6.775   3.375
 1082SOL     OW 4144   4.362   0.189   6.863
 1082SOL    HW1 4145   4.318   0.127   6.928
 1082SOL    HW2 4146   4.377   0.142   6.777
 1083SOL     OW 4147   6.252   4.232   2.154
 1083SOL    HW1 4148   6.176   4.285   2.115
 1083SOL    HW2 4149   6.325   4.295   2.181
 1084SOL     OW 4150   4.468   0.853   5.082
 1084SOL    HW1 4151   4.530   0.898   5.017
 1084SOL    HW2 4152   4.425   0.921   5.141
 1085SOL     OW 4153   1.744   3.462   4.923
 1085SOL    HW1 4154   1.694   3.407   4.856
 1085SOL    HW2 4155   1.687   3.538   4.953
 1086SOL     OW 4156   5.952   4.700   1.909
 1086SOL    HW1 4157   5.936   4.615   1.859
 1086SOL    HW2 4158   5.882   4.711   1.979
 1087SOL     OW 4159   3.812   6.876   5.657
 1087SOL    HW1 4160   3.781   6.873   5.752
 1087SOL    HW2 4161   3.912   6.876   5.654
 1088SOL     OW 4162   6.776   5.212   4.740
 1088SOL    HW1 4163   6.756   5.283   4.673
 1088SOL    HW2 4164   6.853   5.156   4.708
 1089SOL     OW 4165   6.081   5.009   4.367
 1089SOL    HW1 4166   6.150   5.061   4.418
 1089SOL    HW2 4167   6.058   4.925   4.417
 1090SOL     OW 4168   5.943   2.678   5.053
 1090SOL    HW1 4169   5.967   2.586   5.084
 1090SOL    HW2 4170   5.846   2.680   5.027
 1091SOL     OW 4171   2.109   3.788   3.103
 1091SOL    HW1 4172   2.138   3.774   3.008
 1091SOL    HW2 4173   2.013   3.815   3.105
 1092SOL     OW 4174   1.296   6.484   0.683
 1092SOL    HW1 4175   1.205   6.448   0.699
 1092SOL    HW2 4176   1.364   6.425   0.725
 1093SOL     OW 4177   1.570   0.457   3.012
 1093SOL    HW1 4178   1.520   0.542   3.030
 1093SOL    HW2 4179   1.668   0.476   3.006
 1094SOL     OW 4180   0.499   0.150   3.068
 1094SOL    HW1 4181   0.538   0.093   3.140
 1094SOL    HW2 4182   0.541   0.127   2.981
 1095SOL     OW 4183   6.131   3.868   1.042
 1095SOL    HW1 4184   6.142   3.776   1.079
 1095SOL    HW2 4185   6.211   3.892   0.987
 1096SOL     OW 4186   1.887   6.028   2.087
 1096SOL    HW1 4187   1.877   6.125   2.068
 1096SOL    HW2 4188   1.978   5.997   2.057
 1097SOL     OW 4189   2.871   6.015   4.534
 1097SOL    HW1 4190   2.840   6.043   4.624
 1097SOL    HW2 4191   2.868   6.093   4.472
 1098SOL     OW 4192   6.570   3.978   6.951
 1098SOL    HW1 4193   6.547   3.916   0.010
 1098SOL    HW2 4194   6.609   4.062   6.989
 1099SOL     OW 4195   5.429   0.454   6.745
 1099SOL    HW1 4196   5.451   0.531   6.804
 1099SOL    HW2 4197   5.391   0.487   6.659
 1100SOL     OW 4198   4.801   1.259   4.078
 1100SOL    HW1 4199   4.886   1.246   4.027
 1100SOL    HW2 4200   4.800   1.351   4.119
 1101SOL     OW 4201   4.693   2.864   6.842
 1101SOL    HW1 4202   4.614   2.803   6.850
 1101SOL    HW2 4203   4.758   2.826   6.776
 1102SOL     OW 4204   3.136   0.847   4.114
 1102SOL    HW1 4205   3.074   0.819   4.187
 1102SOL    HW2 4206   3.217   0.789   4.114
 1103SOL     OW 4207   3.431   5.974   0.780
 1103SOL    HW1 4208   3.508   5.965   0.716
 1103SOL    HW2 4209   3.419   5.887   0.829
 1104SOL     OW 4210   6.390   1.294   3.315
 1104SOL    HW1 4211   6.444   1.212   3.297
 1104SOL    HW2 4212   6.294   1.268   3.330
 1105SOL     OW 4213   4.938   1.042   6.225
 1105SOL    HW1 4214   4.893   1.119   6.181
 1105SOL    HW2 4215   4.929   1.050   6.324
 1106SOL     OW 4216   6.145   1.918   1.865
 1106SOL    HW1 4217   6.135   1.925   1.766
 1106SOL    HW2 4218   6.061   1.950   1.909
 1107SOL     OW 4219   1.364   2.280   0.203
 1107SOL    HW1 4220   1.323   2.193   0.231
 1107SOL    HW2 4221   1.343   2.297   0.106
 1108SOL     OW 4222   2.130   1.602   3.570
 1108SOL    HW1 4223   2.224   1.575   3.591
 1108SOL    HW2 4224   2.069   1.524   3.581
 1109SOL     OW 4225   4.824   1.611   5.190
 1109SOL    HW1 4226   4.739   1.591   5.239
 1109SOL    HW2 4227   4.812   1.693   5.134
 1110SOL     OW 4228   1.213   0.864   2.559
 1110SOL    HW1 4229   1.177   0.782   2.604
 1110SOL    HW2 4230   1.234   0.844   2.464
 1111SOL     OW 4231   5.842   3.250   6.024
 1111SOL    HW1 4232   5.879   3.245   6.116
 1111SOL    HW2 4233   5.899   3.197   5.961
 1112SOL     OW 4234   5.749   0.656   2.091
 1112SOL    HW1 4235   5.750   0.725   2.163
 1112SOL    HW2 4236   5.696   0.576   2.122
 1113SOL     OW 4237   6.850   2.382   3.025
 1113SOL    HW1 4238   6.842   2.445   3.102
 1113SOL    HW2 4239   6.790   2.413   2.951
 1114SOL     OW 4240   3.468   3.372   5.001
 1114SOL    HW1 4241   3.538   3.308   5.034
 1114SOL    HW2 4242   3.495   3.406   4.911
 1115SOL     OW 4243   1.941   5.243   5.864
 1115SOL    HW1 4244   2.011   5.290   5.811
 1115SOL    HW2 4245   1.919   5.298   5.945
 1116SOL     OW 4246   4.329   6.971   0.511
 1116SOL    HW1 4247   4.357   6.895   0.453
 1116SOL    HW2 4248   4.404   0.021   0.517
 1117SOL     OW 4249   2.097   2.634   1.738
 1117SOL    HW1 4250   2.091   2.723   1.783
 1117SOL    HW2 4251   2.112   2.562   1.806
 1118SOL     OW 4252   4.731   6.476   0.010
 1118SOL    HW1 4253   4.666   6.467   6.950
 1118SOL    HW2 4254   4.823   6.461   6.992
 1119SOL     OW 4255   2.637   5.247   3.923
 1119SOL    HW1 4256   2.585   5.316   3.873
 1119SOL    HW2 4257   2.584   5.215   4.001
 1120SOL     OW 4258   6.906   3.285   1.538
 1120SOL    HW1 4259   7.004   3.296   1.521
 1120SOL    HW2 4260   6.890   3.198   1.585
 1121SOL     OW 4261   5.855   4.791   5.731
 1121SOL    HW1 4262   5.905   4.705   5.740
 1121SOL    HW2 4263   5.910   4.865   5.768
 1122SOL     OW 4264   6.086   0.902   2.030
 1122SOL    HW1 4265   6.121   0.846   2.104
 1122SOL    HW2 4266   6.022   0.849   1.974
 1123SOL     OW 4267   4.111   1.682   4.872
 1123SOL    HW1 4268   4.167   1.663   4.791
 1123SOL    HW2 4269   4.025   1.726   4.844
 1124SOL     OW 4270   2.301   2.832   3.421
 1124SOL    HW1 4271   2.359   2.764   3.376
 1124SOL    HW2 4272   2.337   2.852   3.512
 1125SOL     OW 4273   1.453   3.067   3.890
 1125SOL    HW1 4274   1.355   3.055   3.878
 1125SOL    HW2 4275   1.476   3.164   3.890
 1126SOL     OW 4276   4.406   4.689   3.847
 1126SOL    HW1 4277   4.444   4.597   3.845
 1126SOL    HW2 4278   4.457   4.748   3.784
 1127SOL     OW 4279   6.101   6.483   1.069
 1127SOL    HW1 4280   6.052   6.396   1.059
 1127SOL    HW2 4281   6.054   6.539   1.137
 1128SOL     OW 4282   4.062   1.790   5.112
 1128SOL    HW1 4283   4.087   1.725   5.040
 1128SOL    HW2 4284   3.965   1.816   5.101
 1129SOL     OW 4285   1.218   1.212   6.973
 1129SOL    HW1 4286   1.208   1.306   7.006
 1129SOL    HW2 4287   1.200   1.148   0.033
 1130SOL     OW 4288   2.201   5.257   1.620
 1130SOL    HW1 4289   2.134   5.216   1.683
 1130SOL    HW2 4290   2.282   5.285   1.671
 1131SOL     OW 4291   1.279   5.421   4.064
 1131SOL    HW1 4292   1.363   5.424   4.010
 1131SOL    HW2 4293   1.220   5.498   4.039
 1132SOL     OW 4294   1.340   1.753   2.921
 1132SOL    HW1 4295   1.290   1.672   2.890
 1132SOL    HW2 4296   1.275   1.822   2.953
 1133SOL     OW 4297   1.440   6.512   6.622
 1133SOL    HW1 4298   1.509   6.492   6.553
 1133SOL    HW2 4299   1.460   6.601   6.664
 1134SOL     OW 4300   4.981   5.774   0.773
 1134SOL    HW1 4301   5.012   5.681   0.750
 1134SOL    HW2 4302   4.884   5.772   0.797
 1135SOL     OW 4303   1.850   0.560   3.000
 1135SOL    HW1 4304   1.865   0.488   2.932
 1135SOL    HW2 4305   1.878   0.648   2.963
 1136SOL     OW 4306   1.657   4.475   2.534
 1136SOL    HW1 4307   1.688   4.522   2.616
 1136SOL    HW2 4308   1.730   4.476   2.465
 1137SOL     OW 4309   0.996   5.543   4.669
 1137SOL    HW1 4310   0.976   5.451   4.703
 1137SOL    HW2 4311   0.915   5.601   4.680
 1138SOL     OW 4312   1.744   4.083   4.594
 1138SOL    HW1 4313   1.745   4.181   4.571
 1138SOL    HW2 4314   1.769   4.072   4.690
 1139SOL     OW 4315   3.277   5.967   4.735
 1139SOL    HW1 4316   3.304   5.941   4.827
 1139SOL    HW2 4317   3.178   5.952   4.724
 1140SOL     OW 4318   2.205   2.662   1.487
 1140SOL    HW1 4319   2.291   2.611   1.490
 1140SOL    HW2 4320   2.162   2.661   1.578
 1141SOL     OW 4321   6.358   5.078   5.636
 1141SOL    HW1 4322   6.313   5.087   5.547
 1141SOL    HW2 4323   6.424   5.153   5.648
 1142SOL     OW 4324   0.902   5.408   2.857
 1142SOL    HW1 4325   0.839   5.459   2.916
 1142SOL    HW2 4326   0.853   5.370   2.779
 1143SOL     OW 4327   6.642   4.455   1.610
 1143SOL    HW1 4328   6.615   4.359   1.623
 1143SOL    HW2 4329   6.682   4.466   1.519
 1144SOL     OW 4330   5.223   4.772   0.351
 1144SOL    HW1 4331   5.309   4.821   0.361
 1144SOL    HW2 4332   5.195   4.733   0.439
 1145SOL     OW 4333   6.323   6.962   0.580
 1145SOL    HW1 4334   6.239   6.965   0.525
 1145SOL    HW2 4335   6.314   6.891   0.650
 1146SOL     OW 4336   1.598   0.940   1.453
 1146SOL    HW1 4337   1.672   0.907   1.394
 1146SOL    HW2 4338   1.526   0.980   1.397
 1147SOL     OW 4339   2.152   6.353   1.019
 1147SOL    HW1 4340   2.209   6.426   0.980
 1147SOL    HW2 4341   2.187   6.265   0.987
 1148SOL     OW 4342   3.621   5.831   2.107
 1148SOL    HW1 4343   3.684   5.800   2.035
 1148SOL    HW2 4344   3.671   5.842   2.193
 1149SOL     OW 4345   5.468   2.228   1.315
 1149SOL    HW1 4346   5.375   2.259   1.297
 1149SOL    HW2 4347   5.496   2.164   1.244
 1150SOL     OW 4348   1.187   2.349   1.019
 1150SOL    HW1 4349   1.285   2.340   1.035
 1150SOL    HW2 4350   1.138   2.275   1.065
 1151SOL     OW 4351   5.394   5.010   4.259
 1151SOL    HW1 4352   5.314   4.952   4.246
 1151SOL    HW2 4353   5.460   4.995   4.186
 1152SOL     OW 4354   3.601   6.478   5.840
 1152SOL    HW1 4355   3.570   6.394   5.884
 1152SOL    HW2 4356   3.541   6.500   5.764
 1153SOL     OW 4357   5.543   6.628   1.644
 1153SOL    HW1 4358   5.482   6.621   1.723
 1153SOL    HW2 4359   5.568   6.724   1.630
 1154SOL     OW 4360   1.479   3.181   0.695
 1154SOL    HW1 4361   1.415   3.116   0.654
 1154SOL    HW2 4362   1.569   3.170   0.653
 1155SOL     OW 4363   3.712   6.094   3.754
 1155SOL    HW1 4364   3.622   6.053   3.737
 1155SOL    HW2 4365   3.715   6.131   3.847
 1156SOL     OW 4366   2.705   1.033   1.864
 1156SOL    HW1 4367   2.626   0.972   1.860
 1156SOL    HW2 4368   2.719   1.075   1.774
 1157SOL     OW 4369   2.739   2.109   0.537
 1157SOL    HW1 4370   2.829   2.067   0.522
 1157SOL    HW2 4371   2.729   2.133   0.633
 1158SOL     OW 4372   5.353   4.679   4.065
 1158SOL    HW1 4373   5.340   4.582   4.086
 1158SOL    HW2 4374   5.281   4.733   4.110
 1159SOL     OW 4375   5.843   4.888   0.595
 1159SOL    HW1 4376   5.904   4.963   0.570
 1159SOL    HW2 4377   5.897   4.806   0.614
 1160SOL     OW 4378   4.259   2.067   0.449
 1160SOL    HW1 4379   4.248   2.157   0.490
 1160SOL    HW2 4380   4.317   2.010   0.508
 1161SOL     OW 4381   6.728   5.124   0.928
 1161SOL    HW1 4382   6.642   5.093   0.970
 1161SOL    HW2 4383   6.775   5.046   0.887
 1162SOL     OW 4384   2.373   2.634   4.690
 1162SOL    HW1 4385   2.458   2.620   4.739
 1162SOL    HW2 4386   2.392   2.672   4.599
 1163SOL     OW 4387   4.936   2.214   1.601
 1163SOL    HW1 4388   4.884   2.253   1.525
 1163SOL    HW2 4389   5.023   2.178   1.566
 1164SOL     OW 4390   4.217   2.087   5.595
 1164SOL    HW1 4391   4.172   2.172   5.566
 1164SOL    HW2 4392   4.169   2.051   5.676
 1165SOL     OW 4393   4.389   7.008   3.546
 1165SOL    HW1 4394   4.294   6.999   3.515
 1165SOL    HW2 4395   4.393   6.989   3.644
 1166SOL     OW 4396   3.529   4.094   6.399
 1166SOL    HW1 4397   3.602   4.152   6.435
 1166SOL    HW2 4398   3.480   4.050   6.474
 1167SOL     OW 4399   5.391   4.191   3.482
 1167SOL    HW1 4400   5.458   4.238   3.540
 1167SOL    HW2 4401   5.313   4.251   3.466
 1168SOL     OW 4402   0.515   6.789   0.903
 1168SOL    HW1 4403   0.529   6.734   0.821
 1168SOL    HW2 4404   0.433   6.759   0.950
 1169SOL     OW 4405   4.870   1.781   5.506
 1169SOL    HW1 4406   4.818   1.832   5.437
 1169SOL    HW2 4407   4.953   1.745   5.465
 1170SOL     OW 4408   5.039   4.463   2.613
 1170SOL    HW1 4409   5.057   4.544   2.669
 1170SOL    HW2 4410   4.997   4.491   2.526
 1171SOL     OW 4411   0.727   6.157   0.665
 1171SOL    HW1 4412   0.766   6.215   0.594
 1171SOL    HW2 4413   0.656   6.099   0.626
 1172SOL     OW 4414   5.802   3.144   0.021
 1172SOL    HW1 4415   5.720   3.090   7.014
 1172SOL    HW2 4416   5.837   3.187   6.954
 1173SOL     OW 4417   4.435   2.584   1.109
 1173SOL    HW1 4418   4.503   2.650   1.075
 1173SOL    HW2 4419   4.378   2.629   1.179
 1174SOL     OW 4420   2.959   4.828   0.323
 1174SOL    HW1 4421   2.905   4.880   0.390
 1174SOL    HW2 4422   3.056   4.833   0.347
 1175SOL     OW 4423   3.209   4.082   4.055
 1175SOL    HW1 4424   3.191   4.077   4.153
 1175SOL    HW2 4425   3.150   4.018   4.006
 1176SOL     OW 4426   5.640   2.968   6.903
 1176SOL    HW1 4427   5.544   2.966   6.874
 1176SOL    HW2 4428   5.676   2.875   6.903
 1177SOL     OW 4429   0.765   1.899   5.295
 1177SOL    HW1 4430   0.668   1.916   5.277
 1177SOL    HW2 4431   0.814   1.890   5.209
 1178SOL     OW 4432   4.438   6.762   0.061
 1178SOL    HW1 4433   4.429   6.804   0.152
 1178SOL    HW2 4434   4.526   6.789   0.022
 1179SOL     OW 4435   0.031   5.800   0.789
 1179SOL    HW1 4436   0.086   5.763   0.864
 1179SOL    HW2 4437   0.091   5.837   0.718
 1180SOL     OW 4438   3.823   6.422   0.674
 1180SOL    HW1 4439   3.764   6.502   0.672
 1180SOL    HW2 4440   3.834   6.385   0.582
 1181SOL     OW 4441   6.589   6.155   6.393
 1181SOL    HW1 4442   6.591   6.088   6.318
 1181SOL    HW2 4443   6.574   6.246   6.355
 1182SOL     OW 4444   4.889   3.816   3.537
 1182SOL    HW1 4445   4.850   3.901   3.569
 1182SOL    HW2 4446   4.885   3.813   3.437
 1183SOL     OW 4447   1.889   4.537   6.860
 1183SOL    HW1 4448   1.952   4.607   6.894
 1183SOL    HW2 4449   1.796   4.559   6.890
 1184SOL     OW 4450   0.163   0.891   5.344
 1184SOL    HW1 4451   0.240   0.832   5.318
 1184SOL    HW2 4452   0.182   0.985   5.315
 1185SOL     OW 4453   6.546   1.506   6.729
 1185SOL    HW1 4454   6.537   1.555   6.816
 1185SOL    HW2 4455   6.514   1.564   6.655
 1186SOL     OW 4456   5.564   6.571   4.455
 1186SOL    HW1 4457   5.630   6.517   4.508
 1186SOL    HW2 4458   5.549   6.528   4.366
 1187SOL     OW 4459   6.459   2.350   6.018
 1187SOL    HW1 4460   6.529   2.313   6.079
 1187SOL    HW2 4461   6.423   2.278   5.960
 1188SOL     OW 4462   4.078   2.007   6.528
 1188SOL    HW1 4463   4.025   1.928   6.498
 1188SOL    HW2 4464   4.017   2.083   6.549
 1189SOL     OW 4465   6.065   3.473   3.851
 1189SOL    HW1 4466   5.989   3.462   3.915
 1189SOL    HW2 4467   6.033   3.519   3.769
 1190SOL     OW 4468   3.215   0.411   3.861
 1190SOL    HW1 4469   3.221   0.505   3.828
 1190SOL    HW2 4470   3.244   0.407   3.956
 1191SOL     OW 4471   3.241   6.539   2.799
 1191SOL    HW1 4472   3.186   6.603   2.746
 1191SOL    HW2 4473   3.206   6.534   2.892
 1192SOL     OW 4474   6.338   5.612   3.618
 1192SOL    HW1 4475   6.350   5.581   3.712
 1192SOL    HW2 4476   6.348   5.535   3.556
 1193SOL     OW 4477   6.481   5.980   4.408
 1193SOL    HW1 4478   6.511   5.985   4.313
 1193SOL    HW2 4479   6.445   6.069   4.437
 1194SOL     OW 4480   3.667   0.203   1.000
 1194SOL    HW1 4481   3.619   0.119   1.023
 1194SOL    HW2 4482   3.754   0.181   0.957
 1195SOL     OW 4483   4.613   2.473   3.083
 1195SOL    HW1 4484   4.618   2.488   2.984
 1195SOL    HW2 4485   4.675   2.536   3.129
 1196SOL     OW 4486   0.237   6.679   5.101
 1196SOL    HW1 4487   0.331   6.708   5.081
 1196SOL    HW2 4488   0.238   6.609   5.172
 1197SOL     OW 4489   2.153   6.053   0.287
 1197SOL    HW1 4490   2.128   6.109   0.208
 1197SOL    HW2 4491   2.083   6.063   0.358
 1198SOL     OW 4492   1.511   2.642   6.849
 1198SOL    HW1 4493   1.422   2.649   6.804
 1198SOL    HW2 4494   1.509   2.568   6.916
 1199SOL     OW 4495   6.131   3.812   2.344
 1199SOL    HW1 4496   6.085   3.901   2.337
 1199SOL    HW2 4497   6.094   3.750   2.276
 1200SOL     OW 4498   3.308   4.070   2.772
 1200SOL    HW1 4499   3.388   4.012   2.757
 1200SOL    HW2 4500   3.308   4.102   2.867
 1201SOL     OW 4501   1.616   2.325   5.112
 1201SOL    HW1 4502   1.603   2.272   5.028
 1201SOL    HW2 4503   1.711   2.354   5.119
 1202SOL     OW 4504   1.485   6.047   5.034
 1202SOL    HW1 4505   1.490   5.964   5.089
 1202SOL    HW2 4506   1.488   6.127   5.094
 1203SOL     OW 4507   4.175   5.999   5.089
 1203SOL    HW1 4508   4.258   5.965   5.133
 1203SOL    HW2 4509   4.124   6.056   5.153
 1204SOL     OW 4510   1.981   6.898   2.858
 1204SOL    HW1 4511   1.895   6.946   2.874
 1204SOL    HW2 4512   1.964   6.816   2.804
 1205SOL     OW 4513   5.706   3.606   2.361
 1205SOL    HW1 4514   5.627   3.555   2.326
 1205SOL    HW2 4515   5.687   3.704   2.359
 1206SOL     OW 4516   3.324   3.613   4.333
 1206SOL    HW1 4517   3.309   3.647   4.240
 1206SOL    HW2 4518   3.283   3.522   4.342
 1207SOL     OW 4519   0.864   5.768   2.809
 1207SOL    HW1 4520   0.947   5.822   2.825
 1207SOL    HW2 4521   0.847   5.710   2.888
 1208SOL     OW 4522   3.466   3.229   6.512
 1208SOL    HW1 4523   3.504   3.173   6.438
 1208SOL    HW2 4524   3.424   3.311   6.473
 1209SOL     OW 4525   3.865   6.280   5.127
 1209SOL    HW1 4526   3.912   6.352   5.076
 1209SOL    HW2 4527   3.842   6.205   5.064
 1210SOL     OW 4528   3.089   0.969   2.805
 1210SOL    HW1 4529   3.027   1.013   2.869
 1210SOL    HW2 4530   3.038   0.905   2.748
 1211SOL     OW 4531   0.888   2.859   0.449
 1211SOL    HW1 4532   0.855   2.904   0.366
 1211SOL    HW2 4533   0.849   2.767   0.455
 1212SOL     OW 4534   0.669   6.990   0.420
 1212SOL    HW1 4535   0.730   0.042   0.460
 1212SOL    HW2 4536   0.709   6.899   0.430
 1213SOL     OW 4537   5.681   2.813   1.360
 1213SOL    HW1 4538   5.697   2.805   1.459
 1213SOL    HW2 4539   5.601   2.871   1.344
 1214SOL     OW 4540   6.854   2.616   2.478
 1214SOL    HW1 4541   6.820   2.546   2.541
 1214SOL    HW2 4542   6.952   2.605   2.466
 1215SOL     OW 4543   2.150   5.977   2.804
 1215SOL    HW1 4544   2.079   6.020   2.861
 1215SOL    HW2 4545   2.201   5.911   2.859
 1216SOL     OW 4546   4.146   0.153   1.727
 1216SOL    HW1 4547   4.088   0.142   1.807
 1216SOL    HW2 4548   4.155   0.250   1.704
 1217SOL     OW 4549   3.077   3.906   6.701
 1217SOL    HW1 4550   2.979   3.926   6.710
 1217SOL    HW2 4551   3.130   3.974   6.751
 1218SOL     OW 4552   2.114   5.341   3.988
 1218SOL    HW1 4553   2.043   5.392   4.037
 1218SOL    HW2 4554   2.096   5.243   3.997
 1219SOL     OW 4555   4.148   5.514   1.911
 1219SOL    HW1 4556   4.049   5.513   1.926
 1219SOL    HW2 4557   4.170   5.466   1.826
 1220SOL     OW 4558   0.522   4.731   2.127
 1220SOL    HW1 4559   0.465   4.677   2.189
 1220SOL    HW2 4560   0.463   4.777   2.060
 1221SOL     OW 4561   4.377   4.675   6.749
 1221SOL    HW1 4562   4.339   4.598   6.698
 1221SOL    HW2 4563   4.477   4.674   6.741
 1222SOL     OW 4564   6.660   1.051   6.602
 1222SOL    HW1 4565   6.574   1.016   6.564
 1222SOL    HW2 4566   6.663   1.150   6.591
 1223SOL     OW 4567   3.843   6.721   1.431
 1223SOL    HW1 4568   3.857   6.812   1.470
 1223SOL    HW2 4569   3.907   6.706   1.356
 1224SOL     OW 4570   3.126   1.051   1.646
 1224SOL    HW1 4571   3.099   1.133   1.696
 1224SOL    HW2 4572   3.190   1.076   1.573
 1225SOL     OW 4573   2.896   3.537   6.169
 1225SOL    HW1 4574   2.838   3.602   6.120
 1225SOL    HW2 4575   2.991   3.551   6.141
 1226SOL     OW 4576   2.457   4.941   0.181
 1226SOL    HW1 4577   2.371   4.920   0.227
 1226SOL    HW2 4578   2.519   4.987   0.244
 1227SOL     OW 4579   1.419   4.306   6.088
 1227SOL    HW1 4580   1.344   4.241   6.077
 1227SOL    HW2 4581   1.502   4.268   6.046
 1228SOL     OW 4582   3.912   2.081   6.934
 1228SOL    HW1 4583   3.999   2.130   6.936
 1228SOL    HW2 4584   3.924   1.989   6.971
 1229SOL     OW 4585   3.601   3.785   6.693
 1229SOL    HW1 4586   3.576   3.695   6.657
 1229SOL    HW2 4587   3.528   3.819   6.752
 1230SOL     OW 4588   4.415   0.339   3.861
 1230SOL    HW1 4589   4.402   0.414   3.796
 1230SOL    HW2 4590   4.345   0.343   3.932
 1231SOL     OW 4591   0.973   3.515   4.128
 1231SOL    HW1 4592   1.043   3.458   4.170
 1231SOL    HW2 4593   1.006   3.608   4.119
 1232SOL     OW 4594   1.892   3.063   2.910
 1232SOL    HW1 4595   1.924   2.992   2.846
 1232SOL    HW2 4596   1.952   3.143   2.903
 1233SOL     OW 4597   0.646   2.253   4.182
 1233SOL    HW1 4598   0.602   2.274   4.270
 1233SOL    HW2 4599   0.738   2.290   4.182
 1234SOL     OW 4600   6.163   4.556   4.257
 1234SOL    HW1 4601   6.075   4.526   4.220
 1234SOL    HW2 4602   6.215   4.604   4.186
 1235SOL     OW 4603   6.940   4.967   3.523
 1235SOL    HW1 4604   6.937   4.968   3.623
 1235SOL    HW2 4605   6.890   4.888   3.488
 1236SOL     OW 4606   5.408   0.768   6.505
 1236SOL    HW1 4607   5.375   0.675   6.488
 1236SOL    HW2 4608   5.443   0.806   6.419
 1237SOL     OW 4609   1.900   4.518   6.080
 1237SOL    HW1 4610   1.867   4.464   6.157
 1237SOL    HW2 4611   1.895   4.615   6.104
 1238SOL     OW 4612   1.711   1.565   1.107
 1238SOL    HW1 4613   1.752   1.474   1.111
 1238SOL    HW2 4614   1.618   1.557   1.070
 1239SOL     OW 4615   0.872   0.110   5.868
 1239SOL    HW1 4616   0.873   0.156   5.780
 1239SOL    HW2 4617   0.957   0.057   5.880
 1240SOL     OW 4618   5.475   5.630   0.782
 1240SOL    HW1 4619   5.459   5.556   0.717
 1240SOL    HW2 4620   5.471   5.594   0.876
 1241SOL     OW 4621   7.004   2.028   4.594
 1241SOL    HW1 4622   6.997   2.127   4.611
 1241SOL    HW2 4623   0.085   2.003   4.587
 1242SOL     OW 4624   2.049   2.197   6.653
 1242SOL    HW1 4625   1.999   2.282   6.669
 1242SOL    HW2 4626   2.130   2.195   6.711
 1243SOL     OW 4627   2.871   5.060   5.150
 1243SOL    HW1 4628   2.935   4.991   5.185
 1243SOL    HW2 4629   2.812   5.018   5.081
 1244SOL     OW 4630   0.559   1.760   2.996
 1244SOL    HW1 4631   0.622   1.797   2.928
 1244SOL    HW2 4632   0.483   1.824   3.009
 1245SOL     OW 4633   3.083   2.790   5.546
 1245SOL    HW1 4634   3.019   2.756   5.614
 1245SOL    HW2 4635   3.033   2.844   5.478
 1246SOL     OW 4636   1.268   6.476   1.610
 1246SOL    HW1 4637   1.231   6.568   1.621
 1246SOL    HW2 4638   1.194   6.409   1.614
 1247SOL     OW 4639   0.814   6.565   6.675
 1247SOL    HW1 4640   0.780   6.520   6.592
 1247SOL    HW2 4641   0.903   6.606   6.656
 1248SOL     OW 4642   2.329   6.897   3.787
 1248SOL    HW1 4643   2.337   6.893   3.687
 1248SOL    HW2 4644   2.401   6.956   3.824
 1249SOL     OW 4645   5.880   3.070   3.080
 1249SOL    HW1 4646   5.805   3.128   3.049
 1249SOL    HW2 4647   5.928   3.033   3.000
 1250SOL     OW 4648   0.259   3.176   4.664
 1250SOL    HW1 4649   0.243   3.178   4.565
 1250SOL    HW2 4650   0.176   3.149   4.711
 1251SOL     OW 4651   3.120   0.541   6.484
 1251SOL    HW1 4652   3.195   0.508   6.540
 1251SOL    HW2 4653   3.156   0.583   6.401
 1252SOL     OW 4654   3.531   3.873   0.312
 1252SOL    HW1 4655   3.460   3.942   0.299
 1252SOL    HW2 4656   3.511   3.819   0.394
 1253SOL     OW 4657   4.601   1.135   3.075
 1253SOL    HW1 4658   4.689   1.183   3.085
 1253SOL    HW2 4659   4.527   1.202   3.079
 1254SOL     OW 4660   5.513   1.156   3.753
 1254SOL    HW1 4661   5.561   1.218   3.691
 1254SOL    HW2 4662   5.417   1.182   3.757
 1255SOL     OW 4663   5.893   0.327   1.978
 1255SOL    HW1 4664   5.815   0.291   2.028
 1255SOL    HW2 4665   5.864   0.408   1.926
 1256SOL     OW 4666   4.783   2.517   3.578
 1256SOL    HW1 4667   4.689   2.507   3.611
 1256SOL    HW2 4668   4.845   2.464   3.635
 1257SOL     OW 4669   5.769   1.128   4.434
 1257SOL    HW1 4670   5.710   1.051   4.459
 1257SOL    HW2 4671   5.720   1.214   4.447
 1258SOL     OW 4672   0.210   4.986   3.431
 1258SOL    HW1 4673   0.110   4.979   3.440
 1258SOL    HW2 4674   0.236   5.082   3.432
 1259SOL     OW 4675   5.329   2.269   4.521
 1259SOL    HW1 4676   5.306   2.338   4.452
 1259SOL    HW2 4677   5.278   2.185   4.502
 1260SOL     OW 4678   0.714   1.764   4.936
 1260SOL    HW1 4679   0.792   1.704   4.922
 1260SOL    HW2 4680   0.640   1.714   4.981
 1261SOL     OW 4681   6.719   3.547   1.014
 1261SOL    HW1 4682   6.646   3.534   1.080
 1261SOL    HW2 4683   6.683   3.599   0.935
 1262SOL     OW 4684   4.771   6.156   2.086
 1262SOL    HW1 4685   4.811   6.089   2.147
 1262SOL    HW2 4686   4.721   6.224   2.139
 1263SOL     OW 4687   0.531   2.074   3.226
 1263SOL    HW1 4688   0.556   2.037   3.316
 1263SOL    HW2 4689   0.474   2.155   3.238
 1264SOL     OW 4690   0.958   2.543   5.315
 1264SOL    HW1 4691   0.885   2.611   5.318
 1264SOL    HW2 4692   0.954   2.486   5.397
 1265SOL     OW 4693   6.076   6.997   5.651
 1265SOL    HW1 4694   6.159   0.035   5.666
 1265SOL    HW2 4695   6.009   0.004   5.721
 1266SOL     OW 4696   3.314   1.443   5.355
 1266SOL    HW1 4697   3.337   1.356   5.398
 1266SOL    HW2 4698   3.215   1.455   5.356
 1267SOL     OW 4699   2.948   0.379   1.973
 1267SOL    HW1 4700   2.956   0.478   1.968
 1267SOL    HW2 4701   2.852   0.352   1.963
 1268SOL     OW 4702   4.064   2.262   5.399
 1268SOL    HW1 4703   4.036   2.178   5.352
 1268SOL    HW2 4704   3.984   2.317   5.420
 1269SOL     OW 4705   5.753   1.898   3.602
 1269SOL    HW1 4706   5.782   1.991   3.579
 1269SOL    HW2 4707   5.727   1.894   3.698
 1270SOL     OW 4708   5.797   5.503   3.225
 1270SOL    HW1 4709   5.823   5.476   3.318
 1270SOL    HW2 4710   5.863   5.465   3.160
 1271SOL     OW 4711   1.577   0.902   1.914
 1271SOL    HW1 4712   1.672   0.934   1.922
 1271SOL    HW2 4713   1.554   0.891   1.817
 1272SOL     OW 4714   6.386   2.129   0.699
 1272SOL    HW1 4715   6.396   2.142   0.797
 1272SOL    HW2 4716   6.363   2.034   0.680
 1273SOL     OW 4717   1.598   4.459   5.728
 1273SOL    HW1 4718   1.525   4.391   5.733
 1273SOL    HW2 4719   1.673   4.431   5.789
 1274SOL     OW 4720   0.199   4.261   4.411
 1274SOL    HW1 4721   0.157   4.171   4.403
 1274SOL    HW2 4722   0.185   4.297   4.503
 1275SOL     OW 4723   1.772   1.521   2.974
 1275SOL    HW1 4724   1.858   1.475   2.951
 1275SOL    HW2 4725   1.777   1.617   2.947
 1276SOL     OW 4726   5.928   4.238   3.833
 1276SOL    HW1 4727   6.023   4.254   3.862
 1276SOL    HW2 4728   5.923   4.242   3.733
 1277SOL     OW 4729   1.560   6.226   6.391
 1277SOL    HW1 4730   1.601   6.176   6.467
 1277SOL    HW2 4731   1.523   6.162   6.324
 1278SOL     OW 4732   0.015   5.996   2.666
 1278SOL    HW1 4733   6.972   6.078   2.667
 1278SOL    HW2 4734   7.009   5.942   2.585
 1279SOL     OW 4735   2.988   3.455   0.422
 1279SOL    HW1 4736   2.996   3.524   0.493
 1279SOL    HW2 4737   3.079   3.436   0.384
 1280SOL     OW 4738   2.581   2.376   3.863
 1280SOL    HW1 4739   2.533   2.333   3.787
 1280SOL    HW2 4740   2.548   2.470   3.874
 1281SOL     OW 4741   5.199   6.295   5.433
 1281SOL    HW1 4742   5.204   6.387   5.395
 1281SOL    HW2 4743   5.246   6.293   5.521
 1282SOL     OW 4744   1.062   2.906   0.875
 1282SOL    HW1 4745   1.029   2.846   0.802
 1282SOL    HW2 4746   1.105   2.850   0.947
 1283SOL     OW 4747   0.475   1.278   4.334
 1283SOL    HW1 4748   0.511   1.355   4.280
 1283SOL    HW2 4749   0.551   1.219   4.361
 1284SOL     OW 4750   3.887   2.230   1.747
 1284SOL    HW1 4751   3.810   2.285   1.779
 1284SOL    HW2 4752   3.945   2.205   1.824
 1285SOL     OW 4753   4.248   1.612   4.651
 1285SOL    HW1 4754   4.195   1.541   4.605
 1285SOL    HW2 4755   4.315   1.650   4.588
 1286SOL     OW 4756   4.839   1.157   2.159
 1286SOL    HW1 4757   4.744   1.167   2.190
 1286SOL    HW2 4758   4.844   1.088   2.088
 1287SOL     OW 4759   5.032   5.119   6.154
 1287SOL    HW1 4760   5.077   5.137   6.241
 1287SOL    HW2 4761   5.078   5.172   6.082
 1288SOL     OW 4762   4.578   4.384   6.618
 1288SOL    HW1 4763   4.612   4.428   6.702
 1288SOL    HW2 4764   4.506   4.319   6.642
 1289SOL     OW 4765   1.020   6.634   0.424
 1289SOL    HW1 4766   1.017   6.599   0.330
 1289SOL    HW2 4767   1.114   6.634   0.457
 1290SOL     OW 4768   1.108   6.685   4.847
 1290SOL    HW1 4769   1.191   6.661   4.795
 1290SOL    HW2 4770   1.028   6.677   4.788
 1291SOL     OW 4771   5.511   5.478   3.283
 1291SOL    HW1 4772   5.479   5.405   3.223
 1291SOL    HW2 4773   5.608   5.495   3.267
 1292SOL     OW 4774   0.489   6.699   2.938
 1292SOL    HW1 4775   0.513   6.602   2.928
 1292SOL    HW2 4776   0.563   6.755   2.902
 1293SOL     OW 4777   4.983   0.231   1.004
 1293SOL    HW1 4778   4.887   0.203   1.011
 1293SOL    HW2 4779   5.041   0.153   1.027
 1294SOL     OW 4780   2.087   4.537   5.281
 1294SOL    HW1 4781   2.150   4.597   5.230
 1294SOL    HW2 4782   2.060   4.582   5.366
 1295SOL     OW 4783   0.064   4.586   0.379
 1295SOL    HW1 4784   0.064   4.672   0.429
 1295SOL    HW2 4785   0.105   4.601   0.288
 1296SOL     OW 4786   4.632   0.713   5.230
 1296SOL    HW1 4787   4.576   0.776   5.175
 1296SOL    HW2 4788   4.619   0.734   5.327
 1297SOL     OW 4789   6.428   6.834   6.790
 1297SOL    HW1 4790   6.416   6.924   6.748
 1297SOL    HW2 4791   6.387   6.834   6.881
 1298SOL     OW 4792   5.190   0.624   3.138
 1298SOL    HW1 4793   5.173   0.545   3.196
 1298SOL    HW2 4794   5.188   0.708   3.193
 1299SOL     OW 4795   1.128   4.581   4.713
 1299SOL    HW1 4796   1.226   4.596   4.717
 1299SOL    HW2 4797   1.107   4.490   4.749
 1300SOL     OW 4798   1.688   5.659   0.183
 1300SOL    HW1 4799   1.593   5.658   0.151
 1300SOL    HW2 4800   1.689   5.658   0.283
 1301SOL     OW 4801   6.312   0.984   0.184
 1301SOL    HW1 4802   6.248   0.989   0.108
 1301SOL    HW2 4803   6.277   0.920   0.252
 1302SOL     OW 4804   6.896   6.895   4.885
 1302SOL    HW1 4805   6.827   6.824   4.874
 1302SOL    HW2 4806   6.927   6.896   4.980
 1303SOL     OW 4807   3.038   6.684   1.191
 1303SOL    HW1 4808   3.025   6.779   1.163
 1303SOL    HW2 4809   3.132   6.670   1.221
 1304SOL     OW 4810   6.824   6.916   0.133
 1304SOL    HW1 4811   6.922   6.932   0.137
 1304SOL    HW2 4812   6.796   6.860   0.211
 1305SOL     OW 4813   4.231   3.900   5.857
 1305SOL    HW1 4814   4.271   3.945   5.778
 1305SOL    HW2 4815   4.221   3.966   5.932
 1306SOL     OW 4816   2.891   6.280   4.415
 1306SOL    HW1 4817   2.871   6.256   4.320
 1306SOL    HW2 4818   2.966   6.346   4.417
 1307SOL     OW 4819   2.173   3.290   4.035
 1307SOL    HW1 4820   2.175   3.243   4.123
 1307SOL    HW2 4821   2.166   3.388   4.050
 1308SOL     OW 4822   0.154   3.901   6.421
 1308SOL    HW1 4823   0.194   3.836   6.486
 1308SOL    HW2 4824   0.186   3.881   6.329
 1309SOL     OW 4825   6.097   3.992   6.731
 1309SOL    HW1 4826   6.016   4.008   6.788
 1309SOL    HW2 4827   6.069   3.963   6.640
 1310SOL     OW 4828   2.151   3.204   3.031
 1310SOL    HW1 4829   2.150   3.295   3.072
 1310SOL    HW2 4830   2.154   3.135   3.103
 1311SOL     OW 4831   6.299   4.999   0.318
 1311SOL    HW1 4832   6.350   4.979   0.235
 1311SOL    HW2 4833   6.319   5.092   0.348
 1312SOL     OW 4834   2.718   1.285   6.354
 1312SOL    HW1 4835   2.652   1.298   6.280
 1312SOL    HW2 4836   2.673   1.304   6.442
 1313SOL     OW 4837   5.822   4.977   2.198
 1313SOL    HW1 4838   5.825   5.058   2.138
 1313SOL    HW2 4839   5.911   4.966   2.242
 1314SOL     OW 4840   2.350   1.441   3.685
 1314SOL    HW1 4841   2.324   1.392   3.768
 1314SOL    HW2 4842   2.306   1.398   3.606
 1315SOL     OW 4843   6.283   1.016   3.091
 1315SOL    HW1 4844   6.311   0.936   3.037
 1315SOL    HW2 4845   6.362   1.076   3.104
 1316SOL     OW 4846   5.217   0.207   6.232
 1316SOL    HW1 4847   5.163   0.142   6.180
 1316SOL    HW2 4848   5.181   0.212   6.326
 1317SOL     OW 4849   3.652   2.957   4.415
 1317SOL    HW1 4850   3.579   2.944   4.482
 1317SOL    HW2 4851   3.668   3.055   4.401
 1318SOL     OW 4852   1.885   1.532   6.498
 1318SOL    HW1 4853   1.833   1.580   6.568
 1318SOL    HW2 4854   1.829   1.523   6.416
 1319SOL     OW 4855   6.526   1.224   0.469
 1319SOL    HW1 4856   6.602   1.182   0.420
 1319SOL    HW2 4857   6.452   1.243   0.404
 1320SOL     OW 4858   2.691   2.963   6.045
 1320SOL    HW1 4859   2.755   2.886   6.047
 1320SOL    HW2 4860   2.634   2.957   5.964
 1321SOL     OW 4861   6.932   2.534   1.559
 1321SOL    HW1 4862   0.002   2.582   1.545
 1321SOL    HW2 4863   6.950   2.439   1.586
 1322SOL     OW 4864   2.376   2.440   6.845
 1322SOL    HW1 4865   2.334   2.469   6.758
 1322SOL    HW2 4866   2.428   2.516   6.883
 1323SOL     OW 4867   4.138   0.919   1.348
 1323SOL    HW1 4868   4.214   0.872   1.304
 1323SOL    HW2 4869   4.141   0.904   1.446
 1324SOL     OW 4870   2.363   4.086   6.084
 1324SOL    HW1 4871   2.283   4.145   6.089
 1324SOL    HW2 4872   2.372   4.035   6.169
 1325SOL     OW 4873   4.296   6.248   4.495
 1325SOL    HW1 4874   4.253   6.163   4.524
 1325SOL    HW2 4875   4.384   6.259   4.543
 1326SOL     OW 4876   4.812   1.226   4.695
 1326SOL    HW1 4877   4.856   1.158   4.637
 1326SOL    HW2 4878   4.879   1.266   4.758
 1327SOL     OW 4879   4.837   5.627   2.005
 1327SOL    HW1 4880   4.875   5.540   2.035
 1327SOL    HW2 4881   4.841   5.633   1.905
 1328SOL     OW 4882   1.942   2.106   5.892
 1328SOL    HW1 4883   1.969   2.153   5.976
 1328SOL    HW2 4884   1.843   2.111   5.882
 1329SOL     OW 4885   1.173   2.974   3.919
 1329SOL    HW1 4886   1.164   3.048   3.852
 1329SOL    HW2 4887   1.108   2.901   3.897
 1330SOL     OW 4888   6.576   3.224   3.247
 1330SOL    HW1 4889   6.550   3.152   3.312
 1330SOL    HW2 4890   6.649   3.190   3.188
 1331SOL     OW 4891   4.184   1.880   3.054
 1331SOL    HW1 4892   4.154   1.899   2.961
 1331SOL    HW2 4893   4.203   1.966   3.102
 1332SOL     OW 4894   2.283   5.956   6.621
 1332SOL    HW1 4895   2.207   5.898   6.591
 1332SOL    HW2 4896   2.259   6.052   6.610
 1333SOL     OW 4897   3.812   3.421   2.852
 1333SOL    HW1 4898   3.894   3.375   2.887
 1333SOL    HW2 4899   3.763   3.462   2.929
 1334SOL     OW 4900   6.384   4.259   1.380
 1334SOL    HW1 4901   6.444   4.245   1.458
 1334SOL    HW2 4902   6.298   4.209   1.394
 1335SOL     OW 4903   0.509   3.586   3.106
 1335SOL    HW1 4904   0.422   3.634   3.110
 1335SOL    HW2 4905   0.524   3.536   3.191
 1336SOL     OW 4906   2.192   6.802   5.806
 1336SOL    HW1 4907   2.239   6.819   5.893
 1336SOL    HW2 4908   2.102   6.763   5.824
 1337SOL     OW 4909   0.622   0.018   2.065
 1337SOL    HW1 4910   0.573   6.991   2.141
 1337SOL    HW2 4911   0.617   0.118   2.074
 1338SOL     OW 4912   0.142   4.000   5.148
 1338SOL    HW1 4913   0.234   3.967   5.169
 1338SOL    HW2 4914   0.148   4.081   5.089
 1339SOL     OW 4915   5.676   1.150   0.251
 1339SOL    HW1 4916   5.654   1.211   0.174
 1339SOL    HW2 4917   5.738   1.078   0.220
 1340SOL     OW 4918   3.102   2.724   0.901
 1340SOL    HW1 4919   3.114   2.632   0.940
 1340SOL    HW2 4920   3.085   2.789   0.975
 1341SOL     OW 4921   5.841   5.966   6.539
 1341SOL    HW1 4922   5.803   5.914   6.615
 1341SOL    HW2 4923   5.778   6.038   6.511
 1342SOL     OW 4924   1.811   5.829   1.547
 1342SOL    HW1 4925   1.905   5.848   1.518
 1342SOL    HW2 4926   1.796   5.867   1.639
 1343SOL     OW 4927   5.017   6.084   2.726
 1343SOL    HW1 4928   4.945   6.087   2.796
 1343SOL    HW2 4929   5.025   6.174   2.683
 1344SOL     OW 4930   0.975   0.778   4.157
 1344SOL    HW1 4931   0.889   0.741   4.121
 1344SOL    HW2 4932   1.018   0.835   4.087
 1345SOL     OW 4933   1.399   6.566   5.665
 1345SOL    HW1 4934   1.336   6.489   5.661
 1345SOL    HW2 4935   1.491   6.536   5.641
 1346SOL     OW 4936   3.280   5.482   3.995
 1346SOL    HW1 4937   3.251   5.560   3.940
 1346SOL    HW2 4938   3.364   5.506   4.045
 1347SOL     OW 4939   1.243   0.859   6.309
 1347SOL    HW1 4940   1.205   0.881   6.399
 1347SOL    HW2 4941   1.274   0.764   6.308
 1348SOL     OW 4942   1.347   6.584   4.771
 1348SOL    HW1 4943   1.374   6.676   4.743
 1348SOL    HW2 4944   1.428   6.533   4.801
 1349SOL     OW 4945   5.477   3.934   4.271
 1349SOL    HW1 4946   5.405   3.924   4.202
 1349SOL    HW2 4947   5.466   3.864   4.341
 1350SOL     OW 4948   5.083   4.909   6.573
 1350SOL    HW1 4949   5.121   4.956   6.652
 1350SOL    HW2 4950   5.135   4.933   6.491
 1351SOL     OW 4951   7.008   2.672   6.329
 1351SOL    HW1 4952   6.946   2.751   6.331
 1351SOL    HW2 4953   7.016   2.634   6.421
 1352SOL     OW 4954   0.084   0.553   2.779
 1352SOL    HW1 4955   0.009   0.590   2.833
 1352SOL    HW2 4956   0.092   0.604   2.693
 1353SOL     OW 4957   6.498   2.165   6.273
 1353SOL    HW1 4958   6.420   2.213   6.313
 1353SOL    HW2 4959   6.580   2.220   6.281
 1354SOL     OW 4960   5.089   4.872   2.461
 1354SOL    HW1 4961   4.994   4.841   2.457
 1354SOL    HW2 4962   5.092   4.969   2.483
 1355SOL     OW 4963   4.228   3.753   5.230
 1355SOL    HW1 4964   4.306   3.785   5.176
 1355SOL    HW2 4965   4.223   3.653   5.225
 1356SOL     OW 4966   2.821   3.254   6.946
 1356SOL    HW1 4967   2.800   3.243   6.849
 1356SOL    HW2 4968   2.920   3.263   6.957
 1357SOL     OW 4969   1.075   3.191   5.722
 1357SOL    HW1 4970   1.148   3.200   5.790
 1357SOL    HW2 4971   1.096   3.250   5.643
 1358SOL     OW 4972   2.416   6.940   6.742
 1358SOL    HW1 4973   2.431   6.950   6.841
 1358SOL    HW2 4974   2.347   7.005   6.713
 1359SOL     OW 4975   6.276   4.765   6.752
 1359SOL    HW1 4976   6.232   4.774   6.662
 1359SOL    HW2 4977   6.250   4.842   6.810
 1360SOL     OW 4978   2.554   1.384   6.071
 1360SOL    HW1 4979   2.627   1.437   6.114
 1360SOL    HW2 4980   2.466   1.430   6.086
 1361SOL     OW 4981   6.480   5.513   5.156
 1361SOL    HW1 4982   6.575   5.515   5.186
 1361SOL    HW2 4983   6.420   5.532   5.234
 1362SOL     OW 4984   3.566   3.841   4.123
 1362SOL    HW1 4985   3.477   3.798   4.107
 1362SOL    HW2 4986   3.582   3.850   4.221
 1363SOL     OW 4987   0.146   6.520   3.497
 1363SOL    HW1 4988   0.058   6.564   3.476
 1363SOL    HW2 4989   0.149   6.430   3.455
 1364SOL     OW 4990   3.906   4.097   6.941
 1364SOL    HW1 4991   3.881   4.032   6.870
 1364SOL    HW2 4992   3.955   4.049   7.014
 1365SOL     OW 4993   5.741   2.764   6.183
 1365SOL    HW1 4994   5.713   2.759   6.087
 1365SOL    HW2 4995   5.839   2.785   6.188
 1366SOL     OW 4996   2.193   0.356   4.967
 1366SOL    HW1 4997   2.150   0.389   4.883
 1366SOL    HW2 4998   2.261   0.423   4.998
 1367SOL     OW 4999   2.469   1.715   2.382
 1367SOL    HW1 5000   2.545   1.708   2.446
 1367SOL    HW2 5001   2.431   1.808   2.385
 1368SOL     OW 5002   7.014   0.603   3.230
 1368SOL    HW1 5003   0.071   0.649   3.281
 1368SOL    HW2 5004   6.931   0.600   3.285
 1369SOL     OW 5005   6.982   0.410   2.558
 1369SOL    HW1 5006   6.900   0.440   2.607
 1369SOL    HW2 5007   0.047   0.436   2.610
 1370SOL     OW 5008   1.737   0.954   2.231
 1370SOL    HW1 5009   1.812   0.983   2.291
 1370SOL    HW2 5010   1.651   0.992   2.264
 1371SOL     OW 5011   3.116   0.066   6.205
 1371SOL    HW1 5012   3.028   0.113   6.205
 1371SOL    HW2 5013   3.112   7.005   6.140
 1372SOL     OW 5014   2.710   1.783   1.833
 1372SOL    HW1 5015   2.754   1.871   1.845
 1372SOL    HW2 5016   2.611   1.796   1.826
 1373SOL     OW 5017   1.615   5.848   6.625
 1373SOL    HW1 5018   1.630   5.830   6.527
 1373SOL    HW2 5019   1.684   5.912   6.658
 1374SOL     OW 5020   5.117   3.804   5.475
 1374SOL    HW1 5021   5.190   3.865   5.446
 1374SOL    HW2 5022   5.061   3.779   5.397
 1375SOL     OW 5023   1.196   4.071   4.305
 1375SOL    HW1 5024   1.271   4.090   4.369
 1375SOL    HW2 5025   1.152   4.156   4.278
 1376SOL     OW 5026   4.954   0.541   1.916
 1376SOL    HW1 5027   4.981   0.445   1.920
 1376SOL    HW2 5028   4.857   0.549   1.939
 1377SOL     OW 5029   0.573   4.276   5.083
 1377SOL    HW1 5030   0.586   4.184   5.120
 1377SOL    HW2 5031   0.485   4.312   5.113
 1378SOL     OW 5032   2.060   1.883   0.593
 1378SOL    HW1 5033   1.960   1.885   0.601
 1378SOL    HW2 5034   2.093   1.789   0.604
 1379SOL     OW 5035   4.456   5.623   1.726
 1379SOL    HW1 5036   4.365   5.665   1.716
 1379SOL    HW2 5037   4.526   5.692   1.706
 1380SOL     OW 5038   6.095   5.027   2.826
 1380SOL    HW1 5039   6.155   4.954   2.793
 1380SOL    HW2 5040   6.004   5.016   2.786
 1381SOL     OW 5041   4.405   0.018   2.560
 1381SOL    HW1 5042   4.471   0.093   2.562
 1381SOL    HW2 5043   4.431   6.965   2.628
 1382SOL     OW 5044   0.397   4.303   0.687
 1382SOL    HW1 5045   0.393   4.382   0.747
 1382SOL    HW2 5046   0.492   4.276   0.672
 1383SOL     OW 5047   2.507   0.094   0.829
 1383SOL    HW1 5048   2.592   0.045   0.809
 1383SOL    HW2 5049   2.527   0.192   0.839
 1384SOL     OW 5050   1.243   1.392   1.649
 1384SOL    HW1 5051   1.230   1.293   1.645
 1384SOL    HW2 5052   1.279   1.417   1.739
 1385SOL     OW 5053   4.897   3.526   4.013
 1385SOL    HW1 5054   4.862   3.549   3.922
 1385SOL    HW2 5055   4.893   3.427   4.026
 1386SOL     OW 5056   2.691   2.353   3.547
 1386SOL    HW1 5057   2.749   2.401   3.481
 1386SOL    HW2 5058   2.643   2.278   3.501
 1387SOL     OW 5059   3.493   1.077   3.710
 1387SOL    HW1 5060   3.504   1.147   3.639
 1387SOL    HW2 5061   3.399   1.042   3.708
 1388SOL     OW 5062   5.094   1.887   3.724
 1388SOL    HW1 5063   5.076   1.917   3.818
 1388SOL    HW2 5064   5.147   1.802   3.725
 1389SOL     OW 5065   6.561   0.360   3.814
 1389SOL    HW1 5066   6.544   0.417   3.735
 1389SOL    HW2 5067   6.550   0.263   3.789
 1390SOL     OW 5068   5.580   1.768   2.331
 1390SOL    HW1 5069   5.644   1.794   2.403
 1390SOL    HW2 5070   5.630   1.753   2.245
 1391SOL     OW 5071   5.484   0.628   5.077
 1391SOL    HW1 5072   5.424   0.680   5.137
 1391SOL    HW2 5073   5.478   0.530   5.099
 1392SOL     OW 5074   3.659   0.053   5.085
 1392SOL    HW1 5075   3.596   0.130   5.078
 1392SOL    HW2 5076   3.686   0.039   5.180
 1393SOL     OW 5077   5.178   0.457   0.068
 1393SOL    HW1 5078   5.223   0.453   6.995
 1393SOL    HW2 5079   5.168   0.553   0.096
 1394SOL     OW 5080   4.140   1.010   4.255
 1394SOL    HW1 5081   4.102   0.993   4.346
 1394SOL    HW2 5082   4.107   1.099   4.222
 1395SOL     OW 5083   0.652   4.853   2.679
 1395SOL    HW1 5084   0.650   4.847   2.579
 1395SOL    HW2 5085   0.692   4.941   2.707
 1396SOL     OW 5086   1.424   1.593   3.572
 1396SOL    HW1 5087   1.487   1.621   3.499
 1396SOL    HW2 5088   1.349   1.540   3.532
 1397SOL     OW 5089   2.593   4.222   5.619
 1397SOL    HW1 5090   2.647   4.237   5.536
 1397SOL    HW2 5091   2.521   4.155   5.600
 1398SOL     OW 5092   3.272   6.832   6.556
 1398SOL    HW1 5093   3.362   6.821   6.598
 1398SOL    HW2 5094   3.280   6.888   6.474
 1399SOL     OW 5095   3.655   6.728   6.946
 1399SOL    HW1 5096   3.650   6.811   7.002
 1399SOL    HW2 5097   3.740   6.728   6.894
 1400SOL     OW 5098   0.520   1.400   5.541
 1400SOL    HW1 5099   0.488   1.414   5.447
 1400SOL    HW2 5100   0.578   1.477   5.568
 1401SOL     OW 5101   4.377   0.291   2.328
 1401SOL    HW1 5102   4.388   0.352   2.406
 1401SOL    HW2 5103   4.356   0.199   2.360
 1402SOL     OW 5104   4.896   3.988   1.937
 1402SOL    HW1 5105   4.867   4.005   1.843
 1402SOL    HW2 5106   4.881   4.070   1.992
 1403SOL     OW 5107   3.281   3.202   6.787
 1403SOL    HW1 5108   3.289   3.301   6.772
 1403SOL    HW2 5109   3.218   3.164   6.720
 1404SOL     OW 5110   3.654   6.386   0.156
 1404SOL    HW1 5111   3.620   6.408   0.065
 1404SOL    HW2 5112   3.670   6.471   0.207
 1405SOL     OW 5113   1.169   4.350   6.697
 1405SOL    HW1 5114   1.218   4.267   6.724
 1405SOL    HW2 5115   1.073   4.327   6.679
 1406SOL     OW 5116   2.024   2.607   6.944
 1406SOL    HW1 5117   2.111   2.655   6.929
 1406SOL    HW2 5118   2.007   2.600   0.027
 1407SOL     OW 5119   0.054   2.418   1.857
 1407SOL    HW1 5120   0.013   2.368   1.781
 1407SOL    HW2 5121   0.130   2.474   1.823
 1408SOL     OW 5122   5.848   6.420   1.258
 1408SOL    HW1 5123   5.861   6.352   1.186
 1408SOL    HW2 5124   5.852   6.512   1.218
 1409SOL     OW 5125   5.593   1.980   5.846
 1409SOL    HW1 5126   5.657   1.966   5.922
 1409SOL    HW2 5127   5.628   2.052   5.786
 1410SOL     OW 5128   3.151   0.482   0.562
 1410SOL    HW1 5129   3.122   0.555   0.624
 1410SOL    HW2 5130   3.245   0.456   0.584
 1411SOL     OW 5131   3.268   6.630   0.070
 1411SOL    HW1 5132   3.235   6.536   0.075
 1411SOL    HW2 5133   3.272   6.659   6.990
 1412SOL     OW 5134   2.672   1.309   6.660
 1412SOL    HW1 5135   2.631   1.390   6.619
 1412SOL    HW2 5136   2.695   1.328   6.755
 1413SOL     OW 5137   2.640   1.385   5.022
 1413SOL    HW1 5138   2.657   1.287   5.011
 1413SOL    HW2 5139   2.554   1.408   4.976
 1414SOL     OW 5140   0.470   5.151   1.949
 1414SOL    HW1 5141   0.392   5.089   1.959
 1414SOL    HW2 5142   0.544   5.104   1.900
 1415SOL     OW 5143   3.683   1.922   5.296
 1415SOL    HW1 5144   3.762   1.888   5.348
 1415SOL    HW2 5145   3.602   1.868   5.319
 1416SOL     OW 5146   4.842   0.485   4.855
 1416SOL    HW1 5147   4.919   0.430   4.824
 1416SOL    HW2 5148   4.788   0.515   4.777
 1417SOL     OW 5149   3.729   3.793   4.361
 1417SOL    HW1 5150   3.744   3.839   4.449
 1417SOL    HW2 5151   3.785   3.837   4.291
 1418SOL     OW 5152   3.326   3.880   5.359
 1418SOL    HW1 5153   3.416   3.922   5.374
 1418SOL    HW2 5154   3.258   3.952   5.342
 1419SOL     OW 5155   0.463   5.226   1.617
 1419SOL    HW1 5156   0.445   5.286   1.695
 1419SOL    HW2 5157   0.527   5.271   1.554
 1420SOL     OW 5158   2.629   6.715   3.265
 1420SOL    HW1 5159   2.714   6.663   3.254
 1420SOL    HW2 5160   2.552   6.657   3.239
 1421SOL     OW 5161   2.034   5.237   0.573
 1421SOL    HW1 5162   1.986   5.214   0.659
 1421SOL    HW2 5163   2.131   5.247   0.592
 1422SOL     OW 5164   1.709   3.986   6.950
 1422SOL    HW1 5165   1.667   4.015   0.021
 1422SOL    HW2 5166   1.695   4.057   6.881
 1423SOL     OW 5167   4.603   0.977   4.416
 1423SOL    HW1 5168   4.579   1.046   4.347
 1423SOL    HW2 5169   4.600   1.019   4.507
 1424SOL     OW 5170   6.613   3.574   1.325
 1424SOL    HW1 5171   6.657   3.641   1.385
 1424SOL    HW2 5172   6.675   3.496   1.312
 1425SOL     OW 5173   5.573   6.404   3.325
 1425SOL    HW1 5174   5.499   6.339   3.340
 1425SOL    HW2 5175   5.610   6.432   3.414
 1426SOL     OW 5176   3.848   1.393   0.960
 1426SOL    HW1 5177   3.821   1.306   0.921
 1426SOL    HW2 5178   3.863   1.383   1.058
 1427SOL     OW 5179   0.943   1.069   4.250
 1427SOL    HW1 5180   0.918   0.987   4.302
 1427SOL    HW2 5181   0.960   1.043   4.155
 1428SOL     OW 5182   1.840   3.576   3.781
 1428SOL    HW1 5183   1.765   3.572   3.714
 1428SOL    HW2 5184   1.805   3.612   3.867
 1429SOL     OW 5185   6.345   0.475   1.506
 1429SOL    HW1 5186   6.267   0.526   1.469
 1429SOL    HW2 5187   6.430   0.517   1.475
 1430SOL     OW 5188   2.105   3.961   4.524
 1430SOL    HW1 5189   2.174   3.897   4.489
 1430SOL    HW2 5190   2.070   4.017   4.448
 1431SOL     OW 5191   3.582   2.131   0.748
 1431SOL    HW1 5192   3.645   2.207   0.731
 1431SOL    HW2 5193   3.547   2.136   0.841
 1432SOL     OW 5194   3.361   0.632   2.733
 1432SOL    HW1 5195   3.454   0.645   2.699
 1432SOL    HW2 5196   3.344   0.693   2.810
 1433SOL     OW 5197   3.245   1.877   4.396
 1433SOL    HW1 5198   3.255   1.977   4.396
 1433SOL    HW2 5199   3.230   1.845   4.303
 1434SOL     OW 5200   5.681   3.300   0.994
 1434SOL    HW1 5201   5.637   3.302   0.904
 1434SOL    HW2 5202   5.751   3.371   0.998
 1435SOL     OW 5203   0.141   6.265   4.290
 1435SOL    HW1 5204   0.153   6.260   4.389
 1435SOL    HW2 5205   0.078   6.194   4.260
 1436SOL     OW 5206   5.798   0.769   6.927
 1436SOL    HW1 5207   5.794   0.834   7.003
 1436SOL    HW2 5208   5.726   0.700   6.939
 1437SOL     OW 5209   4.234   0.965   0.486
 1437SOL    HW1 5210   4.292   1.024   0.542
 1437SOL    HW2 5211   4.188   0.899   0.546
 1438SOL     OW 5212   2.449   6.937   3.120
 1438SOL    HW1 5213   2.405   0.011   3.117
 1438SOL    HW2 5214   2.502   6.930   3.205
 1439SOL     OW 5215   0.002   5.126   4.965
 1439SOL    HW1 5216   6.963   5.044   4.985
 1439SOL    HW2 5217   7.003   5.194   5.036
 1440SOL     OW 5218   3.454   3.259   2.629
 1440SOL    HW1 5219   3.440   3.358   2.641
 1440SOL    HW2 5220   3.431   3.211   2.713
 1441SOL     OW 5221   0.561   1.936   6.202
 1441SOL    HW1 5222   0.592   1.944   6.297
 1441SOL    HW2 5223   0.464   1.910   6.201
 1442SOL     OW 5224   5.502   5.923   6.761
 1442SOL    HW1 5225   5.586   5.922   6.816
 1442SOL    HW2 5226   5.422   5.924   6.821
 1443SOL     OW 5227   1.584   3.320   3.914
 1443SOL    HW1 5228   1.587   3.379   3.833
 1443SOL    HW2 5229   1.650   3.246   3.904
 1444SOL     OW 5230   4.998   6.812   4.565
 1444SOL    HW1 5231   4.975   6.754   4.643
 1444SOL    HW2 5232   4.922   6.873   4.545
 1445SOL     OW 5233   6.630   2.371   0.046
 1445SOL    HW1 5234   6.533   2.384   0.062
 1445SOL    HW2 5235   6.644   2.299   6.994
 1446SOL     OW 5236   2.816   5.684   2.140
 1446SOL    HW1 5237   2.905   5.693   2.095
 1446SOL    HW2 5238   2.779   5.775   2.160
 1447SOL     OW 5239   6.642   0.791   4.761
 1447SOL    HW1 5240   6.600   0.723   4.821
 1447SOL    HW2 5241   6.692   0.745   4.688
 1448SOL     OW 5242   5.813   1.151   0.511
 1448SOL    HW1 5243   5.778   1.152   0.417
 1448SOL    HW2 5244   5.760   1.215   0.567
 1449SOL     OW 5245   4.640   5.403   0.365
 1449SOL    HW1 5246   4.688   5.327   0.409
 1449SOL    HW2 5247   4.695   5.437   0.289
 1450SOL     OW 5248   5.280   1.293   3.481
 1450SOL    HW1 5249   5.183   1.314   3.473
 1450SOL    HW2 5250   5.307   1.295   3.578
 1451SOL     OW 5251   0.803   6.981   2.464
 1451SOL    HW1 5252   0.708   6.968   2.434
 1451SOL    HW2 5253   0.864   6.966   2.386
 1452SOL     OW 5254   2.194   6.920   6.373
 1452SOL    HW1 5255   2.131   6.887   6.303
 1452SOL    HW2 5256   2.144   6.933   6.459
 1453SOL     OW 5257   6.042   4.147   4.251
 1453SOL    HW1 5258   5.983   4.109   4.179
 1453SOL    HW2 5259   6.136   4.152   4.218
 1454SOL     OW 5260   5.949   3.680   1.389
 1454SOL    HW1 5261   5.983   3.770   1.416
 1454SOL    HW2 5262   5.923   3.682   1.292
 1455SOL     OW 5263   1.914   1.787   1.883
 1455SOL    HW1 5264   1.902   1.859   1.952
 1455SOL    HW2 5265   1.990   1.812   1.822
 1456SOL     OW 5266   5.612   5.302   5.073
 1456SOL    HW1 5267   5.629   5.229   5.139
 1456SOL    HW2 5268   5.563   5.377   5.118
 1457SOL     OW 5269   1.971   0.990   4.695
 1457SOL    HW1 5270   1.988   1.078   4.649
 1457SOL    HW2 5271   2.059   0.945   4.714
 1458SOL     OW 5272   6.691   5.411   0.238
 1458SOL    HW1 5273   6.641   5.434   0.321
 1458SOL    HW2 5274   6.629   5.367   0.173
 1459SOL     OW 5275   2.865   0.131   1.715
 1459SOL    HW1 5276   2.944   0.188   1.692
 1459SOL    HW2 5277   2.788   0.155   1.656
 1460SOL     OW 5278   0.231   1.362   6.603
 1460SOL    HW1 5279   0.182   1.274   6.609
 1460SOL    HW2 5280   0.264   1.388   6.693
 1461SOL     OW 5281   4.855   4.212   2.777
 1461SOL    HW1 5282   4.796   4.190   2.854
 1461SOL    HW2 5283   4.871   4.310   2.773
 1462SOL     OW 5284   5.938   6.810   5.020
 1462SOL    HW1 5285   5.904   6.895   4.980
 1462SOL    HW2 5286   6.038   6.811   5.021
 1463SOL     OW 5287   1.096   2.105   5.787
 1463SOL    HW1 5288   1.090   2.027   5.850
 1463SOL    HW2 5289   1.188   2.110   5.748
 1464SOL     OW 5290   0.683   1.138   0.967
 1464SOL    HW1 5291   0.642   1.144   1.058
 1464SOL    HW2 5292   0.748   1.062   0.964
 1465SOL     OW 5293   1.841   1.086   3.972
 1465SOL    HW1 5294   1.745   1.097   3.947
 1465SOL    HW2 5295   1.898   1.111   3.894
 1466SOL     OW 5296   6.031   5.630   4.078
 1466SOL    HW1 5297   5.955   5.566   4.083
 1466SOL    HW2 5298   6.040   5.678   4.165
 1467SOL     OW 5299   6.960   4.025   4.814
 1467SOL    HW1 5300   6.927   3.937   4.850
 1467SOL    HW2 5301   6.944   4.096   4.882
 1468SOL     OW 5302   4.551   0.244   2.622
 1468SOL    HW1 5303   4.482   0.230   2.693
 1468SOL    HW2 5304   4.548   0.339   2.591
 1469SOL     OW 5305   6.948   0.309   2.312
 1469SOL    HW1 5306   6.988   0.340   2.398
 1469SOL    HW2 5307   6.860   0.353   2.298
 1470SOL     OW 5308   0.975   0.419   3.102
 1470SOL    HW1 5309   0.944   0.391   3.011
 1470SOL    HW2 5310   1.074   0.434   3.100
 1471SOL     OW 5311   6.063   1.212   1.250
 1471SOL    HW1 5312   6.112   1.291   1.288
 1471SOL    HW2 5313   6.086   1.201   1.154
 1472SOL     OW 5314   4.444   5.076   4.879
 1472SOL    HW1 5315   4.415   5.171   4.895
 1472SOL    HW2 5316   4.456   5.030   4.967
 1473SOL     OW 5317   0.118   3.092   4.127
 1473SOL    HW1 5318   0.175   3.167   4.093
 1473SOL    HW2 5319   0.025   3.103   4.092
 1474SOL     OW 5320   4.571   6.228   2.447
 1474SOL    HW1 5321   4.599   6.222   2.543
 1474SOL    HW2 5322   4.583   6.139   2.403
 1475SOL     OW 5323   6.084   6.593   2.824
 1475SOL    HW1 5324   6.136   6.512   2.850
 1475SOL    HW2 5325   6.039   6.578   2.736
 1476SOL     OW 5326   0.873   2.267   1.236
 1476SOL    HW1 5327   0.897   2.350   1.185
 1476SOL    HW2 5328   0.931   2.259   1.317
 1477SOL     OW 5329   2.597   6.422   4.787
 1477SOL    HW1 5330   2.535   6.346   4.804
 1477SOL    HW2 5331   2.589   6.489   4.861
 1478SOL     OW 5332   0.295   3.999   1.062
 1478SOL    HW1 5333   0.338   4.018   0.973
 1478SOL    HW2 5334   0.203   4.038   1.064
 1479SOL     OW 5335   1.709   5.440   6.900
 1479SOL    HW1 5336   1.754   5.509   6.842
 1479SOL    HW2 5337   1.708   5.352   6.852
 1480SOL     OW 5338   3.230   0.610   0.168
 1480SOL    HW1 5339   3.166   0.574   0.237
 1480SOL    HW2 5340   3.229   0.709   0.170
 1481SOL     OW 5341   0.198   3.442   0.592
 1481SOL    HW1 5342   0.292   3.466   0.614
 1481SOL    HW2 5343   0.136   3.507   0.636
 1482SOL     OW 5344   5.871   0.251   6.145
 1482SOL    HW1 5345   5.811   0.184   6.188
 1482SOL    HW2 5346   5.831   0.280   6.058
 1483SOL     OW 5347   0.324   2.694   0.363
 1483SOL    HW1 5348   0.313   2.594   0.361
 1483SOL    HW2 5349   0.307   2.727   0.456
 1484SOL     OW 5350   6.542   6.726   3.385
 1484SOL    HW1 5351   6.625   6.777   3.362
 1484SOL    HW2 5352   6.474   6.739   3.314
 1485SOL     OW 5353   5.227   3.604   4.216
 1485SOL    HW1 5354   5.134   3.604   4.252
 1485SOL    HW2 5355   5.277   3.526   4.255
 1486SOL     OW 5356   5.052   2.874   1.515
 1486SOL    HW1 5357   5.146   2.844   1.531
 1486SOL    HW2 5358   5.007   2.809   1.452
 1487SOL     OW 5359   0.622   0.153   5.473
 1487SOL    HW1 5360   0.573   0.217   5.414
 1487SOL    HW2 5361   0.560   0.120   5.544
 1488SOL     OW 5362   4.819   2.093   4.279
 1488SOL    HW1 5363   4.774   2.139   4.202
 1488SOL    HW2 5364   4.756   2.025   4.317
 1489SOL     OW 5365   3.173   4.988   4.845
 1489SOL    HW1 5366   3.268   5.000   4.874
 1489SOL    HW2 5367   3.136   5.077   4.816
 1490SOL     OW 5368   2.858   2.728   0.338
 1490SOL    HW1 5369   2.832   2.636   0.308
 1490SOL    HW2 5370   2.855   2.733   0.438
 1491SOL     OW 5371   0.796   1.936   4.037
 1491SOL    HW1 5372   0.871   1.926   4.103
 1491SOL    HW2 5373   0.709   1.928   4.085
 1492SOL     OW 5374   0.509   2.201   1.953
 1492SOL    HW1 5375   0.442   2.145   1.903
 1492SOL    HW2 5376   0.490   2.298   1.937
 1493SOL     OW 5377   6.614   2.793   5.065
 1493SOL    HW1 5378   6.706   2.803   5.027
 1493SOL    HW2 5379   6.620   2.767   5.161
 1494SOL     OW 5380   5.486   1.795   3.834
 1494SOL    HW1 5381   5.562   1.750   3.787
 1494SOL    HW2 5382   5.406   1.797   3.773
 1495SOL     OW 5383   1.562   3.952   1.673
 1495SOL    HW1 5384   1.496   3.921   1.604
 1495SOL    HW2 5385   1.651   3.911   1.654
 1496SOL     OW 5386   0.584   0.690   2.350
 1496SOL    HW1 5387   0.644   0.620   2.388
 1496SOL    HW2 5388   0.633   0.777   2.346
 1497SOL     OW 5389   5.689   5.162   6.015
 1497SOL    HW1 5390   5.711   5.098   5.941
 1497SOL    HW2 5391   5.735   5.133   6.099
 1498SOL     OW 5392   3.260   5.455   6.916
 1498SOL    HW1 5393   3.195   5.494   6.851
 1498SOL    HW2 5394   3.289   5.526   6.981
 1499SOL     OW 5395   1.132   4.405   4.291
 1499SOL    HW1 5396   1.051   4.348   4.301
 1499SOL    HW2 5397   1.181   4.409   4.378
 1500SOL     OW 5398   4.044   6.434   5.982
 1500SOL    HW1 5399   3.961   6.460   5.933
 1500SOL    HW2 5400   4.117   6.499   5.959
 1501SOL     OW 5401   3.462   0.354   1.153
 1501SOL    HW1 5402   3.561   0.366   1.149
 1501SOL    HW2 5403   3.422   0.383   1.066
 1502SOL     OW 5404   0.573   1.268   6.510
 1502SOL    HW1 5405   0.489   1.275   6.457
 1502SOL    HW2 5406   0.644   1.226   6.453
 1503SOL     OW 5407   3.557   3.957   5.048
 1503SOL    HW1 5408   3.524   3.985   5.139
 1503SOL    HW2 5409   3.521   4.021   4.980
 1504SOL     OW 5410   3.031   0.142   3.966
 1504SOL    HW1 5411   2.976   0.110   3.889
 1504SOL    HW2 5412   3.102   0.205   3.933
 1505SOL     OW 5413   5.214   6.737   3.053
 1505SOL    HW1 5414   5.130   6.764   3.099
 1505SOL    HW2 5415   5.201   6.648   3.009
 1506SOL     OW 5416   6.987   6.034   4.235
 1506SOL    HW1 5417   0.003   5.951   4.188
 1506SOL    HW2 5418   6.900   6.063   4.195
 1507SOL     OW 5419   2.413   1.766   6.880
 1507SOL    HW1 5420   2.341   1.738   6.817
 1507SOL    HW2 5421   2.378   1.765   6.974
 1508SOL     OW 5422   4.576   6.514   0.987
 1508SOL    HW1 5423   4.642   6.452   0.945
 1508SOL    HW2 5424   4.506   6.460   1.035
 1509SOL     OW 5425   5.410   1.428   6.620
 1509SOL    HW1 5426   5.393   1.332   6.642
 1509SOL    HW2 5427   5.480   1.465   6.681
 1510SOL     OW 5428   6.589   1.754   1.974
 1510SOL    HW1 5429   6.581   1.834   2.033
 1510SOL    HW2 5430   6.590   1.671   2.030
 1511SOL     OW 5431   0.618   2.954   0.310
 1511SOL    HW1 5432   0.573   2.889   0.249
 1511SOL    HW2 5433   0.692   3.001   0.260
 1512SOL     OW 5434   0.021   0.716   2.309
 1512SOL    HW1 5435   6.942   0.686   2.296
 1512SOL    HW2 5436   0.081   0.662   2.250
 1513SOL     OW 5437   2.006   1.002   2.704
 1513SOL    HW1 5438   2.030   1.096   2.728
 1513SOL    HW2 5439   2.088   0.953   2.675
 1514SOL     OW 5440   4.593   0.608   6.038
 1514SOL    HW1 5441   4.556   0.521   6.070
 1514SOL    HW2 5442   4.681   0.626   6.083
 1515SOL     OW 5443   5.821   5.337   5.830
 1515SOL    HW1 5444   5.780   5.422   5.797
 1515SOL    HW2 5445   5.762   5.296   5.899
 1516SOL     OW 5446   6.065   1.820   2.171
 1516SOL    HW1 5447   6.128   1.877   2.118
 1516SOL    HW2 5448   6.073   1.725   2.140
 1517SOL     OW 5449   3.606   5.189   2.203
 1517SOL    HW1 5450   3.568   5.104   2.167
 1517SOL    HW2 5451   3.621   5.254   2.128
 1518SOL     OW 5452   0.936   5.030   0.934
 1518SOL    HW1 5453   0.916   4.932   0.930
 1518SOL    HW2 5454   0.984   5.050   1.019
 1519SOL     OW 5455   0.297   4.446   1.144
 1519SOL    HW1 5456   0.369   4.432   1.076
 1519SOL    HW2 5457   0.315   4.529   1.196
 1520SOL     OW 5458   1.614   4.393   2.852
 1520SOL    HW1 5459   1.543   4.322   2.850
 1520SOL    HW2 5460   1.670   4.382   2.934
 1521SOL     OW 5461   2.303   6.030   5.214
 1521SOL    HW1 5462   2.287   6.041   5.312
 1521SOL    HW2 5463   2.276   5.938   5.186
 1522SOL     OW 5464   1.638   2.135   5.904
 1522SOL    HW1 5465   1.629   2.181   5.993
 1522SOL    HW2 5466   1.657   2.203   5.833
 1523SOL     OW 5467   5.726   0.501   1.809
 1523SOL    HW1 5468   5.775   0.537   1.730
 1523SOL    HW2 5469   5.653   0.566   1.835
 1524SOL     OW 5470   0.775   2.126   1.047
 1524SOL    HW1 5471   0.846   2.072   1.003
 1524SOL    HW2 5472   0.815   2.176   1.124
 1525SOL     OW 5473   5.202   0.980   5.268
 1525SOL    HW1 5474   5.133   0.987   5.340
 1525SOL    HW2 5475   5.263   1.059   5.273
 1526SOL     OW 5476   5.499   2.677   0.195
 1526SOL    HW1 5477   5.567   2.750   0.186
 1526SOL    HW2 5478   5.486   2.633   0.106
 1527SOL     OW 5479   2.626   0.580   5.484
 1527SOL    HW1 5480   2.636   0.680   5.490
 1527SOL    HW2 5481   2.546   0.552   5.537
 1528SOL     OW 5482   5.307   6.015   3.824
 1528SOL    HW1 5483   5.396   6.053   3.797
 1528SOL    HW2 5484   5.270   5.960   3.750
 1529SOL     OW 5485   1.732   6.933   5.308
 1529SOL    HW1 5486   1.675   6.853   5.289
 1529SOL    HW2 5487   1.827   6.911   5.287
 1530SOL     OW 5488   2.965   6.533   1.434
 1530SOL    HW1 5489   3.009   6.597   1.372
 1530SOL    HW2 5490   2.944   6.579   1.520
 1531SOL     OW 5491   5.845   1.360   6.480
 1531SOL    HW1 5492   5.933   1.395   6.449
 1531SOL    HW2 5493   5.849   1.261   6.490
 1532SOL     OW 5494   3.024   1.730   5.328
 1532SOL    HW1 5495   3.106   1.764   5.281
 1532SOL    HW2 5496   2.948   1.793   5.314
 1533SOL     OW 5497   4.667   3.386   0.520
 1533SOL    HW1 5498   4.649   3.341   0.608
 1533SOL    HW2 5499   4.619   3.474   0.518
 1534SOL     OW 5500   0.359   0.248   0.163
 1534SOL    HW1 5501   0.325   0.320   0.223
 1534SOL    HW2 5502   0.318   0.259   0.072
 1535SOL     OW 5503   5.365   4.008   4.601
 1535SOL    HW1 5504   5.430   3.972   4.668
 1535SOL    HW2 5505   5.372   3.955   4.516
 1536SOL     OW 5506   3.000   6.225   3.144
 1536SOL    HW1 5507   3.082   6.279   3.123
 1536SOL    HW2 5508   2.993   6.149   3.080
 1537SOL     OW 5509   1.767   5.704   4.019
 1537SOL    HW1 5510   1.715   5.779   4.060
 1537SOL    HW2 5511   1.735   5.617   4.057
 1538SOL     OW 5512   3.412   6.281   0.239
 1538SOL    HW1 5513   3.508   6.295   0.213
 1538SOL    HW2 5514   3.390   6.339   0.317
 1539SOL     OW 5515   2.542   6.839   2.302
 1539SOL    HW1 5516   2.581   6.753   2.333
 1539SOL    HW2 5517   2.551   6.908   2.374
 1540SOL     OW 5518   5.914   0.230   5.052
 1540SOL    HW1 5519   5.905   0.328   5.032
 1540SOL    HW2 5520   6.004   0.198   5.023
 1541SOL     OW 5521   5.268   2.200   1.945
 1541SOL    HW1 5522   5.188   2.158   1.903
 1541SOL    HW2 5523   5.316   2.256   1.877
 1542SOL     OW 5524   6.781   5.479   1.393
 1542SOL    HW1 5525   6.866   5.457   1.346
 1542SOL    HW2 5526   6.704   5.460   1.332
 1543SOL     OW 5527   3.412   3.277   3.196
 1543SOL    HW1 5528   3.454   3.350   3.250
 1543SOL    HW2 5529   3.386   3.201   3.256
 1544SOL     OW 5530   3.497   3.528   1.438
 1544SOL    HW1 5531   3.405   3.564   1.453
 1544SOL    HW2 5532   3.560   3.603   1.423
 1545SOL     OW 5533   0.338   6.949   5.462
 1545SOL    HW1 5534   0.256   6.895   5.479
 1545SOL    HW2 5535   0.358   6.951   5.364
 1546SOL     OW 5536   0.274   6.739   0.683
 1546SOL    HW1 5537   0.294   6.750   0.585
 1546SOL    HW2 5538   0.267   6.830   0.725
 1547SOL     OW 5539   2.795   6.148   0.000
 1547SOL    HW1 5540   2.784   6.233   6.965
 1547SOL    HW2 5541   2.872   6.155   0.063
 1548SOL     OW 5542   6.551   4.348   3.175
 1548SOL    HW1 5543   6.501   4.428   3.140
 1548SOL    HW2 5544   6.543   4.345   3.275
 1549SOL     OW 5545   5.792   1.847   1.138
 1549SOL    HW1 5546   5.842   1.864   1.053
 1549SOL    HW2 5547   5.823   1.761   1.178
 1550SOL     OW 5548   2.481   5.005   2.592
 1550SOL    HW1 5549   2.402   5.051   2.634
 1550SOL    HW2 5550   2.560   5.066   2.596
 1551SOL     OW 5551   0.723   2.535   1.806
 1551SOL    HW1 5552   0.805   2.587   1.831
 1551SOL    HW2 5553   0.678   2.580   1.728
 1552SOL     OW 5554   1.619   6.694   2.148
 1552SOL    HW1 5555   1.559   6.615   2.132
 1552SOL    HW2 5556   1.713   6.671   2.122
 1553SOL     OW 5557   5.551   1.630   5.439
 1553SOL    HW1 5558   5.521   1.705   5.498
 1553SOL    HW2 5559   5.623   1.577   5.485
 1554SOL     OW 5560   2.825   3.220   0.435
 1554SOL    HW1 5561   2.868   3.305   0.405
 1554SOL    HW2 5562   2.726   3.233   0.440
 1555SOL     OW 5563   4.407   1.361   1.163
 1555SOL    HW1 5564   4.316   1.401   1.166
 1555SOL    HW2 5565   4.455   1.380   1.249
 1556SOL     OW 5566   3.020   2.332   0.812
 1556SOL    HW1 5567   3.074   2.378   0.882
 1556SOL    HW2 5568   3.062   2.346   0.722
 1557SOL     OW 5569   2.432   2.517   1.470
 1557SOL    HW1 5570   2.452   2.434   1.523
 1557SOL    HW2 5571   2.516   2.551   1.428
 1558SOL     OW 5572   4.477   2.738   7.003
 1558SOL    HW1 5573   4.393   2.689   6.978
 1558SOL    HW2 5574   4.461   2.791   0.070
 1559SOL     OW 5575   2.488   6.501   3.526
 1559SOL    HW1 5576   2.434   6.551   3.594
 1559SOL    HW2 5577   2.569   6.462   3.569
 1560SOL     OW 5578   4.616   2.832   1.509
 1560SOL    HW1 5579   4.634   2.745   1.463
 1560SOL    HW2 5580   4.684   2.847   1.581
 1561SOL     OW 5581   6.429   6.189   0.647
 1561SOL    HW1 5582   6.480   6.190   0.561
 1561SOL    HW2 5583   6.372   6.270   0.653
 1562SOL     OW 5584   2.568   6.959   3.394
 1562SOL    HW1 5585   2.626   6.881   3.368
 1562SOL    HW2 5586   2.620   0.028   3.384
 1563SOL     OW 5587   2.187   4.062   3.802
 1563SOL    HW1 5588   2.269   4.009   3.819
 1563SOL    HW2 5589   2.196   4.153   3.844
 1564SOL     OW 5590   1.505   2.057   3.379
 1564SOL    HW1 5591   1.524   1.959   3.372
 1564SOL    HW2 5592   1.544   2.104   3.299
 1565SOL     OW 5593   5.335   1.607   5.268
 1565SOL    HW1 5594   5.431   1.617   5.294
 1565SOL    HW2 5595   5.298   1.523   5.310
 1566SOL     OW 5596   1.218   3.168   3.727
 1566SOL    HW1 5597   1.123   3.186   3.702
 1566SOL    HW2 5598   1.271   3.143   3.646
 1567SOL     OW 5599   5.481   0.435   4.833
 1567SOL    HW1 5600   5.538   0.502   4.787
 1567SOL    HW2 5601   5.385   0.462   4.826
 1568SOL     OW 5602   2.206   4.335   0.861
 1568SOL    HW1 5603   2.116   4.314   0.899
 1568SOL    HW2 5604   2.202   4.421   0.811
 1569SOL     OW 5605   2.351   1.134   2.361
 1569SOL    HW1 5606   2.402   1.104   2.281
 1569SOL    HW2 5607   2.379   1.080   2.441
 1570SOL     OW 5608   3.141   6.021   6.073
 1570SOL    HW1 5609   3.084   6.000   5.993
 1570SOL    HW2 5610   3.146   5.941   6.132
 1571SOL     OW 5611   0.854   1.411   5.123
 1571SOL    HW1 5612   0.788   1.388   5.051
 1571SOL    HW2 5613   0.807   1.461   5.196
 1572SOL     OW 5614   1.691   6.315   3.329
 1572SOL    HW1 5615   1.789   6.337   3.330
 1572SOL    HW2 5616   1.672   6.244   3.397
 1573SOL     OW 5617   5.332   6.083   0.373
 1573SOL    HW1 5618   5.362   6.013   0.438
 1573SOL    HW2 5619   5.371   6.171   0.398
 1574SOL     OW 5620   0.395   3.269   3.075
 1574SOL    HW1 5621   0.470   3.323   3.038
 1574SOL    HW2 5622   0.423   3.226   3.161
 1575SOL     OW 5623   6.430   2.547   0.273
 1575SOL    HW1 5624   6.388   2.638   0.278
 1575SOL    HW2 5625   6.383   2.493   0.203
 1576SOL     OW 5626   1.458   5.980   2.428
 1576SOL    HW1 5627   1.470   5.909   2.498
 1576SOL    HW2 5628   1.536   6.042   2.430
 1577SOL     OW 5629   4.131   5.783   3.837
 1577SOL    HW1 5630   4.147   5.716   3.764
 1577SOL    HW2 5631   4.178   5.755   3.920
 1578SOL     OW 5632   5.411   2.051   1.527
 1578SOL    HW1 5633   5.478   1.985   1.562
 1578SOL    HW2 5634   5.438   2.080   1.436
 1579SOL     OW 5635   1.389   3.373   2.321
 1579SOL    HW1 5636   1.360   3.323   2.240
 1579SOL    HW2 5637   1.309   3.416   2.364
 1580SOL     OW 5638   3.429   3.817   3.821
 1580SOL    HW1 5639   3.518   3.770   3.825
 1580SOL    HW2 5640   3.376   3.796   3.903
 1581SOL     OW 5641   5.120   4.308   5.741
 1581SOL    HW1 5642   5.058   4.250   5.793
 1581SOL    HW2 5643   5.123   4.399   5.783
 1582SOL     OW 5644   3.885   5.972   3.589
 1582SOL    HW1 5645   3.819   6.021   3.645
 1582SOL    HW2 5646   3.975   6.015   3.596
 1583SOL     OW 5647   0.479   5.554   4.609
 1583SOL    HW1 5648   0.472   5.538   4.707
 1583SOL    HW2 5649   0.431   5.481   4.560
 1584SOL     OW 5650   0.401   4.506   6.989
 1584SOL    HW1 5651   0.359   4.415   6.987
 1584SOL    HW2 5652   0.493   4.501   6.951
 1585SOL     OW 5653   4.777   6.134   4.264
 1585SOL    HW1 5654   4.874   6.149   4.245
 1585SOL    HW2 5655   4.722   6.199   4.212
 1586SOL     OW 5656   2.721   5.993   3.773
 1586SOL    HW1 5657   2.698   6.087   3.796
 1586SOL    HW2 5658   2.675   5.931   3.836
 1587SOL     OW 5659   3.701   6.981   0.042
 1587SOL    HW1 5660   3.798   6.981   0.067
 1587SOL    HW2 5661   3.652   0.030   0.101
 1588SOL     OW 5662   6.413   1.804   3.862
 1588SOL    HW1 5663   6.493   1.785   3.805
 1588SOL    HW2 5664   6.341   1.845   3.805
 1589SOL     OW 5665   0.094   1.604   4.307
 1589SOL    HW1 5666   0.101   1.562   4.398
 1589SOL    HW2 5667   0.098   1.704   4.316
 1590SOL     OW 5668   5.765   0.751   3.697
 1590SOL    HW1 5669   5.861   0.736   3.671
 1590SOL    HW2 5670   5.706   0.692   3.642
 1591SOL     OW 5671   0.232   5.350   0.523
 1591SOL    HW1 5672   0.305   5.404   0.482
 1591SOL    HW2 5673   0.272   5.283   0.587
 1592SOL     OW 5674   0.033   4.675   4.925
 1592SOL    HW1 5675   0.034   4.772   4.948
 1592SOL    HW2 5676   6.958   4.649   4.892
 1593SOL     OW 5677   4.092   5.518   1.433
 1593SOL    HW1 5678   4.034   5.587   1.475
 1593SOL    HW2 5679   4.158   5.562   1.371
 1594SOL     OW 5680   5.477   1.312   2.578
 1594SOL    HW1 5681   5.457   1.386   2.514
 1594SOL    HW2 5682   5.520   1.236   2.529
 1595SOL     OW 5683   0.261   3.831   0.316
 1595SOL    HW1 5684   0.166   3.804   0.299
 1595SOL    HW2 5685   0.322   3.776   0.259
 1596SOL     OW 5686   5.258   4.331   4.372
 1596SOL    HW1 5687   5.346   4.357   4.412
 1596SOL    HW2 5688   5.246   4.232   4.382
 1597SOL     OW 5689   4.130   7.007   1.244
 1597SOL    HW1 5690   4.121   6.990   1.342
 1597SOL    HW2 5691   4.083   6.936   1.192
 1598SOL     OW 5692   1.061   5.644   5.864
 1598SOL    HW1 5693   1.005   5.673   5.942
 1598SOL    HW2 5694   1.126   5.574   5.895
 1599SOL     OW 5695   5.187   5.227   4.285
 1599SOL    HW1 5696   5.192   5.276   4.198
 1599SOL    HW2 5697   5.269   5.172   4.298
 1600SOL     OW 5698   4.862   1.193   1.657
 1600SOL    HW1 5699   4.813   1.176   1.572
 1600SOL    HW2 5700   4.828   1.130   1.728
 1601SOL     OW 5701   5.920   0.613   4.418
 1601SOL    HW1 5702   5.969   0.613   4.505
 1601SOL    HW2 5703   5.877   0.702   4.404
 1602SOL     OW 5704   3.852   5.890   3.130
 1602SOL    HW1 5705   3.796   5.809   3.113
 1602SOL    HW2 5706   3.793   5.970   3.141
 1603SOL     OW 5707   3.291   5.215   1.763
 1603SOL    HW1 5708   3.324   5.277   1.693
 1603SOL    HW2 5709   3.265   5.128   1.722
 1604SOL     OW 5710   4.632   5.156   1.693
 1604SOL    HW1 5711   4.618   5.096   1.772
 1604SOL    HW2 5712   4.672   5.104   1.618
 1605SOL     OW 5713   4.613   5.048   0.091
 1605SOL    HW1 5714   4.518   5.078   0.095
 1605SOL    HW2 5715   4.649   5.062   7.014
 1606SOL     OW 5716   4.842   5.507   4.895
 1606SOL    HW1 5717   4.770   5.548   4.951
 1606SOL    HW2 5718   4.881   5.577   4.835
 1607SOL     OW 5719   4.962   4.080   3.834
 1607SOL    HW1 5720   4.881   4.060   3.889
 1607SOL    HW2 5721   5.040   4.100   3.893
 1608SOL     OW 5722   6.438   3.436   3.145
 1608SOL    HW1 5723   6.432   3.512   3.209
 1608SOL    HW2 5724   6.475   3.356   3.192
 1609SOL     OW 5725   1.593   0.226   0.655
 1609SOL    HW1 5726   1.580   0.174   0.571
 1609SOL    HW2 5727   1.665   0.184   0.710
 1610SOL     OW 5728   5.809   5.807   1.344
 1610SOL    HW1 5729   5.743   5.794   1.269
 1610SOL    HW2 5730   5.873   5.730   1.346
 1611SOL     OW 5731   6.949   4.588   6.684
 1611SOL    HW1 5732   7.003   4.513   6.646
 1611SOL    HW2 5733   6.968   4.672   6.633
 1612SOL     OW 5734   5.347   1.151   2.121
 1612SOL    HW1 5735   5.388   1.241   2.137
 1612SOL    HW2 5736   5.251   1.153   2.147
 1613SOL     OW 5737   0.338   6.046   2.769
 1613SOL    HW1 5738   0.410   5.984   2.736
 1613SOL    HW2 5739   0.251   6.021   2.726
 1614SOL     OW 5740   5.342   1.327   5.749
 1614SOL    HW1 5741   5.328   1.386   5.669
 1614SOL    HW2 5742   5.258   1.325   5.804
 1615SOL     OW 5743   6.498   3.287   5.650
 1615SOL    HW1 5744   6.471   3.377   5.615
 1615SOL    HW2 5745   6.580   3.296   5.706
 1616SOL     OW 5746   1.165   1.071   3.721
 1616SOL    HW1 5747   1.121   1.009   3.656
 1616SOL    HW2 5748   1.241   1.024   3.766
 1617SOL     OW 5749   0.206   5.896   4.492
 1617SOL    HW1 5750   0.302   5.921   4.504
 1617SOL    HW2 5751   0.148   5.976   4.506
 1618SOL     OW 5752   2.668   5.732   3.068
 1618SOL    HW1 5753   2.589   5.711   3.125
 1618SOL    HW2 5754   2.719   5.807   3.109
 1619SOL     OW 5755   0.972   3.865   6.223
 1619SOL    HW1 5756   0.937   3.803   6.153
 1619SOL    HW2 5757   1.027   3.813   6.290
 1620SOL     OW 5758   2.768   0.030   4.659
 1620SOL    HW1 5759   2.705   0.035   4.582
 1620SOL    HW2 5760   2.806   0.121   4.677
 1621SOL     OW 5761   5.819   4.669   1.046
 1621SOL    HW1 5762   5.728   4.637   1.021
 1621SOL    HW2 5763   5.837   4.757   1.003
 1622SOL     OW 5764   6.702   3.128   2.832
 1622SOL    HW1 5765   6.707   3.210   2.889
 1622SOL    HW2 5766   6.759   3.140   2.751
 1623SOL     OW 5767   0.436   2.413   4.066
 1623SOL    HW1 5768   0.437   2.481   3.993
 1623SOL    HW2 5769   0.529   2.401   4.102
 1624SOL     OW 5770   4.474   2.980   0.640
 1624SOL    HW1 5771   4.500   2.973   0.544
 1624SOL    HW2 5772   4.374   2.976   0.648
 1625SOL     OW 5773   1.152   6.049   0.398
 1625SOL    HW1 5774   1.110   6.136   0.373
 1625SOL    HW2 5775   1.084   5.991   0.443
 1626SOL     OW 5776   2.442   1.802   1.880
 1626SOL    HW1 5777   2.372   1.764   1.820
 1626SOL    HW2 5778   2.430   1.767   1.973
 1627SOL     OW 5779   4.588   1.774   6.182
 1627SOL    HW1 5780   4.617   1.727   6.099
 1627SOL    HW2 5781   4.656   1.844   6.205
 1628SOL     OW 5782   5.426   5.880   1.298
 1628SOL    HW1 5783   5.399   5.895   1.394
 1628SOL    HW2 5784   5.446   5.969   1.256
 1629SOL     OW 5785   1.451   6.417   2.988
 1629SOL    HW1 5786   1.440   6.483   3.062
 1629SOL    HW2 5787   1.361   6.383   2.961
 1630SOL     OW 5788   0.270   4.947   6.262
 1630SOL    HW1 5789   0.287   5.045   6.261
 1630SOL    HW2 5790   0.356   4.898   6.277
 1631SOL     OW 5791   5.139   4.237   0.095
 1631SOL    HW1 5792   5.102   4.328   0.115
 1631SOL    HW2 5793   5.167   4.234   7.014
 1632SOL     OW 5794   6.257   6.349   2.545
 1632SOL    HW1 5795   6.221   6.425   2.490
 1632SOL    HW2 5796   6.221   6.263   2.509
 1633SOL     OW 5797   6.803   3.886   4.588
 1633SOL    HW1 5798   6.894   3.919   4.611
 1633SOL    HW2 5799   6.761   3.946   4.520
 1634SOL     OW 5800   1.471   3.983   6.281
 1634SOL    HW1 5801   1.391   3.979   6.340
 1634SOL    HW2 5802   1.547   3.934   6.324
 1635SOL     OW 5803   2.790   0.921   4.288
 1635SOL    HW1 5804   2.815   0.827   4.312
 1635SOL    HW2 5805   2.869   0.969   4.252
 1636SOL     OW 5806   0.267   6.405   1.787
 1636SOL    HW1 5807   0.201   6.356   1.845
 1636SOL    HW2 5808   0.269   6.363   1.697
 1637SOL     OW 5809   1.076   1.099   1.828
 1637SOL    HW1 5810   0.996   1.155   1.807
 1637SOL    HW2 5811   1.093   1.100   1.927
 1638SOL     OW 5812   5.427   2.070   3.702
 1638SOL    HW1 5813   5.365   2.029   3.635
 1638SOL    HW2 5814   5.421   2.020   3.788
 1639SOL     OW 5815   4.924   2.458   1.112
 1639SOL    HW1 5816   4.873   2.540   1.084
 1639SOL    HW2 5817   4.864   2.378   1.107
 1640SOL     OW 5818   6.273   1.018   6.687
 1640SOL    HW1 5819   6.280   1.113   6.656
 1640SOL    HW2 5820   6.257   0.958   6.608
 1641SOL     OW 5821   5.479   1.299   3.049
 1641SOL    HW1 5822   5.502   1.368   3.118
 1641SOL    HW2 5823   5.508   1.333   2.959
 1642SOL     OW 5824   0.007   3.190   5.971
 1642SOL    HW1 5825   6.972   3.108   5.943
 1642SOL    HW2 5826   0.015   3.252   5.892
 1643SOL     OW 5827   2.125   5.214   4.495
 1643SOL    HW1 5828   2.221   5.229   4.473
 1643SOL    HW2 5829   2.115   5.126   4.542
 1644SOL     OW 5830   5.868   1.617   1.230
 1644SOL    HW1 5831   5.892   1.595   1.325
 1644SOL    HW2 5832   5.936   1.577   1.169
 1645SOL     OW 5833   2.360   0.951   4.222
 1645SOL    HW1 5834   2.316   0.898   4.295
 1645SOL    HW2 5835   2.315   0.931   4.135
 1646SOL     OW 5836   0.181   5.557   1.990
 1646SOL    HW1 5837   0.193   5.625   1.917
 1646SOL    HW2 5838   0.094   5.509   1.977
 1647SOL     OW 5839   6.600   3.266   5.220
 1647SOL    HW1 5840   6.530   3.331   5.249
 1647SOL    HW2 5841   6.593   3.253   5.121
 1648SOL     OW 5842   5.451   5.899   2.443
 1648SOL    HW1 5843   5.423   5.994   2.432
 1648SOL    HW2 5844   5.505   5.871   2.363
 1649SOL     OW 5845   3.933   0.928   3.031
 1649SOL    HW1 5846   4.019   0.932   3.082
 1649SOL    HW2 5847   3.952   0.922   2.933
 1650SOL     OW 5848   2.510   2.417   5.122
 1650SOL    HW1 5849   2.608   2.410   5.142
 1650SOL    HW2 5850   2.487   2.510   5.094
 1651SOL     OW 5851   1.495   2.158   4.394
 1651SOL    HW1 5852   1.535   2.193   4.310
 1651SOL    HW2 5853   1.405   2.120   4.375
 1652SOL     OW 5854   6.980   4.245   1.722
 1652SOL    HW1 5855   6.933   4.234   1.809
 1652SOL    HW2 5856   0.045   4.303   1.734
 1653SOL     OW 5857   6.333   4.200   1.863
 1653SOL    HW1 5858   6.400   4.128   1.876
 1653SOL    HW2 5859   6.315   4.246   1.950
 1654SOL     OW 5860   6.884   3.862   1.693
 1654SOL    HW1 5861   6.976   3.823   1.695
 1654SOL    HW2 5862   6.836   3.836   1.776
 1655SOL     OW 5863   6.866   0.454   6.058
 1655SOL    HW1 5864   6.900   0.515   6.129
 1655SOL    HW2 5865   6.943   0.412   6.010
 1656SOL     OW 5866   2.205   4.158   2.613
 1656SOL    HW1 5867   2.165   4.247   2.590
 1656SOL    HW2 5868   2.136   4.101   2.659
 1657SOL     OW 5869   0.126   1.204   5.996
 1657SOL    HW1 5870   0.158   1.129   5.938
 1657SOL    HW2 5871   0.101   1.282   5.939
 1658SOL     OW 5872   5.134   0.132   5.771
 1658SOL    HW1 5873   5.077   0.212   5.789
 1658SOL    HW2 5874   5.230   0.158   5.778
 1659SOL     OW 5875   3.226   0.687   6.264
 1659SOL    HW1 5876   3.307   0.742   6.286
 1659SOL    HW2 5877   3.183   0.723   6.181
 1660SOL     OW 5878   2.928   0.666   2.167
 1660SOL    HW1 5879   2.920   0.676   2.068
 1660SOL    HW2 5880   2.993   0.733   2.202
 1661SOL     OW 5881   4.630   4.966   3.321
 1661SOL    HW1 5882   4.670   4.972   3.229
 1661SOL    HW2 5883   4.665   5.040   3.377
 1662SOL     OW 5884   0.457   1.614   3.653
 1662SOL    HW1 5885   0.413   1.583   3.737
 1662SOL    HW2 5886   0.442   1.712   3.641
 1663SOL     OW 5887   6.058   4.098   1.141
 1663SOL    HW1 5888   5.967   4.121   1.109
 1663SOL    HW2 5889   6.092   4.017   1.093
 1664SOL     OW 5890   1.285   1.825   6.253
 1664SOL    HW1 5891   1.290   1.752   6.185
 1664SOL    HW2 5892   1.207   1.810   6.313
 1665SOL     OW 5893   1.589   4.052   0.174
 1665SOL    HW1 5894   1.644   4.070   0.255
 1665SOL    HW2 5895   1.519   4.123   0.165
 1666SOL     OW 5896   5.544   6.242   5.403
 1666SOL    HW1 5897   5.467   6.255   5.466
 1666SOL    HW2 5898   5.603   6.323   5.406
 1667SOL     OW 5899   6.743   4.736   1.314
 1667SOL    HW1 5900   6.780   4.721   1.406
 1667SOL    HW2 5901   6.812   4.779   1.257
 1668SOL     OW 5902   6.860   3.527   1.657
 1668SOL    HW1 5903   6.868   3.595   1.584
 1668SOL    HW2 5904   6.879   3.436   1.621
 1669SOL     OW 5905   6.211   2.720   5.157
 1669SOL    HW1 5906   6.163   2.755   5.237
 1669SOL    HW2 5907   6.145   2.685   5.091
 1670SOL     OW 5908   3.015   4.328   5.280
 1670SOL    HW1 5909   2.966   4.405   5.240
 1670SOL    HW2 5910   3.051   4.354   5.369
 1671SOL     OW 5911   6.131   2.232   0.675
 1671SOL    HW1 5912   6.210   2.172   0.660
 1671SOL    HW2 5913   6.153   2.298   0.747
 1672SOL     OW 5914   0.560   2.072   1.492
 1672SOL    HW1 5915   0.621   2.016   1.547
 1672SOL    HW2 5916   0.537   2.155   1.542
 1673SOL     OW 5917   1.096   0.694   5.927
 1673SOL    HW1 5918   1.034   0.620   5.901
 1673SOL    HW2 5919   1.170   0.702   5.860
 1674SOL     OW 5920   4.816   2.631   3.191
 1674SOL    HW1 5921   4.769   2.683   3.262
 1674SOL    HW2 5922   4.904   2.599   3.225
 1675SOL     OW 5923   5.396   0.967   1.941
 1675SOL    HW1 5924   5.454   1.012   1.874
 1675SOL    HW2 5925   5.367   1.034   2.010
 1676SOL     OW 5926   1.183   2.343   3.728
 1676SOL    HW1 5927   1.155   2.392   3.645
 1676SOL    HW2 5928   1.244   2.401   3.782
 1677SOL     OW 5929   3.339   3.871   2.073
 1677SOL    HW1 5930   3.405   3.937   2.109
 1677SOL    HW2 5931   3.384   3.782   2.064
 1678SOL     OW 5932   0.124   6.825   0.249
 1678SOL    HW1 5933   0.101   6.901   0.189
 1678SOL    HW2 5934   0.191   6.856   0.317
 1679SOL     OW 5935   5.939   1.916   0.624
 1679SOL    HW1 5936   5.974   1.843   0.565
 1679SOL    HW2 5937   5.956   2.005   0.580
 1680SOL     OW 5938   5.729   2.318   3.417
 1680SOL    HW1 5939   5.751   2.413   3.439
 1680SOL    HW2 5940   5.635   2.311   3.386
 1681SOL     OW 5941   3.918   6.139   4.045
 1681SOL    HW1 5942   3.963   6.192   4.117
 1681SOL    HW2 5943   3.832   6.183   4.021
 1682SOL     OW 5944   3.908   1.224   5.367
 1682SOL    HW1 5945   3.843   1.154   5.397
 1682SOL    HW2 5946   3.873   1.269   5.285
 1683SOL     OW 5947   0.951   3.448   2.681
 1683SOL    HW1 5948   1.048   3.473   2.690
 1683SOL    HW2 5949   0.901   3.482   2.760
 1684SOL     OW 5950   3.249   5.619   1.146
 1684SOL    HW1 5951   3.230   5.660   1.236
 1684SOL    HW2 5952   3.164   5.581   1.109
 1685SOL     OW 5953   0.220   2.022   5.755
 1685SOL    HW1 5954   0.217   1.923   5.739
 1685SOL    HW2 5955   0.309   2.058   5.726
 1686SOL     OW 5956   3.452   5.298   1.548
 1686SOL    HW1 5957   3.400   5.254   1.475
 1686SOL    HW2 5958   3.542   5.256   1.555
 1687SOL     OW 5959   4.488   4.231   0.204
 1687SOL    HW1 5960   4.458   4.279   0.286
 1687SOL    HW2 5961   4.587   4.214   0.209
 1688SOL     OW 5962   3.132   0.479   3.040
 1688SOL    HW1 5963   3.114   0.534   3.122
 1688SOL    HW2 5964   3.046   0.444   3.004
 1689SOL     OW 5965   4.057   0.634   1.830
 1689SOL    HW1 5966   4.137   0.575   1.826
 1689SOL    HW2 5967   4.079   0.723   1.790
 1690SOL     OW 5968   0.015   4.572   4.560
 1690SOL    HW1 5969   0.098   4.623   4.583
 1690SOL    HW2 5970   0.028   4.476   4.584
 1691SOL     OW 5971   4.018   2.660   5.322
 1691SOL    HW1 5972   4.087   2.718   5.366
 1691SOL    HW2 5973   4.064   2.598   5.258
 1692SOL     OW 5974   6.553   5.326   2.242
 1692SOL    HW1 5975   6.550   5.350   2.339
 1692SOL    HW2 5976   6.566   5.409   2.188
 1693SOL     OW 5977   5.874   6.797   5.288
 1693SOL    HW1 5978   5.857   6.827   5.195
 1693SOL    HW2 5979   5.841   6.704   5.300
 1694SOL     OW 5980   4.868   1.170   6.570
 1694SOL    HW1 5981   4.827   1.125   6.650
 1694SOL    HW2 5982   4.932   1.240   6.601
 1695SOL     OW 5983   4.812   6.798   4.990
 1695SOL    HW1 5984   4.908   6.798   4.962
 1695SOL    HW2 5985   4.804   6.829   5.084
 1696SOL     OW 5986   4.940   6.921   1.062
 1696SOL    HW1 5987   4.976   6.863   0.988
 1696SOL    HW2 5988   5.013   6.939   1.128
 1697SOL     OW 5989   4.252   3.348   1.543
 1697SOL    HW1 5990   4.191   3.349   1.623
 1697SOL    HW2 5991   4.244   3.260   1.496
 1698SOL     OW 5992   4.573   1.197   1.611
 1698SOL    HW1 5993   4.491   1.158   1.568
 1698SOL    HW2 5994   4.553   1.217   1.707
 1699SOL     OW 5995   1.591   0.784   1.189
 1699SOL    HW1 5996   1.665   0.839   1.227
 1699SOL    HW2 5997   1.628   0.718   1.123
 1700SOL     OW 5998   5.963   3.144   2.753
 1700SOL    HW1 5999   5.868   3.119   2.774
 1700SOL    HW2 6000   5.963   3.220   2.687
 1701SOL     OW 6001   1.246   5.359   5.293
 1701SOL    HW1 6002   1.288   5.389   5.379
 1701SOL    HW2 6003   1.173   5.423   5.268
 1702SOL     OW 6004   2.147   2.287   6.984
 1702SOL    HW1 6005   2.190   2.252   0.052
 1702SOL    HW2 6006   2.174   2.382   6.970
 1703SOL     OW 6007   1.370   2.448   1.969
 1703SOL    HW1 6008   1.356   2.364   1.917
 1703SOL    HW2 6009   1.336   2.437   2.062
 1704SOL     OW 6010   3.084   3.104   6.622
 1704SOL    HW1 6011   3.088   3.006   6.602
 1704SOL    HW2 6012   2.992   3.128   6.653
 1705SOL     OW 6013   5.682   2.782   0.931
 1705SOL    HW1 6014   5.649   2.718   1.000
 1705SOL    HW2 6015   5.715   2.865   0.976
 1706SOL     OW 6016   5.518   0.633   5.682
 1706SOL    HW1 6017   5.499   0.544   5.640
 1706SOL    HW2 6018   5.472   0.705   5.631
 1707SOL     OW 6019   3.575   1.414   2.198
 1707SOL    HW1 6020   3.642   1.415   2.123
 1707SOL    HW2 6021   3.490   1.457   2.168
 1708SOL     OW 6022   2.580   4.620   1.877
 1708SOL    HW1 6023   2.678   4.620   1.894
 1708SOL    HW2 6024   2.563   4.645   1.782
 1709SOL     OW 6025   5.545   5.027   1.718
 1709SOL    HW1 6026   5.454   4.995   1.693
 1709SOL    HW2 6027   5.591   4.956   1.771
 1710SOL     OW 6028   4.713   2.712   1.897
 1710SOL    HW1 6029   4.734   2.631   1.952
 1710SOL    HW2 6030   4.730   2.794   1.951
 1711SOL     OW 6031   4.394   5.301   6.949
 1711SOL    HW1 6032   4.395   5.261   0.025
 1711SOL    HW2 6033   4.449   5.244   6.888
 1712SOL     OW 6034   0.332   2.196   2.202
 1712SOL    HW1 6035   0.349   2.272   2.264
 1712SOL    HW2 6036   0.405   2.193   2.133
 1713SOL     OW 6037   2.975   1.342   2.620
 1713SOL    HW1 6038   2.959   1.361   2.522
 1713SOL    HW2 6039   2.919   1.405   2.675
 1714SOL     OW 6040   2.984   4.747   1.267
 1714SOL    HW1 6041   2.903   4.800   1.241
 1714SOL    HW2 6042   3.064   4.783   1.220
 1715SOL     OW 6043   1.659   6.126   0.772
 1715SOL    HW1 6044   1.729   6.070   0.727
 1715SOL    HW2 6045   1.610   6.070   0.839
 1716SOL     OW 6046   5.071   1.455   2.903
 1716SOL    HW1 6047   5.153   1.413   2.864
 1716SOL    HW2 6048   5.065   1.551   2.874
 1717SOL     OW 6049   3.404   6.292   3.823
 1717SOL    HW1 6050   3.340   6.345   3.879
 1717SOL    HW2 6051   3.417   6.202   3.864
 1718SOL     OW 6052   1.859   3.946   1.881
 1718SOL    HW1 6053   1.949   3.989   1.874
 1718SOL    HW2 6054   1.828   3.918   1.790
 1719SOL     OW 6055   1.388   4.626   3.540
 1719SOL    HW1 6056   1.300   4.600   3.499
 1719SOL    HW2 6057   1.379   4.627   3.639
 1720SOL     OW 6058   1.211   2.962   5.344
 1720SOL    HW1 6059   1.289   3.004   5.296
 1720SOL    HW2 6060   1.244   2.918   5.428
 1721SOL     OW 6061   2.327   2.711   0.203
 1721SOL    HW1 6062   2.427   2.711   0.206
 1721SOL    HW2 6063   2.291   2.676   0.290
 1722SOL     OW 6064   3.298   2.092   2.901
 1722SOL    HW1 6065   3.360   2.082   2.978
 1722SOL    HW2 6066   3.292   2.189   2.876
 1723SOL     OW 6067   6.523   5.056   1.677
 1723SOL    HW1 6068   6.474   5.068   1.590
 1723SOL    HW2 6069   6.615   5.023   1.659
 1724SOL     OW 6070   5.898   3.481   0.979
 1724SOL    HW1 6071   5.972   3.443   1.033
 1724SOL    HW2 6072   5.888   3.579   0.998
 1725SOL     OW 6073   1.203   6.660   5.140
 1725SOL    HW1 6074   1.280   6.595   5.140
 1725SOL    HW2 6075   1.140   6.636   5.067
 1726SOL     OW 6076   5.117   4.807   3.347
 1726SOL    HW1 6077   5.177   4.885   3.331
 1726SOL    HW2 6078   5.084   4.771   3.260
 1727SOL     OW 6079   2.958   3.651   4.184
 1727SOL    HW1 6080   2.983   3.744   4.210
 1727SOL    HW2 6081   2.910   3.606   4.259
 1728SOL     OW 6082   5.534   2.080   4.849
 1728SOL    HW1 6083   5.443   2.113   4.828
 1728SOL    HW2 6084   5.563   2.115   4.939
 1729SOL     OW 6085   1.646   3.539   3.049
 1729SOL    HW1 6086   1.714   3.515   3.118
 1729SOL    HW2 6087   1.678   3.509   2.959
 1730SOL     OW 6088   2.744   0.632   4.813
 1730SOL    HW1 6089   2.822   0.661   4.869
 1730SOL    HW2 6090   2.660   0.641   4.866
 1731SOL     OW 6091   5.977   4.394   3.559
 1731SOL    HW1 6092   6.054   4.406   3.497
 1731SOL    HW2 6093   5.959   4.479   3.608
 1732SOL     OW 6094   4.237   3.469   5.167
 1732SOL    HW1 6095   4.314   3.449   5.227
 1732SOL    HW2 6096   4.166   3.399   5.178
 1733SOL     OW 6097   1.305   1.973   6.922
 1733SOL    HW1 6098   1.304   1.885   6.873
 1733SOL    HW2 6099   1.398   1.993   6.952
 1734SOL     OW 6100   0.874   4.400   1.737
 1734SOL    HW1 6101   0.882   4.347   1.652
 1734SOL    HW2 6102   0.803   4.358   1.794
 1735SOL     OW 6103   3.467   5.618   5.780
 1735SOL    HW1 6104   3.440   5.541   5.722
 1735SOL    HW2 6105   3.567   5.617   5.793
 1736SOL     OW 6106   4.460   1.824   5.684
 1736SOL    HW1 6107   4.397   1.791   5.754
 1736SOL    HW2 6108   4.464   1.924   5.687
 1737SOL     OW 6109   2.357   0.815   6.768
 1737SOL    HW1 6110   2.395   0.892   6.820
 1737SOL    HW2 6111   2.425   0.741   6.766
 1738SOL     OW 6112   1.165   3.862   2.057
 1738SOL    HW1 6113   1.242   3.800   2.073
 1738SOL    HW2 6114   1.141   3.908   2.143
 1739SOL     OW 6115   4.602   5.405   2.224
 1739SOL    HW1 6116   4.554   5.338   2.280
 1739SOL    HW2 6117   4.535   5.466   2.181
 1740SOL     OW 6118   6.324   2.322   4.534
 1740SOL    HW1 6119   6.396   2.375   4.488
 1740SOL    HW2 6120   6.340   2.324   4.633
 1741SOL     OW 6121   1.066   2.796   4.456
 1741SOL    HW1 6122   1.108   2.832   4.539
 1741SOL    HW2 6123   1.116   2.830   4.376
 1742SOL     OW 6124   5.973   0.014   0.045
 1742SOL    HW1 6125   6.010   0.105   0.030
 1742SOL    HW2 6126   5.896   7.014   7.000
 1743SOL     OW 6127   1.116   2.331   1.740
 1743SOL    HW1 6128   1.087   2.320   1.645
 1743SOL    HW2 6129   1.215   2.315   1.747
 1744SOL     OW 6130   3.403   1.974   5.726
 1744SOL    HW1 6131   3.458   2.043   5.679
 1744SOL    HW2 6132   3.463   1.906   5.768
 1745SOL     OW 6133   6.202   6.643   0.842
 1745SOL    HW1 6134   6.166   6.589   0.919
 1745SOL    HW2 6135   6.296   6.615   0.823
 1746SOL     OW 6136   2.248   5.148   2.661
 1746SOL    HW1 6137   2.175   5.113   2.603
 1746SOL    HW2 6138   2.227   5.129   2.757
 1747SOL     OW 6139   2.693   0.034   1.922
 1747SOL    HW1 6140   2.741   0.068   1.841
 1747SOL    HW2 6141   2.717   0.089   2.002
 1748SOL     OW 6142   6.940   1.509   3.601
 1748SOL    HW1 6143   6.859   1.567   3.609
 1748SOL    HW2 6144   6.925   1.423   3.651
 1749SOL     OW 6145   6.604   5.294   2.522
 1749SOL    HW1 6146   6.641   5.382   2.553
 1749SOL    HW2 6147   6.679   5.233   2.498
 1750SOL     OW 6148   2.617   1.253   1.251
 1750SOL    HW1 6149   2.630   1.352   1.264
 1750SOL    HW2 6150   2.561   1.237   1.170
 1751SOL     OW 6151   6.341   4.254   4.451
 1751SOL    HW1 6152   6.295   4.179   4.498
 1751SOL    HW2 6153   6.322   4.340   4.500
 1752SOL     OW 6154   6.107   0.685   2.548
 1752SOL    HW1 6155   6.080   0.772   2.507
 1752SOL    HW2 6156   6.026   0.629   2.564
 1753SOL     OW 6157   6.568   1.470   1.291
 1753SOL    HW1 6158   6.507   1.408   1.242
 1753SOL    HW2 6159   6.515   1.529   1.351
 1754SOL     OW 6160   2.106   5.078   3.533
 1754SOL    HW1 6161   2.182   5.142   3.544
 1754SOL    HW2 6162   2.032   5.104   3.594
 1755SOL     OW 6163   5.967   6.277   5.397
 1755SOL    HW1 6164   5.960   6.376   5.411
 1755SOL    HW2 6165   5.901   6.248   5.328
 1756SOL     OW 6166   4.542   5.915   1.390
 1756SOL    HW1 6167   4.589   5.842   1.440
 1756SOL    HW2 6168   4.549   6.000   1.442
 1757SOL     OW 6169   2.768   4.983   4.866
 1757SOL    HW1 6170   2.760   4.890   4.828
 1757SOL    HW2 6171   2.791   5.047   4.793
 1758SOL     OW 6172   0.483   6.280   3.933
 1758SOL    HW1 6173   0.426   6.209   3.893
 1758SOL    HW2 6174   0.438   6.318   4.014
 1759SOL     OW 6175   1.476   5.413   6.305
 1759SOL    HW1 6176   1.446   5.385   6.396
 1759SOL    HW2 6177   1.505   5.508   6.307
 1760SOL     OW 6178   5.959   1.501   4.062
 1760SOL    HW1 6179   5.888   1.435   4.041
 1760SOL    HW2 6180   5.943   1.540   4.153
 1761SOL     OW 6181   5.135   2.427   3.929
 1761SOL    HW1 6182   5.110   2.332   3.949
 1761SOL    HW2 6183   5.060   2.487   3.955
 1762SOL     OW 6184   0.893   1.735   5.775
 1762SOL    HW1 6185   0.891   1.790   5.692
 1762SOL    HW2 6186   0.818   1.763   5.835
 1763SOL     OW 6187   1.653   5.034   3.943
 1763SOL    HW1 6188   1.581   5.063   4.006
 1763SOL    HW2 6189   1.630   4.944   3.906
 1764SOL     OW 6190   0.571   5.425   3.589
 1764SOL    HW1 6191   0.523   5.501   3.633
 1764SOL    HW2 6192   0.513   5.386   3.517
 1765SOL     OW 6193   5.348   3.959   1.902
 1765SOL    HW1 6194   5.253   3.946   1.929
 1765SOL    HW2 6195   5.401   3.878   1.927
 1766SOL     OW 6196   4.229   4.942   3.667
 1766SOL    HW1 6197   4.156   4.976   3.727
 1766SOL    HW2 6198   4.189   4.880   3.598
 1767SOL     OW 6199   1.755   4.207   1.608
 1767SOL    HW1 6200   1.676   4.247   1.560
 1767SOL    HW2 6201   1.732   4.115   1.639
 1768SOL     OW 6202   3.549   5.010   3.021
 1768SOL    HW1 6203   3.455   5.035   2.998
 1768SOL    HW2 6204   3.612   5.080   2.988
 1769SOL     OW 6205   5.389   0.265   0.950
 1769SOL    HW1 6206   5.364   0.191   1.012
 1769SOL    HW2 6207   5.413   0.228   0.861
 1770SOL     OW 6208   2.673   4.609   0.477
 1770SOL    HW1 6209   2.732   4.565   0.545
 1770SOL    HW2 6210   2.717   4.694   0.447
 1771SOL     OW 6211   1.503   3.053   5.918
 1771SOL    HW1 6212   1.495   2.985   5.991
 1771SOL    HW2 6213   1.569   3.123   5.945
 1772SOL     OW 6214   2.891   5.354   2.021
 1772SOL    HW1 6215   2.956   5.289   2.060
 1772SOL    HW2 6216   2.881   5.432   2.083
 1773SOL     OW 6217   2.329   6.346   4.588
 1773SOL    HW1 6218   2.286   6.389   4.509
 1773SOL    HW2 6219   2.381   6.265   4.557
 1774SOL     OW 6220   5.438   5.390   1.639
 1774SOL    HW1 6221   5.365   5.453   1.667
 1774SOL    HW2 6222   5.485   5.427   1.559
 1775SOL     OW 6223   2.010   6.659   1.135
 1775SOL    HW1 6224   2.092   6.662   1.193
 1775SOL    HW2 6225   1.967   6.569   1.144
 1776SOL     OW 6226   4.999   3.460   6.245
 1776SOL    HW1 6227   4.989   3.362   6.259
 1776SOL    HW2 6228   4.920   3.495   6.195
 1777SOL     OW 6229   4.860   4.983   6.859
 1777SOL    HW1 6230   4.783   4.984   6.795
 1777SOL    HW2 6231   4.934   5.040   6.823
 1778SOL     OW 6232   0.212   0.748   3.333
 1778SOL    HW1 6233   0.195   0.817   3.403
 1778SOL    HW2 6234   0.298   0.768   3.286
 1779SOL     OW 6235   6.673   0.151   4.432
 1779SOL    HW1 6236   6.767   0.185   4.435
 1779SOL    HW2 6237   6.611   0.227   4.413
 1780SOL     OW 6238   2.700   6.803   4.440
 1780SOL    HW1 6239   2.787   6.775   4.481
 1780SOL    HW2 6240   2.677   6.896   4.470
 1781SOL     OW 6241   4.970   1.450   6.171
 1781SOL    HW1 6242   5.048   1.393   6.197
 1781SOL    HW2 6243   4.996   1.511   6.097
 1782SOL     OW 6244   5.191   0.669   2.455
 1782SOL    HW1 6245   5.118   0.642   2.392
 1782SOL    HW2 6246   5.159   0.745   2.512
 1783SOL     OW 6247   1.753   3.147   0.217
 1783SOL    HW1 6248   1.746   3.215   0.143
 1783SOL    HW2 6249   1.693   3.070   0.197
 1784SOL     OW 6250   2.342   5.583   1.617
 1784SOL    HW1 6251   2.330   5.676   1.583
 1784SOL    HW2 6252   2.292   5.572   1.703
 1785SOL     OW 6253   1.920   5.219   4.322
 1785SOL    HW1 6254   1.907   5.301   4.266
 1785SOL    HW2 6255   2.015   5.214   4.351
 1786SOL     OW 6256   0.483   5.565   2.242
 1786SOL    HW1 6257   0.432   5.497   2.189
 1786SOL    HW2 6258   0.574   5.529   2.262
 1787SOL     OW 6259   2.607   2.812   6.272
 1787SOL    HW1 6260   2.697   2.798   6.230
 1787SOL    HW2 6261   2.619   2.851   6.363
 1788SOL     OW 6262   3.657   4.314   0.641
 1788SOL    HW1 6263   3.711   4.249   0.588
 1788SOL    HW2 6264   3.560   4.299   0.623
 1789SOL     OW 6265   5.647   2.861   2.488
 1789SOL    HW1 6266   5.603   2.772   2.494
 1789SOL    HW2 6267   5.746   2.849   2.481
 1790SOL     OW 6268   2.501   1.812   4.864
 1790SOL    HW1 6269   2.412   1.785   4.826
 1790SOL    HW2 6270   2.512   1.773   4.955
 1791SOL     OW 6271   6.295   0.364   3.316
 1791SOL    HW1 6272   6.299   0.308   3.233
 1791SOL    HW2 6273   6.296   0.305   3.396
 1792SOL     OW 6274   0.102   2.809   5.988
 1792SOL    HW1 6275   0.137   2.865   5.914
 1792SOL    HW2 6276   0.012   2.843   6.016
 1793SOL     OW 6277   0.548   1.605   5.121
 1793SOL    HW1 6278   0.453   1.608   5.152
 1793SOL    HW2 6279   0.561   1.526   5.061
 1794SOL     OW 6280   6.548   1.657   6.500
 1794SOL    HW1 6281   6.463   1.609   6.479
 1794SOL    HW2 6282   6.557   1.737   6.440
 1795SOL     OW 6283   5.695   4.308   0.852
 1795SOL    HW1 6284   5.768   4.306   0.783
 1795SOL    HW2 6285   5.658   4.401   0.857
 1796SOL     OW 6286   6.267   0.325   6.794
 1796SOL    HW1 6287   6.256   0.234   6.836
 1796SOL    HW2 6288   6.192   0.384   6.823
 1797SOL     OW 6289   3.266   6.243   5.612
 1797SOL    HW1 6290   3.251   6.238   5.711
 1797SOL    HW2 6291   3.222   6.165   5.568
 1798SOL     OW 6292   2.803   3.820   6.785
 1798SOL    HW1 6293   2.722   3.827   6.728
 1798SOL    HW2 6294   2.828   3.724   6.796
 1799SOL     OW 6295   3.337   1.491   2.074
 1799SOL    HW1 6296   3.245   1.518   2.104
 1799SOL    HW2 6297   3.330   1.447   1.984
 1800SOL     OW 6298   5.806   2.149   5.642
 1800SOL    HW1 6299   5.853   2.095   5.572
 1800SOL    HW2 6300   5.874   2.202   5.693
 1801SOL     OW 6301   0.976   1.871   2.006
 1801SOL    HW1 6302   0.970   1.773   1.991
 1801SOL    HW2 6303   0.899   1.917   1.962
 1802SOL     OW 6304   6.366   4.480   4.659
 1802SOL    HW1 6305   6.303   4.558   4.652
 1802SOL    HW2 6306   6.451   4.510   4.704
 1803SOL     OW 6307   6.888   6.625   3.613
 1803SOL    HW1 6308   6.912   6.683   3.535
 1803SOL    HW2 6309   6.832   6.678   3.677
 1804SOL     OW 6310   0.851   3.156   6.209
 1804SOL    HW1 6311   0.845   3.132   6.306
 1804SOL    HW2 6312   0.945   3.183   6.188
 1805SOL     OW 6313   6.266   4.888   5.825
 1805SOL    HW1 6314   6.310   4.942   5.753
 1805SOL    HW2 6315   6.180   4.933   5.852
 1806SOL     OW 6316   0.565   1.147   1.204
 1806SOL    HW1 6317   0.586   1.055   1.236
 1806SOL    HW2 6318   0.467   1.164   1.212
 1807SOL     OW 6319   6.310   2.332   2.154
 1807SOL    HW1 6320   6.250   2.406   2.125
 1807SOL    HW2 6321   6.258   2.266   2.209
 1808SOL     OW 6322   6.766   0.499   6.932
 1808SOL    HW1 6323   6.672   0.492   6.898
 1808SOL    HW2 6324   6.764   0.529   0.012
 1809SOL     OW 6325   4.421   0.373   4.902
 1809SOL    HW1 6326   4.451   0.383   4.807
 1809SOL    HW2 6327   4.321   0.376   4.907
 1810SOL     OW 6328   1.246   1.703   5.135
 1810SOL    HW1 6329   1.274   1.657   5.050
 1810SOL    HW2 6330   1.188   1.642   5.188
 1811SOL     OW 6331   3.523   5.211   1.885
 1811SOL    HW1 6332   3.428   5.205   1.855
 1811SOL    HW2 6333   3.575   5.135   1.847
 1812SOL     OW 6334   4.310   0.967   6.628
 1812SOL    HW1 6335   4.370   1.030   6.678
 1812SOL    HW2 6336   4.235   0.937   6.689
 1813SOL     OW 6337   5.842   3.699   1.651
 1813SOL    HW1 6338   5.752   3.724   1.616
 1813SOL    HW2 6339   5.908   3.699   1.576
 1814SOL     OW 6340   6.452   5.724   1.087
 1814SOL    HW1 6341   6.521   5.766   1.028
 1814SOL    HW2 6342   6.481   5.727   1.182
 1815SOL     OW 6343   5.981   5.295   1.288
 1815SOL    HW1 6344   6.047   5.269   1.358
 1815SOL    HW2 6345   5.893   5.250   1.307
 1816SOL     OW 6346   3.429   5.013   4.437
 1816SOL    HW1 6347   3.443   4.990   4.533
 1816SOL    HW2 6348   3.512   5.056   4.401
 1817SOL     OW 6349   6.733   2.759   3.825
 1817SOL    HW1 6350   6.674   2.764   3.744
 1817SOL    HW2 6351   6.708   2.833   3.888
 1818SOL     OW 6352   2.517   1.766   0.348
 1818SOL    HW1 6353   2.484   1.801   0.436
 1818SOL    HW2 6354   2.585   1.694   0.364
 1819SOL     OW 6355   0.857   3.567   1.418
 1819SOL    HW1 6356   0.878   3.472   1.396
 1819SOL    HW2 6357   0.851   3.620   1.333
 1820SOL     OW 6358   3.908   6.748   4.911
 1820SOL    HW1 6359   3.871   6.840   4.896
 1820SOL    HW2 6360   3.999   6.756   4.953
 1821SOL     OW 6361   3.757   1.299   2.387
 1821SOL    HW1 6362   3.686   1.347   2.335
 1821SOL    HW2 6363   3.747   1.319   2.484
 1822SOL     OW 6364   2.225   4.133   4.700
 1822SOL    HW1 6365   2.271   4.088   4.776
 1822SOL    HW2 6366   2.193   4.065   4.635
 1823SOL     OW 6367   4.208   6.792   3.995
 1823SOL    HW1 6368   4.168   6.704   4.020
 1823SOL    HW2 6369   4.216   6.849   4.077
 1824SOL     OW 6370   4.510   2.587   1.741
 1824SOL    HW1 6371   4.583   2.640   1.783
 1824SOL    HW2 6372   4.544   2.542   1.659
 1825SOL     OW 6373   1.408   3.864   0.166
 1825SOL    HW1 6374   1.475   3.938   0.176
 1825SOL    HW2 6375   1.455   3.777   0.156
 1826SOL     OW 6376   3.845   3.104   0.111
 1826SOL    HW1 6377   3.811   3.125   0.203
 1826SOL    HW2 6378   3.768   3.084   0.050
 1827SOL     OW 6379   5.328   4.821   0.737
 1827SOL    HW1 6380   5.427   4.816   0.725
 1827SOL    HW2 6381   5.286   4.733   0.716
 1828SOL     OW 6382   2.640   5.635   5.273
 1828SOL    HW1 6383   2.596   5.626   5.184
 1828SOL    HW2 6384   2.591   5.580   5.341
 1829SOL     OW 6385   1.543   6.304   2.495
 1829SOL    HW1 6386   1.562   6.395   2.532
 1829SOL    HW2 6387   1.540   6.237   2.569
 1830SOL     OW 6388   4.467   1.348   6.524
 1830SOL    HW1 6389   4.534   1.290   6.477
 1830SOL    HW2 6390   4.515   1.404   6.592
 1831SOL     OW 6391   3.562   4.411   0.101
 1831SOL    HW1 6392   3.503   4.392   0.022
 1831SOL    HW2 6393   3.654   4.435   0.069
 1832SOL     OW 6394   2.199   2.498   5.848
 1832SOL    HW1 6395   2.247   2.429   5.793
 1832SOL    HW2 6396   2.103   2.502   5.821
 1833SOL     OW 6397   5.752   1.472   0.364
 1833SOL    HW1 6398   5.719   1.435   0.277
 1833SOL    HW2 6399   5.849   1.495   0.355
 1834SOL     OW 6400   1.998   4.126   6.532
 1834SOL    HW1 6401   1.975   4.109   6.436
 1834SOL    HW2 6402   1.967   4.218   6.558
 1835SOL     OW 6403   5.867   7.009   6.773
 1835SOL    HW1 6404   5.909   0.044   6.698
 1835SOL    HW2 6405   5.769   0.012   6.776
 1836SOL     OW 6406   5.615   1.166   4.738
 1836SOL    HW1 6407   5.632   1.085   4.682
 1836SOL    HW2 6408   5.607   1.246   4.678
 1837SOL     OW 6409   1.295   2.117   1.204
 1837SOL    HW1 6410   1.283   2.173   1.286
 1837SOL    HW2 6411   1.362   2.045   1.222
 1838SOL     OW 6412   5.096   0.431   0.524
 1838SOL    HW1 6413   5.098   0.412   0.622
 1838SOL    HW2 6414   5.057   0.352   0.476
 1839SOL     OW 6415   6.716   1.597   6.105
 1839SOL    HW1 6416   6.756   1.618   6.194
 1839SOL    HW2 6417   6.619   1.622   6.106
 1840SOL     OW 6418   2.541   6.765   5.493
 1840SOL    HW1 6419   2.508   6.715   5.573
 1840SOL    HW2 6420   2.510   6.860   5.498
 1841SOL     OW 6421   2.441   0.050   1.999
 1841SOL    HW1 6422   2.355   0.046   1.947
 1841SOL    HW2 6423   2.518   0.053   1.936
 1842SOL     OW 6424   6.757   4.581   1.840
 1842SOL    HW1 6425   6.704   4.581   1.755
 1842SOL    HW2 6426   6.744   4.494   1.887
 1843SOL     OW 6427   2.775   0.881   6.833
 1843SOL    HW1 6428   2.797   0.952   6.765
 1843SOL    HW2 6429   2.837   0.890   6.911
 1844SOL     OW 6430   5.092   3.554   0.923
 1844SOL    HW1 6431   5.003   3.563   0.966
 1844SOL    HW2 6432   5.110   3.457   0.905
 1845SOL     OW 6433   0.640   2.620   4.237
 1845SOL    HW1 6434   0.714   2.557   4.260
 1845SOL    HW2 6435   0.675   2.713   4.235
 1846SOL     OW 6436   3.864   1.691   2.410
 1846SOL    HW1 6437   3.822   1.605   2.439
 1846SOL    HW2 6438   3.807   1.734   2.339
 1847SOL     OW 6439   3.244   5.996   6.648
 1847SOL    HW1 6440   3.289   6.027   6.564
 1847SOL    HW2 6441   3.209   6.074   6.698
 1848SOL     OW 6442   3.315   5.707   4.514
 1848SOL    HW1 6443   3.243   5.777   4.510
 1848SOL    HW2 6444   3.316   5.665   4.604
 1849SOL     OW 6445   4.588   2.565   2.323
 1849SOL    HW1 6446   4.507   2.579   2.381
 1849SOL    HW2 6447   4.665   2.616   2.361
 1850SOL     OW 6448   4.953   1.672   1.145
 1850SOL    HW1 6449   5.037   1.619   1.154
 1850SOL    HW2 6450   4.875   1.614   1.169
 1851SOL     OW 6451   1.140   4.890   3.830
 1851SOL    HW1 6452   1.104   4.983   3.820
 1851SOL    HW2 6453   1.221   4.880   3.771
 1852SOL     OW 6454   0.614   0.170   3.530
 1852SOL    HW1 6455   0.604   0.262   3.492
 1852SOL    HW2 6456   0.527   0.140   3.569
 1853SOL     OW 6457   0.911   1.908   5.542
 1853SOL    HW1 6458   0.945   2.002   5.540
 1853SOL    HW2 6459   0.836   1.898   5.477
 1854SOL     OW 6460   0.742   6.670   4.132
 1854SOL    HW1 6461   0.735   6.582   4.085
 1854SOL    HW2 6462   0.679   6.736   4.090
 1855SOL     OW 6463   6.617   1.491   5.065
 1855SOL    HW1 6464   6.558   1.557   5.112
 1855SOL    HW2 6465   6.700   1.538   5.034
 1856SOL     OW 6466   5.287   3.823   6.603
 1856SOL    HW1 6467   5.336   3.770   6.534
 1856SOL    HW2 6468   5.307   3.921   6.591
 1857SOL     OW 6469   4.605   0.922   6.672
 1857SOL    HW1 6470   4.693   0.937   6.718
 1857SOL    HW2 6471   4.540   0.993   6.700
 1858SOL     OW 6472   5.250   2.071   4.324
 1858SOL    HW1 6473   5.186   2.003   4.286
 1858SOL    HW2 6474   5.243   2.156   4.272
 1859SOL     OW 6475   5.891   6.258   2.707
 1859SOL    HW1 6476   5.837   6.301   2.635
 1859SOL    HW2 6477   5.931   6.173   2.673
 1860SOL     OW 6478   2.253   0.983   0.368
 1860SOL    HW1 6479   2.308   0.911   0.410
 1860SOL    HW2 6480   2.175   0.942   0.321
 1861SOL     OW 6481   6.626   0.133   5.412
 1861SOL    HW1 6482   6.568   0.170   5.484
 1861SOL    HW2 6483   6.616   0.033   5.408
 1862SOL     OW 6484   3.818   5.189   5.198
 1862SOL    HW1 6485   3.893   5.248   5.228
 1862SOL    HW2 6486   3.736   5.244   5.182
 1863SOL     OW 6487   0.178   0.967   1.461
 1863SOL    HW1 6488   0.079   0.972   1.467
 1863SOL    HW2 6489   0.205   0.877   1.426
 1864SOL     OW 6490   2.305   6.172   2.619
 1864SOL    HW1 6491   2.283   6.138   2.710
 1864SOL    HW2 6492   2.265   6.263   2.607
 1865SOL     OW 6493   6.098   2.703   5.718
 1865SOL    HW1 6494   6.037   2.686   5.641
 1865SOL    HW2 6495   6.184   2.741   5.685
 1866SOL     OW 6496   0.398   4.112   5.476
 1866SOL    HW1 6497   0.445   4.199   5.462
 1866SOL    HW2 6498   0.386   4.066   5.388
 1867SOL     OW 6499   1.315   1.063   1.010
 1867SOL    HW1 6500   1.386   1.004   1.049
 1867SOL    HW2 6501   1.247   1.007   0.964
 1868SOL     OW 6502   5.583   3.522   5.779
 1868SOL    HW1 6503   5.593   3.557   5.686
 1868SOL    HW2 6504   5.672   3.524   5.825
 1869SOL     OW 6505   5.196   0.313   5.045
 1869SOL    HW1 6506   5.176   0.386   5.111
 1869SOL    HW2 6507   5.276   0.262   5.074
 1870SOL     OW 6508   5.579   0.990   5.553
 1870SOL    HW1 6509   5.502   0.931   5.531
 1870SOL    HW2 6510   5.655   0.971   5.491
 1871SOL     OW 6511   2.624   4.585   6.798
 1871SOL    HW1 6512   2.592   4.638   6.876
 1871SOL    HW2 6513   2.713   4.620   6.769
 1872SOL     OW 6514   2.547   3.313   0.420
 1872SOL    HW1 6515   2.611   3.387   0.400
 1872SOL    HW2 6516   2.501   3.284   0.335
 1873SOL     OW 6517   6.311   1.537   2.140
 1873SOL    HW1 6518   6.215   1.517   2.161
 1873SOL    HW2 6519   6.316   1.585   2.052
 1874SOL     OW 6520   2.028   5.270   6.203
 1874SOL    HW1 6521   2.031   5.176   6.237
 1874SOL    HW2 6522   2.121   5.305   6.193
 1875SOL     OW 6523   1.233   6.130   2.515
 1875SOL    HW1 6524   1.311   6.075   2.484
 1875SOL    HW2 6525   1.162   6.128   2.445
 1876SOL     OW 6526   0.760   5.271   5.909
 1876SOL    HW1 6527   0.822   5.195   5.891
 1876SOL    HW2 6528   0.675   5.236   5.948
 1877SOL     OW 6529   0.371   0.960   3.465
 1877SOL    HW1 6530   0.367   1.051   3.425
 1877SOL    HW2 6531   0.285   0.940   3.511
 1878SOL     OW 6532   5.988   3.939   4.426
 1878SOL    HW1 6533   6.013   4.017   4.369
 1878SOL    HW2 6534   5.890   3.940   4.443
 1879SOL     OW 6535   4.165   6.154   5.318
 1879SOL    HW1 6536   4.196   6.070   5.364
 1879SOL    HW2 6537   4.088   6.193   5.368
 1880SOL     OW 6538   1.790   3.644   4.659
 1880SOL    HW1 6539   1.809   3.546   4.661
 1880SOL    HW2 6540   1.818   3.686   4.746
 1881SOL     OW 6541   2.269   2.214   3.200
 1881SOL    HW1 6542   2.342   2.151   3.175
 1881SOL    HW2 6543   2.254   2.280   3.126
 1882SOL     OW 6544   4.152   6.732   0.176
 1882SOL    HW1 6545   4.181   6.723   0.271
 1882SOL    HW2 6546   4.232   6.731   0.116
 1883SOL     OW 6547   2.148   3.759   2.820
 1883SOL    HW1 6548   2.154   3.705   2.736
 1883SOL    HW2 6549   2.130   3.855   2.797
 1884SOL     OW 6550   4.704   0.947   0.042
 1884SOL    HW1 6551   4.631   0.886   0.013
 1884SOL    HW2 6552   4.708   0.950   0.142
 1885SOL     OW 6553   0.031   1.633   0.997
 1885SOL    HW1 6554   6.950   1.621   1.016
 1885SOL    HW2 6555   0.042   1.697   0.921
 1886SOL     OW 6556   3.402   3.090   4.578
 1886SOL    HW1 6557   3.386   3.010   4.635
 1886SOL    HW2 6558   3.373   3.071   4.484
 1887SOL     OW 6559   0.832   5.888   5.272
 1887SOL    HW1 6560   0.900   5.859   5.340
 1887SOL    HW2 6561   0.775   5.960   5.310
 1888SOL     OW 6562   1.972   1.758   6.155
 1888SOL    HW1 6563   2.070   1.751   6.173
 1888SOL    HW2 6564   1.935   1.836   6.206
 1889SOL     OW 6565   3.670   3.716   0.073
 1889SOL    HW1 6566   3.589   3.728   0.131
 1889SOL    HW2 6567   3.692   3.802   0.028
 1890SOL     OW 6568   6.128   6.532   6.554
 1890SOL    HW1 6569   6.196   6.575   6.614
 1890SOL    HW2 6570   6.085   6.456   6.602
 1891SOL     OW 6571   5.496   3.387   6.834
 1891SOL    HW1 6572   5.550   3.465   6.865
 1891SOL    HW2 6573   5.536   3.350   6.750
 1892SOL     OW 6574   4.296   0.592   3.233
 1892SOL    HW1 6575   4.261   0.512   3.185
 1892SOL    HW2 6576   4.221   0.655   3.253
 1893SOL     OW 6577   3.009   2.128   6.922
 1893SOL    HW1 6578   3.069   2.204   6.896
 1893SOL    HW2 6579   3.023   2.051   6.860
 1894SOL     OW 6580   5.099   3.276   0.871
 1894SOL    HW1 6581   5.186   3.241   0.837
 1894SOL    HW2 6582   5.059   3.210   0.935
 1895SOL     OW 6583   4.356   5.539   2.978
 1895SOL    HW1 6584   4.358   5.464   2.911
 1895SOL    HW2 6585   4.411   5.615   2.943
 1896SOL     OW 6586   6.769   1.469   4.680
 1896SOL    HW1 6587   6.798   1.477   4.775
 1896SOL    HW2 6588   6.763   1.560   4.639
 1897SOL     OW 6589   5.377   5.253   3.057
 1897SOL    HW1 6590   5.303   5.309   3.094
 1897SOL    HW2 6591   5.339   5.187   2.992
 1898SOL     OW 6592   5.119   6.899   0.221
 1898SOL    HW1 6593   5.154   6.808   0.240
 1898SOL    HW2 6594   5.037   6.892   0.164
 1899SOL     OW 6595   2.057   2.722   3.462
 1899SOL    HW1 6596   2.034   2.636   3.507
 1899SOL    HW2 6597   2.157   2.732   3.459
 1900SOL     OW 6598   2.652   5.481   1.298
 1900SOL    HW1 6599   2.751   5.470   1.291
 1900SOL    HW2 6600   2.623   5.462   1.392
 1901SOL     OW 6601   0.573   1.511   6.037
 1901SOL    HW1 6602   0.539   1.480   5.948
 1901SOL    HW2 6603   0.496   1.518   6.100
 1902SOL     OW 6604   1.629   2.643   4.942
 1902SOL    HW1 6605   1.547   2.633   4.998
 1902SOL    HW2 6606   1.609   2.615   4.848
 1903SOL     OW 6607   6.831   5.594   3.869
 1903SOL    HW1 6608   6.766   5.639   3.807
 1903SOL    HW2 6609   6.900   5.545   3.816
 1904SOL     OW 6610   0.535   6.982   4.162
 1904SOL    HW1 6611   0.441   6.962   4.189
 1904SOL    HW2 6612   0.564   6.916   4.092
 1905SOL     OW 6613   5.761   3.305   5.181
 1905SOL    HW1 6614   5.841   3.251   5.208
 1905SOL    HW2 6615   5.747   3.379   5.246
 1906SOL     OW 6616   2.167   6.216   5.780
 1906SOL    HW1 6617   2.264   6.239   5.766
 1906SOL    HW2 6618   2.134   6.261   5.863
 1907SOL     OW 6619   4.166   6.744   3.311
 1907SOL    HW1 6620   4.254   6.700   3.327
 1907SOL    HW2 6621   4.156   6.822   3.372
 1908SOL     OW 6622   5.100   4.793   0.907
 1908SOL    HW1 6623   5.180   4.810   0.850
 1908SOL    HW2 6624   5.022   4.845   0.871
 1909SOL     OW 6625   5.072   5.429   3.456
 1909SOL    HW1 6626   5.023   5.343   3.440
 1909SOL    HW2 6627   5.070   5.451   3.554
 1910SOL     OW 6628   4.849   3.777   4.185
 1910SOL    HW1 6629   4.886   3.731   4.266
 1910SOL    HW2 6630   4.867   3.722   4.104
 1911SOL     OW 6631   0.951   2.407   5.648
 1911SOL    HW1 6632   0.943   2.390   5.746
 1911SOL    HW2 6633   0.948   2.320   5.599
 1912SOL     OW 6634   3.221   6.848   2.597
 1912SOL    HW1 6635   3.220   6.859   2.696
 1912SOL    HW2 6636   3.153   6.909   2.556
 1913SOL     OW 6637   3.075   3.623   6.718
 1913SOL    HW1 6638   3.082   3.720   6.695
 1913SOL    HW2 6639   2.989   3.606   6.767
 1914SOL     OW 6640   4.317   1.287   5.128
 1914SOL    HW1 6641   4.245   1.357   5.123
 1914SOL    HW2 6642   4.292   1.209   5.072
 1915SOL     OW 6643   2.767   6.655   5.437
 1915SOL    HW1 6644   2.823   6.733   5.410
 1915SOL    HW2 6645   2.671   6.683   5.443
 1916SOL     OW 6646   3.497   6.812   2.555
 1916SOL    HW1 6647   3.404   6.836   2.583
 1916SOL    HW2 6648   3.506   6.713   2.553
 1917SOL     OW 6649   3.880   3.976   3.699
 1917SOL    HW1 6650   3.808   4.040   3.724
 1917SOL    HW2 6651   3.944   3.966   3.775
 1918SOL     OW 6652   0.600   6.416   5.672
 1918SOL    HW1 6653   0.659   6.437   5.750
 1918SOL    HW2 6654   0.564   6.501   5.634
 1919SOL     OW 6655   5.608   0.431   2.184
 1919SOL    HW1 6656   5.657   0.345   2.175
 1919SOL    HW2 6657   5.522   0.426   2.134
 1920SOL     OW 6658   6.129   6.254   4.585
 1920SOL    HW1 6659   6.142   6.340   4.634
 1920SOL    HW2 6660   6.152   6.266   4.489
 1921SOL     OW 6661   2.560   6.657   6.725
 1921SOL    HW1 6662   2.500   6.719   6.775
 1921SOL    HW2 6663   2.599   6.704   6.646
 1922SOL     OW 6664   3.783   4.462   6.981
 1922SOL    HW1 6665   3.859   4.414   0.009
 1922SOL    HW2 6666   3.816   4.547   6.940
 1923SOL     OW 6667   1.649   2.911   1.257
 1923SOL    HW1 6668   1.620   2.904   1.161
 1923SOL    HW2 6669   1.628   2.825   1.304
 1924SOL     OW 6670   0.282   3.707   1.444
 1924SOL    HW1 6671   0.297   3.788   1.388
 1924SOL    HW2 6672   0.368   3.655   1.451
 1925SOL     OW 6673   3.051   4.506   0.561
 1925SOL    HW1 6674   3.080   4.423   0.607
 1925SOL    HW2 6675   3.123   4.576   0.569
 1926SOL     OW 6676   0.423   0.530   3.588
 1926SOL    HW1 6677   0.500   0.497   3.533
 1926SOL    HW2 6678   0.430   0.629   3.600
 1927SOL     OW 6679   5.084   3.355   1.406
 1927SOL    HW1 6680   5.007   3.371   1.344
 1927SOL    HW2 6681   5.063   3.394   1.495
 1928SOL     OW 6682   0.320   5.383   4.486
 1928SOL    HW1 6683   0.228   5.422   4.491
 1928SOL    HW2 6684   0.315   5.284   4.498
 1929SOL     OW 6685   0.871   4.706   2.812
 1929SOL    HW1 6686   0.924   4.773   2.865
 1929SOL    HW2 6687   0.788   4.749   2.777
 1930SOL     OW 6688   6.490   5.877   5.800
 1930SOL    HW1 6689   6.415   5.831   5.753
 1930SOL    HW2 6690   6.573   5.871   5.744
 1931SOL     OW 6691   2.015   2.577   3.686
 1931SOL    HW1 6692   2.033   2.654   3.748
 1931SOL    HW2 6693   2.080   2.503   3.705
 1932SOL     OW 6694   6.040   3.280   2.402
 1932SOL    HW1 6695   6.125   3.333   2.404
 1932SOL    HW2 6696   5.973   3.322   2.462
 1933SOL     OW 6697   2.915   5.142   0.227
 1933SOL    HW1 6698   2.907   5.078   0.151
 1933SOL    HW2 6699   2.965   5.223   0.197
 1934SOL     OW 6700   0.053   6.245   2.936
 1934SOL    HW1 6701   7.004   6.316   2.963
 1934SOL    HW2 6702   0.003   6.161   2.915
 1935SOL     OW 6703   1.033   1.341   3.066
 1935SOL    HW1 6704   0.967   1.355   2.993
 1935SOL    HW2 6705   0.989   1.355   3.155
 1936SOL     OW 6706   0.358   5.703   4.995
 1936SOL    HW1 6707   0.446   5.730   4.956
 1936SOL    HW2 6708   0.318   5.629   4.941
 1937SOL     OW 6709   4.639   1.708   2.920
 1937SOL    HW1 6710   4.565   1.649   2.952
 1937SOL    HW2 6711   4.606   1.802   2.915
 1938SOL     OW 6712   5.032   6.550   3.945
 1938SOL    HW1 6713   5.113   6.537   4.002
 1938SOL    HW2 6714   5.059   6.552   3.848
 1939SOL     OW 6715   2.789   0.686   4.473
 1939SOL    HW1 6716   2.759   0.597   4.437
 1939SOL    HW2 6717   2.715   0.727   4.526
 1940SOL     OW 6718   6.104   6.845   6.829
 1940SOL    HW1 6719   6.029   6.894   6.785
 1940SOL    HW2 6720   6.184   6.846   6.770
 1941SOL     OW 6721   4.322   4.929   2.852
 1941SOL    HW1 6722   4.335   5.018   2.896
 1941SOL    HW2 6723   4.228   4.899   2.867
 1942SOL     OW 6724   0.067   3.151   2.659
 1942SOL    HW1 6725   0.027   3.241   2.639
 1942SOL    HW2 6726   0.089   3.146   2.757
 1943SOL     OW 6727   3.177   5.265   3.229
 1943SOL    HW1 6728   3.147   5.320   3.307
 1943SOL    HW2 6729   3.274   5.243   3.240
 1944SOL     OW 6730   6.831   6.282   2.065
 1944SOL    HW1 6731   6.779   6.197   2.059
 1944SOL    HW2 6732   6.799   6.335   2.144
 1945SOL     OW 6733   2.859   4.734   2.903
 1945SOL    HW1 6734   2.871   4.818   2.956
 1945SOL    HW2 6735   2.868   4.655   2.963
 1946SOL     OW 6736   1.450   6.741   6.926
 1946SOL    HW1 6737   1.527   6.769   6.869
 1946SOL    HW2 6738   1.373   6.804   6.910
 1947SOL     OW 6739   4.354   0.695   4.068
 1947SOL    HW1 6740   4.273   0.674   4.124
 1947SOL    HW2 6741   4.381   0.790   4.081
 1948SOL     OW 6742   6.370   2.929   5.098
 1948SOL    HW1 6743   6.464   2.894   5.094
 1948SOL    HW2 6744   6.307   2.853   5.115
 1949SOL     OW 6745   4.937   3.451   0.025
 1949SOL    HW1 6746   5.019   3.455   0.082
 1949SOL    HW2 6747   4.928   3.360   7.001
 1950SOL     OW 6748   2.991   5.267   0.751
 1950SOL    HW1 6749   3.074   5.269   0.805
 1950SOL    HW2 6750   2.989   5.346   0.689
 1951SOL     OW 6751   6.263   2.708   6.936
 1951SOL    HW1 6752   6.262   2.671   0.013
 1951SOL    HW2 6753   6.345   2.764   6.923
 1952SOL     OW 6754   2.947   3.505   3.930
 1952SOL    HW1 6755   2.964   3.527   4.026
 1952SOL    HW2 6756   2.874   3.438   3.924
 1953SOL     OW 6757   0.614   2.393   4.575
 1953SOL    HW1 6758   0.582   2.320   4.515
 1953SOL    HW2 6759   0.630   2.357   4.667
 1954SOL     OW 6760   2.539   2.001   4.239
 1954SOL    HW1 6761   2.596   2.051   4.304
 1954SOL    HW2 6762   2.454   2.051   4.224
 1955SOL     OW 6763   6.425   5.833   3.026
 1955SOL    HW1 6764   6.506   5.859   3.078
 1955SOL    HW2 6765   6.346   5.884   3.062
 1956SOL     OW 6766   3.999   5.909   2.894
 1956SOL    HW1 6767   3.933   5.886   2.823
 1956SOL    HW2 6768   3.961   5.888   2.984
 1957SOL     OW 6769   2.362   6.446   5.036
 1957SOL    HW1 6770   2.426   6.369   5.024
 1957SOL    HW2 6771   2.397   6.507   5.107
 1958SOL     OW 6772   4.055   3.814   6.492
 1958SOL    HW1 6773   4.096   3.866   6.417
 1958SOL    HW2 6774   3.955   3.812   6.480
 1959SOL     OW 6775   2.578   0.358   0.823
 1959SOL    HW1 6776   2.499   0.417   0.842
 1959SOL    HW2 6777   2.662   0.407   0.846
 1960SOL     OW 6778   5.119   5.347   2.879
 1960SOL    HW1 6779   5.070   5.270   2.918
 1960SOL    HW2 6780   5.057   5.404   2.826
 1961SOL     OW 6781   5.400   4.505   5.598
 1961SOL    HW1 6782   5.484   4.451   5.586
 1961SOL    HW2 6783   5.418   4.599   5.571
 1962SOL     OW 6784   0.262   6.520   3.955
 1962SOL    HW1 6785   0.183   6.510   4.015
 1962SOL    HW2 6786   0.339   6.558   4.007
 1963SOL     OW 6787   2.640   1.570   3.885
 1963SOL    HW1 6788   2.612   1.492   3.829
 1963SOL    HW2 6789   2.609   1.556   3.979
 1964SOL     OW 6790   6.628   3.074   1.952
 1964SOL    HW1 6791   6.698   3.071   2.024
 1964SOL    HW2 6792   6.556   3.138   1.979
 1965SOL     OW 6793   2.364   0.185   3.086
 1965SOL    HW1 6794   2.398   0.176   3.179
 1965SOL    HW2 6795   2.280   0.239   3.086
 1966SOL     OW 6796   6.927   6.496   6.916
 1966SOL    HW1 6797   7.002   6.430   6.914
 1966SOL    HW2 6798   6.884   6.501   6.826
 1967SOL     OW 6799   5.934   2.654   4.716
 1967SOL    HW1 6800   6.000   2.675   4.787
 1967SOL    HW2 6801   5.949   2.714   4.637
 1968SOL     OW 6802   4.296   5.616   4.841
 1968SOL    HW1 6803   4.202   5.585   4.848
 1968SOL    HW2 6804   4.302   5.711   4.871
 1969SOL     OW 6805   6.580   0.653   1.447
 1969SOL    HW1 6806   6.528   0.738   1.459
 1969SOL    HW2 6807   6.674   0.675   1.423
 1970SOL     OW 6808   1.909   1.105   4.248
 1970SOL    HW1 6809   1.875   1.090   4.341
 1970SOL    HW2 6810   1.877   1.031   4.188
 1971SOL     OW 6811   0.009   1.419   5.851
 1971SOL    HW1 6812   6.937   1.406   5.897
 1971SOL    HW2 6813   0.027   1.517   5.839
 1972SOL     OW 6814   1.129   6.680   3.498
 1972SOL    HW1 6815   1.044   6.690   3.550
 1972SOL    HW2 6816   1.120   6.603   3.435
 1973SOL     OW 6817   2.938   3.003   0.288
 1973SOL    HW1 6818   2.888   3.077   0.335
 1973SOL    HW2 6819   2.909   2.915   0.326
 1974SOL     OW 6820   6.250   6.421   3.939
 1974SOL    HW1 6821   6.263   6.485   4.015
 1974SOL    HW2 6822   6.338   6.406   3.893
 1975SOL     OW 6823   2.814   0.188   3.742
 1975SOL    HW1 6824   2.777   0.262   3.797
 1975SOL    HW2 6825   2.881   0.225   3.677
 1976SOL     OW 6826   6.363   4.628   5.801
 1976SOL    HW1 6827   6.314   4.714   5.819
 1976SOL    HW2 6828   6.310   4.551   5.838
 1977SOL     OW 6829   3.210   2.129   5.300
 1977SOL    HW1 6830   3.205   2.210   5.242
 1977SOL    HW2 6831   3.206   2.047   5.243
 1978SOL     OW 6832   6.412   2.306   4.813
 1978SOL    HW1 6833   6.360   2.227   4.845
 1978SOL    HW2 6834   6.510   2.288   4.820
 1979SOL     OW 6835   6.634   3.839   2.575
 1979SOL    HW1 6836   6.714   3.784   2.550
 1979SOL    HW2 6837   6.641   3.929   2.533
 1980SOL     OW 6838   2.688   0.760   2.652
 1980SOL    HW1 6839   2.743   0.839   2.680
 1980SOL    HW2 6840   2.648   0.778   2.562
 1981SOL     OW 6841   5.731   3.382   2.019
 1981SOL    HW1 6842   5.779   3.365   1.933
 1981SOL    HW2 6843   5.776   3.331   2.092
 1982SOL     OW 6844   0.240   0.221   5.650
 1982SOL    HW1 6845   0.220   0.194   5.556
 1982SOL    HW2 6846   0.290   0.148   5.697
 1983SOL     OW 6847   0.992   4.770   1.600
 1983SOL    HW1 6848   1.052   4.758   1.521
 1983SOL    HW2 6849   0.904   4.726   1.582
 1984SOL     OW 6850   4.034   0.729   5.442
 1984SOL    HW1 6851   4.096   0.719   5.519
 1984SOL    HW2 6852   4.047   0.820   5.401
 1985SOL     OW 6853   1.356   5.461   1.720
 1985SOL    HW1 6854   1.295   5.384   1.740
 1985SOL    HW2 6855   1.410   5.483   1.801
 1986SOL     OW 6856   6.859   2.359   0.541
 1986SOL    HW1 6857   6.934   2.415   0.505
 1986SOL    HW2 6858   6.782   2.362   0.476
 1987SOL     OW 6859   2.725   3.508   0.312
 1987SOL    HW1 6860   2.694   3.603   0.306
 1987SOL    HW2 6861   2.818   3.506   0.349
 1988SOL     OW 6862   4.934   3.088   1.022
 1988SOL    HW1 6863   4.881   3.011   0.986
 1988SOL    HW2 6864   4.874   3.168   1.031
 1989SOL     OW 6865   2.453   2.542   3.663
 1989SOL    HW1 6866   2.524   2.473   3.649
 1989SOL    HW2 6867   2.377   2.524   3.600
 1990SOL     OW 6868   1.014   0.726   2.926
 1990SOL    HW1 6869   0.988   0.813   2.883
 1990SOL    HW2 6870   0.933   0.680   2.961
 1991SOL     OW 6871   4.650   6.152   2.700
 1991SOL    HW1 6872   4.593   6.121   2.776
 1991SOL    HW2 6873   4.684   6.073   2.650
 1992SOL     OW 6874   2.444   5.088   5.564
 1992SOL    HW1 6875   2.438   5.014   5.632
 1992SOL    HW2 6876   2.513   5.154   5.594
 1993SOL     OW 6877   3.076   3.110   4.227
 1993SOL    HW1 6878   3.128   3.044   4.282
 1993SOL    HW2 6879   3.082   3.085   4.130
 1994SOL     OW 6880   6.868   2.104   1.897
 1994SOL    HW1 6881   6.790   2.154   1.934
 1994SOL    HW2 6882   6.918   2.060   1.971
 1995SOL     OW 6883   3.594   2.228   1.553
 1995SOL    HW1 6884   3.673   2.257   1.500
 1995SOL    HW2 6885   3.559   2.305   1.607
 1996SOL     OW 6886   2.301   4.710   5.180
 1996SOL    HW1 6887   2.310   4.768   5.262
 1996SOL    HW2 6888   2.390   4.672   5.157
 1997SOL     OW 6889   5.742   6.001   4.199
 1997SOL    HW1 6890   5.767   5.969   4.291
 1997SOL    HW2 6891   5.663   5.948   4.166
 1998SOL     OW 6892   3.028   4.856   4.638
 1998SOL    HW1 6893   2.953   4.810   4.687
 1998SOL    HW2 6894   3.094   4.891   4.704
 1999SOL     OW 6895   2.576   1.677   2.126
 1999SOL    HW1 6896   2.515   1.701   2.202
 1999SOL    HW2 6897   2.660   1.730   2.134
 2000SOL     OW 6898   3.073   1.452   5.054
 2000SOL    HW1 6899   2.985   1.456   5.007
 2000SOL    HW2 6900   3.058   1.440   5.152
 2001SOL     OW 6901   2.491   2.209   6.724
 2001SOL    HW1 6902   2.453   2.286   6.775
 2001SOL    HW2 6903   2.513   2.238   6.631
 2002SOL     OW 6904   1.519   4.780   5.000
 2002SOL    HW1 6905   1.487   4.867   4.963
 2002SOL    HW2 6906   1.542   4.791   5.097
 2003SOL     OW 6907   6.218   4.001   3.628
 2003SOL    HW1 6908   6.302   3.948   3.637
 2003SOL    HW2 6909   6.144   3.955   3.678
 2004SOL     OW 6910   3.478   6.991   6.779
 2004SOL    HW1 6911   3.489   0.062   6.730
 2004SOL    HW2 6912   3.454   7.010   6.875
 2005SOL     OW 6913   2.966   6.641   5.199
 2005SOL    HW1 6914   3.007   6.678   5.282
 2005SOL    HW2 6915   2.892   6.701   5.169
 2006SOL     OW 6916   4.598   6.728   3.689
 2006SOL    HW1 6917   4.610   6.808   3.748
 2006SOL    HW2 6918   4.572   6.758   3.597
 2007SOL     OW 6919   6.770   5.826   6.917
 2007SOL    HW1 6920   6.850   5.862   6.869
 2007SOL    HW2 6921   6.800   5.776   6.998
 2008SOL     OW 6922   6.999   5.818   5.285
 2008SOL    HW1 6923   0.076   5.781   5.295
 2008SOL    HW2 6924   6.937   5.771   5.348
 2009SOL     OW 6925   1.251   0.643   6.998
 2009SOL    HW1 6926   1.204   0.578   0.042
 2009SOL    HW2 6927   1.275   0.725   0.034
 2010SOL     OW 6928   1.999   1.285   0.790
 2010SOL    HW1 6929   2.028   1.190   0.787
 2010SOL    HW2 6930   2.078   1.344   0.774
 2011SOL     OW 6931   6.361   1.748   4.533
 2011SOL    HW1 6932   6.308   1.737   4.449
 2011SOL    HW2 6933   6.312   1.807   4.597
 2012SOL     OW 6934   6.647   3.012   1.156
 2012SOL    HW1 6935   6.705   2.973   1.084
 2012SOL    HW2 6936   6.665   2.964   1.242
 2013SOL     OW 6937   3.888   2.583   1.446
 2013SOL    HW1 6938   3.861   2.553   1.538
 2013SOL    HW2 6939   3.961   2.652   1.454
 2014SOL     OW 6940   3.145   5.502   3.122
 2014SOL    HW1 6941   3.149   5.403   3.138
 2014SOL    HW2 6942   3.224   5.529   3.067
 2015SOL     OW 6943   3.280   5.301   0.282
 2015SOL    HW1 6944   3.355   5.239   0.262
 2015SOL    HW2 6945   3.217   5.257   0.347
 2016SOL     OW 6946   5.730   5.587   4.464
 2016SOL    HW1 6947   5.730   5.616   4.369
 2016SOL    HW2 6948   5.637   5.561   4.491
 2017SOL     OW 6949   2.054   4.962   2.035
 2017SOL    HW1 6950   2.097   4.888   1.984
 2017SOL    HW2 6951   2.005   5.022   1.971
 2018SOL     OW 6952   0.615   4.272   5.806
 2018SOL    HW1 6953   0.516   4.289   5.812
 2018SOL    HW2 6954   0.636   4.183   5.846
 2019SOL     OW 6955   5.272   1.054   2.569
 2019SOL    HW1 6956   5.251   1.152   2.569
 2019SOL    HW2 6957   5.236   1.012   2.486
 2020SOL     OW 6958   2.287   5.514   3.298
 2020SOL    HW1 6959   2.362   5.448   3.305
 2020SOL    HW2 6960   2.223   5.500   3.374
 2021SOL     OW 6961   1.696   5.839   2.066
 2021SOL    HW1 6962   1.692   5.826   1.967
 2021SOL    HW2 6963   1.755   5.916   2.088
 2022SOL     OW 6964   3.327   5.688   1.644
 2022SOL    HW1 6965   3.422   5.657   1.642
 2022SOL    HW2 6966   3.269   5.614   1.677
 2023SOL     OW 6967   6.648   2.205   5.603
 2023SOL    HW1 6968   6.712   2.257   5.548
 2023SOL    HW2 6969   6.580   2.267   5.643
 2024SOL     OW 6970   6.013   0.451   3.522
 2024SOL    HW1 6971   6.038   0.541   3.558
 2024SOL    HW2 6972   6.045   0.443   3.428
 2025SOL     OW 6973   6.255   1.021   1.318
 2025SOL    HW1 6974   6.340   1.073   1.313
 2025SOL    HW2 6975   6.182   1.072   1.274
 2026SOL     OW 6976   1.979   1.662   5.100
 2026SOL    HW1 6977   1.973   1.759   5.122
 2026SOL    HW2 6978   2.023   1.651   5.011
 2027SOL     OW 6979   6.917   0.086   2.110
 2027SOL    HW1 6980   6.940   0.181   2.133
 2027SOL    HW2 6981   6.864   0.085   2.025
 2028SOL     OW 6982   3.852   3.936   5.687
 2028SOL    HW1 6983   3.869   3.877   5.766
 2028SOL    HW2 6984   3.791   3.889   5.623
 2029SOL     OW 6985   1.627   0.742   0.277
 2029SOL    HW1 6986   1.672   0.672   0.221
 2029SOL    HW2 6987   1.605   0.704   0.367
 2030SOL     OW 6988   2.288   2.848   2.542
 2030SOL    HW1 6989   2.224   2.919   2.513
 2030SOL    HW2 6990   2.347   2.822   2.465
 2031SOL     OW 6991   6.164   6.935   2.432
 2031SOL    HW1 6992   6.224   6.948   2.512
 2031SOL    HW2 6993   6.202   6.986   2.354
 2032SOL     OW 6994   4.393   6.112   1.998
 2032SOL    HW1 6995   4.326   6.135   1.927
 2032SOL    HW2 6996   4.439   6.195   2.030
 2033SOL     OW 6997   0.346   5.106   6.782
 2033SOL    HW1 6998   0.253   5.119   6.817
 2033SOL    HW2 6999   0.373   5.188   6.731
 2034SOL     OW 7000   2.143   5.683   4.154
 2034SOL    HW1 7001   2.212   5.613   4.174
 2034SOL    HW2 7002   2.096   5.661   4.069
 2035SOL     OW 7003   0.607   1.896   3.458
 2035SOL    HW1 7004   0.628   1.827   3.528
 2035SOL    HW2 7005   0.611   1.987   3.498
 2036SOL     OW 7006   0.495   4.835   0.810
 2036SOL    HW1 7007   0.533   4.755   0.764
 2036SOL    HW2 7008   0.569   4.896   0.837
 2037SOL     OW 7009   0.208   2.426   6.798
 2037SOL    HW1 7010   0.213   2.452   6.894
 2037SOL    HW2 7011   0.286   2.367   6.776
 2038SOL     OW 7012   1.301   6.888   4.717
 2038SOL    HW1 7013   1.274   6.921   4.626
 2038SOL    HW2 7014   1.259   6.947   4.787
 2039SOL     OW 7015   1.186   5.257   1.826
 2039SOL    HW1 7016   1.246   5.236   1.903
 2039SOL    HW2 7017   1.106   5.307   1.859
 2040SOL     OW 7018   3.902   3.357   4.592
 2040SOL    HW1 7019   3.828   3.290   4.603
 2040SOL    HW2 7020   3.878   3.420   4.518
 2041SOL     OW 7021   4.863   2.848   0.059
 2041SOL    HW1 7022   4.795   2.864   7.003
 2041SOL    HW2 7023   4.912   2.933   0.078
 2042SOL     OW 7024   3.166   5.673   0.835
 2042SOL    HW1 7025   3.173   5.656   0.737
 2042SOL    HW2 7026   3.115   5.758   0.850
 2043SOL     OW 7027   4.345   5.986   2.257
 2043SOL    HW1 7028   4.303   5.903   2.221
 2043SOL    HW2 7029   4.429   6.005   2.205
 2044SOL     OW 7030   6.528   0.880   2.354
 2044SOL    HW1 7031   6.572   0.949   2.297
 2044SOL    HW2 7032   6.596   0.815   2.387
 2045SOL     OW 7033   3.101   6.662   6.432
 2045SOL    HW1 7034   3.171   6.730   6.454
 2045SOL    HW2 7035   3.142   6.589   6.378
 2046SOL     OW 7036   5.955   6.757   5.768
 2046SOL    HW1 7037   5.977   6.814   5.689
 2046SOL    HW2 7038   5.876   6.795   5.816
 2047SOL     OW 7039   5.005   3.470   0.579
 2047SOL    HW1 7040   4.940   3.445   0.651
 2047SOL    HW2 7041   5.094   3.489   0.620
 2048SOL     OW 7042   4.702   6.319   5.584
 2048SOL    HW1 7043   4.777   6.264   5.622
 2048SOL    HW2 7044   4.713   6.329   5.486
 2049SOL     OW 7045   5.023   5.314   6.535
 2049SOL    HW1 7046   5.033   5.306   6.634
 2049SOL    HW2 7047   4.950   5.378   6.514
 2050SOL     OW 7048   5.684   1.226   3.321
 2050SOL    HW1 7049   5.592   1.186   3.325
 2050SOL    HW2 7050   5.742   1.182   3.389
 2051SOL     OW 7051   2.975   5.564   1.010
 2051SOL    HW1 7052   3.052   5.615   0.970
 2051SOL    HW2 7053   2.915   5.533   0.937
 2052SOL     OW 7054   2.168   2.860   1.318
 2052SOL    HW1 7055   2.172   2.779   1.375
 2052SOL    HW2 7056   2.252   2.869   1.266
 2053SOL     OW 7057   4.842   1.181   1.094
 2053SOL    HW1 7058   4.923   1.234   1.069
 2053SOL    HW2 7059   4.760   1.230   1.066
 2054SOL     OW 7060   0.655   3.216   0.947
 2054SOL    HW1 7061   0.574   3.219   1.006
 2054SOL    HW2 7062   0.702   3.128   0.959
 2055SOL     OW 7063   6.478   1.229   3.865
 2055SOL    HW1 7064   6.431   1.316   3.848
 2055SOL    HW2 7065   6.536   1.238   3.946
 2056SOL     OW 7066   0.569   6.739   2.649
 2056SOL    HW1 7067   0.638   6.792   2.699
 2056SOL    HW2 7068   0.480   6.784   2.657
 2057SOL     OW 7069   4.891   3.257   4.018
 2057SOL    HW1 7070   4.882   3.181   4.083
 2057SOL    HW2 7071   4.870   3.225   3.926
 2058SOL     OW 7072   0.432   0.681   1.608
 2058SOL    HW1 7073   0.410   0.764   1.659
 2058SOL    HW2 7074   0.522   0.690   1.566
 2059SOL     OW 7075   1.550   1.081   6.624
 2059SOL    HW1 7076   1.608   1.143   6.677
 2059SOL    HW2 7077   1.456   1.085   6.658
 2060SOL     OW 7078   0.284   4.661   2.875
 2060SOL    HW1 7079   0.302   4.609   2.958
 2060SOL    HW2 7080   0.245   4.601   2.806
 2061SOL     OW 7081   1.428   0.861   0.622
 2061SOL    HW1 7082   1.381   0.919   0.555
 2061SOL    HW2 7083   1.479   0.919   0.686
 2062SOL     OW 7084   3.784   0.654   3.890
 2062SOL    HW1 7085   3.722   0.698   3.955
 2062SOL    HW2 7086   3.876   0.652   3.928
 2063SOL     OW 7087   2.376   2.286   1.125
 2063SOL    HW1 7088   2.365   2.187   1.112
 2063SOL    HW2 7089   2.312   2.318   1.194
 2064SOL     OW 7090   1.130   1.968   1.024
 2064SOL    HW1 7091   1.048   2.009   0.985
 2064SOL    HW2 7092   1.153   2.015   1.109
 2065SOL     OW 7093   6.952   2.892   2.666
 2065SOL    HW1 7094   6.878   2.900   2.599
 2065SOL    HW2 7095   6.969   2.982   2.707
 2066SOL     OW 7096   1.392   6.062   3.007
 2066SOL    HW1 7097   1.415   6.126   2.933
 2066SOL    HW2 7098   1.381   5.970   2.970
 2067SOL     OW 7099   0.100   0.587   0.505
 2067SOL    HW1 7100   0.012   0.615   0.544
 2067SOL    HW2 7101   0.169   0.586   0.577
 2068SOL     OW 7102   2.240   2.107   5.345
 2068SOL    HW1 7103   2.146   2.134   5.367
 2068SOL    HW2 7104   2.241   2.012   5.313
 2069SOL     OW 7105   1.169   2.118   2.394
 2069SOL    HW1 7106   1.121   2.109   2.306
 2069SOL    HW2 7107   1.117   2.071   2.465
 2070SOL     OW 7108   0.121   1.563   2.612
 2070SOL    HW1 7109   0.036   1.514   2.595
 2070SOL    HW2 7110   0.177   1.512   2.677
 2071SOL     OW 7111   2.689   6.303   5.327
 2071SOL    HW1 7112   2.770   6.284   5.381
 2071SOL    HW2 7113   2.625   6.358   5.381
 2072SOL     OW 7114   5.289   4.900   2.655
 2072SOL    HW1 7115   5.192   4.902   2.632
 2072SOL    HW2 7116   5.324   4.993   2.662
 2073SOL     OW 7117   3.065   6.776   5.422
 2073SOL    HW1 7118   3.155   6.786   5.464
 2073SOL    HW2 7119   3.037   6.862   5.381
 2074SOL     OW 7120   5.631   2.415   3.013
 2074SOL    HW1 7121   5.721   2.379   2.988
 2074SOL    HW2 7122   5.586   2.452   2.931
 2075SOL     OW 7123   4.116   3.109   5.939
 2075SOL    HW1 7124   4.100   3.139   5.845
 2075SOL    HW2 7125   4.029   3.103   5.987
 2076SOL     OW 7126   5.047   0.197   0.372
 2076SOL    HW1 7127   5.127   0.144   0.343
 2076SOL    HW2 7128   5.004   0.239   0.292
 2077SOL     OW 7129   4.380   0.983   4.087
 2077SOL    HW1 7130   4.303   0.991   4.152
 2077SOL    HW2 7131   4.464   1.016   4.131
 2078SOL     OW 7132   4.219   6.058   3.831
 2078SOL    HW1 7133   4.212   6.084   3.927
 2078SOL    HW2 7134   4.207   5.959   3.822
 2079SOL     OW 7135   6.155   6.789   3.667
 2079SOL    HW1 7136   6.198   6.821   3.751
 2079SOL    HW2 7137   6.170   6.690   3.658
 2080SOL     OW 7138   2.277   2.032   3.490
 2080SOL    HW1 7139   2.374   2.053   3.505
 2080SOL    HW2 7140   2.231   2.024   3.579
 2081SOL     OW 7141   0.960   6.232   3.992
 2081SOL    HW1 7142   1.031   6.191   4.049
 2081SOL    HW2 7143   0.999   6.303   3.934
 2082SOL     OW 7144   5.127   0.947   2.362
 2082SOL    HW1 7145   5.044   0.947   2.417
 2082SOL    HW2 7146   5.128   1.028   2.304
 2083SOL     OW 7147   3.937   4.169   6.243
 2083SOL    HW1 7148   3.921   4.160   6.342
 2083SOL    HW2 7149   3.858   4.134   6.193
 2084SOL     OW 7150   6.888   2.793   2.950
 2084SOL    HW1 7151   6.914   2.830   2.861
 2084SOL    HW2 7152   6.967   2.751   2.994
 2085SOL     OW 7153   6.092   6.775   0.059
 2085SOL    HW1 7154   6.102   6.790   6.976
 2085SOL    HW2 7155   6.034   6.847   0.097
 2086SOL     OW 7156   3.533   4.672   0.147
 2086SOL    HW1 7157   3.632   4.683   0.137
 2086SOL    HW2 7158   3.507   4.578   0.122
 2087SOL     OW 7159   5.272   5.645   3.722
 2087SOL    HW1 7160   5.336   5.581   3.681
 2087SOL    HW2 7161   5.179   5.609   3.713
 2088SOL     OW 7162   2.345   6.748   1.666
 2088SOL    HW1 7163   2.295   6.748   1.753
 2088SOL    HW2 7164   2.438   6.715   1.682
 2089SOL     OW 7165   2.434   1.180   6.698
 2089SOL    HW1 7166   2.450   1.119   6.775
 2089SOL    HW2 7167   2.519   1.228   6.675
 2090SOL     OW 7168   3.308   3.748   4.063
 2090SOL    HW1 7169   3.298   3.658   4.021
 2090SOL    HW2 7170   3.221   3.797   4.056
 2091SOL     OW 7171   2.941   4.138   0.759
 2091SOL    HW1 7172   2.944   4.113   0.856
 2091SOL    HW2 7173   2.847   4.163   0.734
 2092SOL     OW 7174   6.911   6.560   1.381
 2092SOL    HW1 7175   7.009   6.575   1.385
 2092SOL    HW2 7176   6.863   6.644   1.409
 2093SOL     OW 7177   1.491   1.750   1.686
 2093SOL    HW1 7178   1.518   1.767   1.781
 2093SOL    HW2 7179   1.573   1.751   1.628
 2094SOL     OW 7180   6.492   0.284   1.885
 2094SOL    HW1 7181   6.431   0.302   1.962
 2094SOL    HW2 7182   6.437   0.272   1.802
 2095SOL     OW 7183   6.290   4.635   5.212
 2095SOL    HW1 7184   6.344   4.709   5.174
 2095SOL    HW2 7185   6.281   4.647   5.311
 2096SOL     OW 7186   4.967   4.464   3.663
 2096SOL    HW1 7187   4.936   4.544   3.613
 2096SOL    HW2 7188   5.012   4.492   3.748
 2097SOL     OW 7189   6.633   3.641   5.870
 2097SOL    HW1 7190   6.715   3.583   5.862
 2097SOL    HW2 7191   6.557   3.586   5.903
 2098SOL     OW 7192   4.183   0.365   3.998
 2098SOL    HW1 7193   4.088   0.390   3.976
 2098SOL    HW2 7194   4.213   0.417   4.078
 2099SOL     OW 7195   2.775   1.904   3.549
 2099SOL    HW1 7196   2.727   1.835   3.495
 2099SOL    HW2 7197   2.831   1.960   3.489
 2100SOL     OW 7198   4.334   4.812   6.283
 2100SOL    HW1 7199   4.294   4.727   6.316
 2100SOL    HW2 7200   4.434   4.805   6.286
 2101SOL     OW 7201   6.217   0.042   2.191
 2101SOL    HW1 7202   6.225   0.135   2.228
 2101SOL    HW2 7203   6.286   0.029   2.120
 2102SOL     OW 7204   0.316   5.328   1.141
 2102SOL    HW1 7205   0.397   5.372   1.102
 2102SOL    HW2 7206   0.342   5.275   1.222
 2103SOL     OW 7207   3.600   3.589   6.414
 2103SOL    HW1 7208   3.684   3.563   6.366
 2103SOL    HW2 7209   3.549   3.654   6.358
 2104SOL     OW 7210   1.375   4.656   5.813
 2104SOL    HW1 7211   1.429   4.579   5.780
 2104SOL    HW2 7212   1.278   4.635   5.802
 2105SOL     OW 7213   5.721   6.064   2.483
 2105SOL    HW1 7214   5.648   5.996   2.478
 2105SOL    HW2 7215   5.783   6.042   2.558
 2106SOL     OW 7216   5.819   6.306   6.312
 2106SOL    HW1 7217   5.798   6.390   6.364
 2106SOL    HW2 7218   5.911   6.275   6.334
 2107SOL     OW 7219   2.671   5.126   0.320
 2107SOL    HW1 7220   2.764   5.131   0.283
 2107SOL    HW2 7221   2.675   5.123   0.420
 2108SOL     OW 7222   5.821   4.493   6.265
 2108SOL    HW1 7223   5.881   4.482   6.186
 2108SOL    HW2 7224   5.831   4.586   6.301
 2109SOL     OW 7225   5.144   5.143   2.533
 2109SOL    HW1 7226   5.104   5.233   2.546
 2109SOL    HW2 7227   5.228   5.150   2.479
 2110SOL     OW 7228   1.159   4.712   5.578
 2110SOL    HW1 7229   1.255   4.686   5.586
 2110SOL    HW2 7230   1.139   4.787   5.641
 2111SOL     OW 7231   2.015   1.910   6.690
 2111SOL    HW1 7232   2.032   1.826   6.639
 2111SOL    HW2 7233   2.059   1.987   6.645
 2112SOL     OW 7234   5.029   4.218   0.794
 2112SOL    HW1 7235   4.972   4.288   0.838
 2112SOL    HW2 7236   5.121   4.255   0.780
 2113SOL     OW 7237   6.718   1.473   3.266
 2113SOL    HW1 7238   6.641   1.483   3.328
 2113SOL    HW2 7239   6.779   1.552   3.275
 2114SOL     OW 7240   1.721   3.403   0.080
 2114SOL    HW1 7241   1.678   3.459   0.150
 2114SOL    HW2 7242   1.731   3.458   7.012
 2115SOL     OW 7243   4.297   5.448   2.144
 2115SOL    HW1 7244   4.243   5.459   2.061
 2115SOL    HW2 7245   4.353   5.365   2.136
 2116SOL     OW 7246   0.705   3.702   4.050
 2116SOL    HW1 7247   0.787   3.668   4.006
 2116SOL    HW2 7248   0.667   3.630   4.110
 2117SOL     OW 7249   0.000   6.004   5.746
 2117SOL    HW1 7250   6.954   6.055   5.687
 2117SOL    HW2 7251   0.018   6.057   5.829
 2118SOL     OW 7252   0.012   3.316   2.146
 2118SOL    HW1 7253   0.102   3.331   2.103
 2118SOL    HW2 7254   6.985   3.235   2.107
 2119SOL     OW 7255   4.235   6.253   0.410
 2119SOL    HW1 7256   4.294   6.256   0.330
 2119SOL    HW2 7257   4.264   6.324   0.475
 2120SOL     OW 7258   6.955   3.986   2.022
 2120SOL    HW1 7259   0.037   4.006   2.022
 2120SOL    HW2 7260   6.904   4.070   2.040
 2121SOL     OW 7261   0.695   4.040   5.180
 2121SOL    HW1 7262   0.754   4.017   5.102
 2121SOL    HW2 7263   0.751   4.050   5.262
 2122SOL     OW 7264   3.903   5.017   5.417
 2122SOL    HW1 7265   3.869   5.088   5.355
 2122SOL    HW2 7266   3.849   4.934   5.405
 2123SOL     OW 7267   4.590   5.547   3.548
 2123SOL    HW1 7268   4.626   5.467   3.597
 2123SOL    HW2 7269   4.661   5.584   3.487
 2124SOL     OW 7270   2.559   2.350   1.644
 2124SOL    HW1 7271   2.633   2.347   1.577
 2124SOL    HW2 7272   2.553   2.261   1.690
 2125SOL     OW 7273   5.176   6.433   0.547
 2125SOL    HW1 7274   5.200   6.371   0.622
 2125SOL    HW2 7275   5.123   6.382   0.479
 2126SOL     OW 7276   3.181   1.465   1.591
 2126SOL    HW1 7277   3.127   1.434   1.513
 2126SOL    HW2 7278   3.120   1.491   1.666
 2127SOL     OW 7279   5.543   2.901   4.524
 2127SOL    HW1 7280   5.500   2.910   4.435
 2127SOL    HW2 7281   5.491   2.836   4.580
 2128SOL     OW 7282   0.586   3.503   4.633
 2128SOL    HW1 7283   0.651   3.537   4.566
 2128SOL    HW2 7284   0.573   3.404   4.620
 2129SOL     OW 7285   4.496   2.399   5.279
 2129SOL    HW1 7286   4.496   2.498   5.285
 2129SOL    HW2 7287   4.590   2.366   5.266
 2130SOL     OW 7288   4.877   6.848   3.567
 2130SOL    HW1 7289   4.779   6.860   3.587
 2130SOL    HW2 7290   4.904   6.909   3.492
 2131SOL     OW 7291   5.021   1.909   6.487
 2131SOL    HW1 7292   5.086   1.902   6.563
 2131SOL    HW2 7293   5.025   2.001   6.448
 2132SOL     OW 7294   1.578   3.527   1.127
 2132SOL    HW1 7295   1.567   3.557   1.033
 2132SOL    HW2 7296   1.647   3.455   1.132
 2133SOL     OW 7297   2.172   4.289   6.347
 2133SOL    HW1 7298   2.187   4.356   6.420
 2133SOL    HW2 7299   2.220   4.204   6.370
 2134SOL     OW 7300   6.686   6.701   0.280
 2134SOL    HW1 7301   6.668   6.640   0.203
 2134SOL    HW2 7302   6.777   6.683   0.316
 2135SOL     OW 7303   6.566   5.379   5.656
 2135SOL    HW1 7304   6.540   5.371   5.752
 2135SOL    HW2 7305   6.655   5.426   5.649
 2136SOL     OW 7306   1.317   5.555   6.754
 2136SOL    HW1 7307   1.353   5.639   6.714
 2136SOL    HW2 7308   1.239   5.576   6.813
 2137SOL     OW 7309   1.324   6.654   3.861
 2137SOL    HW1 7310   1.302   6.739   3.815
 2137SOL    HW2 7311   1.314   6.578   3.797
 2138SOL     OW 7312   5.144   2.101   1.488
 2138SOL    HW1 7313   5.144   2.116   1.389
 2138SOL    HW2 7314   5.225   2.049   1.513
 2139SOL     OW 7315   3.094   6.011   5.503
 2139SOL    HW1 7316   3.022   5.974   5.445
 2139SOL    HW2 7317   3.106   5.953   5.583
 2140SOL     OW 7318   2.063   2.163   3.361
 2140SOL    HW1 7319   2.154   2.191   3.329
 2140SOL    HW2 7320   2.072   2.104   3.441
 2141SOL     OW 7321   6.743   3.076   3.451
 2141SOL    HW1 7322   6.843   3.068   3.453
 2141SOL    HW2 7323   6.702   2.985   3.463
 2142SOL     OW 7324   1.699   2.421   2.200
 2142SOL    HW1 7325   1.745   2.469   2.274
 2142SOL    HW2 7326   1.608   2.461   2.186
 2143SOL     OW 7327   6.627   5.798   5.334
 2143SOL    HW1 7328   6.666   5.785   5.425
 2143SOL    HW2 7329   6.532   5.827   5.342
 2144SOL     OW 7330   6.459   4.523   2.660
 2144SOL    HW1 7331   6.461   4.522   2.560
 2144SOL    HW2 7332   6.382   4.469   2.692
 2145SOL     OW 7333   4.287   1.333   3.209
 2145SOL    HW1 7334   4.385   1.353   3.208
 2145SOL    HW2 7335   4.235   1.418   3.198
 2146SOL     OW 7336   1.762   1.625   6.725
 2146SOL    HW1 7337   1.832   1.594   6.790
 2146SOL    HW2 7338   1.746   1.723   6.737
 2147SOL     OW 7339   6.168   6.729   5.237
 2147SOL    HW1 7340   6.142   6.826   5.242
 2147SOL    HW2 7341   6.135   6.691   5.150
 2148SOL     OW 7342   1.336   2.365   5.005
 2148SOL    HW1 7343   1.424   2.362   5.052
 2148SOL    HW2 7344   1.302   2.271   4.992
 2149SOL     OW 7345   6.957   6.634   0.332
 2149SOL    HW1 7346   6.965   6.542   0.294
 2149SOL    HW2 7347   0.021   6.688   0.305
 2150SOL     OW 7348   1.685   2.544   0.630
 2150SOL    HW1 7349   1.698   2.576   0.535
 2150SOL    HW2 7350   1.736   2.459   0.643
 2151SOL     OW 7351   1.019   4.746   6.632
 2151SOL    HW1 7352   0.991   4.706   6.545
 2151SOL    HW2 7353   1.104   4.704   6.663
 2152SOL     OW 7354   5.262   6.074   4.308
 2152SOL    HW1 7355   5.235   5.978   4.307
 2152SOL    HW2 7356   5.358   6.082   4.280
 2153SOL     OW 7357   4.780   6.799   4.219
 2153SOL    HW1 7358   4.848   6.858   4.175
 2153SOL    HW2 7359   4.780   6.709   4.175
 2154SOL     OW 7360   2.703   6.884   2.600
 2154SOL    HW1 7361   2.745   6.964   2.643
 2154SOL    HW2 7362   2.675   6.819   2.670
 2155SOL     OW 7363   4.637   0.623   1.340
 2155SOL    HW1 7364   4.708   0.603   1.408
 2155SOL    HW2 7365   4.671   0.601   1.249
 2156SOL     OW 7366   6.012   2.006   5.285
 2156SOL    HW1 7367   5.989   1.914   5.318
 2156SOL    HW2 7368   5.953   2.030   5.209
 2157SOL     OW 7369   4.075   6.320   3.756
 2157SOL    HW1 7370   4.119   6.315   3.667
 2157SOL    HW2 7371   4.104   6.242   3.812
 2158SOL     OW 7372   2.750   6.958   0.561
 2158SOL    HW1 7373   2.680   6.894   0.593
 2158SOL    HW2 7374   2.791   6.923   0.477
 2159SOL     OW 7375   0.091   1.427   5.596
 2159SOL    HW1 7376   0.056   1.421   5.689
 2159SOL    HW2 7377   0.023   1.392   5.532
 2160SOL     OW 7378   5.374   6.935   6.879
 2160SOL    HW1 7379   5.353   6.862   6.944
 2160SOL    HW2 7380   5.354   6.904   6.786
 2161SOL     OW 7381   1.703   3.856   0.711
 2161SOL    HW1 7382   1.792   3.811   0.696
 2161SOL    HW2 7383   1.700   3.941   0.659
 2162SOL     OW 7384   1.707   0.153   0.387
 2162SOL    HW1 7385   1.646   0.074   0.384
 2162SOL    HW2 7386   1.699   0.204   0.301
 2163SOL     OW 7387   0.915   2.703   4.079
 2163SOL    HW1 7388   0.890   2.789   4.123
 2163SOL    HW2 7389   0.890   2.626   4.139
 2164SOL     OW 7390   2.343   4.218   1.963
 2164SOL    HW1 7391   2.289   4.272   2.028
 2164SOL    HW2 7392   2.390   4.280   1.899
 2165SOL     OW 7393   5.946   1.157   5.332
 2165SOL    HW1 7394   6.004   1.113   5.263
 2165SOL    HW2 7395   5.867   1.199   5.287
 2166SOL     OW 7396   0.638   2.557   1.509
 2166SOL    HW1 7397   0.606   2.543   1.415
 2166SOL    HW2 7398   0.689   2.643   1.514
 2167SOL     OW 7399   1.325   2.492   3.158
 2167SOL    HW1 7400   1.350   2.415   3.218
 2167SOL    HW2 7401   1.335   2.463   3.063
 2168SOL     OW 7402   1.743   2.432   3.282
 2168SOL    HW1 7403   1.760   2.490   3.203
 2168SOL    HW2 7404   1.757   2.336   3.258
 2169SOL     OW 7405   6.816   0.107   1.115
 2169SOL    HW1 7406   6.889   0.039   1.126
 2169SOL    HW2 7407   6.770   0.121   1.202
 2170SOL     OW 7408   1.809   2.785   6.704
 2170SOL    HW1 7409   1.773   2.696   6.675
 2170SOL    HW2 7410   1.909   2.781   6.706
 2171SOL     OW 7411   0.088   6.068   1.524
 2171SOL    HW1 7412   0.080   6.022   1.612
 2171SOL    HW2 7413   0.104   6.166   1.540
 2172SOL     OW 7414   2.613   2.407   4.753
 2172SOL    HW1 7415   2.535   2.375   4.806
 2172SOL    HW2 7416   2.697   2.395   4.806
 2173SOL     OW 7417   5.032   0.399   4.595
 2173SOL    HW1 7418   5.048   0.332   4.667
 2173SOL    HW2 7419   4.955   0.369   4.538
 2174SOL     OW 7420   5.305   0.460   6.119
 2174SOL    HW1 7421   5.287   0.365   6.146
 2174SOL    HW2 7422   5.254   0.480   6.035
 2175SOL     OW 7423   3.852   2.885   5.516
 2175SOL    HW1 7424   3.785   2.829   5.467
 2175SOL    HW2 7425   3.833   2.982   5.499
 2176SOL     OW 7426   6.581   1.967   2.882
 2176SOL    HW1 7427   6.570   1.948   2.785
 2176SOL    HW2 7428   6.673   2.003   2.899
 2177SOL     OW 7429   0.417   0.888   5.802
 2177SOL    HW1 7430   0.386   0.810   5.856
 2177SOL    HW2 7431   0.487   0.859   5.737
 2178SOL     OW 7432   1.527   2.621   2.350
 2178SOL    HW1 7433   1.620   2.652   2.331
 2178SOL    HW2 7434   1.523   2.578   2.440
 2179SOL     OW 7435   1.209   4.263   0.055
 2179SOL    HW1 7436   1.221   4.358   0.028
 2179SOL    HW2 7437   1.249   4.249   0.146
 2180SOL     OW 7438   0.513   5.163   2.692
 2180SOL    HW1 7439   0.475   5.153   2.600
 2180SOL    HW2 7440   0.540   5.257   2.707
 2181SOL     OW 7441   4.219   4.849   4.336
 2181SOL    HW1 7442   4.199   4.831   4.240
 2181SOL    HW2 7443   4.303   4.801   4.362
 2182SOL     OW 7444   0.170   6.576   1.392
 2182SOL    HW1 7445   0.213   6.587   1.482
 2182SOL    HW2 7446   0.241   6.560   1.323
 2183SOL     OW 7447   3.627   3.265   6.738
 2183SOL    HW1 7448   3.588   3.232   6.824
 2183SOL    HW2 7449   3.566   3.243   6.663
 2184SOL     OW 7450   6.293   1.651   7.001
 2184SOL    HW1 7451   6.281   1.696   0.074
 2184SOL    HW2 7452   6.312   1.554   7.015
 2185SOL     OW 7453   0.706   1.550   6.267
 2185SOL    HW1 7454   0.765   1.472   6.289
 2185SOL    HW2 7455   0.671   1.540   6.174
 2186SOL     OW 7456   6.886   6.393   5.358
 2186SOL    HW1 7457   6.873   6.421   5.263
 2186SOL    HW2 7458   6.919   6.299   5.361
 2187SOL     OW 7459   5.923   4.480   1.722
 2187SOL    HW1 7460   6.018   4.465   1.695
 2187SOL    HW2 7461   5.882   4.393   1.751
 2188SOL     OW 7462   3.062   0.937   0.938
 2188SOL    HW1 7463   3.047   0.929   1.036
 2188SOL    HW2 7464   3.009   0.867   0.890
 2189SOL     OW 7465   2.061   0.759   2.361
 2189SOL    HW1 7466   2.099   0.847   2.332
 2189SOL    HW2 7467   1.997   0.774   2.436
 2190SOL     OW 7468   6.688   4.819   2.224
 2190SOL    HW1 7469   6.617   4.876   2.265
 2190SOL    HW2 7470   6.696   4.839   2.127
 2191SOL     OW 7471   3.814   6.469   6.821
 2191SOL    HW1 7472   3.870   6.417   6.886
 2191SOL    HW2 7473   3.719   6.471   6.853
 2192SOL     OW 7474   4.583   2.119   1.823
 2192SOL    HW1 7475   4.652   2.191   1.829
 2192SOL    HW2 7476   4.495   2.160   1.799
 2193SOL     OW 7477   1.615   0.726   4.749
 2193SOL    HW1 7478   1.656   0.801   4.801
 2193SOL    HW2 7479   1.687   0.672   4.705
 2194SOL     OW 7480   0.977   4.602   5.181
 2194SOL    HW1 7481   0.911   4.674   5.161
 2194SOL    HW2 7482   0.929   4.517   5.199
 2195SOL     OW 7483   0.273   3.675   5.762
 2195SOL    HW1 7484   0.369   3.681   5.788
 2195SOL    HW2 7485   0.248   3.755   5.708
 2196SOL     OW 7486   4.099   1.080   6.834
 2196SOL    HW1 7487   4.011   1.037   6.856
 2196SOL    HW2 7488   4.084   1.159   6.776
 2197SOL     OW 7489   4.024   5.189   6.675
 2197SOL    HW1 7490   4.018   5.098   6.715
 2197SOL    HW2 7491   4.053   5.254   6.746
 2198SOL     OW 7492   1.788   1.372   6.270
 2198SOL    HW1 7493   1.766   1.275   6.272
 2198SOL    HW2 7494   1.720   1.420   6.214
 2199SOL     OW 7495   4.049   6.571   3.904
 2199SOL    HW1 7496   4.112   6.562   3.981
 2199SOL    HW2 7497   4.055   6.489   3.846
 2200SOL     OW 7498   2.621   2.226   4.550
 2200SOL    HW1 7499   2.537   2.176   4.571
 2200SOL    HW2 7500   2.631   2.302   4.614
 2201SOL     OW 7501   5.805   3.453   4.905
 2201SOL    HW1 7502   5.716   3.421   4.938
 2201SOL    HW2 7503   5.816   3.549   4.930
 2202SOL     OW 7504   3.895   0.039   3.994
 2202SOL    HW1 7505   3.903   7.011   4.084
 2202SOL    HW2 7506   3.982   0.034   3.946
 2203SOL     OW 7507   2.024   5.534   1.028
 2203SOL    HW1 7508   2.076   5.479   0.962
 2203SOL    HW2 7509   1.999   5.476   1.106
 2204SOL     OW 7510   5.132   2.882   0.770
 2204SOL    HW1 7511   5.066   2.952   0.744
 2204SOL    HW2 7512   5.096   2.792   0.745
 2205SOL     OW 7513   5.710   5.538   1.141
 2205SOL    HW1 7514   5.668   5.629   1.140
 2205SOL    HW2 7515   5.808   5.547   1.159
 2206SOL     OW 7516   3.644   2.783   5.334
 2206SOL    HW1 7517   3.586   2.753   5.410
 2206SOL    HW2 7518   3.598   2.857   5.284
 2207SOL     OW 7519   4.523   5.432   1.936
 2207SOL    HW1 7520   4.617   5.397   1.941
 2207SOL    HW2 7521   4.521   5.517   1.884
 2208SOL     OW 7522   6.530   6.424   3.182
 2208SOL    HW1 7523   6.519   6.329   3.154
 2208SOL    HW2 7524   6.534   6.430   3.281
 2209SOL     OW 7525   2.545   5.424   3.699
 2209SOL    HW1 7526   2.447   5.402   3.697
 2209SOL    HW2 7527   2.596   5.353   3.651
 2210SOL     OW 7528   5.178   6.511   2.362
 2210SOL    HW1 7529   5.162   6.541   2.456
 2210SOL    HW2 7530   5.207   6.589   2.307
 2211SOL     OW 7531   1.246   1.111   1.636
 2211SOL    HW1 7532   1.188   1.090   1.715
 2211SOL    HW2 7533   1.319   1.043   1.630
 2212SOL     OW 7534   2.945   5.974   5.871
 2212SOL    HW1 7535   2.937   6.057   5.815
 2212SOL    HW2 7536   3.010   5.911   5.828
 2213SOL     OW 7537   3.616   1.271   4.539
 2213SOL    HW1 7538   3.553   1.282   4.616
 2213SOL    HW2 7539   3.651   1.360   4.511
 2214SOL     OW 7540   4.248   4.585   6.379
 2214SOL    HW1 7541   4.156   4.549   6.368
 2214SOL    HW2 7542   4.296   4.533   6.449
 2215SOL     OW 7543   5.472   5.611   6.806
 2215SOL    HW1 7544   5.548   5.546   6.799
 2215SOL    HW2 7545   5.506   5.703   6.790
 2216SOL     OW 7546   0.159   5.925   0.252
 2216SOL    HW1 7547   0.062   5.899   0.260
 2216SOL    HW2 7548   0.168   6.003   0.190
 2217SOL     OW 7549   4.341   1.467   3.688
 2217SOL    HW1 7550   4.379   1.408   3.759
 2217SOL    HW2 7551   4.298   1.411   3.617
 2218SOL     OW 7552   6.281   5.606   5.350
 2218SOL    HW1 7553   6.264   5.588   5.446
 2218SOL    HW2 7554   6.225   5.544   5.294
 2219SOL     OW 7555   5.690   1.974   0.549
 2219SOL    HW1 7556   5.770   1.929   0.588
 2219SOL    HW2 7557   5.709   2.001   0.454
 2220SOL     OW 7558   6.785   6.514   4.152
 2220SOL    HW1 7559   6.789   6.470   4.062
 2220SOL    HW2 7560   6.689   6.522   4.180
 2221SOL     OW 7561   5.477   0.419   4.246
 2221SOL    HW1 7562   5.389   0.372   4.254
 2221SOL    HW2 7563   5.526   0.384   4.166
 2222SOL     OW 7564   3.575   1.264   3.494
 2222SOL    HW1 7565   3.567   1.218   3.406
 2222SOL    HW2 7566   3.548   1.360   3.484
 2223SOL     OW 7567   0.872   0.219   5.602
 2223SOL    HW1 7568   0.793   0.232   5.542
 2223SOL    HW2 7569   0.950   0.185   5.550
 2224SOL     OW 7570   5.492   4.317   6.729
 2224SOL    HW1 7571   5.550   4.263   6.791
 2224SOL    HW2 7572   5.466   4.260   6.651
 2225SOL     OW 7573   6.646   6.705   1.139
 2225SOL    HW1 7574   6.721   6.691   1.075
 2225SOL    HW2 7575   6.627   6.803   1.148
 2226SOL     OW 7576   2.618   3.372   0.086
 2226SOL    HW1 7577   2.685   3.323   0.031
 2226SOL    HW2 7578   2.665   3.420   0.161
 2227SOL     OW 7579   4.303   1.749   1.907
 2227SOL    HW1 7580   4.402   1.755   1.915
 2227SOL    HW2 7581   4.262   1.839   1.922
 2228SOL     OW 7582   5.057   6.830   6.672
 2228SOL    HW1 7583   5.034   6.756   6.736
 2228SOL    HW2 7584   5.020   6.808   6.582
 2229SOL     OW 7585   2.876   3.448   4.501
 2229SOL    HW1 7586   2.883   3.547   4.514
 2229SOL    HW2 7587   2.794   3.414   4.546
 2230SOL     OW 7588   6.687   1.029   6.181
 2230SOL    HW1 7589   6.604   1.041   6.235
 2230SOL    HW2 7590   6.767   1.051   6.238
 2231SOL     OW 7591   1.018   6.804   6.417
 2231SOL    HW1 7592   1.043   6.735   6.484
 2231SOL    HW2 7593   1.079   6.883   6.426
 2232SOL     OW 7594   1.536   0.817   6.439
 2232SOL    HW1 7595   1.534   0.888   6.509
 2232SOL    HW2 7596   1.577   0.853   6.355
 2233SOL     OW 7597   2.831   5.046   0.817
 2233SOL    HW1 7598   2.884   5.128   0.797
 2233SOL    HW2 7599   2.891   4.966   0.812
 2234SOL     OW 7600   4.823   2.336   1.411
 2234SOL    HW1 7601   4.835   2.429   1.378
 2234SOL    HW2 7602   4.731   2.303   1.388
 2235SOL     OW 7603   0.790   2.072   3.141
 2235SOL    HW1 7604   0.823   1.987   3.183
 2235SOL    HW2 7605   0.690   2.075   3.148
 2236SOL     OW 7606   2.646   4.790   5.129
 2236SOL    HW1 7607   2.620   4.742   5.213
 2236SOL    HW2 7608   2.726   4.745   5.089
 2237SOL     OW 7609   5.725   6.613   6.166
 2237SOL    HW1 7610   5.644   6.561   6.138
 2237SOL    HW2 7611   5.713   6.709   6.140
 2238SOL     OW 7612   5.622   3.863   2.292
 2238SOL    HW1 7613   5.585   3.799   2.225
 2238SOL    HW2 7614   5.679   3.931   2.246
 2239SOL     OW 7615   3.972   0.046   2.862
 2239SOL    HW1 7616   4.012   0.038   2.771
 2239SOL    HW2 7617   4.018   6.998   2.924
 2240SOL     OW 7618   4.742   5.266   2.043
 2240SOL    HW1 7619   4.730   5.177   2.088
 2240SOL    HW2 7620   4.695   5.336   2.096
 2241SOL     OW 7621   0.958   1.816   3.146
 2241SOL    HW1 7622   0.872   1.779   3.180
 2241SOL    HW2 7623   0.980   1.777   3.057
 2242SOL     OW 7624   5.583   2.253   4.165
 2242SOL    HW1 7625   5.598   2.351   4.180
 2242SOL    HW2 7626   5.632   2.224   4.082
 2243SOL     OW 7627   2.447   0.429   0.191
 2243SOL    HW1 7628   2.527   0.447   0.134
 2243SOL    HW2 7629   2.368   0.477   0.151
 2244SOL     OW 7630   2.940   1.987   1.150
 2244SOL    HW1 7631   3.006   2.019   1.082
 2244SOL    HW2 7632   2.968   2.018   1.241
 2245SOL     OW 7633   0.009   0.757   0.274
 2245SOL    HW1 7634   7.003   0.725   0.366
 2245SOL    HW2 7635   0.054   0.683   0.224
 2246SOL     OW 7636   5.339   0.841   5.566
 2246SOL    HW1 7637   5.284   0.758   5.581
 2246SOL    HW2 7638   5.303   0.916   5.621
 2247SOL     OW 7639   3.153   3.169   1.719
 2247SOL    HW1 7640   3.080   3.111   1.755
 2247SOL    HW2 7641   3.145   3.260   1.760
 2248SOL     OW 7642   4.871   3.277   4.930
 2248SOL    HW1 7643   4.837   3.302   4.840
 2248SOL    HW2 7644   4.795   3.251   4.989
 2249SOL     OW 7645   2.033   6.474   3.628
 2249SOL    HW1 7646   2.014   6.376   3.638
 2249SOL    HW2 7647   2.056   6.512   3.718
 2250SOL     OW 7648   4.450   5.767   6.394
 2250SOL    HW1 7649   4.491   5.858   6.387
 2250SOL    HW2 7650   4.356   5.775   6.426
 2251SOL     OW 7651   3.712   6.800   4.666
 2251SOL    HW1 7652   3.749   6.846   4.746
 2251SOL    HW2 7653   3.613   6.789   4.677
 2252SOL     OW 7654   3.951   1.230   2.768
 2252SOL    HW1 7655   3.901   1.213   2.852
 2252SOL    HW2 7656   3.913   1.311   2.722
 2253SOL     OW 7657   1.007   3.103   1.804
 2253SOL    HW1 7658   0.967   3.115   1.894
 2253SOL    HW2 7659   1.105   3.085   1.813
 2254SOL     OW 7660   3.281   2.923   3.074
 2254SOL    HW1 7661   3.326   2.882   2.995
 2254SOL    HW2 7662   3.196   2.968   3.045
 2255SOL     OW 7663   1.616   2.568   6.262
 2255SOL    HW1 7664   1.608   2.537   6.357
 2255SOL    HW2 7665   1.526   2.562   6.217
 2256SOL     OW 7666   4.764   0.351   1.653
 2256SOL    HW1 7667   4.713   0.433   1.680
 2256SOL    HW2 7668   4.830   0.327   1.725
 2257SOL     OW 7669   0.228   0.434   6.269
 2257SOL    HW1 7670   0.223   0.492   6.188
 2257SOL    HW2 7671   0.195   0.484   6.349
 2258SOL     OW 7672   2.333   0.239   3.371
 2258SOL    HW1 7673   2.355   0.198   3.460
 2258SOL    HW2 7674   2.235   0.230   3.354
 2259SOL     OW 7675   5.813   0.003   4.954
 2259SOL    HW1 7676   5.817   0.084   5.013
 2259SOL    HW2 7677   5.837   0.029   4.860
 2260SOL     OW 7678   1.618   3.628   1.412
 2260SOL    HW1 7679   1.599   3.590   1.322
 2260SOL    HW2 7680   1.695   3.579   1.453
 2261SOL     OW 7681   5.044   4.231   6.323
 2261SOL    HW1 7682   4.973   4.288   6.364
 2261SOL    HW2 7683   5.044   4.244   6.224
 2262SOL     OW 7684   6.881   0.088   3.845
 2262SOL    HW1 7685   6.917   0.147   3.918
 2262SOL    HW2 7686   6.934   0.102   3.762
 2263SOL     OW 7687   2.682   4.425   6.592
 2263SOL    HW1 7688   2.609   4.374   6.547
 2263SOL    HW2 7689   2.642   4.493   6.654
 2264SOL     OW 7690   1.921   0.003   6.853
 2264SOL    HW1 7691   1.865   0.083   6.834
 2264SOL    HW2 7692   1.899   6.983   6.943
 2265SOL     OW 7693   0.246   6.384   3.715
 2265SOL    HW1 7694   0.220   6.450   3.644
 2265SOL    HW2 7695   0.258   6.432   3.802
 2266SOL     OW 7696   4.869   3.914   6.346
 2266SOL    HW1 7697   4.798   3.984   6.356
 2266SOL    HW2 7698   4.913   3.898   6.435
 2267SOL     OW 7699   5.515   3.192   4.209
 2267SOL    HW1 7700   5.614   3.188   4.217
 2267SOL    HW2 7701   5.490   3.203   4.113
 2268SOL     OW 7702   0.993   5.927   4.822
 2268SOL    HW1 7703   1.032   5.919   4.730
 2268SOL    HW2 7704   1.064   5.908   4.890
 2269SOL     OW 7705   1.996   2.417   5.645
 2269SOL    HW1 7706   2.029   2.331   5.606
 2269SOL    HW2 7707   1.913   2.400   5.698
 2270SOL     OW 7708   5.250   2.305   6.355
 2270SOL    HW1 7709   5.233   2.389   6.407
 2270SOL    HW2 7710   5.296   2.328   6.269
 2271SOL     OW 7711   4.026   5.361   5.273
 2271SOL    HW1 7712   4.124   5.341   5.282
 2271SOL    HW2 7713   4.006   5.450   5.314
 2272SOL     OW 7714   5.792   1.017   6.140
 2272SOL    HW1 7715   5.758   0.935   6.093
 2272SOL    HW2 7716   5.871   0.992   6.197
 2273SOL     OW 7717   0.936   2.292   4.087
 2273SOL    HW1 7718   1.035   2.290   4.096
 2273SOL    HW2 7719   0.910   2.255   3.998
 2274SOL     OW 7720   1.157   1.500   6.856
 2274SOL    HW1 7721   1.096   1.576   6.832
 2274SOL    HW2 7722   1.143   1.476   6.952
 2275SOL     OW 7723   5.765   3.669   3.863
 2275SOL    HW1 7724   5.720   3.675   3.952
 2275SOL    HW2 7725   5.697   3.660   3.791
 2276SOL     OW 7726   1.913   1.788   1.238
 2276SOL    HW1 7727   1.830   1.737   1.217
 2276SOL    HW2 7728   1.889   1.877   1.277
 2277SOL     OW 7729   3.539   3.090   3.422
 2277SOL    HW1 7730   3.633   3.104   3.393
 2277SOL    HW2 7731   3.532   3.106   3.521
 2278SOL     OW 7732   6.556   3.310   3.844
 2278SOL    HW1 7733   6.638   3.278   3.798
 2278SOL    HW2 7734   6.475   3.263   3.807
 2279SOL     OW 7735   1.118   4.927   5.749
 2279SOL    HW1 7736   1.212   4.962   5.754
 2279SOL    HW2 7737   1.082   4.913   5.841
 2280SOL     OW 7738   4.691   2.095   5.553
 2280SOL    HW1 7739   4.684   2.026   5.481
 2280SOL    HW2 7740   4.608   2.094   5.608
 2281SOL     OW 7741   4.712   6.889   2.417
 2281SOL    HW1 7742   4.657   6.946   2.356
 2281SOL    HW2 7743   4.655   6.816   2.454
 2282SOL     OW 7744   3.439   5.385   5.643
 2282SOL    HW1 7745   3.517   5.324   5.631
 2282SOL    HW2 7746   3.370   5.339   5.699
 2283SOL     OW 7747   0.130   1.021   4.996
 2283SOL    HW1 7748   0.120   0.922   5.002
 2283SOL    HW2 7749   0.060   1.058   4.934
 2284SOL     OW 7750   1.578   3.607   6.586
 2284SOL    HW1 7751   1.504   3.611   6.654
 2284SOL    HW2 7752   1.548   3.553   6.508
 2285SOL     OW 7753   1.437   5.140   6.616
 2285SOL    HW1 7754   1.400   5.222   6.572
 2285SOL    HW2 7755   1.363   5.076   6.636
 2286SOL     OW 7756   4.650   4.422   2.829
 2286SOL    HW1 7757   4.621   4.449   2.921
 2286SOL    HW2 7758   4.716   4.488   2.795
 2287SOL     OW 7759   1.311   1.443   4.479
 2287SOL    HW1 7760   1.268   1.354   4.499
 2287SOL    HW2 7761   1.259   1.490   4.408
 2288SOL     OW 7762   6.373   5.465   2.947
 2288SOL    HW1 7763   6.395   5.554   2.908
 2288SOL    HW2 7764   6.282   5.467   2.987
 2289SOL     OW 7765   0.155   5.129   0.201
 2289SOL    HW1 7766   0.073   5.158   0.250
 2289SOL    HW2 7767   0.165   5.030   0.210
 2290SOL     OW 7768   0.689   5.378   6.466
 2290SOL    HW1 7769   0.755   5.433   6.414
 2290SOL    HW2 7770   0.683   5.413   6.559
 2291SOL     OW 7771   2.153   1.699   6.835
 2291SOL    HW1 7772   2.136   1.795   6.814
 2291SOL    HW2 7773   2.105   1.674   6.918
 2292SOL     OW 7774   1.750   0.903   4.515
 2292SOL    HW1 7775   1.818   0.927   4.584
 2292SOL    HW2 7776   1.667   0.957   4.529
 2293SOL     OW 7777   5.962   4.305   2.652
 2293SOL    HW1 7778   5.965   4.208   2.676
 2293SOL    HW2 7779   5.879   4.324   2.599
 2294SOL     OW 7780   3.959   6.512   0.201
 2294SOL    HW1 7781   3.976   6.463   0.115
 2294SOL    HW2 7782   4.036   6.573   0.220
 2295SOL     OW 7783   0.864   0.960   2.140
 2295SOL    HW1 7784   0.912   0.878   2.107
 2295SOL    HW2 7785   0.825   1.009   2.062
 2296SOL     OW 7786   3.271   6.062   0.193
 2296SOL    HW1 7787   3.271   6.000   0.272
 2296SOL    HW2 7788   3.329   6.141   0.213
 2297SOL     OW 7789   4.289   6.739   6.852
 2297SOL    HW1 7790   4.356   6.730   6.926
 2297SOL    HW2 7791   4.315   6.680   6.776
 2298SOL     OW 7792   4.155   3.116   6.746
 2298SOL    HW1 7793   4.180   3.196   6.801
 2298SOL    HW2 7794   4.057   3.098   6.754
 2299SOL     OW 7795   4.353   6.779   0.735
 2299SOL    HW1 7796   4.275   6.718   0.748
 2299SOL    HW2 7797   4.336   6.837   0.655
 2300SOL     OW 7798   1.229   4.954   1.177
 2300SOL    HW1 7799   1.171   5.034   1.195
 2300SOL    HW2 7800   1.325   4.982   1.178
 2301SOL     OW 7801   3.697   3.530   1.877
 2301SOL    HW1 7802   3.647   3.471   1.813
 2301SOL    HW2 7803   3.679   3.500   1.970
 2302SOL     OW 7804   2.527   4.974   3.121
 2302SOL    HW1 7805   2.468   5.055   3.133
 2302SOL    HW2 7806   2.530   4.949   3.025
 2303SOL     OW 7807   6.938   3.154   6.231
 2303SOL    HW1 7808   7.000   3.165   6.154
 2303SOL    HW2 7809   6.897   3.243   6.253
 2304SOL     OW 7810   1.803   1.414   4.683
 2304SOL    HW1 7811   1.875   1.474   4.647
 2304SOL    HW2 7812   1.787   1.436   4.779
 2305SOL     OW 7813   4.001   4.899   2.026
 2305SOL    HW1 7814   3.916   4.932   2.068
 2305SOL    HW2 7815   3.979   4.850   1.942
 2306SOL     OW 7816   0.524   4.525   0.481
 2306SOL    HW1 7817   0.533   4.434   0.521
 2306SOL    HW2 7818   0.431   4.539   0.449
 2307SOL     OW 7819   0.857   1.095   3.333
 2307SOL    HW1 7820   0.777   1.035   3.341
 2307SOL    HW2 7821   0.905   1.073   3.248
 2308SOL     OW 7822   1.069   6.975   0.382
 2308SOL    HW1 7823   1.080   7.012   0.474
 2308SOL    HW2 7824   1.059   6.876   0.386
 2309SOL     OW 7825   2.290   5.311   6.117
 2309SOL    HW1 7826   2.260   5.269   6.031
 2309SOL    HW2 7827   2.385   5.287   6.134
 2310SOL     OW 7828   5.602   1.611   3.349
 2310SOL    HW1 7829   5.508   1.608   3.316
 2310SOL    HW2 7830   5.638   1.518   3.354
 2311SOL     OW 7831   2.791   0.533   2.429
 2311SOL    HW1 7832   2.819   0.466   2.360
 2311SOL    HW2 7833   2.871   0.560   2.482
 2312SOL     OW 7834   2.463   1.034   2.580
 2312SOL    HW1 7835   2.479   0.979   2.661
 2312SOL    HW2 7836   2.542   1.094   2.564
 2313SOL     OW 7837   4.995   4.395   2.121
 2313SOL    HW1 7838   5.067   4.370   2.186
 2313SOL    HW2 7839   4.932   4.318   2.110
 2314SOL     OW 7840   6.087   6.229   2.934
 2314SOL    HW1 7841   5.999   6.238   2.888
 2314SOL    HW2 7842   6.157   6.278   2.881
 2315SOL     OW 7843   4.576   6.072   4.881
 2315SOL    HW1 7844   4.529   5.990   4.848
 2315SOL    HW2 7845   4.675   6.054   4.886
 2316SOL     OW 7846   3.199   1.390   6.008
 2316SOL    HW1 7847   3.150   1.436   6.082
 2316SOL    HW2 7848   3.141   1.385   5.928
 2317SOL     OW 7849   6.836   5.310   2.808
 2317SOL    HW1 7850   6.778   5.244   2.855
 2317SOL    HW2 7851   6.780   5.381   2.767
 2318SOL     OW 7852   0.751   4.408   4.138
 2318SOL    HW1 7853   0.660   4.377   4.108
 2318SOL    HW2 7854   0.743   4.456   4.225
 2319SOL     OW 7855   1.979   5.559   3.322
 2319SOL    HW1 7856   1.909   5.629   3.336
 2319SOL    HW2 7857   2.023   5.573   3.233
 2320SOL     OW 7858   1.184   1.750   5.568
 2320SOL    HW1 7859   1.140   1.839   5.559
 2320SOL    HW2 7860   1.256   1.741   5.499
 2321SOL     OW 7861   1.965   4.981   5.348
 2321SOL    HW1 7862   2.017   4.907   5.390
 2321SOL    HW2 7863   1.897   4.943   5.285
 2322SOL     OW 7864   2.052   4.085   1.740
 2322SOL    HW1 7865   2.150   4.099   1.752
 2322SOL    HW2 7866   2.005   4.174   1.740
 2323SOL     OW 7867   2.669   5.454   0.520
 2323SOL    HW1 7868   2.608   5.403   0.459
 2323SOL    HW2 7869   2.615   5.495   0.593
 2324SOL     OW 7870   6.849   5.161   2.521
 2324SOL    HW1 7871   6.937   5.193   2.486
 2324SOL    HW2 7872   6.863   5.114   2.608
 2325SOL     OW 7873   6.286   5.068   2.512
 2325SOL    HW1 7874   6.282   5.167   2.525
 2325SOL    HW2 7875   6.345   5.027   2.581
 2326SOL     OW 7876   1.758   0.491   0.350
 2326SOL    HW1 7877   1.731   0.404   0.309
 2326SOL    HW2 7878   1.722   0.497   0.443
 2327SOL     OW 7879   6.861   6.645   2.272
 2327SOL    HW1 7880   6.772   6.616   2.237
 2327SOL    HW2 7881   6.887   6.732   2.229
 2328SOL     OW 7882   2.242   4.012   2.207
 2328SOL    HW1 7883   2.307   4.086   2.223
 2328SOL    HW2 7884   2.159   4.049   2.165
 2329SOL     OW 7885   0.574   4.789   2.967
 2329SOL    HW1 7886   0.613   4.790   2.875
 2329SOL    HW2 7887   0.516   4.869   2.979
 2330SOL     OW 7888   5.965   3.250   1.422
 2330SOL    HW1 7889   5.981   3.340   1.461
 2330SOL    HW2 7890   5.877   3.249   1.374
 2331SOL     OW 7891   4.786   5.927   1.249
 2331SOL    HW1 7892   4.697   5.914   1.294
 2331SOL    HW2 7893   4.816   6.022   1.262
 2332SOL     OW 7894   5.754   6.868   5.933
 2332SOL    HW1 7895   5.661   6.903   5.948
 2332SOL    HW2 7896   5.820   6.942   5.942
 2333SOL     OW 7897   0.932   4.624   2.320
 2333SOL    HW1 7898   0.878   4.685   2.262
 2333SOL    HW2 7899   1.021   4.608   2.277
 2334SOL     OW 7900   3.149   1.335   6.450
 2334SOL    HW1 7901   3.084   1.402   6.484
 2334SOL    HW2 7902   3.104   1.247   6.439
 2335SOL     OW 7903   6.484   1.508   3.493
 2335SOL    HW1 7904   6.427   1.437   3.453
 2335SOL    HW2 7905   6.434   1.595   3.494
 2336SOL     OW 7906   1.679   1.874   3.708
 2336SOL    HW1 7907   1.589   1.855   3.668
 2336SOL    HW2 7908   1.728   1.939   3.651
 2337SOL     OW 7909   3.789   0.997   1.549
 2337SOL    HW1 7910   3.734   1.073   1.514
 2337SOL    HW2 7911   3.746   0.960   1.631
 2338SOL     OW 7912   0.083   3.749   4.143
 2338SOL    HW1 7913   0.081   3.736   4.044
 2338SOL    HW2 7914   7.007   3.770   4.176
 2339SOL     OW 7915   3.232   2.926   3.382
 2339SOL    HW1 7916   3.244   3.014   3.427
 2339SOL    HW2 7917   3.200   2.941   3.288
 2340SOL     OW 7918   2.349   4.253   6.615
 2340SOL    HW1 7919   2.328   4.182   6.548
 2340SOL    HW2 7920   2.289   4.332   6.600
 2341SOL     OW 7921   2.436   4.467   4.037
 2341SOL    HW1 7922   2.530   4.466   4.002
 2341SOL    HW2 7923   2.420   4.554   4.084
 2342SOL     OW 7924   3.151   1.135   3.978
 2342SOL    HW1 7925   3.079   1.196   4.010
 2342SOL    HW2 7926   3.147   1.049   4.029
 2343SOL     OW 7927   0.932   0.044   1.365
 2343SOL    HW1 7928   0.980   0.105   1.428
 2343SOL    HW2 7929   0.860   0.095   1.318
 2344SOL     OW 7930   5.833   4.488   0.284
 2344SOL    HW1 7931   5.885   4.564   0.245
 2344SOL    HW2 7932   5.787   4.517   0.368
 2345SOL     OW 7933   3.578   6.086   4.853
 2345SOL    HW1 7934   3.563   6.184   4.864
 2345SOL    HW2 7935   3.570   6.062   4.756
 2346SOL     OW 7936   4.648   3.817   0.328
 2346SOL    HW1 7937   4.675   3.841   0.235
 2346SOL    HW2 7938   4.730   3.801   0.383
 2347SOL     OW 7939   1.776   2.045   1.300
 2347SOL    HW1 7940   1.693   2.008   1.258
 2347SOL    HW2 7941   1.768   2.145   1.306
 2348SOL     OW 7942   0.488   5.232   2.435
 2348SOL    HW1 7943   0.513   5.172   2.359
 2348SOL    HW2 7944   0.555   5.306   2.443
 2349SOL     OW 7945   1.209   4.303   5.238
 2349SOL    HW1 7946   1.203   4.357   5.154
 2349SOL    HW2 7947   1.275   4.345   5.301
 2350SOL     OW 7948   5.189   3.700   0.221
 2350SOL    HW1 7949   5.152   3.755   0.295
 2350SOL    HW2 7950   5.174   3.747   0.134
 2351SOL     OW 7951   2.231   5.875   1.698
 2351SOL    HW1 7952   2.319   5.860   1.741
 2351SOL    HW2 7953   2.242   5.880   1.599
 2352SOL     OW 7954   6.809   2.570   3.270
 2352SOL    HW1 7955   6.870   2.647   3.283
 2352SOL    HW2 7956   6.714   2.601   3.276
 2353SOL     OW 7957   2.910   5.130   4.189
 2353SOL    HW1 7958   2.890   5.168   4.279
 2353SOL    HW2 7959   2.891   5.199   4.119
 2354SOL     OW 7960   2.338   2.775   3.718
 2354SOL    HW1 7961   2.393   2.843   3.765
 2354SOL    HW2 7962   2.395   2.696   3.694
 2355SOL     OW 7963   2.888   5.727   4.703
 2355SOL    HW1 7964   2.850   5.771   4.622
 2355SOL    HW2 7965   2.906   5.796   4.773
 2356SOL     OW 7966   6.731   2.662   0.086
 2356SOL    HW1 7967   6.691   2.573   0.063
 2356SOL    HW2 7968   6.709   2.685   0.180
 2357SOL     OW 7969   2.211   6.720   2.861
 2357SOL    HW1 7970   2.150   6.799   2.874
 2357SOL    HW2 7971   2.232   6.680   2.951
 2358SOL     OW 7972   3.378   4.770   5.782
 2358SOL    HW1 7973   3.451   4.775   5.851
 2358SOL    HW2 7974   3.398   4.833   5.707
 2359SOL     OW 7975   1.814   0.353   4.691
 2359SOL    HW1 7976   1.737   0.290   4.690
 2359SOL    HW2 7977   1.795   0.427   4.756
 2360SOL     OW 7978   6.631   4.268   6.961
 2360SOL    HW1 7979   6.641   4.234   6.867
 2360SOL    HW2 7980   6.721   4.289   6.998
 2361SOL     OW 7981   3.495   1.321   0.334
 2361SOL    HW1 7982   3.413   1.319   0.391
 2361SOL    HW2 7983   3.540   1.232   0.338
 2362SOL     OW 7984   2.696   5.841   3.407
 2362SOL    HW1 7985   2.738   5.904   3.474
 2362SOL    HW2 7986   2.652   5.894   3.335
 2363SOL     OW 7987   4.038   0.821   4.105
 2363SOL    HW1 7988   4.095   0.898   4.134
 2363SOL    HW2 7989   3.961   0.810   4.168
 2364SOL     OW 7990   1.239   2.905   1.574
 2364SOL    HW1 7991   1.226   2.908   1.475
 2364SOL    HW2 7992   1.296   2.982   1.603
 2365SOL     OW 7993   4.897   2.118   6.952
 2365SOL    HW1 7994   4.951   2.088   6.873
 2365SOL    HW2 7995   4.848   2.039   6.990
 2366SOL     OW 7996   4.544   5.397   0.906
 2366SOL    HW1 7997   4.635   5.437   0.908
 2366SOL    HW2 7998   4.549   5.302   0.874
 2367SOL     OW 7999   2.210   3.525   5.942
 2367SOL    HW1 8000   2.258   3.544   5.857
 2367SOL    HW2 8001   2.145   3.451   5.928
 2368SOL     OW 8002   6.276   6.117   2.099
 2368SOL    HW1 8003   6.192   6.140   2.148
 2368SOL    HW2 8004   6.355   6.136   2.157
 2369SOL     OW 8005   2.641   1.299   3.168
 2369SOL    HW1 8006   2.665   1.215   3.120
 2369SOL    HW2 8007   2.700   1.309   3.248
 2370SOL     OW 8008   6.051   2.934   6.228
 2370SOL    HW1 8009   6.023   3.030   6.231
 2370SOL    HW2 8010   6.066   2.906   6.133
 2371SOL     OW 8011   2.290   6.316   1.766
 2371SOL    HW1 8012   2.328   6.393   1.817
 2371SOL    HW2 8013   2.191   6.314   1.778
 2372SOL     OW 8014   6.375   3.253   2.947
 2372SOL    HW1 8015   6.421   3.323   3.002
 2372SOL    HW2 8016   6.317   3.298   2.878
 2373SOL     OW 8017   2.320   3.519   6.552
 2373SOL    HW1 8018   2.414   3.524   6.518
 2373SOL    HW2 8019   2.306   3.431   6.597
 2374SOL     OW 8020   5.396   2.743   4.694
 2374SOL    HW1 8021   5.473   2.750   4.756
 2374SOL    HW2 8022   5.336   2.668   4.723
 2375SOL     OW 8023   1.835   0.070   5.858
 2375SOL    HW1 8024   1.834   0.062   5.758
 2375SOL    HW2 8025   1.757   0.124   5.888
 2376SOL     OW 8026   6.370   2.748   4.497
 2376SOL    HW1 8027   6.298   2.679   4.495
 2376SOL    HW2 8028   6.356   2.814   4.424
 2377SOL     OW 8029   3.656   2.904   3.960
 2377SOL    HW1 8030   3.723   2.955   4.015
 2377SOL    HW2 8031   3.667   2.927   3.864
 2378SOL     OW 8032   5.466   2.841   0.727
 2378SOL    HW1 8033   5.482   2.862   0.823
 2378SOL    HW2 8034   5.395   2.772   0.719
 2379SOL     OW 8035   6.778   6.994   6.529
 2379SOL    HW1 8036   6.861   6.941   6.514
 2379SOL    HW2 8037   6.719   6.987   6.449
 2380SOL     OW 8038   6.376   1.981   2.648
 2380SOL    HW1 8039   6.472   1.970   2.623
 2380SOL    HW2 8040   6.326   2.026   2.574
 2381SOL     OW 8041   1.752   6.280   2.744
 2381SOL    HW1 8042   1.745   6.324   2.833
 2381SOL    HW2 8043   1.825   6.212   2.746
 2382SOL     OW 8044   1.280   3.217   5.896
 2382SOL    HW1 8045   1.335   3.300   5.898
 2382SOL    HW2 8046   1.339   3.137   5.901
 2383SOL     OW 8047   5.904   5.878   2.362
 2383SOL    HW1 8048   5.861   5.815   2.298
 2383SOL    HW2 8049   5.840   5.953   2.382
 2384SOL     OW 8050   4.188   1.303   1.721
 2384SOL    HW1 8051   4.284   1.283   1.742
 2384SOL    HW2 8052   4.152   1.232   1.660
 2385SOL     OW 8053   0.983   2.830   6.889
 2385SOL    HW1 8054   1.012   2.925   6.905
 2385SOL    HW2 8055   0.900   2.812   6.941
 2386SOL     OW 8056   4.364   5.246   3.914
 2386SOL    HW1 8057   4.456   5.226   3.947
 2386SOL    HW2 8058   4.356   5.218   3.818
 2387SOL     OW 8059   1.543   1.419   2.865
 2387SOL    HW1 8060   1.624   1.454   2.912
 2387SOL    HW2 8061   1.472   1.399   2.932
 2388SOL     OW 8062   6.916   1.784   4.000
 2388SOL    HW1 8063   6.830   1.759   4.046
 2388SOL    HW2 8064   6.976   1.830   4.065
 2389SOL     OW 8065   3.286   6.595   2.478
 2389SOL    HW1 8066   3.372   6.575   2.526
 2389SOL    HW2 8067   3.264   6.692   2.488
 2390SOL     OW 8068   3.197   4.259   1.182
 2390SOL    HW1 8069   3.206   4.261   1.282
 2390SOL    HW2 8070   3.226   4.170   1.147
 2391SOL     OW 8071   4.329   5.302   5.111
 2391SOL    HW1 8072   4.424   5.291   5.081
 2391SOL    HW2 8073   4.324   5.293   5.210
 2392SOL     OW 8074   4.026   1.286   6.676
 2392SOL    HW1 8075   4.072   1.309   6.591
 2392SOL    HW2 8076   3.975   1.366   6.709
 2393SOL     OW 8077   3.410   5.041   4.965
 2393SOL    HW1 8078   3.491   5.039   4.906
 2393SOL    HW2 8079   3.418   4.970   5.035
 2394SOL     OW 8080   7.001   4.538   5.860
 2394SOL    HW1 8081   0.046   4.491   5.925
 2394SOL    HW2 8082   6.978   4.475   5.786
 2395SOL     OW 8083   4.701   6.732   6.454
 2395SOL    HW1 8084   4.674   6.638   6.475
 2395SOL    HW2 8085   4.624   6.780   6.413
 2396SOL     OW 8086   3.478   5.389   0.657
 2396SOL    HW1 8087   3.394   5.348   0.622
 2396SOL    HW2 8088   3.512   5.335   0.734
 2397SOL     OW 8089   0.578   3.512   4.196
 2397SOL    HW1 8090   0.488   3.549   4.218
 2397SOL    HW2 8091   0.585   3.418   4.229
 2398SOL     OW 8092   4.657   3.760   5.306
 2398SOL    HW1 8093   4.697   3.749   5.397
 2398SOL    HW2 8094   4.676   3.678   5.252
 2399SOL     OW 8095   4.176   2.333   1.538
 2399SOL    HW1 8096   4.135   2.424   1.532
 2399SOL    HW2 8097   4.104   2.265   1.555
 2400SOL     OW 8098   1.778   4.998   0.319
 2400SOL    HW1 8099   1.703   5.027   0.380
 2400SOL    HW2 8100   1.850   5.067   0.320
 2401SOL     OW 8101   6.862   5.966   6.166
 2401SOL    HW1 8102   6.764   5.982   6.153
 2401SOL    HW2 8103   6.902   6.042   6.218
 2402SOL     OW 8104   6.795   6.360   3.933
 2402SOL    HW1 8105   6.786   6.283   3.997
 2402SOL    HW2 8106   6.857   6.334   3.859
 2403SOL     OW 8107   0.656   1.404   4.917
 2403SOL    HW1 8108   0.617   1.319   4.880
 2403SOL    HW2 8109   0.704   1.452   4.844
 2404SOL     OW 8110   1.158   0.519   0.235
 2404SOL    HW1 8111   1.245   0.508   0.284
 2404SOL    HW2 8112   1.139   0.435   0.183
 2405SOL     OW 8113   2.770   4.181   1.206
 2405SOL    HW1 8114   2.786   4.218   1.298
 2405SOL    HW2 8115   2.707   4.103   1.212
 2406SOL     OW 8116   4.758   0.892   1.439
 2406SOL    HW1 8117   4.753   0.990   1.423
 2406SOL    HW2 8118   4.778   0.845   1.353
 2407SOL     OW 8119   5.088   6.949   3.382
 2407SOL    HW1 8120   5.124   0.026   3.386
 2407SOL    HW2 8121   5.050   6.931   3.291
 2408SOL     OW 8122   4.165   4.984   2.333
 2408SOL    HW1 8123   4.103   4.911   2.363
 2408SOL    HW2 8124   4.234   5.000   2.404
 2409SOL     OW 8125   1.498   4.424   0.566
 2409SOL    HW1 8126   1.435   4.347   0.570
 2409SOL    HW2 8127   1.502   4.460   0.472
 2410SOL     OW 8128   3.750   2.883   3.106
 2410SOL    HW1 8129   3.656   2.874   3.137
 2410SOL    HW2 8130   3.812   2.865   3.183
 2411SOL     OW 8131   4.216   0.512   4.304
 2411SOL    HW1 8132   4.179   0.569   4.378
 2411SOL    HW2 8133   4.316   0.515   4.307
 2412SOL     OW 8134   4.113   3.585   1.180
 2412SOL    HW1 8135   4.070   3.599   1.091
 2412SOL    HW2 8136   4.209   3.562   1.167
 2413SOL     OW 8137   4.268   0.114   3.170
 2413SOL    HW1 8138   4.289   0.032   3.117
 2413SOL    HW2 8139   4.169   0.125   3.177
 2414SOL     OW 8140   5.317   3.397   4.361
 2414SOL    HW1 8141   5.295   3.322   4.424
 2414SOL    HW2 8142   5.397   3.372   4.306
 2415SOL     OW 8143   4.290   0.587   3.759
 2415SOL    HW1 8144   4.203   0.575   3.712
 2415SOL    HW2 8145   4.278   0.645   3.839
 2416SOL     OW 8146   5.487   1.954   6.697
 2416SOL    HW1 8147   5.511   1.901   6.779
 2416SOL    HW2 8148   5.563   1.952   6.632
 2417SOL     OW 8149   3.159   4.044   5.598
 2417SOL    HW1 8150   3.128   3.951   5.578
 2417SOL    HW2 8151   3.218   4.042   5.679
 2418SOL     OW 8152   3.397   2.970   2.795
 2418SOL    HW1 8153   3.485   2.932   2.767
 2418SOL    HW2 8154   3.412   3.038   2.867
 2419SOL     OW 8155   6.902   0.700   3.572
 2419SOL    HW1 8156   6.980   0.649   3.611
 2419SOL    HW2 8157   6.858   0.644   3.503
 2420SOL     OW 8158   2.007   0.098   1.641
 2420SOL    HW1 8159   2.004   0.192   1.607
 2420SOL    HW2 8160   2.003   0.034   1.564
 2421SOL     OW 8161   3.626   1.771   3.072
 2421SOL    HW1 8162   3.548   1.760   3.133
 2421SOL    HW2 8163   3.689   1.694   3.084
 2422SOL     OW 8164   5.459   1.990   0.904
 2422SOL    HW1 8165   5.515   2.037   0.836
 2422SOL    HW2 8166   5.382   1.945   0.858
 2423SOL     OW 8167   1.759   4.705   2.661
 2423SOL    HW1 8168   1.847   4.664   2.639
 2423SOL    HW2 8169   1.705   4.715   2.577
 2424SOL     OW 8170   6.595   0.332   0.333
 2424SOL    HW1 8171   6.593   0.257   0.399
 2424SOL    HW2 8172   6.624   0.298   0.244
 2425SOL     OW 8173   6.651   6.879   4.431
 2425SOL    HW1 8174   6.642   6.978   4.436
 2425SOL    HW2 8175   6.711   6.854   4.355
 2426SOL     OW 8176   2.314   4.852   4.369
 2426SOL    HW1 8177   2.265   4.767   4.387
 2426SOL    HW2 8178   2.396   4.856   4.427
 2427SOL     OW 8179   6.305   0.101   5.800
 2427SOL    HW1 8180   6.239   0.151   5.855
 2427SOL    HW2 8181   6.375   0.061   5.859
 2428SOL     OW 8182   5.407   1.277   0.526
 2428SOL    HW1 8183   5.477   1.267   0.597
 2428SOL    HW2 8184   5.424   1.362   0.476
 2429SOL     OW 8185   4.784   5.157   2.482
 2429SOL    HW1 8186   4.874   5.197   2.468
 2429SOL    HW2 8187   4.744   5.132   2.393
 2430SOL     OW 8188   4.531   6.877   2.759
 2430SOL    HW1 8189   4.602   6.878   2.830
 2430SOL    HW2 8190   4.562   6.821   2.682
 2431SOL     OW 8191   4.277   0.014   2.314
 2431SOL    HW1 8192   4.222   6.948   2.298
 2431SOL    HW2 8193   4.322   0.006   2.404
 2432SOL     OW 8194   2.449   6.328   2.247
 2432SOL    HW1 8195   2.498   6.244   2.222
 2432SOL    HW2 8196   2.357   6.304   2.279
 2433SOL     OW 8197   4.794   0.392   0.685
 2433SOL    HW1 8198   4.841   0.303   0.682
 2433SOL    HW2 8199   4.792   0.431   0.593
 2434SOL     OW 8200   3.285   2.945   4.364
 2434SOL    HW1 8201   3.352   2.925   4.292
 2434SOL    HW2 8202   3.206   2.883   4.354
 2435SOL     OW 8203   6.128   6.241   6.403
 2435SOL    HW1 8204   6.171   6.155   6.428
 2435SOL    HW2 8205   6.164   6.273   6.315
 2436SOL     OW 8206   2.802   4.525   0.682
 2436SOL    HW1 8207   2.803   4.492   0.776
 2436SOL    HW2 8208   2.893   4.519   0.643
 2437SOL     OW 8209   0.008   0.593   5.610
 2437SOL    HW1 8210   6.998   0.687   5.635
 2437SOL    HW2 8211   0.101   0.592   5.574
 2438SOL     OW 8212   3.547   3.244   0.853
 2438SOL    HW1 8213   3.463   3.199   0.883
 2438SOL    HW2 8214   3.525   3.334   0.816
 2439SOL     OW 8215   6.059   4.579   6.134
 2439SOL    HW1 8216   6.094   4.559   6.226
 2439SOL    HW2 8217   6.111   4.526   6.067
 2440SOL     OW 8218   6.113   5.330   5.603
 2440SOL    HW1 8219   6.118   5.262   5.529
 2440SOL    HW2 8220   6.026   5.320   5.651
 2441SOL     OW 8221   6.401   2.359   0.530
 2441SOL    HW1 8222   6.410   2.265   0.562
 2441SOL    HW2 8223   6.322   2.366   0.470
 2442SOL     OW 8224   6.242   1.939   4.704
 2442SOL    HW1 8225   6.194   2.021   4.734
 2442SOL    HW2 8226   6.247   1.874   4.780
 2443SOL     OW 8227   2.743   4.639   5.570
 2443SOL    HW1 8228   2.758   4.648   5.472
 2443SOL    HW2 8229   2.649   4.609   5.587
 2444SOL     OW 8230   3.897   2.674   5.868
 2444SOL    HW1 8231   3.956   2.711   5.796
 2444SOL    HW2 8232   3.803   2.666   5.833
 2445SOL     OW 8233   1.196   0.220   0.816
 2445SOL    HW1 8234   1.117   0.191   0.871
 2445SOL    HW2 8235   1.199   0.320   0.812
 2446SOL     OW 8236   4.689   3.020   6.458
 2446SOL    HW1 8237   4.660   2.966   6.537
 2446SOL    HW2 8238   4.666   2.971   6.374
 2447SOL     OW 8239   1.159   3.451   6.382
 2447SOL    HW1 8240   1.139   3.433   6.286
 2447SOL    HW2 8241   1.257   3.438   6.399
 2448SOL     OW 8242   6.684   0.388   4.755
 2448SOL    HW1 8243   6.689   0.471   4.810
 2448SOL    HW2 8244   6.768   0.335   4.768
 2449SOL     OW 8245   0.131   2.989   5.729
 2449SOL    HW1 8246   0.154   3.086   5.731
 2449SOL    HW2 8247   0.183   2.944   5.657
 2450SOL     OW 8248   2.473   3.525   1.461
 2450SOL    HW1 8249   2.524   3.610   1.453
 2450SOL    HW2 8250   2.400   3.536   1.529
 2451SOL     OW 8251   1.863   5.799   3.758
 2451SOL    HW1 8252   1.790   5.773   3.695
 2451SOL    HW2 8253   1.830   5.796   3.852
 2452SOL     OW 8254   2.557   2.159   5.057
 2452SOL    HW1 8255   2.548   2.254   5.088
 2452SOL    HW2 8256   2.633   2.152   4.992
 2453SOL     OW 8257   0.108   4.226   1.027
 2453SOL    HW1 8258   0.180   4.282   1.068
 2453SOL    HW2 8259   0.069   4.273   0.947
 2454SOL     OW 8260   0.969   0.169   2.188
 2454SOL    HW1 8261   0.974   0.070   2.203
 2454SOL    HW2 8262   0.986   0.189   2.091
 2455SOL     OW 8263   5.523   3.498   1.375
 2455SOL    HW1 8264   5.514   3.567   1.447
 2455SOL    HW2 8265   5.458   3.423   1.393
 2456SOL     OW 8266   2.569   6.993   1.419
 2456SOL    HW1 8267   2.586   0.074   1.438
 2456SOL    HW2 8268   2.624   6.936   1.481
 2457SOL     OW 8269   5.610   5.773   1.127
 2457SOL    HW1 8270   5.590   5.822   1.042
 2457SOL    HW2 8271   5.542   5.796   1.196
 2458SOL     OW 8272   0.755   6.484   1.496
 2458SOL    HW1 8273   0.728   6.446   1.585
 2458SOL    HW2 8274   0.849   6.459   1.476
 2459SOL     OW 8275   1.118   1.767   0.293
 2459SOL    HW1 8276   1.216   1.788   0.295
 2459SOL    HW2 8277   1.066   1.852   0.285
 2460SOL     OW 8278   2.708   4.410   1.079
 2460SOL    HW1 8279   2.740   4.323   1.115
 2460SOL    HW2 8280   2.647   4.394   1.001
 2461SOL     OW 8281   4.554   1.411   3.206
 2461SOL    HW1 8282   4.652   1.405   3.226
 2461SOL    HW2 8283   4.539   1.464   3.122
 2462SOL     OW 8284   3.205   4.309   6.217
 2462SOL    HW1 8285   3.215   4.398   6.172
 2462SOL    HW2 8286   3.168   4.322   6.309
 2463SOL     OW 8287   0.796   2.780   5.354
 2463SOL    HW1 8288   0.816   2.747   5.447
 2463SOL    HW2 8289   0.851   2.862   5.336
 2464SOL     OW 8290   0.982   3.484   0.520
 2464SOL    HW1 8291   0.996   3.535   0.605
 2464SOL    HW2 8292   1.048   3.514   0.452
 2465SOL     OW 8293   6.235   4.407   2.772
 2465SOL    HW1 8294   6.224   4.323   2.825
 2465SOL    HW2 8295   6.158   4.468   2.791
 2466SOL     OW 8296   3.649   1.698   1.511
 2466SOL    HW1 8297   3.704   1.618   1.534
 2466SOL    HW2 8298   3.699   1.756   1.447
 2467SOL     OW 8299   0.575   1.157   4.857
 2467SOL    HW1 8300   0.549   1.124   4.766
 2467SOL    HW2 8301   0.657   1.109   4.888
 2468SOL     OW 8302   5.927   5.113   6.662
 2468SOL    HW1 8303   5.891   5.169   6.587
 2468SOL    HW2 8304   6.026   5.124   6.667
 2469SOL     OW 8305   2.776   2.591   5.933
 2469SOL    HW1 8306   2.806   2.496   5.937
 2469SOL    HW2 8307   2.683   2.598   5.970
 2470SOL     OW 8308   5.214   2.614   1.305
 2470SOL    HW1 8309   5.214   2.579   1.398
 2470SOL    HW2 8310   5.282   2.687   1.296
 2471SOL     OW 8311   6.994   1.167   3.007
 2471SOL    HW1 8312   0.035   1.248   3.017
 2471SOL    HW2 8313   6.935   1.158   3.087
 2472SOL     OW 8314   6.159   0.769   3.878
 2472SOL    HW1 8315   6.148   0.735   3.972
 2472SOL    HW2 8316   6.152   0.869   3.878
 2473SOL     OW 8317   0.783   6.070   4.823
 2473SOL    HW1 8318   0.868   6.018   4.827
 2473SOL    HW2 8319   0.761   6.105   4.914
 2474SOL     OW 8320   6.383   6.564   4.522
 2474SOL    HW1 8321   6.289   6.548   4.551
 2474SOL    HW2 8322   6.418   6.646   4.568
 2475SOL     OW 8323   3.504   2.374   6.206
 2475SOL    HW1 8324   3.503   2.434   6.286
 2475SOL    HW2 8325   3.461   2.420   6.128
 2476SOL     OW 8326   0.768   1.268   3.526
 2476SOL    HW1 8327   0.824   1.347   3.552
 2476SOL    HW2 8328   0.819   1.209   3.464
 2477SOL     OW 8329   4.652   4.306   2.310
 2477SOL    HW1 8330   4.594   4.279   2.233
 2477SOL    HW2 8331   4.651   4.405   2.320
 2478SOL     OW 8332   6.782   0.627   2.261
 2478SOL    HW1 8333   6.755   0.539   2.301
 2478SOL    HW2 8334   6.715   0.654   2.192
 2479SOL     OW 8335   1.245   3.443   0.071
 2479SOL    HW1 8336   1.180   3.428   7.013
 2479SOL    HW2 8337   1.307   3.364   0.078
 2480SOL     OW 8338   6.905   5.219   1.603
 2480SOL    HW1 8339   6.985   5.226   1.662
 2480SOL    HW2 8340   6.853   5.305   1.608
 2481SOL     OW 8341   4.325   4.673   2.493
 2481SOL    HW1 8342   4.390   4.598   2.484
 2481SOL    HW2 8343   4.256   4.667   2.421
 2482SOL     OW 8344   4.374   2.279   4.283
 2482SOL    HW1 8345   4.284   2.259   4.322
 2482SOL    HW2 8346   4.445   2.254   4.349
 2483SOL     OW 8347   1.216   3.821   0.378
 2483SOL    HW1 8348   1.149   3.890   0.404
 2483SOL    HW2 8349   1.272   3.855   0.304
 2484SOL     OW 8350   3.571   4.763   6.000
 2484SOL    HW1 8351   3.503   4.795   6.065
 2484SOL    HW2 8352   3.626   4.690   6.042
 2485SOL     OW 8353   0.766   5.305   6.930
 2485SOL    HW1 8354   0.864   5.307   6.950
 2485SOL    HW2 8355   0.716   5.268   7.008
 2486SOL     OW 8356   0.933   4.953   3.305
 2486SOL    HW1 8357   0.969   5.029   3.359
 2486SOL    HW2 8358   0.833   4.957   3.305
 2487SOL     OW 8359   3.025   1.547   1.219
 2487SOL    HW1 8360   3.101   1.610   1.235
 2487SOL    HW2 8361   2.952   1.594   1.170
 2488SOL     OW 8362   2.917   5.724   6.513
 2488SOL    HW1 8363   3.002   5.749   6.466
 2488SOL    HW2 8364   2.920   5.628   6.539
 2489SOL     OW 8365   0.035   5.464   4.514
 2489SOL    HW1 8366   6.960   5.435   4.483
 2489SOL    HW2 8367   0.030   5.556   4.551
 2490SOL     OW 8368   5.859   2.996   1.257
 2490SOL    HW1 8369   5.939   3.015   1.313
 2490SOL    HW2 8370   5.799   2.931   1.304
 2491SOL     OW 8371   6.435   3.784   2.759
 2491SOL    HW1 8372   6.517   3.807   2.706
 2491SOL    HW2 8373   6.456   3.710   2.822
 2492SOL     OW 8374   3.993   1.827   0.024
 2492SOL    HW1 8375   3.950   1.786   0.104
 2492SOL    HW2 8376   4.091   1.841   0.043
 2493SOL     OW 8377   6.696   0.485   5.556
 2493SOL    HW1 8378   6.683   0.402   5.502
 2493SOL    HW2 8379   6.774   0.472   5.618
 2494SOL     OW 8380   5.458   5.382   0.654
 2494SOL    HW1 8381   5.371   5.336   0.667
 2494SOL    HW2 8382   5.521   5.322   0.604
 2495SOL     OW 8383   0.245   1.129   2.383
 2495SOL    HW1 8384   0.287   1.045   2.348
 2495SOL    HW2 8385   0.229   1.119   2.481
 2496SOL     OW 8386   2.044   4.615   0.378
 2496SOL    HW1 8387   2.030   4.518   0.393
 2496SOL    HW2 8388   2.110   4.629   0.303
 2497SOL     OW 8389   5.946   1.379   6.770
 2497SOL    HW1 8390   5.899   1.364   6.683
 2497SOL    HW2 8391   5.925   1.303   6.832
 2498SOL     OW 8392   0.804   2.913   4.508
 2498SOL    HW1 8393   0.885   2.863   4.476
 2498SOL    HW2 8394   0.828   3.008   4.526
 2499SOL     OW 8395   5.221   0.925   6.950
 2499SOL    HW1 8396   5.260   0.979   0.008
 2499SOL    HW2 8397   5.151   0.863   6.987
 2500SOL     OW 8398   4.973   3.231   5.619
 2500SOL    HW1 8399   4.963   3.247   5.717
 2500SOL    HW2 8400   4.990   3.134   5.602
 2501SOL     OW 8401   6.900   4.895   1.147
 2501SOL    HW1 8402   6.896   4.908   1.048
 2501SOL    HW2 8403   6.874   4.980   1.193
 2502SOL     OW 8404   1.091   6.449   3.349
 2502SOL    HW1 8405   1.096   6.401   3.262
 2502SOL    HW2 8406   1.043   6.392   3.416
 2503SOL     OW 8407   5.532   6.365   3.917
 2503SOL    HW1 8408   5.443   6.361   3.872
 2503SOL    HW2 8409   5.597   6.414   3.858
 2504SOL     OW 8410   2.522   4.850   2.878
 2504SOL    HW1 8411   2.594   4.910   2.842
 2504SOL    HW2 8412   2.550   4.755   2.868
 2505SOL     OW 8413   5.140   3.745   4.710
 2505SOL    HW1 8414   5.043   3.719   4.716
 2505SOL    HW2 8415   5.161   3.810   4.784
 2506SOL     OW 8416   0.813   1.349   0.399
 2506SOL    HW1 8417   0.757   1.355   0.482
 2506SOL    HW2 8418   0.862   1.435   0.386
 2507SOL     OW 8419   6.681   6.398   0.438
 2507SOL    HW1 8420   6.700   6.493   0.416
 2507SOL    HW2 8421   6.676   6.387   0.537
 2508SOL     OW 8422   1.874   1.978   1.554
 2508SOL    HW1 8423   1.818   2.014   1.480
 2508SOL    HW2 8424   1.936   2.049   1.587
 2509SOL     OW 8425   5.881   6.666   3.844
 2509SOL    HW1 8426   5.828   6.611   3.780
 2509SOL    HW2 8427   5.964   6.699   3.800
 2510SOL     OW 8428   3.754   5.891   2.330
 2510SOL    HW1 8429   3.682   5.891   2.399
 2510SOL    HW2 8430   3.842   5.913   2.372
 2511SOL     OW 8431   0.661   5.779   3.782
 2511SOL    HW1 8432   0.685   5.852   3.846
 2511SOL    HW2 8433   0.561   5.774   3.774
 2512SOL     OW 8434   6.224   3.387   4.472
 2512SOL    HW1 8435   6.192   3.300   4.509
 2512SOL    HW2 8436   6.192   3.398   4.378
 2513SOL     OW 8437   0.076   5.475   1.207
 2513SOL    HW1 8438   0.157   5.425   1.175
 2513SOL    HW2 8439   7.011   5.441   1.159
 2514SOL     OW 8440   0.094   1.938   4.150
 2514SOL    HW1 8441   0.081   2.028   4.193
 2514SOL    HW2 8442   0.188   1.930   4.118
 2515SOL     OW 8443   0.980   4.426   6.135
 2515SOL    HW1 8444   1.051   4.472   6.081
 2515SOL    HW2 8445   1.023   4.370   6.205
 2516SOL     OW 8446   4.508   6.734   4.562
 2516SOL    HW1 8447   4.579   6.755   4.629
 2516SOL    HW2 8448   4.543   6.669   4.495
 2517SOL     OW 8449   2.505   5.629   0.664
 2517SOL    HW1 8450   2.476   5.655   0.572
 2517SOL    HW2 8451   2.538   5.710   0.712
 2518SOL     OW 8452   1.984   1.785   0.008
 2518SOL    HW1 8453   1.968   1.883   7.015
 2518SOL    HW2 8454   1.995   1.762   0.105
 2519SOL     OW 8455   6.129   4.104   4.819
 2519SOL    HW1 8456   6.072   4.054   4.884
 2519SOL    HW2 8457   6.168   4.184   4.865
 2520SOL     OW 8458   3.901   5.666   0.709
 2520SOL    HW1 8459   3.872   5.757   0.680
 2520SOL    HW2 8460   3.866   5.597   0.646
 2521SOL     OW 8461   5.730   6.577   5.680
 2521SOL    HW1 8462   5.632   6.590   5.695
 2521SOL    HW2 8463   5.781   6.634   5.745
 2522SOL     OW 8464   2.494   5.022   5.168
 2522SOL    HW1 8465   2.560   4.950   5.148
 2522SOL    HW2 8466   2.404   4.995   5.133
 2523SOL     OW 8467   0.776   2.122   6.534
 2523SOL    HW1 8468   0.733   2.205   6.567
 2523SOL    HW2 8469   0.874   2.137   6.523
 2524SOL     OW 8470   1.670   0.154   4.304
 2524SOL    HW1 8471   1.625   0.086   4.246
 2524SOL    HW2 8472   1.683   0.239   4.253
 2525SOL     OW 8473   2.771   4.680   2.178
 2525SOL    HW1 8474   2.779   4.629   2.093
 2525SOL    HW2 8475   2.680   4.665   2.217
 2526SOL     OW 8476   1.595   2.979   4.509
 2526SOL    HW1 8477   1.610   2.885   4.538
 2526SOL    HW2 8478   1.639   2.994   4.420
 2527SOL     OW 8479   6.934   6.742   3.923
 2527SOL    HW1 8480   6.840   6.711   3.909
 2527SOL    HW2 8481   6.997   6.678   3.878
 2528SOL     OW 8482   5.702   5.050   0.873
 2528SOL    HW1 8483   5.779   4.987   0.886
 2528SOL    HW2 8484   5.719   5.133   0.926
 2529SOL     OW 8485   5.096   4.216   5.326
 2529SOL    HW1 8486   5.147   4.188   5.407
 2529SOL    HW2 8487   5.145   4.289   5.279
 2530SOL     OW 8488   1.090   6.086   3.353
 2530SOL    HW1 8489   1.012   6.085   3.291
 2530SOL    HW2 8490   1.173   6.107   3.302
 2531SOL     OW 8491   5.666   2.408   6.289
 2531SOL    HW1 8492   5.703   2.428   6.198
 2531SOL    HW2 8493   5.650   2.309   6.297
 2532SOL     OW 8494   0.636   5.648   6.271
 2532SOL    HW1 8495   0.638   5.556   6.232
 2532SOL    HW2 8496   0.613   5.714   6.200
 2533SOL     OW 8497   5.637   0.907   4.527
 2533SOL    HW1 8498   5.673   0.844   4.459
 2533SOL    HW2 8499   5.537   0.911   4.520
 2534SOL     OW 8500   6.502   1.577   2.767
 2534SOL    HW1 8501   6.415   1.627   2.765
 2534SOL    HW2 8502   6.541   1.583   2.859
 2535SOL     OW 8503   2.778   0.718   1.697
 2535SOL    HW1 8504   2.817   0.657   1.628
 2535SOL    HW2 8505   2.785   0.812   1.664
 2536SOL     OW 8506   1.249   0.467   3.235
 2536SOL    HW1 8507   1.329   0.413   3.262
 2536SOL    HW2 8508   1.220   0.524   3.312
 2537SOL     OW 8509   2.174   6.208   2.252
 2537SOL    HW1 8510   2.186   6.188   2.155
 2537SOL    HW2 8511   2.162   6.123   2.303
 2538SOL     OW 8512   6.967   5.332   5.138
 2538SOL    HW1 8513   7.004   5.404   5.080
 2538SOL    HW2 8514   6.872   5.354   5.161
 2539SOL     OW 8515   1.125   0.157   5.432
 2539SOL    HW1 8516   1.209   0.190   5.390
 2539SOL    HW2 8517   1.131   0.058   5.446
 2540SOL     OW 8518   5.333   2.697   2.033
 2540SOL    HW1 8519   5.247   2.661   1.995
 2540SOL    HW2 8520   5.353   2.786   1.991
 2541SOL     OW 8521   1.577   1.153   0.275
 2541SOL    HW1 8522   1.619   1.115   0.193
 2541SOL    HW2 8523   1.606   1.248   0.287
 2542SOL     OW 8524   3.904   1.858   2.637
 2542SOL    HW1 8525   3.892   1.811   2.549
 2542SOL    HW2 8526   3.869   1.952   2.629
 2543SOL     OW 8527   6.218   6.455   5.158
 2543SOL    HW1 8528   6.305   6.412   5.181
 2543SOL    HW2 8529   6.162   6.464   5.241
 2544SOL     OW 8530   6.893   0.167   0.402
 2544SOL    HW1 8531   6.888   0.220   0.317
 2544SOL    HW2 8532   6.897   0.229   0.480
 2545SOL     OW 8533   6.849   1.731   0.337
 2545SOL    HW1 8534   6.849   1.797   0.412
 2545SOL    HW2 8535   6.816   1.643   0.370
 2546SOL     OW 8536   5.844   3.354   2.577
 2546SOL    HW1 8537   5.764   3.294   2.585
 2546SOL    HW2 8538   5.815   3.449   2.576
 2547SOL     OW 8539   5.598   4.026   1.165
 2547SOL    HW1 8540   5.655   4.103   1.139
 2547SOL    HW2 8541   5.593   4.020   1.265
 2548SOL     OW 8542   6.293   0.390   5.369
 2548SOL    HW1 8543   6.349   0.358   5.445
 2548SOL    HW2 8544   6.210   0.334   5.363
 2549SOL     OW 8545   2.811   4.991   6.630
 2549SOL    HW1 8546   2.835   4.972   6.535
 2549SOL    HW2 8547   2.794   4.905   6.678
 2550SOL     OW 8548   3.729   0.563   0.818
 2550SOL    HW1 8549   3.790   0.579   0.740
 2550SOL    HW2 8550   3.762   0.615   0.897
 2551SOL     OW 8551   3.451   4.176   1.287
 2551SOL    HW1 8552   3.383   4.180   1.360
 2551SOL    HW2 8553   3.412   4.129   1.208
 2552SOL     OW 8554   2.951   5.501   1.262
 2552SOL    HW1 8555   3.000   5.578   1.304
 2552SOL    HW2 8556   2.950   5.513   1.163
 2553SOL     OW 8557   4.373   1.703   0.821
 2553SOL    HW1 8558   4.303   1.742   0.882
 2553SOL    HW2 8559   4.355   1.606   0.808
 2554SOL     OW 8560   1.186   6.039   0.950
 2554SOL    HW1 8561   1.133   5.960   0.980
 2554SOL    HW2 8562   1.204   6.033   0.852
 2555SOL     OW 8563   0.580   6.582   5.231
 2555SOL    HW1 8564   0.668   6.535   5.218
 2555SOL    HW2 8565   0.509   6.514   5.252
 2556SOL     OW 8566   5.749   0.519   1.219
 2556SOL    HW1 8567   5.799   0.449   1.271
 2556SOL    HW2 8568   5.653   0.491   1.209
 2557SOL     OW 8569   2.757   1.406   6.924
 2557SOL    HW1 8570   2.690   1.447   6.986
 2557SOL    HW2 8571   2.850   1.428   6.956
 2558SOL     OW 8572   5.945   2.746   1.097
 2558SOL    HW1 8573   5.927   2.839   1.128
 2558SOL    HW2 8574   5.863   2.691   1.108
 2559SOL     OW 8575   6.347   4.998   3.545
 2559SOL    HW1 8576   6.358   4.997   3.645
 2559SOL    HW2 8577   6.433   4.973   3.502
 2560SOL     OW 8578   4.287   2.688   1.583
 2560SOL    HW1 8579   4.197   2.727   1.601
 2560SOL    HW2 8580   4.346   2.703   1.663
 2561SOL     OW 8581   3.675   0.358   4.424
 2561SOL    HW1 8582   3.700   0.390   4.515
 2561SOL    HW2 8583   3.610   0.282   4.431
 2562SOL     OW 8584   1.533   6.464   4.930
 2562SOL    HW1 8585   1.547   6.389   4.866
 2562SOL    HW2 8586   1.618   6.483   4.978
 2563SOL     OW 8587   4.413   2.785   6.558
 2563SOL    HW1 8588   4.378   2.877   6.572
 2563SOL    HW2 8589   4.473   2.784   6.478
 2564SOL     OW 8590   1.512   1.387   1.511
 2564SOL    HW1 8591   1.582   1.411   1.579
 2564SOL    HW2 8592   1.422   1.386   1.555
 2565SOL     OW 8593   0.110   0.376   0.951
 2565SOL    HW1 8594   0.016   0.345   0.961
 2565SOL    HW2 8595   0.168   0.330   1.018
 2566SOL     OW 8596   2.310   1.136   0.137
 2566SOL    HW1 8597   2.261   1.105   0.219
 2566SOL    HW2 8598   2.408   1.139   0.156
 2567SOL     OW 8599   2.038   0.722   5.951
 2567SOL    HW1 8600   1.968   0.737   5.880
 2567SOL    HW2 8601   1.993   0.704   6.039
 2568SOL     OW 8602   3.036   6.387   0.710
 2568SOL    HW1 8603   2.985   6.345   0.635
 2568SOL    HW2 8604   3.123   6.339   0.722
 2569SOL     OW 8605   2.742   6.168   6.581
 2569SOL    HW1 8606   2.841   6.158   6.581
 2569SOL    HW2 8607   2.716   6.237   6.649
 2570SOL     OW 8608   0.159   0.160   3.293
 2570SOL    HW1 8609   0.120   0.231   3.234
 2570SOL    HW2 8610   0.166   0.194   3.387
 2571SOL     OW 8611   3.446   3.584   2.536
 2571SOL    HW1 8612   3.541   3.592   2.565
 2571SOL    HW2 8613   3.443   3.557   2.440
 2572SOL     OW 8614   2.964   6.166   2.129
 2572SOL    HW1 8615   2.921   6.191   2.042
 2572SOL    HW2 8616   3.016   6.244   2.164
 2573SOL     OW 8617   6.314   0.533   2.825
 2573SOL    HW1 8618   6.247   0.600   2.854
 2573SOL    HW2 8619   6.405   0.574   2.827
 2574SOL     OW 8620   0.268   4.352   2.069
 2574SOL    HW1 8621   0.311   4.422   2.012
 2574SOL    HW2 8622   0.299   4.362   2.163
 2575SOL     OW 8623   4.460   3.414   5.291
 2575SOL    HW1 8624   4.548   3.455   5.267
 2575SOL    HW2 8625   4.459   3.395   5.389
 2576SOL     OW 8626   0.297   0.395   2.867
 2576SOL    HW1 8627   0.303   0.384   2.966
 2576SOL    HW2 8628   0.215   0.448   2.844
 2577SOL     OW 8629   1.907   4.421   0.653
 2577SOL    HW1 8630   1.927   4.375   0.740
 2577SOL    HW2 8631   1.870   4.512   0.672
 2578SOL     OW 8632   4.619   2.073   5.106
 2578SOL    HW1 8633   4.647   2.164   5.075
 2578SOL    HW2 8634   4.523   2.058   5.084
 2579SOL     OW 8635   6.902   1.704   6.301
 2579SOL    HW1 8636   6.889   1.694   6.399
 2579SOL    HW2 8637   6.976   1.644   6.271
 2580SOL     OW 8638   1.838   1.856   5.672
 2580SOL    HW1 8639   1.929   1.854   5.713
 2580SOL    HW2 8640   1.769   1.855   5.744
 2581SOL     OW 8641   4.963   6.444   4.298
 2581SOL    HW1 8642   4.984   6.352   4.263
 2581SOL    HW2 8643   4.920   6.498   4.226
 2582SOL     OW 8644   6.510   4.095   3.113
 2582SOL    HW1 8645   6.582   4.043   3.159
 2582SOL    HW2 8646   6.516   4.191   3.141
 2583SOL     OW 8647   2.565   1.092   0.149
 2583SOL    HW1 8648   2.590   1.189   0.145
 2583SOL    HW2 8649   2.632   1.042   0.203
 2584SOL     OW 8650   3.852   6.991   3.257
 2584SOL    HW1 8651   3.823   7.005   3.352
 2584SOL    HW2 8652   3.896   0.058   3.223
 2585SOL     OW 8653   4.021   0.889   2.769
 2585SOL    HW1 8654   4.009   0.921   2.675
 2585SOL    HW2 8655   4.105   0.835   2.774
 2586SOL     OW 8656   1.103   1.734   4.529
 2586SOL    HW1 8657   1.202   1.733   4.540
 2586SOL    HW2 8658   1.073   1.827   4.505
 2587SOL     OW 8659   6.450   4.501   2.942
 2587SOL    HW1 8660   6.372   4.439   2.930
 2587SOL    HW2 8661   6.462   4.556   2.860
 2588SOL     OW 8662   3.500   7.006   2.940
 2588SOL    HW1 8663   3.420   0.041   2.906
 2588SOL    HW2 8664   3.499   6.913   2.903
 2589SOL     OW 8665   4.425   6.430   2.061
 2589SOL    HW1 8666   4.371   6.380   2.130
 2589SOL    HW2 8667   4.371   6.442   1.978
 2590SOL     OW 8668   4.491   6.020   3.876
 2590SOL    HW1 8669   4.401   6.035   3.836
 2590SOL    HW2 8670   4.545   6.104   3.869
 2591SOL     OW 8671   5.938   0.332   1.353
 2591SOL    HW1 8672   5.980   0.355   1.441
 2591SOL    HW2 8673   6.006   0.288   1.294
 2592SOL     OW 8674   2.824   4.694   1.638
 2592SOL    HW1 8675   2.850   4.639   1.717
 2592SOL    HW2 8676   2.801   4.634   1.562
 2593SOL     OW 8677   2.902   0.459   3.606
 2593SOL    HW1 8678   2.901   0.520   3.686
 2593SOL    HW2 8679   2.994   0.423   3.594
 2594SOL     OW 8680   2.197   5.888   6.233
 2594SOL    HW1 8681   2.211   5.985   6.215
 2594SOL    HW2 8682   2.285   5.844   6.251
 2595SOL     OW 8683   6.484   2.932   4.680
 2595SOL    HW1 8684   6.542   2.894   4.753
 2595SOL    HW2 8685   6.441   2.857   4.630
 2596SOL     OW 8686   4.894   1.478   0.734
 2596SOL    HW1 8687   4.861   1.448   0.824
 2596SOL    HW2 8688   4.913   1.399   0.677
 2597SOL     OW 8689   2.551   2.285   6.293
 2597SOL    HW1 8690   2.632   2.285   6.234
 2597SOL    HW2 8691   2.498   2.368   6.275
 2598SOL     OW 8692   6.348   0.818   2.876
 2598SOL    HW1 8693   6.356   0.835   2.778
 2598SOL    HW2 8694   6.403   0.738   2.900
 2599SOL     OW 8695   4.964   5.920   6.245
 2599SOL    HW1 8696   4.936   5.972   6.164
 2599SOL    HW2 8697   5.044   5.865   6.223
 2600SOL     OW 8698   0.407   2.827   4.898
 2600SOL    HW1 8699   0.324   2.800   4.948
 2600SOL    HW2 8700   0.420   2.765   4.820
 2601SOL     OW 8701   4.019   4.579   5.287
 2601SOL    HW1 8702   4.077   4.526   5.225
 2601SOL    HW2 8703   3.953   4.518   5.330
 2602SOL     OW 8704   5.739   6.753   6.810
 2602SOL    HW1 8705   5.828   6.798   6.820
 2602SOL    HW2 8706   5.738   6.669   6.864
 2603SOL     OW 8707   1.589   1.942   6.992
 2603SOL    HW1 8708   1.645   1.937   0.059
 2603SOL    HW2 8709   1.602   1.860   6.938
 2604SOL     OW 8710   5.626   1.557   1.126
 2604SOL    HW1 8711   5.616   1.458   1.126
 2604SOL    HW2 8712   5.717   1.581   1.162
 2605SOL     OW 8713   5.217   2.600   5.323
 2605SOL    HW1 8714   5.276   2.663   5.373
 2605SOL    HW2 8715   5.150   2.652   5.270
 2606SOL     OW 8716   6.534   4.711   1.620
 2606SOL    HW1 8717   6.459   4.728   1.684
 2606SOL    HW2 8718   6.550   4.613   1.613
 2607SOL     OW 8719   0.957   0.916   3.532
 2607SOL    HW1 8720   0.915   0.970   3.605
 2607SOL    HW2 8721   0.915   0.940   3.445
 2608SOL     OW 8722   4.337   0.812   0.272
 2608SOL    HW1 8723   4.325   0.861   0.359
 2608SOL    HW2 8724   4.397   0.733   0.287
 2609SOL     OW 8725   0.656   3.664   3.473
 2609SOL    HW1 8726   0.667   3.592   3.405
 2609SOL    HW2 8727   0.733   3.727   3.468
 2610SOL     OW 8728   5.354   5.553   4.699
 2610SOL    HW1 8729   5.421   5.484   4.726
 2610SOL    HW2 8730   5.262   5.516   4.711
 2611SOL     OW 8731   2.717   6.245   1.966
 2611SOL    HW1 8732   2.706   6.274   1.871
 2611SOL    HW2 8733   2.742   6.148   1.968
 2612SOL     OW 8734   0.818   6.972   5.100
 2612SOL    HW1 8735   0.897   0.003   5.138
 2612SOL    HW2 8736   0.751   6.954   5.172
 2613SOL     OW 8737   3.675   1.409   0.022
 2613SOL    HW1 8738   3.595   1.459   0.055
 2613SOL    HW2 8739   3.649   1.314   0.004
 2614SOL     OW 8740   6.380   6.631   6.619
 2614SOL    HW1 8741   6.404   6.684   6.700
 2614SOL    HW2 8742   6.374   6.693   6.540
 2615SOL     OW 8743   6.797   4.202   1.297
 2615SOL    HW1 8744   6.793   4.156   1.386
 2615SOL    HW2 8745   6.723   4.269   1.291
 2616SOL     OW 8746   3.770   4.149   1.773
 2616SOL    HW1 8747   3.713   4.174   1.695
 2616SOL    HW2 8748   3.827   4.070   1.748
 2617SOL     OW 8749   2.381   6.570   1.271
 2617SOL    HW1 8750   2.461   6.609   1.316
 2617SOL    HW2 8751   2.408   6.488   1.221
 2618SOL     OW 8752   0.822   6.000   0.294
 2618SOL    HW1 8753   0.765   5.922   0.267
 2618SOL    HW2 8754   0.820   6.069   0.222
 2619SOL     OW 8755   6.482   1.256   2.032
 2619SOL    HW1 8756   6.412   1.191   2.001
 2619SOL    HW2 8757   6.440   1.323   2.094
 2620SOL     OW 8758   1.349   5.509   4.454
 2620SOL    HW1 8759   1.412   5.452   4.401
 2620SOL    HW2 8760   1.396   5.544   4.535
 2621SOL     OW 8761   0.972   6.268   4.291
 2621SOL    HW1 8762   0.989   6.254   4.389
 2621SOL    HW2 8763   0.874   6.269   4.274
 2622SOL     OW 8764   2.322   2.487   4.238
 2622SOL    HW1 8765   2.312   2.433   4.322
 2622SOL    HW2 8766   2.417   2.484   4.208
 2623SOL     OW 8767   3.252   6.784   5.912
 2623SOL    HW1 8768   3.168   6.820   5.953
 2623SOL    HW2 8769   3.228   6.729   5.832
 2624SOL     OW 8770   5.150   1.805   4.520
 2624SOL    HW1 8771   5.137   1.843   4.429
 2624SOL    HW2 8772   5.119   1.871   4.589
 2625SOL     OW 8773   2.633   6.628   6.301
 2625SOL    HW1 8774   2.603   6.699   6.364
 2625SOL    HW2 8775   2.726   6.648   6.270
 2626SOL     OW 8776   2.172   6.763   3.191
 2626SOL    HW1 8777   2.204   6.844   3.240
 2626SOL    HW2 8778   2.246   6.697   3.183
 2627SOL     OW 8779   0.901   0.034   4.834
 2627SOL    HW1 8780   0.868   7.008   4.919
 2627SOL    HW2 8781   0.881   6.989   4.757
 2628SOL     OW 8782   4.852   5.364   0.164
 2628SOL    HW1 8783   4.815   5.388   0.074
 2628SOL    HW2 8784   4.912   5.284   0.155
 2629SOL     OW 8785   2.668   3.728   1.727
 2629SOL    HW1 8786   2.665   3.633   1.756
 2629SOL    HW2 8787   2.752   3.771   1.760
 2630SOL     OW 8788   3.496   2.094   2.185
 2630SOL    HW1 8789   3.505   2.021   2.117
 2630SOL    HW2 8790   3.508   2.182   2.140
 2631SOL     OW 8791   2.985   6.751   4.524
 2631SOL    HW1 8792   3.020   6.658   4.529
 2631SOL    HW2 8793   2.934   6.772   4.607
 2632SOL     OW 8794   4.686   1.608   1.195
 2632SOL    HW1 8795   4.589   1.635   1.191
 2632SOL    HW2 8796   4.692   1.515   1.232
 2633SOL     OW 8797   6.986   2.608   0.372
 2633SOL    HW1 8798   6.899   2.642   0.406
 2633SOL    HW2 8799   6.971   2.553   0.290
 2634SOL     OW 8800   2.848   4.925   0.074
 2634SOL    HW1 8801   2.888   4.891   0.160
 2634SOL    HW2 8802   2.899   4.888   7.012
 2635SOL     OW 8803   6.493   4.405   3.443
 2635SOL    HW1 8804   6.415   4.435   3.499
 2635SOL    HW2 8805   6.566   4.374   3.502
 2636SOL     OW 8806   5.470   5.496   5.199
 2636SOL    HW1 8807   5.499   5.478   5.293
 2636SOL    HW2 8808   5.476   5.594   5.180
 2637SOL     OW 8809   5.343   5.509   2.317
 2637SOL    HW1 8810   5.282   5.551   2.250
 2637SOL    HW2 8811   5.318   5.540   2.409
 2638SOL     OW 8812   5.344   5.498   0.355
 2638SOL    HW1 8813   5.391   5.492   0.444
 2638SOL    HW2 8814   5.404   5.545   0.290
 2639SOL     OW 8815   6.749   0.178   0.135
 2639SOL    HW1 8816   6.722   0.194   0.041
 2639SOL    HW2 8817   6.755   0.080   0.152
 2640SOL     OW 8818   6.791   6.179   6.799
 2640SOL    HW1 8819   6.720   6.175   6.869
 2640SOL    HW2 8820   6.759   6.233   6.721
 2641SOL     OW 8821   0.201   5.690   1.002
 2641SOL    HW1 8822   0.149   5.608   0.979
 2641SOL    HW2 8823   0.169   5.726   1.090
 2642SOL     OW 8824   6.454   0.303   4.346
 2642SOL    HW1 8825   6.451   0.251   4.260
 2642SOL    HW2 8826   6.466   0.400   4.326
 2643SOL     OW 8827   2.053   0.444   2.320
 2643SOL    HW1 8828   1.961   0.417   2.349
 2643SOL    HW2 8829   2.059   0.544   2.318
 2644SOL     OW 8830   5.862   6.213   4.560
 2644SOL    HW1 8831   5.952   6.253   4.575
 2644SOL    HW2 8832   5.800   6.242   4.633
 2645SOL     OW 8833   5.292   5.938   6.931
 2645SOL    HW1 8834   5.304   6.028   6.973
 2645SOL    HW2 8835   5.271   5.871   7.003
 2646SOL     OW 8836   5.451   5.805   5.827
 2646SOL    HW1 8837   5.505   5.751   5.892
 2646SOL    HW2 8838   5.415   5.886   5.872
 2647SOL     OW 8839   3.232   4.006   0.593
 2647SOL    HW1 8840   3.263   4.079   0.655
 2647SOL    HW2 8841   3.160   4.041   0.533
 2648SOL     OW 8842   4.203   1.274   3.937
 2648SOL    HW1 8843   4.222   1.178   3.915
 2648SOL    HW2 8844   4.137   1.310   3.872
 2649SOL     OW 8845   3.123   4.069   5.226
 2649SOL    HW1 8846   3.089   4.163   5.222
 2649SOL    HW2 8847   3.049   4.009   5.257
 2650SOL     OW 8848   0.711   6.871   2.869
 2650SOL    HW1 8849   0.702   6.967   2.841
 2650SOL    HW2 8850   0.801   6.857   2.911
 2651SOL     OW 8851   1.129   6.991   3.031
 2651SOL    HW1 8852   1.218   6.956   3.060
 2651SOL    HW2 8853   1.132   0.075   3.029
 2652SOL     OW 8854   3.190   2.977   2.297
 2652SOL    HW1 8855   3.288   2.979   2.277
 2652SOL    HW2 8856   3.175   2.958   2.394
 2653SOL     OW 8857   6.391   6.535   1.131
 2653SOL    HW1 8858   6.382   6.581   1.219
 2653SOL    HW2 8859   6.301   6.510   1.096
 2654SOL     OW 8860   6.858   2.944   6.009
 2654SOL    HW1 8861   6.778   2.977   5.960
 2654SOL    HW2 8862   6.843   2.952   6.107
 2655SOL     OW 8863   5.626   4.877   4.081
 2655SOL    HW1 8864   5.698   4.810   4.100
 2655SOL    HW2 8865   5.587   4.860   3.991
 2656SOL     OW 8866   6.351   3.351   5.301
 2656SOL    HW1 8867   6.316   3.259   5.321
 2656SOL    HW2 8868   6.340   3.370   5.204
 2657SOL     OW 8869   4.105   2.401   5.735
 2657SOL    HW1 8870   4.012   2.363   5.737
 2657SOL    HW2 8871   4.124   2.447   5.822
 2658SOL     OW 8872   6.894   4.101   5.387
 2658SOL    HW1 8873   6.812   4.125   5.335
 2658SOL    HW2 8874   6.944   4.028   5.339
 2659SOL     OW 8875   6.775   1.073   3.879
 2659SOL    HW1 8876   6.753   0.975   3.875
 2659SOL    HW2 8877   6.708   1.120   3.937
 2660SOL     OW 8878   0.966   2.047   3.841
 2660SOL    HW1 8879   0.910   1.995   3.905
 2660SOL    HW2 8880   0.973   1.997   3.754
 2661SOL     OW 8881   3.456   6.911   3.349
 2661SOL    HW1 8882   3.497   6.841   3.407
 2661SOL    HW2 8883   3.398   6.867   3.280
 2662SOL     OW 8884   3.589   0.883   4.134
 2662SOL    HW1 8885   3.575   0.927   4.045
 2662SOL    HW2 8886   3.560   0.945   4.207
 2663SOL     OW 8887   0.791   4.008   2.842
 2663SOL    HW1 8888   0.724   4.036   2.910
 2663SOL    HW2 8889   0.746   3.955   2.771
 2664SOL     OW 8890   4.659   4.440   1.767
 2664SOL    HW1 8891   4.588   4.387   1.814
 2664SOL    HW2 8892   4.666   4.531   1.809
 2665SOL     OW 8893   4.616   0.959   4.889
 2665SOL    HW1 8894   4.710   0.929   4.872
 2665SOL    HW2 8895   4.610   1.058   4.880
 2666SOL     OW 8896   5.001   5.853   2.000
 2666SOL    HW1 8897   4.997   5.874   1.903
 2666SOL    HW2 8898   4.952   5.768   2.018
 2667SOL     OW 8899   2.137   4.742   2.499
 2667SOL    HW1 8900   2.055   4.692   2.526
 2667SOL    HW2 8901   2.130   4.770   2.403
 2668SOL     OW 8902   6.860   2.606   5.586
 2668SOL    HW1 8903   6.869   2.676   5.657
 2668SOL    HW2 8904   6.935   2.616   5.520
 2669SOL     OW 8905   4.181   6.032   4.649
 2669SOL    HW1 8906   4.092   6.036   4.695
 2669SOL    HW2 8907   4.195   5.941   4.611
 2670SOL     OW 8908   2.345   6.604   4.417
 2670SOL    HW1 8909   2.307   6.517   4.385
 2670SOL    HW2 8910   2.282   6.647   4.481
 2671SOL     OW 8911   3.216   3.784   0.019
 2671SOL    HW1 8912   3.226   3.757   0.114
 2671SOL    HW2 8913   3.125   3.759   7.002
 2672SOL     OW 8914   0.743   4.662   0.762
 2672SOL    HW1 8915   0.794   4.689   0.681
 2672SOL    HW2 8916   0.715   4.566   0.754
 2673SOL     OW 8917   3.618   2.062   2.853
 2673SOL    HW1 8918   3.584   2.039   2.944
 2673SOL    HW2 8919   3.671   2.147   2.858
 2674SOL     OW 8920   5.172   5.965   5.049
 2674SOL    HW1 8921   5.084   5.918   5.044
 2674SOL    HW2 8922   5.175   6.022   5.132
 2675SOL     OW 8923   0.176   5.203   5.521
 2675SOL    HW1 8924   0.201   5.290   5.564
 2675SOL    HW2 8925   0.232   5.130   5.559
 2676SOL     OW 8926   4.290   0.508   1.749
 2676SOL    HW1 8927   4.319   0.600   1.775
 2676SOL    HW2 8928   4.370   0.449   1.738
 2677SOL     OW 8929   2.452   4.866   1.887
 2677SOL    HW1 8930   2.507   4.784   1.902
 2677SOL    HW2 8931   2.469   4.900   1.794
 2678SOL     OW 8932   0.426   6.589   6.890
 2678SOL    HW1 8933   0.365   6.532   6.834
 2678SOL    HW2 8934   0.373   6.658   6.939
 2679SOL     OW 8935   2.243   4.970   1.598
 2679SOL    HW1 8936   2.216   5.062   1.569
 2679SOL    HW2 8937   2.342   4.964   1.602
 2680SOL     OW 8938   0.071   2.056   1.151
 2680SOL    HW1 8939   7.015   2.108   1.105
 2680SOL    HW2 8940   0.160   2.083   1.114
 2681SOL     OW 8941   1.943   2.389   1.501
 2681SOL    HW1 8942   2.006   2.465   1.515
 2681SOL    HW2 8943   1.980   2.307   1.545
 2682SOL     OW 8944   0.246   2.730   3.850
 2682SOL    HW1 8945   0.297   2.666   3.793
 2682SOL    HW2 8946   0.261   2.823   3.817
 2683SOL     OW 8947   1.452   0.029   0.454
 2683SOL    HW1 8948   1.481   6.950   0.461
 2683SOL    HW2 8949   1.376   0.046   0.517
 2684SOL     OW 8950   2.173   5.089   2.929
 2684SOL    HW1 8951   2.249   5.111   2.990
 2684SOL    HW2 8952   2.178   4.992   2.904
 2685SOL     OW 8953   5.362   5.153   5.714
 2685SOL    HW1 8954   5.329   5.182   5.625
 2685SOL    HW2 8955   5.422   5.074   5.704
 2686SOL     OW 8956   1.016   3.292   4.759
 2686SOL    HW1 8957   1.103   3.301   4.808
 2686SOL    HW2 8958   0.989   3.381   4.724
 2687SOL     OW 8959   4.690   5.129   2.990
 2687SOL    HW1 8960   4.631   5.053   2.961
 2687SOL    HW2 8961   4.770   5.093   3.039
 2688SOL     OW 8962   3.406   4.612   5.302
 2688SOL    HW1 8963   3.429   4.521   5.267
 2688SOL    HW2 8964   3.307   4.619   5.312
 2689SOL     OW 8965   6.176   1.987   4.012
 2689SOL    HW1 8966   6.234   1.907   4.002
 2689SOL    HW2 8967   6.197   2.033   4.098
 2690SOL     OW 8968   3.089   4.033   3.582
 2690SOL    HW1 8969   3.054   3.941   3.600
 2690SOL    HW2 8970   3.013   4.092   3.554
 2691SOL     OW 8971   1.406   5.879   1.434
 2691SOL    HW1 8972   1.365   5.906   1.347
 2691SOL    HW2 8973   1.349   5.911   1.509
 2692SOL     OW 8974   6.815   4.166   3.838
 2692SOL    HW1 8975   6.867   4.151   3.921
 2692SOL    HW2 8976   6.859   4.120   3.761
 2693SOL     OW 8977   2.139   3.827   2.383
 2693SOL    HW1 8978   2.212   3.890   2.358
 2693SOL    HW2 8979   2.053   3.859   2.342
 2694SOL     OW 8980   2.030   1.436   2.910
 2694SOL    HW1 8981   1.977   1.383   2.844
 2694SOL    HW2 8982   2.087   1.502   2.862
 2695SOL     OW 8983   4.042   2.206   1.977
 2695SOL    HW1 8984   4.102   2.284   1.958
 2695SOL    HW2 8985   4.019   2.204   2.074
 2696SOL     OW 8986   3.713   3.436   6.137
 2696SOL    HW1 8987   3.666   3.365   6.085
 2696SOL    HW2 8988   3.775   3.487   6.077
 2697SOL     OW 8989   2.732   1.084   5.192
 2697SOL    HW1 8990   2.770   0.994   5.213
 2697SOL    HW2 8991   2.633   1.076   5.177
 2698SOL     OW 8992   1.557   1.645   6.943
 2698SOL    HW1 8993   1.598   1.622   6.854
 2698SOL    HW2 8994   1.521   1.563   6.986
 2699SOL     OW 8995   1.496   4.789   3.852
 2699SOL    HW1 8996   1.449   4.815   3.767
 2699SOL    HW2 8997   1.431   4.747   3.915
 2700SOL     OW 8998   2.209   4.487   2.654
 2700SOL    HW1 8999   2.199   4.566   2.715
 2700SOL    HW2 9000   2.302   4.486   2.617
 2701SOL     OW 9001   2.389   0.469   5.270
 2701SOL    HW1 9002   2.403   0.565   5.294
 2701SOL    HW2 9003   2.412   0.455   5.174
 2702SOL     OW 9004   5.941   6.753   3.004
 2702SOL    HW1 9005   5.992   6.738   3.088
 2702SOL    HW2 9006   5.960   6.678   2.939
 2703SOL     OW 9007   1.851   2.395   2.914
 2703SOL    HW1 9008   1.910   2.317   2.935
 2703SOL    HW2 9009   1.853   2.460   2.991
 2704SOL     OW 9010   0.862   6.332   0.511
 2704SOL    HW1 9011   0.925   6.340   0.589
 2704SOL    HW2 9012   0.914   6.333   0.426
 2705SOL     OW 9013   0.228   2.999   2.516
 2705SOL    HW1 9014   0.157   3.047   2.568
 2705SOL    HW2 9015   0.286   3.066   2.470
 2706SOL     OW 9016   6.571   2.491   3.832
 2706SOL    HW1 9017   6.524   2.486   3.743
 2706SOL    HW2 9018   6.559   2.583   3.870
 2707SOL     OW 9019   3.430   1.027   6.981
 2707SOL    HW1 9020   3.512   1.076   7.011
 2707SOL    HW2 9021   3.442   0.998   6.886
 2708SOL     OW 9022   1.439   4.805   6.784
 2708SOL    HW1 9023   1.486   4.824   6.698
 2708SOL    HW2 9024   1.360   4.746   6.767
 2709SOL     OW 9025   4.012   0.163   1.948
 2709SOL    HW1 9026   3.922   0.199   1.972
 2709SOL    HW2 9027   4.020   0.069   1.983
 2710SOL     OW 9028   6.228   4.335   3.087
 2710SOL    HW1 9029   6.246   4.265   3.156
 2710SOL    HW2 9030   6.143   4.313   3.039
 2711SOL     OW 9031   1.076   6.557   2.241
 2711SOL    HW1 9032   1.107   6.469   2.206
 2711SOL    HW2 9033   0.977   6.565   2.226
 2712SOL     OW 9034   2.776   5.428   2.728
 2712SOL    HW1 9035   2.790   5.400   2.823
 2712SOL    HW2 9036   2.735   5.519   2.725
 2713SOL     OW 9037   2.277   2.912   5.488
 2713SOL    HW1 9038   2.305   2.997   5.533
 2713SOL    HW2 9039   2.239   2.934   5.397
 2714SOL     OW 9040   5.824   0.523   0.233
 2714SOL    HW1 9041   5.873   0.533   0.146
 2714SOL    HW2 9042   5.748   0.588   0.236
 2715SOL     OW 9043   5.916   0.512   0.552
 2715SOL    HW1 9044   6.003   0.523   0.600
 2715SOL    HW2 9045   5.934   0.489   0.456
 2716SOL     OW 9046   6.125   6.390   2.251
 2716SOL    HW1 9047   6.068   6.308   2.246
 2716SOL    HW2 9048   6.067   6.470   2.268
 2717SOL     OW 9049   0.589   0.031   3.292
 2717SOL    HW1 9050   0.677   0.014   3.248
 2717SOL    HW2 9051   0.603   0.057   3.387
 2718SOL     OW 9052   6.687   3.771   3.127
 2718SOL    HW1 9053   6.604   3.792   3.178
 2718SOL    HW2 9054   6.742   3.854   3.117
 2719SOL     OW 9055   4.038   4.819   2.912
 2719SOL    HW1 9056   4.032   4.778   2.821
 2719SOL    HW2 9057   3.947   4.823   2.953
 2720SOL     OW 9058   0.856   6.454   4.485
 2720SOL    HW1 9059   0.887   6.407   4.568
 2720SOL    HW2 9060   0.804   6.390   4.428
 2721SOL     OW 9061   4.904   6.004   3.449
 2721SOL    HW1 9062   4.823   6.035   3.498
 2721SOL    HW2 9063   4.953   6.083   3.412
 2722SOL     OW 9064   0.688   5.755   2.164
 2722SOL    HW1 9065   0.612   5.700   2.200
 2722SOL    HW2 9066   0.772   5.730   2.211
 2723SOL     OW 9067   1.680   2.303   4.191
 2723SOL    HW1 9068   1.749   2.233   4.175
 2723SOL    HW2 9069   1.725   2.392   4.200
 2724SOL     OW 9070   4.482   5.907   5.837
 2724SOL    HW1 9071   4.417   5.958   5.780
 2724SOL    HW2 9072   4.522   5.967   5.905
 2725SOL     OW 9073   2.287   4.710   2.948
 2725SOL    HW1 9074   2.369   4.766   2.944
 2725SOL    HW2 9075   2.211   4.759   2.906
 2726SOL     OW 9076   3.981   6.035   2.453
 2726SOL    HW1 9077   3.950   6.089   2.530
 2726SOL    HW2 9078   4.079   6.015   2.463
 2727SOL     OW 9079   2.204   5.948   4.137
 2727SOL    HW1 9080   2.193   5.848   4.143
 2727SOL    HW2 9081   2.202   5.976   4.041
 2728SOL     OW 9082   2.419   6.654   5.704
 2728SOL    HW1 9083   2.341   6.715   5.716
 2728SOL    HW2 9084   2.464   6.641   5.793
 2729SOL     OW 9085   0.300   4.699   2.387
 2729SOL    HW1 9086   0.287   4.752   2.471
 2729SOL    HW2 9087   0.228   4.723   2.321
 2730SOL     OW 9088   1.743   3.765   1.165
 2730SOL    HW1 9089   1.703   3.797   1.251
 2730SOL    HW2 9090   1.688   3.690   1.129
 2731SOL     OW 9091   2.306   3.258   0.138
 2731SOL    HW1 9092   2.323   3.166   0.175
 2731SOL    HW2 9093   2.224   3.296   0.181
 2732SOL     OW 9094   5.848   3.318   4.389
 2732SOL    HW1 9095   5.937   3.351   4.359
 2732SOL    HW2 9096   5.846   3.314   4.489
 2733SOL     OW 9097   2.023   0.576   0.239
 2733SOL    HW1 9098   1.928   0.553   0.222
 2733SOL    HW2 9099   2.046   0.552   0.334
 2734SOL     OW 9100   1.921   0.044   4.182
 2734SOL    HW1 9101   1.855   0.077   4.249
 2734SOL    HW2 9102   1.878   0.040   4.092
 2735SOL     OW 9103   1.776   5.184   1.413
 2735SOL    HW1 9104   1.680   5.165   1.433
 2735SOL    HW2 9105   1.788   5.281   1.394
 2736SOL     OW 9106   4.079   0.279   6.610
 2736SOL    HW1 9107   3.991   0.245   6.644
 2736SOL    HW2 9108   4.144   0.203   6.602
 2737SOL     OW 9109   4.082   4.123   5.496
 2737SOL    HW1 9110   4.007   4.057   5.493
 2737SOL    HW2 9111   4.108   4.147   5.402
 2738SOL     OW 9112   6.866   4.267   4.344
 2738SOL    HW1 9113   6.915   4.243   4.261
 2738SOL    HW2 9114   6.930   4.270   4.421
 2739SOL     OW 9115   4.645   3.701   6.739
 2739SOL    HW1 9116   4.644   3.719   6.837
 2739SOL    HW2 9117   4.712   3.630   6.719
 2740SOL     OW 9118   5.879   2.464   4.484
 2740SOL    HW1 9119   5.887   2.457   4.583
 2740SOL    HW2 9120   5.785   2.484   4.459
 2741SOL     OW 9121   2.228   3.297   5.637
 2741SOL    HW1 9122   2.243   3.266   5.543
 2741SOL    HW2 9123   2.265   3.389   5.649
 2742SOL     OW 9124   2.918   6.403   5.413
 2742SOL    HW1 9125   3.015   6.425   5.396
 2742SOL    HW2 9126   2.866   6.488   5.415
 2743SOL     OW 9127   6.058   4.158   6.292
 2743SOL    HW1 9128   6.122   4.224   6.251
 2743SOL    HW2 9129   5.996   4.206   6.354
 2744SOL     OW 9130   4.748   0.097   1.026
 2744SOL    HW1 9131   4.798   0.020   1.066
 2744SOL    HW2 9132   4.722   0.075   0.932
 2745SOL     OW 9133   3.154   5.868   2.139
 2745SOL    HW1 9134   3.134   5.772   2.120
 2745SOL    HW2 9135   3.075   5.911   2.183
 2746SOL     OW 9136   1.083   2.451   6.923
 2746SOL    HW1 9137   1.151   2.378   6.920
 2746SOL    HW2 9138   1.004   2.421   6.976
 2747SOL     OW 9139   5.101   5.869   4.024
 2747SOL    HW1 9140   5.009   5.905   4.010
 2747SOL    HW2 9141   5.162   5.906   3.954
 2748SOL     OW 9142   5.321   1.430   4.811
 2748SOL    HW1 9143   5.291   1.419   4.716
 2748SOL    HW2 9144   5.301   1.522   4.843
 2749SOL     OW 9145   5.642   4.670   2.911
 2749SOL    HW1 9146   5.667   4.579   2.878
 2749SOL    HW2 9147   5.724   4.727   2.919
 2750SOL     OW 9148   0.815   7.004   0.123
 2750SOL    HW1 9149   0.787   0.010   0.217
 2750SOL    HW2 9150   0.913   0.006   0.114
 2751SOL     OW 9151   1.207   0.195   6.616
 2751SOL    HW1 9152   1.173   0.179   6.709
 2751SOL    HW2 9153   1.219   0.107   6.569
 2752SOL     OW 9154   0.405   6.492   6.431
 2752SOL    HW1 9155   0.391   6.401   6.391
 2752SOL    HW2 9156   0.502   6.516   6.426
 2753SOL     OW 9157   3.104   5.441   4.409
 2753SOL    HW1 9158   3.167   5.363   4.407
 2753SOL    HW2 9159   3.118   5.493   4.494
 2754SOL     OW 9160   1.120   5.626   4.008
 2754SOL    HW1 9161   1.160   5.702   3.957
 2754SOL    HW2 9162   1.041   5.590   3.958
 2755SOL     OW 9163   4.507   6.674   2.538
 2755SOL    HW1 9164   4.475   6.612   2.610
 2755SOL    HW2 9165   4.435   6.685   2.469
 2756SOL     OW 9166   0.085   2.755   5.191
 2756SOL    HW1 9167   0.154   2.744   5.263
 2756SOL    HW2 9168   0.124   2.727   5.103
 2757SOL     OW 9169   4.950   4.109   5.855
 2757SOL    HW1 9170   4.992   4.038   5.911
 2757SOL    HW2 9171   4.893   4.067   5.785
 2758SOL     OW 9172   0.327   6.691   1.821
 2758SOL    HW1 9173   0.326   6.592   1.803
 2758SOL    HW2 9174   0.397   6.712   1.889
 2759SOL     OW 9175   3.793   3.826   5.095
 2759SOL    HW1 9176   3.800   3.757   5.023
 2759SOL    HW2 9177   3.699   3.861   5.099
 2760SOL     OW 9178   4.991   5.564   2.728
 2760SOL    HW1 9179   5.034   5.645   2.766
 2760SOL    HW2 9180   4.891   5.571   2.738
 2761SOL     OW 9181   1.917   3.330   3.908
 2761SOL    HW1 9182   2.016   3.327   3.893
 2761SOL    HW2 9183   1.885   3.425   3.901
 2762SOL     OW 9184   4.429   1.398   2.459
 2762SOL    HW1 9185   4.373   1.435   2.385
 2762SOL    HW2 9186   4.435   1.466   2.533
 2763SOL     OW 9187   5.240   1.130   3.758
 2763SOL    HW1 9188   5.153   1.102   3.717
 2763SOL    HW2 9189   5.226   1.151   3.855
 2764SOL     OW 9190   0.049   2.154   2.976
 2764SOL    HW1 9191   7.007   2.234   2.992
 2764SOL    HW2 9192   0.145   2.180   2.985
 2765SOL     OW 9193   0.221   6.637   0.067
 2765SOL    HW1 9194   0.160   6.700   0.114
 2765SOL    HW2 9195   0.167   6.569   0.018
 2766SOL     OW 9196   4.843   0.494   0.426
 2766SOL    HW1 9197   4.803   0.508   0.335
 2766SOL    HW2 9198   4.942   0.489   0.418
 2767SOL     OW 9199   0.495   6.316   5.916
 2767SOL    HW1 9200   0.470   6.398   5.968
 2767SOL    HW2 9201   0.519   6.343   5.822
 2768SOL     OW 9202   3.818   0.303   1.752
 2768SOL    HW1 9203   3.775   0.378   1.802
 2768SOL    HW2 9204   3.915   0.324   1.737
 2769SOL     OW 9205   0.586   4.968   5.743
 2769SOL    HW1 9206   0.514   4.909   5.780
 2769SOL    HW2 9207   0.675   4.934   5.772
 2770SOL     OW 9208   2.599   6.455   0.753
 2770SOL    HW1 9209   2.534   6.483   0.823
 2770SOL    HW2 9210   2.685   6.427   0.797
 2771SOL     OW 9211   4.300   6.419   5.591
 2771SOL    HW1 9212   4.233   6.363   5.640
 2771SOL    HW2 9213   4.366   6.360   5.546
 2772SOL     OW 9214   6.001   1.675   3.043
 2772SOL    HW1 9215   5.940   1.711   2.972
 2772SOL    HW2 9216   6.066   1.611   3.003
 2773SOL     OW 9217   5.377   1.795   6.096
 2773SOL    HW1 9218   5.391   1.749   6.184
 2773SOL    HW2 9219   5.458   1.849   6.073
 2774SOL     OW 9220   6.536   0.457   3.527
 2774SOL    HW1 9221   6.494   0.545   3.554
 2774SOL    HW2 9222   6.466   0.386   3.526
 2775SOL     OW 9223   6.781   2.280   4.494
 2775SOL    HW1 9224   6.699   2.338   4.494
 2775SOL    HW2 9225   6.783   2.225   4.410
 2776SOL     OW 9226   4.805   3.933   6.062
 2776SOL    HW1 9227   4.848   3.864   6.004
 2776SOL    HW2 9228   4.830   3.917   6.157
 2777SOL     OW 9229   1.412   1.745   0.333
 2777SOL    HW1 9230   1.430   1.647   0.324
 2777SOL    HW2 9231   1.485   1.796   0.288
 2778SOL     OW 9232   2.423   6.283   5.776
 2778SOL    HW1 9233   2.471   6.196   5.765
 2778SOL    HW2 9234   2.471   6.340   5.842
 2779SOL     OW 9235   5.430   1.071   3.337
 2779SOL    HW1 9236   5.379   1.132   3.399
 2779SOL    HW2 9237   5.466   0.993   3.389
 2780SOL     OW 9238   0.829   0.364   5.267
 2780SOL    HW1 9239   0.790   0.323   5.184
 2780SOL    HW2 9240   0.758   0.415   5.315
 2781SOL     OW 9241   0.151   0.424   3.118
 2781SOL    HW1 9242   0.079   0.402   3.052
 2781SOL    HW2 9243   0.111   0.478   3.193
 2782SOL     OW 9244   5.708   6.641   5.061
 2782SOL    HW1 9245   5.795   6.688   5.051
 2782SOL    HW2 9246   5.638   6.688   5.008
 2783SOL     OW 9247   6.213   2.816   1.848
 2783SOL    HW1 9248   6.157   2.829   1.766
 2783SOL    HW2 9249   6.303   2.857   1.833
 2784SOL     OW 9250   0.898   2.304   1.866
 2784SOL    HW1 9251   0.989   2.298   1.824
 2784SOL    HW2 9252   0.841   2.367   1.813
 2785SOL     OW 9253   5.193   3.883   3.851
 2785SOL    HW1 9254   5.096   3.870   3.833
 2785SOL    HW2 9255   5.235   3.933   3.776
 2786SOL     OW 9256   6.830   5.635   0.765
 2786SOL    HW1 9257   6.863   5.569   0.697
 2786SOL    HW2 9258   6.900   5.705   0.779
 2787SOL     OW 9259   0.355   6.940   6.024
 2787SOL    HW1 9260   0.397   0.008   6.059
 2787SOL    HW2 9261   0.335   6.879   6.100
 2788SOL     OW 9262   2.946   6.466   0.103
 2788SOL    HW1 9263   2.897   6.416   0.175
 2788SOL    HW2 9264   2.896   6.549   0.079
 2789SOL     OW 9265   2.058   2.119   3.644
 2789SOL    HW1 9266   2.097   2.197   3.692
 2789SOL    HW2 9267   2.063   2.038   3.703
 2790SOL     OW 9268   0.641   4.801   1.340
 2790SOL    HW1 9269   0.681   4.740   1.409
 2790SOL    HW2 9270   0.703   4.808   1.262
 2791SOL     OW 9271   0.413   3.466   5.282
 2791SOL    HW1 9272   0.389   3.495   5.375
 2791SOL    HW2 9273   0.461   3.540   5.235
 2792SOL     OW 9274   2.864   2.597   6.903
 2792SOL    HW1 9275   2.954   2.581   6.864
 2792SOL    HW2 9276   2.844   2.528   6.972
 2793SOL     OW 9277   4.194   3.582   6.229
 2793SOL    HW1 9278   4.161   3.528   6.307
 2793SOL    HW2 9279   4.249   3.659   6.263
 2794SOL     OW 9280   1.374   2.041   6.585
 2794SOL    HW1 9281   1.465   2.056   6.625
 2794SOL    HW2 9282   1.366   1.945   6.558
 2795SOL     OW 9283   1.196   0.042   0.609
 2795SOL    HW1 9284   1.166   6.984   0.670
 2795SOL    HW2 9285   1.217   0.124   0.663
 2796SOL     OW 9286   3.110   5.834   0.130
 2796SOL    HW1 9287   3.188   5.895   0.120
 2796SOL    HW2 9288   3.047   5.846   0.054
 2797SOL     OW 9289   4.942   4.173   4.687
 2797SOL    HW1 9290   5.040   4.152   4.688
 2797SOL    HW2 9291   4.890   4.089   4.695
 2798SOL     OW 9292   5.320   2.797   1.571
 2798SOL    HW1 9293   5.315   2.698   1.583
 2798SOL    HW2 9294   5.391   2.834   1.631
 2799SOL     OW 9295   3.218   0.139   4.570
 2799SOL    HW1 9296   3.226   0.059   4.630
 2799SOL    HW2 9297   3.297   0.142   4.508
 2800SOL     OW 9298   5.021   1.408   6.670
 2800SOL    HW1 9299   5.069   1.464   6.602
 2800SOL    HW2 9300   5.085   1.382   6.742
 2801SOL     OW 9301   6.963   4.068   3.618
 2801SOL    HW1 9302   0.019   4.137   3.609
 2801SOL    HW2 9303   7.004   3.981   3.643
 2802SOL     OW 9304   1.587   4.277   4.202
 2802SOL    HW1 9305   1.511   4.331   4.167
 2802SOL    HW2 9306   1.660   4.338   4.233
 2803SOL     OW 9307   3.452   2.957   6.611
 2803SOL    HW1 9308   3.513   2.970   6.689
 2803SOL    HW2 9309   3.449   3.041   6.556
 2804SOL     OW 9310   5.668   2.220   3.687
 2804SOL    HW1 9311   5.582   2.171   3.670
 2804SOL    HW2 9312   5.714   2.238   3.601
 2805SOL     OW 9313   4.100   5.502   0.427
 2805SOL    HW1 9314   4.154   5.548   0.498
 2805SOL    HW2 9315   4.058   5.420   0.464
 2806SOL     OW 9316   0.655   3.040   4.806
 2806SOL    HW1 9317   0.615   2.977   4.739
 2806SOL    HW2 9318   0.582   3.093   4.849
 2807SOL     OW 9319   4.431   1.473   4.015
 2807SOL    HW1 9320   4.339   1.491   3.979
 2807SOL    HW2 9321   4.435   1.381   4.053
 2808SOL     OW 9322   0.870   6.025   6.725
 2808SOL    HW1 9323   0.807   6.056   6.797
 2808SOL    HW2 9324   0.940   6.095   6.711
 2809SOL     OW 9325   1.457   6.302   0.820
 2809SOL    HW1 9326   1.517   6.234   0.779
 2809SOL    HW2 9327   1.501   6.342   0.900
 2810SOL     OW 9328   0.538   6.233   2.526
 2810SOL    HW1 9329   0.525   6.324   2.566
 2810SOL    HW2 9330   0.475   6.221   2.450
 2811SOL     OW 9331   0.649   0.213   0.726
 2811SOL    HW1 9332   0.722   0.281   0.734
 2811SOL    HW2 9333   0.685   0.123   0.751
 2812SOL     OW 9334   1.600   1.128   1.078
 2812SOL    HW1 9335   1.532   1.182   1.128
 2812SOL    HW2 9336   1.690   1.168   1.092
 2813SOL     OW 9337   6.189   2.192   1.434
 2813SOL    HW1 9338   6.239   2.278   1.442
 2813SOL    HW2 9339   6.165   2.176   1.339
 2814SOL     OW 9340   2.179   4.468   6.564
 2814SOL    HW1 9341   2.086   4.500   6.548
 2814SOL    HW2 9342   2.219   4.519   6.641
 2815SOL     OW 9343   6.464   6.256   4.623
 2815SOL    HW1 9344   6.433   6.346   4.655
 2815SOL    HW2 9345   6.446   6.187   4.694
 2816SOL     OW 9346   1.114   5.196   4.826
 2816SOL    HW1 9347   1.142   5.177   4.920
 2816SOL    HW2 9348   1.153   5.126   4.765
 2817SOL     OW 9349   2.449   0.896   1.878
 2817SOL    HW1 9350   2.445   0.800   1.907
 2817SOL    HW2 9351   2.383   0.950   1.931
 2818SOL     OW 9352   1.954   1.208   0.226
 2818SOL    HW1 9353   2.044   1.252   0.217
 2818SOL    HW2 9354   1.966   1.118   0.267
 2819SOL     OW 9355   6.203   0.286   6.531
 2819SOL    HW1 9356   6.218   0.310   6.627
 2819SOL    HW2 9357   6.113   0.319   6.502
 2820SOL     OW 9358   1.846   1.585   0.421
 2820SOL    HW1 9359   1.831   1.658   0.355
 2820SOL    HW2 9360   1.914   1.614   0.488
 2821SOL     OW 9361   3.488   2.169   6.004
 2821SOL    HW1 9362   3.493   2.241   6.074
 2821SOL    HW2 9363   3.523   2.083   6.043
 2822SOL     OW 9364   4.301   2.731   1.315
 2822SOL    HW1 9365   4.204   2.739   1.293
 2822SOL    HW2 9366   4.313   2.727   1.414
 2823SOL     OW 9367   5.322   4.187   3.120
 2823SOL    HW1 9368   5.398   4.133   3.156
 2823SOL    HW2 9369   5.313   4.171   3.021
 2824SOL     OW 9370   0.680   4.512   5.411
 2824SOL    HW1 9371   0.593   4.464   5.421
 2824SOL    HW2 9372   0.752   4.445   5.391
 2825SOL     OW 9373   4.856   2.194   5.340
 2825SOL    HW1 9374   4.939   2.248   5.353
 2825SOL    HW2 9375   4.819   2.167   5.429
 2826SOL     OW 9376   3.128   3.260   7.003
 2826SOL    HW1 9377   3.162   3.213   6.921
 2826SOL    HW2 9378   3.159   3.211   0.068
 2827SOL     OW 9379   6.467   1.759   0.234
 2827SOL    HW1 9380   6.554   1.807   0.219
 2827SOL    HW2 9381   6.485   1.668   0.271
 2828SOL     OW 9382   1.726   4.781   0.116
 2828SOL    HW1 9383   1.819   4.756   0.088
 2828SOL    HW2 9384   1.714   4.759   0.213
 2829SOL     OW 9385   3.508   4.413   1.157
 2829SOL    HW1 9386   3.483   4.333   1.211
 2829SOL    HW2 9387   3.555   4.385   1.074
 2830SOL     OW 9388   2.850   5.394   4.385
 2830SOL    HW1 9389   2.949   5.390   4.400
 2830SOL    HW2 9390   2.832   5.432   4.294
 2831SOL     OW 9391   6.337   1.678   1.929
 2831SOL    HW1 9392   6.282   1.740   1.874
 2831SOL    HW2 9393   6.410   1.729   1.974
 2832SOL     OW 9394   1.831   3.931   1.582
 2832SOL    HW1 9395   1.864   3.840   1.609
 2832SOL    HW2 9396   1.898   3.973   1.521
 2833SOL     OW 9397   6.346   2.958   3.385
 2833SOL    HW1 9398   6.282   2.990   3.454
 2833SOL    HW2 9399   6.315   2.987   3.295
 2834SOL     OW 9400   2.996   0.713   4.292
 2834SOL    HW1 9401   2.950   0.693   4.379
 2834SOL    HW2 9402   3.012   0.627   4.243
 2835SOL     OW 9403   6.520   1.476   0.609
 2835SOL    HW1 9404   6.459   1.486   0.688
 2835SOL    HW2 9405   6.524   1.380   0.582
 2836SOL     OW 9406   3.498   5.890   1.555
 2836SOL    HW1 9407   3.510   5.900   1.456
 2836SOL    HW2 9408   3.414   5.838   1.573
 2837SOL     OW 9409   5.321   3.906   2.860
 2837SOL    HW1 9410   5.414   3.900   2.822
 2837SOL    HW2 9411   5.255   3.915   2.785
 2838SOL     OW 9412   0.114   3.995   5.951
 2838SOL    HW1 9413   0.039   4.047   5.911
 2838SOL    HW2 9414   0.200   4.019   5.905
 2839SOL     OW 9415   5.552   2.771   6.389
 2839SOL    HW1 9416   5.600   2.763   6.301
 2839SOL    HW2 9417   5.546   2.681   6.432
 2840SOL     OW 9418   6.381   5.992   4.718
 2840SOL    HW1 9419   6.310   6.025   4.781
 2840SOL    HW2 9420   6.406   5.898   4.742
 2841SOL     OW 9421   5.544   3.522   3.336
 2841SOL    HW1 9422   5.452   3.542   3.303
 2841SOL    HW2 9423   5.566   3.426   3.319
 2842SOL     OW 9424   0.822   6.329   3.475
 2842SOL    HW1 9425   0.789   6.247   3.520
 2842SOL    HW2 9426   0.807   6.408   3.534
 2843SOL     OW 9427   0.870   2.499   4.253
 2843SOL    HW1 9428   0.914   2.435   4.190
 2843SOL    HW2 9429   0.935   2.526   4.324
 2844SOL     OW 9430   5.548   4.000   0.187
 2844SOL    HW1 9431   5.496   3.918   0.168
 2844SOL    HW2 9432   5.514   4.076   0.131
 2845SOL     OW 9433   3.777   1.834   1.304
 2845SOL    HW1 9434   3.818   1.804   1.218
 2845SOL    HW2 9435   3.755   1.931   1.298
 2846SOL     OW 9436   4.921   0.411   6.470
 2846SOL    HW1 9437   4.986   0.475   6.428
 2846SOL    HW2 9438   4.848   0.390   6.405
 2847SOL     OW 9439   5.987   4.719   2.331
 2847SOL    HW1 9440   6.046   4.746   2.407
 2847SOL    HW2 9441   6.036   4.731   2.244
 2848SOL     OW 9442   0.529   3.484   0.371
 2848SOL    HW1 9443   0.625   3.508   0.357
 2848SOL    HW2 9444   0.513   3.466   0.468
 2849SOL     OW 9445   5.374   0.631   1.074
 2849SOL    HW1 9446   5.342   0.703   1.012
 2849SOL    HW2 9447   5.298   0.601   1.132
 2850SOL     OW 9448   6.949   1.034   0.808
 2850SOL    HW1 9449   6.884   1.001   0.739
 2850SOL    HW2 9450   6.951   1.134   0.805
 2851SOL     OW 9451   3.461   3.339   2.326
 2851SOL    HW1 9452   3.392   3.324   2.255
 2851SOL    HW2 9453   3.447   3.275   2.401
 2852SOL     OW 9454   0.679   5.109   4.967
 2852SOL    HW1 9455   0.689   5.066   4.877
 2852SOL    HW2 9456   0.751   5.075   5.027
 2853SOL     OW 9457   0.524   4.717   5.921
 2853SOL    HW1 9458   0.615   4.718   5.879
 2853SOL    HW2 9459   0.514   4.633   5.975
 2854SOL     OW 9460   2.840   0.283   6.551
 2854SOL    HW1 9461   2.878   0.340   6.478
 2854SOL    HW2 9462   2.792   0.341   6.617
 2855SOL     OW 9463   2.767   2.297   4.331
 2855SOL    HW1 9464   2.853   2.245   4.333
 2855SOL    HW2 9465   2.707   2.265   4.404
 2856SOL     OW 9466   1.603   5.411   4.889
 2856SOL    HW1 9467   1.702   5.396   4.895
 2856SOL    HW2 9468   1.557   5.323   4.885
 2857SOL     OW 9469   0.929   4.686   0.514
 2857SOL    HW1 9470   0.908   4.766   0.457
 2857SOL    HW2 9471   1.018   4.700   0.557
 2858SOL     OW 9472   5.550   4.615   4.287
 2858SOL    HW1 9473   5.637   4.665   4.286
 2858SOL    HW2 9474   5.493   4.648   4.212
 2859SOL     OW 9475   0.379   4.791   1.734
 2859SOL    HW1 9476   0.355   4.726   1.662
 2859SOL    HW2 9477   0.343   4.759   1.821
 2860SOL     OW 9478   1.277   6.671   3.095
 2860SOL    HW1 9479   1.267   6.677   2.996
 2860SOL    HW2 9480   1.195   6.631   3.135
 2861SOL     OW 9481   5.521   3.180   5.113
 2861SOL    HW1 9482   5.468   3.236   5.049
 2861SOL    HW2 9483   5.600   3.232   5.146
 2862SOL     OW 9484   4.648   1.231   0.546
 2862SOL    HW1 9485   4.625   1.223   0.643
 2862SOL    HW2 9486   4.748   1.229   0.536
 2863SOL     OW 9487   5.703   1.727   6.167
 2863SOL    HW1 9488   5.754   1.641   6.172
 2863SOL    HW2 9489   5.618   1.718   6.219
 2864SOL     OW 9490   4.560   4.792   0.778
 2864SOL    HW1 9491   4.559   4.807   0.877
 2864SOL    HW2 9492   4.485   4.730   0.753
 2865SOL     OW 9493   5.592   4.791   6.120
 2865SOL    HW1 9494   5.623   4.798   6.214
 2865SOL    HW2 9495   5.543   4.704   6.107
 2866SOL     OW 9496   4.597   5.935   0.877
 2866SOL    HW1 9497   4.534   5.975   0.811
 2866SOL    HW2 9498   4.546   5.903   0.956
 2867SOL     OW 9499   0.361   5.829   3.203
 2867SOL    HW1 9500   0.268   5.867   3.210
 2867SOL    HW2 9501   0.400   5.822   3.295
 2868SOL     OW 9502   6.740   0.240   5.686
 2868SOL    HW1 9503   6.832   0.255   5.649
 2868SOL    HW2 9504   6.724   0.142   5.696
 2869SOL     OW 9505   5.541   4.340   5.233
 2869SOL    HW1 9506   5.617   4.283   5.201
 2869SOL    HW2 9507   5.569   4.436   5.236
 2870SOL     OW 9508   0.285   1.127   1.232
 2870SOL    HW1 9509   0.282   1.086   1.323
 2870SOL    HW2 9510   0.223   1.077   1.171
 2871SOL     OW 9511   4.375   1.170   3.437
 2871SOL    HW1 9512   4.329   1.255   3.409
 2871SOL    HW2 9513   4.470   1.191   3.462
 2872SOL     OW 9514   3.588   1.587   2.549
 2872SOL    HW1 9515   3.510   1.621   2.495
 2872SOL    HW2 9516   3.593   1.637   2.635
 2873SOL     OW 9517   6.960   0.198   2.788
 2873SOL    HW1 9518   6.923   0.261   2.720
 2873SOL    HW2 9519   6.970   0.246   2.875
 2874SOL     OW 9520   1.729   1.269   2.430
 2874SOL    HW1 9521   1.673   1.201   2.478
 2874SOL    HW2 9522   1.693   1.282   2.337
 2875SOL     OW 9523   2.910   0.281   2.367
 2875SOL    HW1 9524   2.978   0.299   2.297
 2875SOL    HW2 9525   2.954   0.274   2.457
 2876SOL     OW 9526   1.437   6.835   1.038
 2876SOL    HW1 9527   1.417   6.926   1.002
 2876SOL    HW2 9528   1.436   6.838   1.138
 2877SOL     OW 9529   1.170   3.630   6.764
 2877SOL    HW1 9530   1.097   3.671   6.710
 2877SOL    HW2 9531   1.150   3.533   6.780
 2878SOL     OW 9532   3.822   3.639   4.910
 2878SOL    HW1 9533   3.762   3.559   4.913
 2878SOL    HW2 9534   3.916   3.609   4.926
 2879SOL     OW 9535   6.237   6.085   0.277
 2879SOL    HW1 9536   6.283   5.998   0.294
 2879SOL    HW2 9537   6.299   6.147   0.229
 2880SOL     OW 9538   1.546   1.933   2.818
 2880SOL    HW1 9539   1.508   2.020   2.848
 2880SOL    HW2 9540   1.476   1.862   2.825
 2881SOL     OW 9541   5.407   5.072   6.917
 2881SOL    HW1 9542   5.448   4.990   6.957
 2881SOL    HW2 9543   5.444   5.153   6.963
 2882SOL     OW 9544   5.151   6.411   0.181
 2882SOL    HW1 9545   5.087   6.359   0.237
 2882SOL    HW2 9546   5.237   6.422   0.229
 2883SOL     OW 9547   4.859   6.184   2.947
 2883SOL    HW1 9548   4.917   6.176   3.029
 2883SOL    HW2 9549   4.827   6.093   2.920
 2884SOL     OW 9550   6.300   5.279   3.497
 2884SOL    HW1 9551   6.341   5.190   3.517
 2884SOL    HW2 9552   6.201   5.273   3.507
 2885SOL     OW 9553   0.398   3.735   3.554
 2885SOL    HW1 9554   0.377   3.809   3.491
 2885SOL    HW2 9555   0.484   3.692   3.528
 2886SOL     OW 9556   2.282   4.326   5.032
 2886SOL    HW1 9557   2.291   4.232   4.997
 2886SOL    HW2 9558   2.373   4.361   5.056
 2887SOL     OW 9559   0.061   4.434   3.060
 2887SOL    HW1 9560   0.116   4.353   3.079
 2887SOL    HW2 9561   0.070   4.459   2.964
 2888SOL     OW 9562   4.329   5.840   6.867
 2888SOL    HW1 9563   4.346   5.756   6.919
 2888SOL    HW2 9564   4.411   5.866   6.816
 2889SOL     OW 9565   3.976   5.421   4.153
 2889SOL    HW1 9566   4.060   5.441   4.203
 2889SOL    HW2 9567   3.964   5.322   4.145
 2890SOL     OW 9568   1.357   1.960   0.687
 2890SOL    HW1 9569   1.318   2.001   0.770
 2890SOL    HW2 9570   1.336   1.862   0.686
 2891SOL     OW 9571   1.819   1.656   5.501
 2891SOL    HW1 9572   1.721   1.646   5.514
 2891SOL    HW2 9573   1.854   1.725   5.564
 2892SOL     OW 9574   5.961   4.006   2.026
 2892SOL    HW1 9575   5.949   3.907   2.029
 2892SOL    HW2 9576   6.059   4.028   2.033
 2893SOL     OW 9577   6.725   5.990   4.964
 2893SOL    HW1 9578   6.773   6.070   4.999
 2893SOL    HW2 9579   6.702   6.003   4.868
 2894SOL     OW 9580   1.842   5.399   1.277
 2894SOL    HW1 9581   1.817   5.356   1.191
 2894SOL    HW2 9582   1.784   5.479   1.293
 2895SOL     OW 9583   4.740   6.435   6.469
 2895SOL    HW1 9584   4.704   6.356   6.518
 2895SOL    HW2 9585   4.828   6.410   6.427
 2896SOL     OW 9586   6.779   6.822   6.145
 2896SOL    HW1 9587   6.684   6.813   6.176
 2896SOL    HW2 9588   6.802   6.918   6.136
 2897SOL     OW 9589   2.898   5.934   3.570
 2897SOL    HW1 9590   2.992   5.962   3.555
 2897SOL    HW2 9591   2.855   5.995   3.637
 2898SOL     OW 9592   5.317   2.408   2.339
 2898SOL    HW1 9593   5.314   2.392   2.438
 2898SOL    HW2 9594   5.303   2.322   2.290
 2899SOL     OW 9595   6.597   2.777   1.350
 2899SOL    HW1 9596   6.667   2.709   1.326
 2899SOL    HW2 9597   6.507   2.733   1.348
 2900SOL     OW 9598   3.319   2.876   4.991
 2900SOL    HW1 9599   3.238   2.822   4.970
 2900SOL    HW2 9600   3.301   2.972   4.973
 2901SOL     OW 9601   1.320   3.515   1.296
 2901SOL    HW1 9602   1.402   3.510   1.240
 2901SOL    HW2 9603   1.266   3.594   1.268
 2902SOL     OW 9604   5.281   6.044   3.421
 2902SOL    HW1 9605   5.349   6.106   3.459
 2902SOL    HW2 9606   5.245   5.985   3.493
 2903SOL     OW 9607   0.818   5.445   1.268
 2903SOL    HW1 9608   0.787   5.413   1.179
 2903SOL    HW2 9609   0.749   5.424   1.337
 2904SOL     OW 9610   2.788   4.784   4.268
 2904SOL    HW1 9611   2.864   4.810   4.207
 2904SOL    HW2 9612   2.797   4.832   4.355
 2905SOL     OW 9613   1.347   4.538   1.551
 2905SOL    HW1 9614   1.430   4.486   1.527
 2905SOL    HW2 9615   1.272   4.475   1.570
 2906SOL     OW 9616   6.490   6.201   5.892
 2906SOL    HW1 9617   6.582   6.161   5.890
 2906SOL    HW2 9618   6.437   6.159   5.966
 2907SOL     OW 9619   6.729   0.959   5.928
 2907SOL    HW1 9620   6.731   0.983   6.025
 2907SOL    HW2 9621   6.714   0.861   5.918
 2908SOL     OW 9622   3.688   5.924   3.399
 2908SOL    HW1 9623   3.703   5.825   3.405
 2908SOL    HW2 9624   3.765   5.972   3.441
 2909SOL     OW 9625   0.330   6.423   0.881
 2909SOL    HW1 9626   0.302   6.516   0.856
 2909SOL    HW2 9627   0.430   6.420   0.892
 2910SOL     OW 9628   1.221   0.543   4.393
 2910SOL    HW1 9629   1.307   0.526   4.440
 2910SOL    HW2 9630   1.158   0.591   4.454
 2911SOL     OW 9631   6.621   3.635   3.727
 2911SOL    HW1 9632   6.675   3.647   3.644
 2911SOL    HW2 9633   6.639   3.711   3.790
 2912SOL     OW 9634   0.191   1.311   2.856
 2912SOL    HW1 9635   0.129   1.350   2.925
 2912SOL    HW2 9636   0.257   1.251   2.901
 2913SOL     OW 9637   1.152   6.453   4.170
 2913SOL    HW1 9638   1.089   6.387   4.210
 2913SOL    HW2 9639   1.099   6.530   4.132
 2914SOL     OW 9640   3.929   4.349   0.737
 2914SOL    HW1 9641   3.947   4.401   0.821
 2914SOL    HW2 9642   3.834   4.361   0.711
 2915SOL     OW 9643   2.553   0.680   3.793
 2915SOL    HW1 9644   2.540   0.767   3.746
 2915SOL    HW2 9645   2.609   0.619   3.736
 2916SOL     OW 9646   0.469   5.923   6.185
 2916SOL    HW1 9647   0.399   5.973   6.236
 2916SOL    HW2 9648   0.425   5.854   6.127
 2917SOL     OW 9649   1.954   1.196   3.738
 2917SOL    HW1 9650   1.978   1.261   3.666
 2917SOL    HW2 9651   1.880   1.136   3.705
 2918SOL     OW 9652   5.203   1.538   1.158
 2918SOL    HW1 9653   5.228   1.490   1.243
 2918SOL    HW2 9654   5.258   1.621   1.150
 2919SOL     OW 9655   0.509   6.067   4.998
 2919SOL    HW1 9656   0.414   6.076   4.967
 2919SOL    HW2 9657   0.543   5.977   4.974
 2920SOL     OW 9658   2.777   2.100   1.903
 2920SOL    HW1 9659   2.811   2.175   1.960
 2920SOL    HW2 9660   2.853   2.059   1.853
 2921SOL     OW 9661   0.158   5.273   3.456
 2921SOL    HW1 9662   0.141   5.244   3.362
 2921SOL    HW2 9663   0.078   5.324   3.490
 2922SOL     OW 9664   3.978   5.254   3.415
 2922SOL    HW1 9665   3.975   5.159   3.447
 2922SOL    HW2 9666   4.056   5.300   3.457
 2923SOL     OW 9667   1.154   4.556   3.409
 2923SOL    HW1 9668   1.097   4.517   3.482
 2923SOL    HW2 9669   1.098   4.614   3.350
 2924SOL     OW 9670   5.001   1.327   0.117
 2924SOL    HW1 9671   4.987   1.231   0.140
 2924SOL    HW2 9672   5.083   1.336   0.061
 2925SOL     OW 9673   5.496   6.752   4.904
 2925SOL    HW1 9674   5.565   6.786   4.842
 2925SOL    HW2 9675   5.410   6.736   4.854
 2926SOL     OW 9676   6.830   2.593   4.657
 2926SOL    HW1 9677   6.788   2.633   4.576
 2926SOL    HW2 9678   6.761   2.543   4.709
 2927SOL     OW 9679   0.904   2.313   2.453
 2927SOL    HW1 9680   0.885   2.246   2.381
 2927SOL    HW2 9681   1.003   2.323   2.463
 2928SOL     OW 9682   5.071   5.024   0.369
 2928SOL    HW1 9683   5.105   4.943   0.322
 2928SOL    HW2 9684   4.971   5.020   0.374
 2929SOL     OW 9685   1.803   1.780   2.917
 2929SOL    HW1 9686   1.750   1.865   2.912
 2929SOL    HW2 9687   1.873   1.779   2.846
 2930SOL     OW 9688   0.464   3.033   4.340
 2930SOL    HW1 9689   0.394   2.994   4.280
 2930SOL    HW2 9690   0.464   2.984   4.427
 2931SOL     OW 9691   5.873   3.800   5.699
 2931SOL    HW1 9692   5.924   3.878   5.736
 2931SOL    HW2 9693   5.857   3.733   5.772
 2932SOL     OW 9694   6.702   6.825   0.764
 2932SOL    HW1 9695   6.795   6.826   0.727
 2932SOL    HW2 9696   6.690   6.906   0.822
 2933SOL     OW 9697   0.719   0.602   6.955
 2933SOL    HW1 9698   0.751   0.696   6.942
 2933SOL    HW2 9699   0.620   0.599   6.940
 2934SOL     OW 9700   5.669   4.972   2.459
 2934SOL    HW1 9701   5.723   4.978   2.375
 2934SOL    HW2 9702   5.669   4.877   2.492
 2935SOL     OW 9703   1.096   4.219   5.916
 2935SOL    HW1 9704   1.129   4.145   5.858
 2935SOL    HW2 9705   1.080   4.184   6.009
 2936SOL     OW 9706   4.229   6.417   2.470
 2936SOL    HW1 9707   4.255   6.348   2.537
 2936SOL    HW2 9708   4.249   6.384   2.378
 2937SOL     OW 9709   6.155   3.447   3.459
 2937SOL    HW1 9710   6.115   3.356   3.468
 2937SOL    HW2 9711   6.118   3.508   3.529
 2938SOL     OW 9712   0.610   5.395   1.436
 2938SOL    HW1 9713   0.562   5.480   1.460
 2938SOL    HW2 9714   0.555   5.343   1.371
 2939SOL     OW 9715   5.654   6.206   2.223
 2939SOL    HW1 9716   5.683   6.156   2.305
 2939SOL    HW2 9717   5.591   6.280   2.250
 2940SOL     OW 9718   4.860   5.779   3.626
 2940SOL    HW1 9719   4.785   5.717   3.645
 2940SOL    HW2 9720   4.847   5.820   3.535
 2941SOL     OW 9721   2.854   5.096   2.389
 2941SOL    HW1 9722   2.854   5.000   2.416
 2941SOL    HW2 9723   2.894   5.104   2.297
 2942SOL     OW 9724   3.194   1.761   1.549
 2942SOL    HW1 9725   3.288   1.785   1.572
 2942SOL    HW2 9726   3.182   1.662   1.556
 2943SOL     OW 9727   0.607   3.935   3.773
 2943SOL    HW1 9728   0.545   3.858   3.759
 2943SOL    HW2 9729   0.600   3.967   3.867
 2944SOL     OW 9730   0.888   5.410   3.229
 2944SOL    HW1 9731   0.844   5.447   3.311
 2944SOL    HW2 9732   0.821   5.403   3.155
 2945SOL     OW 9733   5.624   3.790   0.461
 2945SOL    HW1 9734   5.616   3.696   0.427
 2945SOL    HW2 9735   5.654   3.850   0.386
 2946SOL     OW 9736   3.347   4.129   4.614
 2946SOL    HW1 9737   3.335   4.038   4.655
 2946SOL    HW2 9738   3.441   4.139   4.582
 2947SOL     OW 9739   6.360   6.249   0.083
 2947SOL    HW1 9740   6.289   6.254   0.013
 2947SOL    HW2 9741   6.444   6.212   0.043
 2948SOL     OW 9742   6.026   4.452   0.649
 2948SOL    HW1 9743   5.969   4.370   0.655
 2948SOL    HW2 9744   6.121   4.425   0.634
 2949SOL     OW 9745   1.866   5.754   1.041
 2949SOL    HW1 9746   1.859   5.817   1.118
 2949SOL    HW2 9747   1.907   5.668   1.072
 2950SOL     OW 9748   5.564   5.250   2.043
 2950SOL    HW1 9749   5.488   5.187   2.058
 2950SOL    HW2 9750   5.571   5.271   1.946
 2951SOL     OW 9751   0.590   2.288   0.941
 2951SOL    HW1 9752   0.664   2.226   0.967
 2951SOL    HW2 9753   0.629   2.377   0.917
 2952SOL     OW 9754   0.766   2.030   4.569
 2952SOL    HW1 9755   0.729   2.118   4.538
 2952SOL    HW2 9756   0.729   2.009   4.660
 2953SOL     OW 9757   1.345   5.600   2.827
 2953SOL    HW1 9758   1.437   5.562   2.834
 2953SOL    HW2 9759   1.281   5.527   2.803
 2954SOL     OW 9760   0.745   4.263   6.377
 2954SOL    HW1 9761   0.762   4.231   6.284
 2954SOL    HW2 9762   0.776   4.194   6.442
 2955SOL     OW 9763   1.680   4.699   6.302
 2955SOL    HW1 9764   1.757   4.759   6.280
 2955SOL    HW2 9765   1.645   4.659   6.217
 2956SOL     OW 9766   6.058   3.692   4.915
 2956SOL    HW1 9767   6.149   3.702   4.955
 2956SOL    HW2 9768   6.007   3.777   4.929
 2957SOL     OW 9769   1.426   5.117   2.327
 2957SOL    HW1 9770   1.354   5.061   2.284
 2957SOL    HW2 9771   1.403   5.131   2.424
 2958SOL     OW 9772   1.838   3.980   1.006
 2958SOL    HW1 9773   1.748   4.023   1.013
 2958SOL    HW2 9774   1.830   3.883   1.030
 2959SOL     OW 9775   0.513   4.249   4.346
 2959SOL    HW1 9776   0.579   4.324   4.344
 2959SOL    HW2 9777   0.439   4.272   4.410
 2960SOL     OW 9778   5.011   6.654   0.944
 2960SOL    HW1 9779   5.018   6.594   1.024
 2960SOL    HW2 9780   5.102   6.677   0.911
 2961SOL     OW 9781   5.902   2.186   0.822
 2961SOL    HW1 9782   5.989   2.180   0.772
 2961SOL    HW2 9783   5.894   2.278   0.862
 2962SOL     OW 9784   0.121   0.595   3.632
 2962SOL    HW1 9785   0.182   0.557   3.562
 2962SOL    HW2 9786   0.163   0.586   3.722
 2963SOL     OW 9787   2.047   2.153   5.648
 2963SOL    HW1 9788   2.012   2.143   5.741
 2963SOL    HW2 9789   1.974   2.131   5.583
 2964SOL     OW 9790   1.180   1.093   5.869
 2964SOL    HW1 9791   1.221   1.023   5.928
 2964SOL    HW2 9792   1.211   1.080   5.775
 2965SOL     OW 9793   6.069   0.095   6.227
 2965SOL    HW1 9794   6.001   0.155   6.186
 2965SOL    HW2 9795   6.026   0.036   6.295
 2966SOL     OW 9796   3.076   6.536   3.049
 2966SOL    HW1 9797   3.000   6.491   3.004
 2966SOL    HW2 9798   3.050   6.630   3.073
 2967SOL     OW 9799   6.220   6.904   4.975
 2967SOL    HW1 9800   6.274   6.968   5.030
 2967SOL    HW2 9801   6.240   6.918   4.878
 2968SOL     OW 9802   1.427   3.659   1.740
 2968SOL    HW1 9803   1.447   3.746   1.694
 2968SOL    HW2 9804   1.507   3.630   1.792
 2969SOL     OW 9805   4.583   2.281   4.752
 2969SOL    HW1 9806   4.555   2.316   4.841
 2969SOL    HW2 9807   4.673   2.239   4.759
 2970SOL     OW 9808   3.063   2.383   5.988
 2970SOL    HW1 9809   3.111   2.324   6.053
 2970SOL    HW2 9810   3.040   2.330   5.906
 2971SOL     OW 9811   4.355   3.376   5.822
 2971SOL    HW1 9812   4.357   3.328   5.909
 2971SOL    HW2 9813   4.292   3.453   5.827
 2972SOL     OW 9814   0.631   6.192   6.510
 2972SOL    HW1 9815   0.710   6.235   6.465
 2972SOL    HW2 9816   0.587   6.258   6.571
 2973SOL     OW 9817   5.696   0.107   4.026
 2973SOL    HW1 9818   5.784   0.060   4.021
 2973SOL    HW2 9819   5.624   0.049   3.986
 2974SOL     OW 9820   4.864   5.415   2.298
 2974SOL    HW1 9821   4.919   5.416   2.215
 2974SOL    HW2 9822   4.767   5.427   2.274
 2975SOL     OW 9823   6.877   3.794   4.920
 2975SOL    HW1 9824   6.932   3.741   4.856
 2975SOL    HW2 9825   6.787   3.751   4.929
 2976SOL     OW 9826   4.053   0.574   0.907
 2976SOL    HW1 9827   4.087   0.593   0.814
 2976SOL    HW2 9828   4.085   0.484   0.936
 2977SOL     OW 9829   1.552   1.566   2.610
 2977SOL    HW1 9830   1.629   1.529   2.558
 2977SOL    HW2 9831   1.551   1.526   2.701
 2978SOL     OW 9832   3.749   5.803   0.217
 2978SOL    HW1 9833   3.800   5.888   0.220
 2978SOL    HW2 9834   3.681   5.802   0.290
 2979SOL     OW 9835   2.091   1.543   5.696
 2979SOL    HW1 9836   2.029   1.465   5.703
 2979SOL    HW2 9837   2.161   1.524   5.628
 2980SOL     OW 9838   3.064   3.079   3.684
 2980SOL    HW1 9839   2.983   3.121   3.644
 2980SOL    HW2 9840   3.137   3.075   3.616
 2981SOL     OW 9841   3.013   2.002   1.788
 2981SOL    HW1 9842   3.021   2.087   1.735
 2981SOL    HW2 9843   3.074   1.933   1.749
 2982SOL     OW 9844   1.185   0.486   2.010
 2982SOL    HW1 9845   1.209   0.529   1.923
 2982SOL    HW2 9846   1.132   0.550   2.065
 2983SOL     OW 9847   6.339   2.563   6.387
 2983SOL    HW1 9848   6.434   2.595   6.392
 2983SOL    HW2 9849   6.277   2.640   6.400
 2984SOL     OW 9850   0.825   6.399   1.120
 2984SOL    HW1 9851   0.815   6.486   1.073
 2984SOL    HW2 9852   0.841   6.327   1.052
 2985SOL     OW 9853   6.963   7.012   5.581
 2985SOL    HW1 9854   6.992   0.081   5.535
 2985SOL    HW2 9855   6.959   0.012   5.680
 2986SOL     OW 9856   4.008   3.846   2.660
 2986SOL    HW1 9857   4.019   3.779   2.733
 2986SOL    HW2 9858   4.091   3.848   2.603
 2987SOL     OW 9859   2.863   6.383   5.117
 2987SOL    HW1 9860   2.908   6.470   5.140
 2987SOL    HW2 9861   2.801   6.357   5.191
 2988SOL     OW 9862   0.629   1.905   6.471
 2988SOL    HW1 9863   0.636   1.820   6.523
 2988SOL    HW2 9864   0.681   1.977   6.517
 2989SOL     OW 9865   5.793   3.566   5.940
 2989SOL    HW1 9866   5.784   3.513   6.025
 2989SOL    HW2 9867   5.785   3.663   5.961
 2990SOL     OW 9868   5.024   1.329   4.850
 2990SOL    HW1 9869   5.109   1.278   4.837
 2990SOL    HW2 9870   5.029   1.382   4.935
 2991SOL     OW 9871   6.715   2.971   0.467
 2991SOL    HW1 9872   6.735   2.994   0.372
 2991SOL    HW2 9873   6.797   2.983   0.522
 2992SOL     OW 9874   1.522   4.005   4.992
 2992SOL    HW1 9875   1.512   4.071   5.066
 2992SOL    HW2 9876   1.551   3.917   5.030
 2993SOL     OW 9877   3.501   4.327   6.655
 2993SOL    HW1 9878   3.484   4.421   6.628
 2993SOL    HW2 9879   3.596   4.317   6.686
 2994SOL     OW 9880   2.850   4.985   4.465
 2994SOL    HW1 9881   2.805   5.052   4.523
 2994SOL    HW2 9882   2.920   4.936   4.517
 2995SOL     OW 9883   4.819   0.226   2.619
 2995SOL    HW1 9884   4.850   0.297   2.555
 2995SOL    HW2 9885   4.720   0.236   2.633
 2996SOL     OW 9886   0.480   0.657   4.071
 2996SOL    HW1 9887   0.449   0.599   3.997
 2996SOL    HW2 9888   0.425   0.741   4.073
 2997SOL     OW 9889   4.775   5.652   3.964
 2997SOL    HW1 9890   4.802   5.714   4.038
 2997SOL    HW2 9891   4.696   5.690   3.915
 2998SOL     OW 9892   2.358   0.090   2.246
 2998SOL    HW1 9893   2.408   0.069   2.163
 2998SOL    HW2 9894   2.412   0.062   2.326
 2999SOL     OW 9895   2.133   4.922   0.282
 2999SOL    HW1 9896   2.091   4.908   0.193
 2999SOL    HW2 9897   2.083   4.992   0.333
 3000SOL     OW 9898   1.869   4.025   6.316
 3000SOL    HW1 9899   1.776   3.989   6.312
 3000SOL    HW2 9900   1.893   4.068   6.229
 3001SOL     OW 9901   3.529   0.071   6.425
 3001SOL    HW1 9902   3.494   0.163   6.445
 3001SOL    HW2 9903   3.456   0.015   6.387
 3002SOL     OW 9904   0.986   2.110   2.209
 3002SOL    HW1 9905   0.959   2.042   2.141
 3002SOL    HW2 9906   0.989   2.201   2.166
 3003SOL     OW 9907   1.841   6.211   0.291
 3003SOL    HW1 9908   1.837   6.280   0.219
 3003SOL    HW2 9909   1.771   6.230   0.360
 3004SOL     OW 9910   2.998   0.767   4.676
 3004SOL    HW1 9911   2.919   0.716   4.640
 3004SOL    HW2 9912   2.999   0.859   4.636
 3005SOL     OW 9913   2.973   1.820   0.263
 3005SOL    HW1 9914   2.882   1.836   0.224
 3005SOL    HW2 9915   3.042   1.832   0.191
 3006SOL     OW 9916   5.688   0.813   5.946
 3006SOL    HW1 9917   5.640   0.725   5.952
 3006SOL    HW2 9918   5.787   0.796   5.946
 3007SOL     OW 9919   6.305   5.757   5.645
 3007SOL    HW1 9920   6.207   5.756   5.665
 3007SOL    HW2 9921   6.339   5.663   5.645
 3008SOL     OW 9922   5.680   3.934   5.569
 3008SOL    HW1 9923   5.589   3.903   5.541
 3008SOL    HW2 9924   5.725   3.862   5.620
 3009SOL     OW 9925   5.542   3.619   1.632
 3009SOL    HW1 9926   5.444   3.634   1.646
 3009SOL    HW2 9927   5.572   3.542   1.689
 3010SOL     OW 9928   4.427   4.742   1.439
 3010SOL    HW1 9929   4.518   4.751   1.480
 3010SOL    HW2 9930   4.362   4.798   1.490
 3011SOL     OW 9931   5.943   0.184   0.557
 3011SOL    HW1 9932   5.888   0.264   0.535
 3011SOL    HW2 9933   5.892   0.123   0.617
 3012SOL     OW 9934   2.689   1.036   4.513
 3012SOL    HW1 9935   2.634   0.960   4.547
 3012SOL    HW2 9936   2.716   1.018   4.418
 3013SOL     OW 9937   0.406   5.109   5.093
 3013SOL    HW1 9938   0.497   5.090   5.055
 3013SOL    HW2 9939   0.371   5.194   5.054
 3014SOL     OW 9940   4.055   0.428   0.462
 3014SOL    HW1 9941   4.054   0.439   0.362
 3014SOL    HW2 9942   4.055   0.331   0.485
 3015SOL     OW 9943   2.335   6.709   6.485
 3015SOL    HW1 9944   2.268   6.768   6.439
 3015SOL    HW2 9945   2.358   6.748   6.574
 3016SOL     OW 9946   3.353   0.913   4.584
 3016SOL    HW1 9947   3.290   0.869   4.520
 3016SOL    HW2 9948   3.424   0.848   4.610
 3017SOL     OW 9949   1.417   6.064   0.503
 3017SOL    HW1 9950   1.472   5.990   0.466
 3017SOL    HW2 9951   1.330   6.069   0.453
 3018SOL     OW 9952   2.185   2.966   1.884
 3018SOL    HW1 9953   2.090   2.934   1.893
 3018SOL    HW2 9954   2.194   3.056   1.927
 3019SOL     OW 9955   0.913   0.958   5.796
 3019SOL    HW1 9956   0.870   0.970   5.706
 3019SOL    HW2 9957   1.010   0.978   5.789
 3020SOL     OW 9958   5.196   4.326   6.080
 3020SOL    HW1 9959   5.259   4.393   6.120
 3020SOL    HW2 9960   5.119   4.374   6.037
 3021SOL     OW 9961   4.377   6.434   4.306
 3021SOL    HW1 9962   4.456   6.489   4.335
 3021SOL    HW2 9963   4.345   6.379   4.384
 3022SOL     OW 9964   3.839   6.610   2.879
 3022SOL    HW1 9965   3.873   6.611   2.974
 3022SOL    HW2 9966   3.746   6.573   2.878
 3023SOL     OW 9967   5.206   4.119   4.782
 3023SOL    HW1 9968   5.256   4.164   4.856
 3023SOL    HW2 9969   5.267   4.059   4.732
 3024SOL     OW 9970   6.379   1.352   6.341
 3024SOL    HW1 9971   6.366   1.442   6.383
 3024SOL    HW2 9972   6.437   1.361   6.259
 3025SOL     OW 9973   4.067   5.259   0.542
 3025SOL    HW1 9974   3.975   5.228   0.567
 3025SOL    HW2 9975   4.122   5.271   0.624
 3026SOL     OW 9976   0.076   0.006   2.616
 3026SOL    HW1 9977   0.088   6.936   2.665
 3026SOL    HW2 9978   0.032   0.073   2.676
 3027SOL     OW 9979   4.343   0.261   0.673
 3027SOL    HW1 9980   4.334   0.220   0.764
 3027SOL    HW2 9981   4.290   0.206   0.607
 3028SOL     OW 9982   4.147   3.370   3.909
 3028SOL    HW1 9983   4.093   3.450   3.936
 3028SOL    HW2 9984   4.173   3.320   3.992
 3029SOL     OW 9985   6.551   2.481   4.422
 3029SOL    HW1 9986   6.594   2.453   4.336
 3029SOL    HW2 9987   6.579   2.575   4.444
 3030SOL     OW 9988   0.256   4.087   6.624
 3030SOL    HW1 9989   0.196   4.031   6.568
 3030SOL    HW2 9990   0.351   4.077   6.593
 3031SOL     OW 9991   0.359   4.860   6.923
 3031SOL    HW1 9992   0.343   4.789   6.855
 3031SOL    HW2 9993   0.387   4.945   6.877
 3032SOL     OW 9994   3.639   7.000   3.927
 3032SOL    HW1 9995   3.710   0.054   3.935
 3032SOL    HW2 9996   3.666   6.919   3.979
 3033SOL     OW 9997   2.058   0.916   6.675
 3033SOL    HW1 9998   2.110   0.935   6.758
 3033SOL    HW2 9999   2.118   0.874   6.607
 3034SOL     OW10000   5.293   3.316   3.425
 3034SOL    HW110001   5.370   3.275   3.376
 3034SOL    HW210002   5.250   3.386   3.367
 3035SOL     OW10003   6.579   4.240   6.634
 3035SOL    HW110004   6.565   4.143   6.655
 3035SOL    HW210005   6.676   4.259   6.624
 3036SOL     OW10006   3.061   2.314   6.280
 3036SOL    HW110007   3.048   2.222   6.315
 3036SOL    HW210008   2.984   2.372   6.307
 3037SOL     OW10009   0.597   5.674   5.972
 3037SOL    HW110010   0.541   5.602   5.933
 3037SOL    HW210011   0.556   5.763   5.952
 3038SOL     OW10012   5.772   4.690   5.438
 3038SOL    HW110013   5.832   4.612   5.417
 3038SOL    HW210014   5.790   4.721   5.532
 3039SOL     OW10015   6.145   3.355   6.669
 3039SOL    HW110016   6.091   3.397   6.596
 3039SOL    HW210017   6.180   3.266   6.637
 3040SOL     OW10018   4.303   6.449   6.470
 3040SOL    HW110019   4.257   6.365   6.440
 3040SOL    HW210020   4.239   6.525   6.465
 3041SOL     OW10021   2.227   6.147   6.258
 3041SOL    HW110022   2.257   6.157   6.353
 3041SOL    HW210023   2.260   6.225   6.204
 3042SOL     OW10024   0.484   5.362   3.871
 3042SOL    HW110025   0.574   5.355   3.829
 3042SOL    HW210026   0.422   5.297   3.827
 3043SOL     OW10027   2.525   3.564   1.162
 3043SOL    HW110028   2.597   3.554   1.231
 3043SOL    HW210029   2.443   3.602   1.205
 3044SOL     OW10030   4.010   3.573   4.071
 3044SOL    HW110031   4.048   3.599   4.160
 3044SOL    HW210032   3.910   3.573   4.076
 3045SOL     OW10033   5.940   0.078   3.171
 3045SOL    HW110034   5.918   0.171   3.198
 3045SOL    HW210035   5.858   0.021   3.179
 3046SOL     OW10036   6.504   5.735   1.352
 3046SOL    HW110037   6.523   5.788   1.435
 3046SOL    HW210038   6.456   5.651   1.376
 3047SOL     OW10039   4.388   1.696   3.601
 3047SOL    HW110040   4.309   1.756   3.591
 3047SOL    HW210041   4.360   1.610   3.643
 3048SOL     OW10042   4.724   5.026   1.051
 3048SOL    HW110043   4.632   5.012   1.086
 3048SOL    HW210044   4.788   4.970   1.104
 3049SOL     OW10045   0.355   0.776   1.175
 3049SOL    HW110046   0.341   0.811   1.083
 3049SOL    HW210047   0.437   0.719   1.177
 3050SOL     OW10048   3.512   2.743   5.578
 3050SOL    HW110049   3.453   2.663   5.591
 3050SOL    HW210050   3.496   2.809   5.652
 3051SOL     OW10051   1.946   4.067   6.044
 3051SOL    HW110052   1.914   4.056   5.950
 3051SOL    HW210053   2.020   4.134   6.047
 3052SOL     OW10054   5.992   6.081   4.147
 3052SOL    HW110055   5.899   6.052   4.170
 3052SOL    HW210056   6.056   6.010   4.172
 3053SOL     OW10057   0.550   5.917   5.819
 3053SOL    HW110058   0.510   5.974   5.748
 3053SOL    HW210059   0.598   5.976   5.885
 3054SOL     OW10060   5.961   6.364   3.221
 3054SOL    HW110061   6.051   6.407   3.218
 3054SOL    HW210062   5.891   6.434   3.237
 3055SOL     OW10063   5.475   6.806   0.694
 3055SOL    HW110064   5.508   6.716   0.723
 3055SOL    HW210065   5.446   6.801   0.598
 3056SOL     OW10066   4.585   1.889   0.895
 3056SOL    HW110067   4.513   1.824   0.870
 3056SOL    HW210068   4.674   1.849   0.875
 3057SOL     OW10069   6.598   2.797   3.013
 3057SOL    HW110070   6.694   2.786   3.038
 3057SOL    HW210071   6.591   2.862   2.937
 3058SOL     OW10072   5.650   3.601   6.570
 3058SOL    HW110073   5.600   3.534   6.514
 3058SOL    HW210074   5.743   3.610   6.535
 3059SOL     OW10075   1.690   2.556   3.696
 3059SOL    HW110076   1.784   2.523   3.695
 3059SOL    HW210077   1.688   2.653   3.721
 3060SOL     OW10078   5.983   2.983   3.859
 3060SOL    HW110079   5.925   3.053   3.901
 3060SOL    HW210080   5.926   2.911   3.820
 3061SOL     OW10081   5.339   6.158   2.788
 3061SOL    HW110082   5.272   6.101   2.835
 3061SOL    HW210083   5.427   6.110   2.783
 3062SOL     OW10084   3.823   4.974   0.247
 3062SOL    HW110085   3.745   5.033   0.227
 3062SOL    HW210086   3.813   4.935   0.339
 3063SOL     OW10087   6.345   5.417   0.934
 3063SOL    HW110088   6.434   5.461   0.923
 3063SOL    HW210089   6.330   5.396   1.031
 3064SOL     OW10090   5.128   1.137   6.034
 3064SOL    HW110091   5.195   1.200   6.072
 3064SOL    HW210092   5.090   1.080   6.106
 3065SOL     OW10093   5.068   0.632   6.642
 3065SOL    HW110094   5.044   0.552   6.698
 3065SOL    HW210095   4.987   0.662   6.591
 3066SOL     OW10096   5.020   6.609   5.721
 3066SOL    HW110097   4.940   6.586   5.666
 3066SOL    HW210098   5.095   6.638   5.662
 3067SOL     OW10099   1.430   2.540   4.736
 3067SOL    HW110100   1.333   2.556   4.753
 3067SOL    HW210101   1.462   2.464   4.793
 3068SOL     OW10102   5.950   0.093   0.866
 3068SOL    HW110103   5.876   0.084   0.933
 3068SOL    HW210104   5.978   0.189   0.861
 3069SOL     OW10105   5.691   5.744   3.800
 3069SOL    HW110106   5.686   5.710   3.894
 3069SOL    HW210107   5.672   5.669   3.736
 3070SOL     OW10108   2.682   1.646   0.883
 3070SOL    HW110109   2.733   1.692   0.955
 3070SOL    HW210110   2.745   1.605   0.817
 3071SOL     OW10111   5.889   4.545   4.516
 3071SOL    HW110112   5.847   4.556   4.426
 3071SOL    HW210113   5.923   4.452   4.526
 3072SOL     OW10114   1.831   6.458   4.623
 3072SOL    HW110115   1.844   6.463   4.722
 3072SOL    HW210116   1.767   6.529   4.594
 3073SOL     OW10117   0.317   4.810   3.216
 3073SOL    HW110118   0.298   4.875   3.290
 3073SOL    HW210119   0.299   4.854   3.128
 3074SOL     OW10120   3.350   3.334   2.059
 3074SOL    HW110121   3.254   3.323   2.036
 3074SOL    HW210122   3.402   3.258   2.021
 3075SOL     OW10123   3.637   4.638   0.551
 3075SOL    HW110124   3.732   4.609   0.539
 3075SOL    HW210125   3.576   4.571   0.510
 3076SOL     OW10126   1.953   1.391   4.057
 3076SOL    HW110127   1.881   1.452   4.023
 3076SOL    HW210128   1.914   1.300   4.074
 3077SOL     OW10129   6.564   3.475   2.670
 3077SOL    HW110130   6.620   3.542   2.718
 3077SOL    HW210131   6.467   3.499   2.681
 3078SOL     OW10132   6.466   4.336   1.134
 3078SOL    HW110133   6.457   4.301   1.227
 3078SOL    HW210134   6.377   4.333   1.088
 3079SOL     OW10135   0.186   4.133   2.489
 3079SOL    HW110136   0.285   4.133   2.506
 3079SOL    HW210137   0.141   4.181   2.564
 3080SOL     OW10138   3.804   4.893   1.545
 3080SOL    HW110139   3.812   4.859   1.639
 3080SOL    HW210140   3.728   4.847   1.499
 3081SOL     OW10141   1.879   2.901   6.038
 3081SOL    HW110142   1.868   2.835   5.963
 3081SOL    HW210143   1.941   2.974   6.008
 3082SOL     OW10144   5.933   3.904   4.994
 3082SOL    HW110145   5.850   3.958   5.006
 3082SOL    HW210146   6.004   3.938   5.055
 3083SOL     OW10147   3.858   6.024   1.271
 3083SOL    HW110148   3.776   6.074   1.301
 3083SOL    HW210149   3.939   6.074   1.299
 3084SOL     OW10150   0.192   5.457   4.168
 3084SOL    HW110151   0.133   5.396   4.220
 3084SOL    HW210152   0.229   5.527   4.229
 3085SOL     OW10153   6.623   5.609   5.940
 3085SOL    HW110154   6.588   5.654   6.022
 3085SOL    HW210155   6.607   5.668   5.861
 3086SOL     OW10156   6.072   6.079   6.103
 3086SOL    HW110157   6.167   6.106   6.090
 3086SOL    HW210158   6.018   6.107   6.024
 3087SOL     OW10159   3.119   0.086   1.381
 3087SOL    HW110160   3.102   0.002   1.432
 3087SOL    HW210161   3.218   0.104   1.378
 3088SOL     OW10162   2.353   3.186   5.411
 3088SOL    HW110163   2.426   3.184   5.480
 3088SOL    HW210164   2.385   3.142   5.328
 3089SOL     OW10165   3.893   6.751   0.552
 3089SOL    HW110166   3.979   6.707   0.527
 3089SOL    HW210167   3.857   6.708   0.635
 3090SOL     OW10168   1.541   2.444   2.623
 3090SOL    HW110169   1.502   2.468   2.711
 3090SOL    HW210170   1.624   2.391   2.637
 3091SOL     OW10171   1.289   2.415   6.191
 3091SOL    HW110172   1.274   2.398   6.288
 3091SOL    HW210173   1.268   2.333   6.139
 3092SOL     OW10174   5.131   1.837   2.916
 3092SOL    HW110175   5.141   1.936   2.906
 3092SOL    HW210176   5.055   1.805   2.861
 3093SOL     OW10177   6.376   5.607   6.629
 3093SOL    HW110178   6.422   5.586   6.715
 3093SOL    HW210179   6.292   5.658   6.648
 3094SOL     OW10180   2.479   0.707   5.735
 3094SOL    HW110181   2.436   0.771   5.671
 3094SOL    HW210182   2.430   0.709   5.822
 3095SOL     OW10183   1.880   3.616   6.206
 3095SOL    HW110184   1.959   3.603   6.266
 3095SOL    HW210185   1.799   3.633   6.262
 3096SOL     OW10186   1.897   3.307   3.618
 3096SOL    HW110187   1.970   3.239   3.615
 3096SOL    HW210188   1.881   3.334   3.713
 3097SOL     OW10189   5.391   2.554   6.266
 3097SOL    HW110190   5.392   2.578   6.169
 3097SOL    HW210191   5.475   2.506   6.289
 3098SOL     OW10192   1.891   3.981   2.288
 3098SOL    HW110193   1.810   3.939   2.246
 3098SOL    HW210194   1.862   4.060   2.342
 3099SOL     OW10195   0.117   0.355   5.951
 3099SOL    HW110196   0.206   0.379   5.988
 3099SOL    HW210197   0.119   0.365   5.851
 3100SOL     OW10198   6.175   3.810   2.812
 3100SOL    HW110199   6.109   3.843   2.744
 3100SOL    HW210200   6.267   3.818   2.775
 3101SOL     OW10201   5.329   0.497   3.914
 3101SOL    HW110202   5.418   0.536   3.893
 3101SOL    HW210203   5.326   0.401   3.885
 3102SOL     OW10204   5.821   3.867   3.498
 3102SOL    HW110205   5.867   3.813   3.427
 3102SOL    HW210206   5.732   3.826   3.517
 3103SOL     OW10207   1.560   1.099   2.535
 3103SOL    HW110208   1.495   1.166   2.569
 3103SOL    HW210209   1.530   1.065   2.445
 3104SOL     OW10210   5.741   1.448   6.184
 3104SOL    HW110211   5.710   1.398   6.265
 3104SOL    HW210212   5.674   1.437   6.110
 3105SOL     OW10213   5.727   4.261   0.426
 3105SOL    HW110214   5.803   4.274   0.362
 3105SOL    HW210215   5.696   4.167   0.422
 3106SOL     OW10216   5.339   2.106   5.890
 3106SOL    HW110217   5.295   2.134   5.805
 3106SOL    HW210218   5.414   2.042   5.870
 3107SOL     OW10219   4.185   2.313   4.716
 3107SOL    HW110220   4.259   2.258   4.755
 3107SOL    HW210221   4.154   2.380   4.783
 3108SOL     OW10222   1.932   4.432   3.899
 3108SOL    HW110223   1.972   4.444   3.808
 3108SOL    HW210224   2.001   4.391   3.960
 3109SOL     OW10225   0.288   5.218   3.745
 3109SOL    HW110226   0.203   5.222   3.797
 3109SOL    HW210227   0.272   5.253   3.653
 3110SOL     OW10228   1.480   5.942   4.017
 3110SOL    HW110229   1.442   5.857   3.981
 3110SOL    HW210230   1.415   5.983   4.080
 3111SOL     OW10231   6.830   3.758   4.241
 3111SOL    HW110232   6.806   3.797   4.330
 3111SOL    HW210233   6.763   3.688   4.217
 3112SOL     OW10234   4.324   0.622   1.229
 3112SOL    HW110235   4.402   0.579   1.184
 3112SOL    HW210236   4.354   0.704   1.278
 3113SOL     OW10237   1.157   6.915   4.190
 3113SOL    HW110238   1.113   6.835   4.149
 3113SOL    HW210239   1.154   6.991   4.126
 3114SOL     OW10240   4.790   5.462   5.478
 3114SOL    HW110241   4.795   5.455   5.577
 3114SOL    HW210242   4.880   5.443   5.438
 3115SOL     OW10243   4.642   5.688   5.045
 3115SOL    HW110244   4.549   5.714   5.019
 3115SOL    HW210245   4.690   5.767   5.080
 3116SOL     OW10246   0.910   2.642   6.709
 3116SOL    HW110247   0.935   2.683   6.621
 3116SOL    HW210248   0.965   2.683   6.782
 3117SOL     OW10249   4.243   0.297   2.069
 3117SOL    HW110250   4.151   0.272   2.038
 3117SOL    HW210251   4.252   0.277   2.167
 3118SOL     OW10252   0.602   2.344   3.386
 3118SOL    HW110253   0.602   2.277   3.460
 3118SOL    HW210254   0.526   2.324   3.324
 3119SOL     OW10255   4.645   6.245   3.829
 3119SOL    HW110256   4.593   6.329   3.848
 3119SOL    HW210257   4.743   6.266   3.828
 3120SOL     OW10258   3.559   6.170   6.280
 3120SOL    HW110259   3.530   6.266   6.282
 3120SOL    HW210260   3.659   6.166   6.267
 3121SOL     OW10261   3.843   1.923   3.116
 3121SOL    HW110262   3.905   1.859   3.162
 3121SOL    HW210263   3.751   1.884   3.115
 3122SOL     OW10264   5.706   3.461   6.169
 3122SOL    HW110265   5.710   3.367   6.136
 3122SOL    HW210266   5.624   3.474   6.225
 3123SOL     OW10267   2.197   3.006   2.250
 3123SOL    HW110268   2.197   3.060   2.334
 3123SOL    HW210269   2.174   3.066   2.173
 3124SOL     OW10270   4.856   6.710   5.963
 3124SOL    HW110271   4.908   6.672   5.887
 3124SOL    HW210272   4.809   6.637   6.011
 3125SOL     OW10273   1.668   1.676   5.030
 3125SOL    HW110274   1.753   1.679   5.083
 3125SOL    HW210275   1.663   1.589   4.981
 3126SOL     OW10276   4.905   4.415   5.577
 3126SOL    HW110277   4.822   4.362   5.561
 3126SOL    HW210278   4.980   4.352   5.599
 3127SOL     OW10279   6.106   1.978   5.890
 3127SOL    HW110280   6.061   2.038   5.956
 3127SOL    HW210281   6.082   1.883   5.908
 3128SOL     OW10282   4.160   1.423   1.231
 3128SOL    HW110283   4.104   1.341   1.241
 3128SOL    HW210284   4.188   1.456   1.321
 3129SOL     OW10285   4.628   4.558   0.449
 3129SOL    HW110286   4.544   4.606   0.424
 3129SOL    HW210287   4.627   4.540   0.548
 3130SOL     OW10288   6.630   5.804   2.469
 3130SOL    HW110289   6.635   5.834   2.374
 3130SOL    HW210290   6.690   5.725   2.482
 3131SOL     OW10291   0.249   2.599   3.336
 3131SOL    HW110292   0.174   2.665   3.328
 3131SOL    HW210293   0.212   2.510   3.363
 3132SOL     OW10294   4.371   3.787   6.149
 3132SOL    HW110295   4.344   3.788   6.053
 3132SOL    HW210296   4.463   3.749   6.158
 3133SOL     OW10297   6.005   6.263   3.956
 3133SOL    HW110298   6.094   6.308   3.946
 3133SOL    HW210299   6.016   6.182   4.013
 3134SOL     OW10300   4.275   5.196   2.989
 3134SOL    HW110301   4.266   5.278   2.932
 3134SOL    HW210302   4.190   5.180   3.038
 3135SOL     OW10303   3.808   0.612   6.014
 3135SOL    HW110304   3.906   0.627   6.027
 3135SOL    HW210305   3.794   0.541   5.946
 3136SOL     OW10306   6.372   6.517   2.289
 3136SOL    HW110307   6.292   6.461   2.266
 3136SOL    HW210308   6.342   6.602   2.332
 3137SOL     OW10309   5.258   4.195   6.865
 3137SOL    HW110310   5.307   4.275   6.830
 3137SOL    HW210311   5.310   4.112   6.841
 3138SOL     OW10312   6.787   6.670   4.580
 3138SOL    HW110313   6.866   6.656   4.521
 3138SOL    HW210314   6.736   6.751   4.550
 3139SOL     OW10315   1.281   4.910   2.174
 3139SOL    HW110316   1.281   4.832   2.237
 3139SOL    HW210317   1.187   4.941   2.160
 3140SOL     OW10318   5.231   5.796   0.137
 3140SOL    HW110319   5.311   5.786   0.198
 3140SOL    HW210320   5.152   5.751   0.178
 3141SOL     OW10321   5.847   2.163   0.319
 3141SOL    HW110322   5.890   2.218   0.389
 3141SOL    HW210323   5.780   2.218   0.269
 3142SOL     OW10324   4.591   0.529   4.022
 3142SOL    HW110325   4.540   0.584   4.088
 3142SOL    HW210326   4.534   0.511   3.942
 3143SOL     OW10327   6.311   1.634   0.504
 3143SOL    HW110328   6.316   1.721   0.552
 3143SOL    HW210329   6.401   1.590   0.504
 3144SOL     OW10330   3.840   4.928   6.436
 3144SOL    HW110331   3.903   4.931   6.513
 3144SOL    HW210332   3.788   5.014   6.433
 3145SOL     OW10333   0.746   6.172   5.682
 3145SOL    HW110334   0.701   6.261   5.675
 3145SOL    HW210335   0.745   6.141   5.777
 3146SOL     OW10336   6.686   1.689   4.136
 3146SOL    HW110337   6.669   1.614   4.200
 3146SOL    HW210338   6.623   1.681   4.059
 3147SOL     OW10339   4.658   0.038   0.786
 3147SOL    HW110340   4.648   0.039   0.686
 3147SOL    HW210341   4.669   6.959   0.817
 3148SOL     OW10342   6.037   5.065   0.498
 3148SOL    HW110343   5.977   5.105   0.428
 3148SOL    HW210344   6.109   5.012   0.453
 3149SOL     OW10345   4.143   3.216   0.030
 3149SOL    HW110346   4.044   3.230   0.022
 3149SOL    HW210347   4.191   3.279   6.986
 3150SOL     OW10348   0.136   0.159   5.397
 3150SOL    HW110349   0.122   0.192   5.304
 3150SOL    HW210350   0.211   0.093   5.398
 3151SOL     OW10351   0.081   1.496   6.183
 3151SOL    HW110352   0.034   1.425   6.235
 3151SOL    HW210353   0.180   1.484   6.192
 3152SOL     OW10354   2.816   1.833   6.021
 3152SOL    HW110355   2.839   1.906   6.084
 3152SOL    HW210356   2.757   1.868   5.949
 3153SOL     OW10357   6.010   5.879   2.014
 3153SOL    HW110358   5.936   5.919   1.959
 3153SOL    HW210359   6.098   5.905   1.976
 3154SOL     OW10360   3.462   2.163   1.014
 3154SOL    HW110361   3.451   2.067   1.040
 3154SOL    HW210362   3.406   2.221   1.073
 3155SOL     OW10363   0.458   5.950   6.914
 3155SOL    HW110364   0.475   5.852   6.911
 3155SOL    HW210365   0.432   5.982   6.822
 3156SOL     OW10366   3.220   3.865   0.862
 3156SOL    HW110367   3.253   3.785   0.812
 3156SOL    HW210368   3.176   3.928   0.798
 3157SOL     OW10369   1.308   1.312   3.774
 3157SOL    HW110370   1.389   1.295   3.717
 3157SOL    HW210371   1.239   1.243   3.754
 3158SOL     OW10372   2.497   0.297   6.199
 3158SOL    HW110373   2.568   0.231   6.226
 3158SOL    HW210374   2.540   0.387   6.186
 3159SOL     OW10375   4.539   6.207   1.416
 3159SOL    HW110376   4.529   6.179   1.321
 3159SOL    HW210377   4.459   6.178   1.468
 3160SOL     OW10378   2.398   0.749   5.317
 3160SOL    HW110379   2.470   0.802   5.363
 3160SOL    HW210380   2.356   0.806   5.246
 3161SOL     OW10381   1.639   2.727   1.583
 3161SOL    HW110382   1.575   2.708   1.657
 3161SOL    HW210383   1.690   2.811   1.603
 3162SOL     OW10384   1.195   5.766   1.949
 3162SOL    HW110385   1.295   5.776   1.949
 3162SOL    HW210386   1.166   5.720   1.865
 3163SOL     OW10387   5.308   4.460   1.472
 3163SOL    HW110388   5.236   4.451   1.403
 3163SOL    HW210389   5.288   4.402   1.550
 3164SOL     OW10390   2.276   0.273   3.772
 3164SOL    HW110391   2.373   0.255   3.755
 3164SOL    HW210392   2.248   0.225   3.855
 3165SOL     OW10393   0.365   5.597   6.986
 3165SOL    HW110394   0.330   5.511   0.007
 3165SOL    HW210395   0.369   5.592   6.887
 3166SOL     OW10396   3.733   2.079   4.916
 3166SOL    HW110397   3.820   2.098   4.871
 3166SOL    HW210398   3.660   2.075   4.847
 3167SOL     OW10399   6.577   3.361   2.091
 3167SOL    HW110400   6.540   3.400   2.006
 3167SOL    HW210401   6.662   3.407   2.115
 3168SOL     OW10402   5.465   1.716   0.664
 3168SOL    HW110403   5.383   1.749   0.712
 3168SOL    HW210404   5.461   1.743   0.568
 3169SOL     OW10405   0.782   2.944   1.772
 3169SOL    HW110406   0.869   2.990   1.757
 3169SOL    HW210407   0.777   2.861   1.716
 3170SOL     OW10408   2.248   4.351   3.878
 3170SOL    HW110409   2.304   4.395   3.948
 3170SOL    HW210410   2.231   4.415   3.803
 3171SOL     OW10411   5.235   1.634   5.007
 3171SOL    HW110412   5.291   1.615   5.088
 3171SOL    HW210413   5.252   1.727   4.976
 3172SOL     OW10414   6.012   3.961   1.407
 3172SOL    HW110415   5.988   4.019   1.329
 3172SOL    HW210416   6.008   4.015   1.491
 3173SOL     OW10417   4.644   3.734   0.000
 3173SOL    HW110418   4.638   3.642   0.038
 3173SOL    HW210419   4.563   3.786   0.026
 3174SOL     OW10420   2.855   2.971   6.916
 3174SOL    HW110421   2.947   2.952   6.952
 3174SOL    HW210422   2.826   3.062   6.946
 3175SOL     OW10423   6.278   5.810   5.173
 3175SOL    HW110424   6.190   5.821   5.126
 3175SOL    HW210425   6.274   5.730   5.233
 3176SOL     OW10426   0.166   4.744   3.786
 3176SOL    HW110427   0.263   4.739   3.762
 3176SOL    HW210428   0.155   4.801   3.867
 3177SOL     OW10429   5.286   2.546   1.654
 3177SOL    HW110430   5.209   2.564   1.714
 3177SOL    HW210431   5.308   2.448   1.656
 3178SOL     OW10432   1.300   0.862   2.925
 3178SOL    HW110433   1.236   0.822   2.859
 3178SOL    HW210434   1.387   0.880   2.880
 3179SOL     OW10435   0.751   3.790   2.604
 3179SOL    HW110436   0.845   3.813   2.577
 3179SOL    HW210437   0.710   3.730   2.536
 3180SOL     OW10438   5.952   0.105   6.558
 3180SOL    HW110439   5.946   0.200   6.529
 3180SOL    HW210440   5.904   0.046   6.493
 3181SOL     OW10441   0.460   6.458   4.511
 3181SOL    HW110442   0.464   6.554   4.537
 3181SOL    HW210443   0.552   6.419   4.509
 3182SOL     OW10444   1.543   0.074   1.302
 3182SOL    HW110445   1.464   0.016   1.324
 3182SOL    HW210446   1.517   0.141   1.233
 3183SOL     OW10447   4.226   4.140   0.161
 3183SOL    HW110448   4.280   4.198   0.101
 3183SOL    HW210449   4.239   4.044   0.135
 3184SOL     OW10450   6.461   0.826   4.468
 3184SOL    HW110451   6.406   0.909   4.456
 3184SOL    HW210452   6.485   0.815   4.564
 3185SOL     OW10453   1.502   7.014   6.188
 3185SOL    HW110454   1.595   6.981   6.170
 3185SOL    HW210455   1.507   0.081   6.244
 3186SOL     OW10456   0.518   2.107   5.694
 3186SOL    HW110457   0.533   2.150   5.783
 3186SOL    HW210458   0.534   2.008   5.702
 3187SOL     OW10459   4.995   0.216   3.289
 3187SOL    HW110460   4.931   0.140   3.303
 3187SOL    HW210461   4.973   0.290   3.353
 3188SOL     OW10462   1.570   6.023   1.244
 3188SOL    HW110463   1.532   5.959   1.311
 3188SOL    HW210464   1.506   6.099   1.231
 3189SOL     OW10465   2.449   1.535   5.763
 3189SOL    HW110466   2.520   1.467   5.777
 3189SOL    HW210467   2.456   1.574   5.671
 3190SOL     OW10468   6.069   6.071   4.763
 3190SOL    HW110469   5.978   6.098   4.794
 3190SOL    HW210470   6.104   6.140   4.699
 3191SOL     OW10471   4.097   5.162   0.888
 3191SOL    HW110472   4.013   5.176   0.835
 3191SOL    HW210473   4.170   5.219   0.850
 3192SOL     OW10474   5.879   0.654   3.237
 3192SOL    HW110475   5.868   0.679   3.334
 3192SOL    HW210476   5.888   0.738   3.183
 3193SOL     OW10477   3.776   5.619   4.426
 3193SOL    HW110478   3.684   5.580   4.419
 3193SOL    HW210479   3.806   5.649   4.335
 3194SOL     OW10480   2.439   6.395   5.428
 3194SOL    HW110481   2.406   6.441   5.345
 3194SOL    HW210482   2.376   6.414   5.504
 3195SOL     OW10483   0.525   5.683   1.240
 3195SOL    HW110484   0.609   5.726   1.275
 3195SOL    HW210485   0.466   5.658   1.316
 3196SOL     OW10486   6.052   0.194   2.764
 3196SOL    HW110487   6.036   0.097   2.782
 3196SOL    HW210488   5.965   0.244   2.769
 3197SOL     OW10489   2.989   1.012   0.327
 3197SOL    HW110490   3.017   1.068   0.406
 3197SOL    HW210491   3.065   1.006   0.262
 3198SOL     OW10492   5.256   4.380   4.102
 3198SOL    HW110493   5.237   4.289   4.065
 3198SOL    HW210494   5.248   4.379   4.202
 3199SOL     OW10495   4.927   3.603   3.728
 3199SOL    HW110496   4.900   3.690   3.685
 3199SOL    HW210497   5.020   3.579   3.701
 3200SOL     OW10498   6.496   3.416   4.684
 3200SOL    HW110499   6.445   3.471   4.750
 3200SOL    HW210500   6.463   3.435   4.592
 3201SOL     OW10501   6.298   3.528   2.744
 3201SOL    HW110502   6.264   3.601   2.685
 3201SOL    HW210503   6.223   3.468   2.770
 3202SOL     OW10504   2.871   2.757   6.151
 3202SOL    HW110505   2.907   2.841   6.190
 3202SOL    HW210506   2.942   2.711   6.099
 3203SOL     OW10507   3.116   6.475   1.801
 3203SOL    HW110508   3.181   6.469   1.876
 3203SOL    HW210509   3.147   6.418   1.725
 3204SOL     OW10510   5.126   0.590   3.596
 3204SOL    HW110511   5.145   0.683   3.565
 3204SOL    HW210512   5.075   0.593   3.682
 3205SOL     OW10513   4.787   3.165   0.224
 3205SOL    HW110514   4.811   3.187   0.319
 3205SOL    HW210515   4.871   3.158   0.170
 3206SOL     OW10516   3.200   4.896   0.462
 3206SOL    HW110517   3.269   4.924   0.396
 3206SOL    HW210518   3.231   4.813   0.509
 3207SOL     OW10519   1.973   6.419   3.360
 3207SOL    HW110520   1.948   6.463   3.447
 3207SOL    HW210521   1.981   6.489   3.289
 3208SOL     OW10522   0.002   3.935   6.851
 3208SOL    HW110523   6.980   3.902   6.765
 3208SOL    HW210524   0.078   3.876   6.879
 3209SOL     OW10525   5.029   0.109   5.144
 3209SOL    HW110526   4.962   0.161   5.198
 3209SOL    HW210527   5.082   0.173   5.088
 3210SOL     OW10528   5.403   4.944   2.286
 3210SOL    HW110529   5.443   4.938   2.377
 3210SOL    HW210530   5.361   5.034   2.274
 3211SOL     OW10531   2.449   6.978   0.008
 3211SOL    HW110532   2.418   6.886   0.033
 3211SOL    HW210533   2.497   0.003   0.086
 3212SOL     OW10534   3.487   6.826   4.402
 3212SOL    HW110535   3.469   6.761   4.476
 3212SOL    HW210536   3.511   6.915   4.442
 3213SOL     OW10537   1.626   0.487   5.807
 3213SOL    HW110538   1.591   0.577   5.833
 3213SOL    HW210539   1.681   0.495   5.724
 3214SOL     OW10540   3.117   0.516   2.680
 3214SOL    HW110541   3.205   0.553   2.708
 3214SOL    HW210542   3.078   0.573   2.608
 3215SOL     OW10543   2.134   3.217   2.057
 3215SOL    HW110544   2.192   3.299   2.067
 3215SOL    HW210545   2.045   3.244   2.020
 3216SOL     OW10546   6.023   4.505   0.932
 3216SOL    HW110547   6.005   4.489   0.834
 3216SOL    HW210548   5.941   4.541   0.975
 3217SOL     OW10549   6.285   6.108   3.540
 3217SOL    HW110550   6.288   6.009   3.531
 3217SOL    HW210551   6.231   6.147   3.465
 3218SOL     OW10552   5.698   1.337   3.656
 3218SOL    HW110553   5.759   1.327   3.578
 3218SOL    HW210554   5.747   1.308   3.739
 3219SOL     OW10555   5.029   1.903   4.264
 3219SOL    HW110556   5.029   1.835   4.191
 3219SOL    HW210557   4.959   1.972   4.246
 3220SOL     OW10558   0.391   3.516   5.556
 3220SOL    HW110559   0.439   3.448   5.611
 3220SOL    HW210560   0.332   3.571   5.616
 3221SOL     OW10561   4.130   1.437   2.294
 3221SOL    HW110562   4.125   1.502   2.370
 3221SOL    HW210563   4.108   1.485   2.209
 3222SOL     OW10564   3.259   1.294   3.626
 3222SOL    HW110565   3.252   1.196   3.644
 3222SOL    HW210566   3.176   1.340   3.656
 3223SOL     OW10567   1.673   5.605   0.439
 3223SOL    HW110568   1.600   5.536   0.446
 3223SOL    HW210569   1.752   5.575   0.491
 3224SOL     OW10570   4.604   2.487   3.819
 3224SOL    HW110571   4.506   2.486   3.800
 3224SOL    HW210572   4.632   2.580   3.843
 3225SOL     OW10573   4.552   1.231   4.832
 3225SOL    HW110574   4.638   1.254   4.786
 3225SOL    HW210575   4.486   1.201   4.764
 3226SOL     OW10576   6.034   1.020   0.550
 3226SOL    HW110577   5.941   1.050   0.530
 3226SOL    HW210578   6.062   0.951   0.483
 3227SOL     OW10579   5.915   3.992   5.387
 3227SOL    HW110580   5.934   3.944   5.301
 3227SOL    HW210581   5.865   3.931   5.449
 3228SOL     OW10582   1.976   4.310   0.430
 3228SOL    HW110583   1.967   4.211   0.435
 3228SOL    HW210584   1.927   4.352   0.507
 3229SOL     OW10585   1.085   0.972   0.895
 3229SOL    HW110586   1.044   1.045   0.950
 3229SOL    HW210587   1.098   1.004   0.801
 3230SOL     OW10588   3.505   6.554   5.096
 3230SOL    HW110589   3.549   6.614   5.030
 3230SOL    HW210590   3.431   6.603   5.142
 3231SOL     OW10591   2.671   2.381   2.460
 3231SOL    HW110592   2.669   2.360   2.558
 3231SOL    HW210593   2.743   2.328   2.416
 3232SOL     OW10594   2.798   4.717   3.600
 3232SOL    HW110595   2.854   4.739   3.680
 3232SOL    HW210596   2.780   4.801   3.548
 3233SOL     OW10597   2.733   0.208   5.838
 3233SOL    HW110598   2.644   0.164   5.826
 3233SOL    HW210599   2.733   0.298   5.794
 3234SOL     OW10600   3.478   3.518   0.765
 3234SOL    HW110601   3.430   3.590   0.815
 3234SOL    HW210602   3.576   3.540   0.760
 3235SOL     OW10603   0.433   1.628   2.573
 3235SOL    HW110604   0.396   1.595   2.660
 3235SOL    HW210605   0.392   1.717   2.552
 3236SOL     OW10606   5.559   6.980   0.415
 3236SOL    HW110607   5.644   6.931   0.396
 3236SOL    HW210608   5.574   0.026   0.493
 3237SOL     OW10609   6.086   1.313   5.578
 3237SOL    HW110610   6.002   1.275   5.540
 3237SOL    HW210611   6.066   1.361   5.663
 3238SOL     OW10612   6.964   5.266   1.020
 3238SOL    HW110613   0.037   5.220   1.031
 3238SOL    HW210614   6.892   5.198   1.010
 3239SOL     OW10615   6.164   0.641   5.043
 3239SOL    HW110616   6.181   0.683   5.132
 3239SOL    HW210617   6.226   0.680   4.975
 3240SOL     OW10618   1.129   1.912   1.641
 3240SOL    HW110619   1.043   1.927   1.592
 3240SOL    HW210620   1.171   1.827   1.609
 3241SOL     OW10621   0.343   2.888   5.611
 3241SOL    HW110622   0.368   2.841   5.696
 3241SOL    HW210623   0.425   2.898   5.554
 3242SOL     OW10624   0.306   4.968   5.622
 3242SOL    HW110625   0.318   4.959   5.721
 3242SOL    HW210626   0.392   4.944   5.576
 3243SOL     OW10627   5.867   5.480   4.662
 3243SOL    HW110628   5.800   5.512   4.596
 3243SOL    HW210629   5.845   5.516   4.753
 3244SOL     OW10630   4.514   0.384   6.636
 3244SOL    HW110631   4.519   0.430   6.548
 3244SOL    HW210632   4.468   0.296   6.625
 3245SOL     OW10633   2.478   6.235   4.027
 3245SOL    HW110634   2.422   6.222   3.945
 3245SOL    HW210635   2.435   6.301   4.088
 3246SOL     OW10636   6.543   5.373   3.146
 3246SOL    HW110637   6.478   5.399   3.075
 3246SOL    HW210638   6.527   5.428   3.228
 3247SOL     OW10639   2.217   4.479   4.333
 3247SOL    HW110640   2.154   4.554   4.349
 3247SOL    HW210641   2.240   4.436   4.421
 3248SOL     OW10642   6.408   2.488   3.639
 3248SOL    HW110643   6.318   2.497   3.682
 3248SOL    HW210644   6.396   2.479   3.540
 3249SOL     OW10645   4.059   3.891   4.386
 3249SOL    HW110646   4.108   3.905   4.472
 3249SOL    HW210647   3.987   3.959   4.377
 3250SOL     OW10648   4.578   5.764   3.793
 3250SOL    HW110649   4.527   5.847   3.816
 3250SOL    HW210650   4.520   5.703   3.739
 3251SOL     OW10651   2.399   1.979   2.370
 3251SOL    HW110652   2.481   2.009   2.322
 3251SOL    HW210653   2.374   2.047   2.439
 3252SOL     OW10654   1.630   1.862   2.576
 3252SOL    HW110655   1.608   1.907   2.662
 3252SOL    HW210656   1.627   1.763   2.588
 3253SOL     OW10657   6.603   3.660   0.802
 3253SOL    HW110658   6.605   3.760   0.798
 3253SOL    HW210659   6.541   3.626   0.731
 3254SOL     OW10660   6.073   6.559   0.568
 3254SOL    HW110661   6.103   6.595   0.480
 3254SOL    HW210662   6.153   6.544   0.627
 3255SOL     OW10663   3.670   4.912   2.723
 3255SOL    HW110664   3.637   4.941   2.813
 3255SOL    HW210665   3.592   4.897   2.662
 3256SOL     OW10666   5.538   2.596   1.821
 3256SOL    HW110667   5.608   2.534   1.859
 3256SOL    HW210668   5.454   2.544   1.803
 3257SOL     OW10669   2.469   0.903   2.827
 3257SOL    HW110670   2.374   0.874   2.835
 3257SOL    HW210671   2.528   0.843   2.882
 3258SOL     OW10672   0.736   5.338   3.849
 3258SOL    HW110673   0.724   5.254   3.902
 3258SOL    HW210674   0.713   5.417   3.906
 3259SOL     OW10675   6.027   5.312   3.636
 3259SOL    HW110676   6.064   5.336   3.725
 3259SOL    HW210677   6.025   5.213   3.626
 3260SOL     OW10678   2.080   4.467   3.668
 3260SOL    HW110679   2.032   4.554   3.660
 3260SOL    HW210680   2.055   4.408   3.591
 3261SOL     OW10681   6.393   6.880   3.565
 3261SOL    HW110682   6.302   6.839   3.563
 3261SOL    HW210683   6.452   6.834   3.499
 3262SOL     OW10684   3.191   1.835   2.965
 3262SOL    HW110685   3.231   1.919   2.929
 3262SOL    HW210686   3.146   1.853   3.052
 3263SOL     OW10687   5.456   6.856   1.939
 3263SOL    HW110688   5.491   6.950   1.930
 3263SOL    HW210689   5.526   6.799   1.982
 3264SOL     OW10690   0.968   4.848   5.989
 3264SOL    HW110691   1.011   4.900   6.063
 3264SOL    HW210692   0.976   4.750   6.009
 3265SOL     OW10693   0.053   6.211   5.952
 3265SOL    HW110694   0.046   6.272   5.874
 3265SOL    HW210695   0.149   6.188   5.968
 3266SOL     OW10696   3.685   4.522   6.444
 3266SOL    HW110697   3.623   4.471   6.504
 3266SOL    HW210698   3.762   4.557   6.498
 3267SOL     OW10699   3.107   0.188   0.887
 3267SOL    HW110700   3.169   0.266   0.874
 3267SOL    HW210701   3.146   0.126   0.955
 3268SOL     OW10702   5.425   4.177   2.079
 3268SOL    HW110703   5.434   4.114   2.002
 3268SOL    HW210704   5.339   4.158   2.127
 3269SOL     OW10705   2.216   5.177   0.856
 3269SOL    HW110706   2.286   5.123   0.903
 3269SOL    HW210707   2.129   5.169   0.905
 3270SOL     OW10708   1.830   3.083   6.334
 3270SOL    HW110709   1.915   3.075   6.386
 3270SOL    HW210710   1.794   2.992   6.314
 3271SOL     OW10711   0.686   3.818   1.405
 3271SOL    HW110712   0.633   3.885   1.457
 3271SOL    HW210713   0.783   3.827   1.428
 3272SOL     OW10714   3.888   0.150   0.839
 3272SOL    HW110715   3.966   0.213   0.845
 3272SOL    HW210716   3.828   0.180   0.765
 3273SOL     OW10717   4.231   3.765   6.694
 3273SOL    HW110718   4.290   3.685   6.683
 3273SOL    HW210719   4.187   3.786   6.606
 3274SOL     OW10720   4.314   0.574   2.147
 3274SOL    HW110721   4.253   0.499   2.119
 3274SOL    HW210722   4.355   0.616   2.066
 3275SOL     OW10723   5.498   0.356   1.878
 3275SOL    HW110724   5.451   0.393   1.958
 3275SOL    HW210725   5.593   0.386   1.877
 3276SOL     OW10726   5.821   5.683   0.071
 3276SOL    HW110727   5.896   5.732   0.114
 3276SOL    HW210728   5.737   5.736   0.078
 3277SOL     OW10729   3.380   1.360   2.390
 3277SOL    HW110730   3.459   1.402   2.346
 3277SOL    HW210731   3.391   1.364   2.489
 3278SOL     OW10732   5.186   1.531   6.507
 3278SOL    HW110733   5.269   1.522   6.562
 3278SOL    HW210734   5.204   1.588   6.427
 3279SOL     OW10735   4.200   0.654   2.739
 3279SOL    HW110736   4.226   0.572   2.688
 3279SOL    HW210737   4.178   0.630   2.833
 3280SOL     OW10738   6.320   2.900   4.256
 3280SOL    HW110739   6.266   2.878   4.175
 3280SOL    HW210740   6.283   2.983   4.299
 3281SOL     OW10741   5.910   2.706   2.077
 3281SOL    HW110742   5.957   2.793   2.092
 3281SOL    HW210743   5.970   2.644   2.026
 3282SOL     OW10744   6.549   4.435   5.054
 3282SOL    HW110745   6.459   4.433   5.099
 3282SOL    HW210746   6.584   4.342   5.046
 3283SOL     OW10747   3.401   1.497   0.653
 3283SOL    HW110748   3.375   1.546   0.570
 3283SOL    HW210749   3.364   1.544   0.733
 3284SOL     OW10750   2.106   0.834   5.241
 3284SOL    HW110751   2.115   0.753   5.298
 3284SOL    HW210752   2.164   0.907   5.276
 3285SOL     OW10753   3.838   2.156   3.890
 3285SOL    HW110754   3.824   2.180   3.794
 3285SOL    HW210755   3.785   2.074   3.912
 3286SOL     OW10756   1.209   3.740   2.977
 3286SOL    HW110757   1.152   3.664   3.010
 3286SOL    HW210758   1.172   3.826   3.012
 3287SOL     OW10759   3.024   1.391   0.401
 3287SOL    HW110760   2.997   1.390   0.304
 3287SOL    HW210761   2.949   1.358   0.457
 3288SOL     OW10762   3.257   4.937   1.682
 3288SOL    HW110763   3.192   4.863   1.693
 3288SOL    HW210764   3.336   4.921   1.742
 3289SOL     OW10765   4.728   0.562   0.148
 3289SOL    HW110766   4.692   0.472   0.121
 3289SOL    HW210767   4.754   0.613   0.065
 3290SOL     OW10768   0.655   5.180   0.128
 3290SOL    HW110769   0.634   5.082   0.133
 3290SOL    HW210770   0.583   5.232   0.175
 3291SOL     OW10771   5.191   6.443   5.839
 3291SOL    HW110772   5.260   6.411   5.775
 3291SOL    HW210773   5.144   6.523   5.801
 3292SOL     OW10774   0.211   3.278   0.953
 3292SOL    HW110775   0.170   3.241   0.870
 3292SOL    HW210776   0.157   3.355   0.987
 3293SOL     OW10777   6.804   4.315   2.561
 3293SOL    HW110778   6.798   4.404   2.605
 3293SOL    HW210779   6.788   4.325   2.463
 3294SOL     OW10780   3.877   2.873   5.215
 3294SOL    HW110781   3.930   2.792   5.242
 3294SOL    HW210782   3.780   2.857   5.231
 3295SOL     OW10783   1.321   3.061   3.478
 3295SOL    HW110784   1.313   2.961   3.481
 3295SOL    HW210785   1.403   3.086   3.426
 3296SOL     OW10786   2.249   0.610   0.110
 3296SOL    HW110787   2.155   0.602   0.141
 3296SOL    HW210788   2.256   0.578   0.016
 3297SOL     OW10789   3.019   0.509   5.636
 3297SOL    HW110790   3.069   0.423   5.625
 3297SOL    HW210791   3.020   0.536   5.732
 3298SOL     OW10792   3.532   4.413   6.006
 3298SOL    HW110793   3.542   4.344   6.078
 3298SOL    HW210794   3.451   4.392   5.952
 3299SOL     OW10795   2.573   0.043   4.461
 3299SOL    HW110796   2.554   0.027   4.364
 3299SOL    HW210797   2.488   0.034   4.514
 3300SOL     OW10798   1.759   1.010   3.670
 3300SOL    HW110799   1.715   0.974   3.752
 3300SOL    HW210800   1.698   0.999   3.591
 3301SOL     OW10801   1.185   1.071   2.168
 3301SOL    HW110802   1.152   1.076   2.262
 3301SOL    HW210803   1.196   0.975   2.142
 3302SOL     OW10804   1.539   4.282   5.067
 3302SOL    HW110805   1.585   4.287   4.979
 3302SOL    HW210806   1.607   4.287   5.140
 3303SOL     OW10807   4.157   3.754   0.537
 3303SOL    HW110808   4.126   3.830   0.594
 3303SOL    HW210809   4.109   3.670   0.565
 3304SOL     OW10810   2.485   3.600   0.884
 3304SOL    HW110811   2.495   3.591   0.983
 3304SOL    HW210812   2.404   3.654   0.862
 3305SOL     OW10813   3.086   2.744   6.992
 3305SOL    HW110814   3.136   2.780   6.914
 3305SOL    HW210815   3.000   2.704   6.961
 3306SOL     OW10816   2.624   0.649   0.825
 3306SOL    HW110817   2.720   0.670   0.845
 3306SOL    HW210818   2.565   0.704   0.884
 3307SOL     OW10819   2.509   5.661   4.549
 3307SOL    HW110820   2.536   5.707   4.465
 3307SOL    HW210821   2.556   5.702   4.627
 3308SOL     OW10822   5.024   5.479   0.984
 3308SOL    HW110823   5.083   5.485   1.064
 3308SOL    HW210824   4.971   5.394   0.988
 3309SOL     OW10825   6.123   3.765   4.276
 3309SOL    HW110826   6.085   3.835   4.337
 3309SOL    HW210827   6.056   3.743   4.205
 3310SOL     OW10828   6.625   4.504   6.387
 3310SOL    HW110829   6.702   4.538   6.334
 3310SOL    HW210830   6.629   4.541   6.480
 3311SOL     OW10831   2.278   2.713   6.934
 3311SOL    HW110832   2.343   2.776   6.893
 3311SOL    HW210833   2.310   2.686   0.009
 3312SOL     OW10834   4.874   3.725   0.479
 3312SOL    HW110835   4.961   3.768   0.457
 3312SOL    HW210836   4.889   3.628   0.499
 3313SOL     OW10837   0.991   6.772   3.783
 3313SOL    HW110838   0.900   6.781   3.741
 3313SOL    HW210839   1.038   6.861   3.780
 3314SOL     OW10840   3.089   6.210   3.526
 3314SOL    HW110841   3.155   6.273   3.566
 3314SOL    HW210842   3.133   6.156   3.455
 3315SOL     OW10843   0.758   6.419   4.021
 3315SOL    HW110844   0.842   6.364   4.020
 3315SOL    HW210845   0.699   6.391   3.946
 3316SOL     OW10846   3.326   1.727   0.216
 3316SOL    HW110847   3.267   1.792   0.166
 3316SOL    HW210848   3.421   1.755   0.207
 3317SOL     OW10849   5.844   2.429   0.984
 3317SOL    HW110850   5.853   2.454   1.081
 3317SOL    HW210851   5.747   2.434   0.958
 3318SOL     OW10852   3.897   2.710   0.827
 3318SOL    HW110853   3.836   2.691   0.904
 3318SOL    HW210854   3.846   2.756   0.755
 3319SOL     OW10855   6.676   6.756   3.806
 3319SOL    HW110856   6.592   6.705   3.820
 3319SOL    HW210857   6.663   6.851   3.833
 3320SOL     OW10858   6.256   0.819   2.266
 3320SOL    HW110859   6.351   0.836   2.241
 3320SOL    HW210860   6.236   0.721   2.258
 3321SOL     OW10861   4.872   1.787   6.957
 3321SOL    HW110862   4.888   1.701   6.907
 3321SOL    HW210863   4.777   1.814   6.947
 3322SOL     OW10864   6.083   3.484   1.547
 3322SOL    HW110865   6.031   3.546   1.488
 3322SOL    HW210866   6.180   3.497   1.531
 3323SOL     OW10867   1.329   0.822   2.055
 3323SOL    HW110868   1.262   0.816   1.981
 3323SOL    HW210869   1.415   0.858   2.018
 3324SOL     OW10870   6.215   5.507   5.886
 3324SOL    HW110871   6.210   5.553   5.798
 3324SOL    HW210872   6.302   5.457   5.892
 3325SOL     OW10873   2.955   5.379   5.968
 3325SOL    HW110874   2.948   5.288   5.927
 3325SOL    HW210875   2.898   5.382   6.051
 3326SOL     OW10876   3.790   1.985   2.016
 3326SOL    HW110877   3.832   1.964   1.928
 3326SOL    HW210878   3.737   2.069   2.009
 3327SOL     OW10879   1.698   6.391   5.917
 3327SOL    HW110880   1.632   6.400   5.991
 3327SOL    HW210881   1.656   6.341   5.841
 3328SOL     OW10882   4.800   3.001   5.221
 3328SOL    HW110883   4.781   3.096   5.198
 3328SOL    HW210884   4.724   2.943   5.191
 3329SOL     OW10885   6.675   6.514   5.882
 3329SOL    HW110886   6.750   6.514   5.948
 3329SOL    HW210887   6.642   6.421   5.869
 3330SOL     OW10888   6.804   2.416   2.644
 3330SOL    HW110889   6.728   2.360   2.612
 3330SOL    HW210890   6.788   2.442   2.739
 3331SOL     OW10891   1.693   3.260   0.483
 3331SOL    HW110892   1.629   3.326   0.445
 3331SOL    HW210893   1.742   3.214   0.409
 3332SOL     OW10894   0.528   3.972   1.890
 3332SOL    HW110895   0.442   3.977   1.839
 3332SOL    HW210896   0.538   3.882   1.931
 3333SOL     OW10897   3.081   5.702   5.127
 3333SOL    HW110898   3.178   5.678   5.122
 3333SOL    HW210899   3.026   5.628   5.090
 3334SOL     OW10900   1.217   3.203   1.269
 3334SOL    HW110901   1.223   3.241   1.177
 3334SOL    HW210902   1.291   3.240   1.325
 3335SOL     OW10903   5.591   4.223   4.498
 3335SOL    HW110904   5.525   4.175   4.556
 3335SOL    HW210905   5.553   4.312   4.472
 3336SOL     OW10906   3.878   6.501   5.669
 3336SOL    HW110907   3.786   6.525   5.701
 3336SOL    HW210908   3.888   6.530   5.574
 3337SOL     OW10909   3.620   1.703   0.624
 3337SOL    HW110910   3.629   1.652   0.539
 3337SOL    HW210911   3.565   1.651   0.689
 3338SOL     OW10912   6.751   5.110   6.871
 3338SOL    HW110913   6.836   5.096   6.921
 3338SOL    HW210914   6.701   5.023   6.865
 3339SOL     OW10915   0.572   4.924   6.345
 3339SOL    HW110916   0.618   4.986   6.408
 3339SOL    HW210917   0.625   4.917   6.261
 3340SOL     OW10918   4.065   0.416   1.627
 3340SOL    HW110919   4.026   0.488   1.569
 3340SOL    HW210920   4.138   0.455   1.684
 3341SOL     OW10921   0.884   0.384   6.947
 3341SOL    HW110922   0.982   0.381   6.966
 3341SOL    HW210923   0.851   0.477   6.960
 3342SOL     OW10924   2.183   6.908   5.475
 3342SOL    HW110925   2.134   6.995   5.475
 3342SOL    HW210926   2.132   6.841   5.530
 3343SOL     OW10927   0.134   2.409   1.125
 3343SOL    HW110928   0.043   2.370   1.111
 3343SOL    HW210929   0.204   2.340   1.107
 3344SOL     OW10930   1.462   2.942   6.174
 3344SOL    HW110931   1.558   2.915   6.177
 3344SOL    HW210932   1.405   2.860   6.166
 3345SOL     OW10933   2.728   3.252   5.982
 3345SOL    HW110934   2.756   3.268   5.887
 3345SOL    HW210935   2.741   3.156   6.005
 3346SOL     OW10936   2.032   5.767   2.658
 3346SOL    HW110937   2.073   5.844   2.706
 3346SOL    HW210938   1.972   5.801   2.585
 3347SOL     OW10939   6.387   3.824   4.233
 3347SOL    HW110940   6.427   3.825   4.325
 3347SOL    HW210941   6.299   3.777   4.236
 3348SOL     OW10942   3.468   3.889   3.489
 3348SOL    HW110943   3.567   3.899   3.498
 3348SOL    HW210944   3.424   3.974   3.519
 3349SOL     OW10945   4.885   2.687   0.335
 3349SOL    HW110946   4.911   2.783   0.352
 3349SOL    HW210947   4.797   2.685   0.288
 3350SOL     OW10948   2.404   2.832   1.187
 3350SOL    HW110949   2.395   2.742   1.144
 3350SOL    HW210950   2.481   2.830   1.252
 3351SOL     OW10951   5.949   2.816   0.490
 3351SOL    HW110952   5.996   2.904   0.495
 3351SOL    HW210953   5.882   2.810   0.564
 3352SOL     OW10954   0.168   3.590   0.122
 3352SOL    HW110955   0.095   3.585   0.191
 3352SOL    HW210956   0.251   3.547   0.158
 3353SOL     OW10957   1.263   6.637   6.454
 3353SOL    HW110958   1.303   6.679   6.373
 3353SOL    HW210959   1.336   6.598   6.511
 3354SOL     OW10960   1.035   0.263   1.926
 3354SOL    HW110961   1.091   0.323   1.983
 3354SOL    HW210962   0.968   0.318   1.875
 3355SOL     OW10963   6.067   0.971   2.397
 3355SOL    HW110964   6.088   1.069   2.391
 3355SOL    HW210965   6.143   0.918   2.361
 3356SOL     OW10966   1.325   4.093   6.713
 3356SOL    HW110967   1.407   4.141   6.682
 3356SOL    HW210968   1.344   4.048   6.800
 3357SOL     OW10969   2.305   5.609   2.357
 3357SOL    HW110970   2.386   5.560   2.390
 3357SOL    HW210971   2.223   5.568   2.397
 3358SOL     OW10972   6.511   3.937   3.631
 3358SOL    HW110973   6.480   3.978   3.717
 3358SOL    HW210974   6.607   3.961   3.616
 3359SOL     OW10975   1.968   1.416   1.431
 3359SOL    HW110976   1.898   1.348   1.411
 3359SOL    HW210977   1.988   1.416   1.529
 3360SOL     OW10978   2.636   0.817   6.014
 3360SOL    HW110979   2.572   0.879   6.059
 3360SOL    HW210980   2.711   0.796   6.077
 3361SOL     OW10981   2.691   1.483   3.004
 3361SOL    HW110982   2.660   1.430   3.082
 3361SOL    HW210983   2.764   1.546   3.033
 3362SOL     OW10984   3.116   1.856   4.749
 3362SOL    HW110985   3.118   1.951   4.721
 3362SOL    HW210986   3.022   1.820   4.740
 3363SOL     OW10987   6.665   0.791   0.119
 3363SOL    HW110988   6.596   0.723   0.146
 3363SOL    HW210989   6.756   0.755   0.140
 3364SOL     OW10990   1.886   5.705   5.212
 3364SOL    HW110991   1.919   5.640   5.280
 3364SOL    HW210992   1.790   5.687   5.192
 3365SOL     OW10993   6.353   2.572   5.342
 3365SOL    HW110994   6.444   2.614   5.343
 3365SOL    HW210995   6.305   2.600   5.259
 3366SOL     OW10996   5.528   0.576   0.242
 3366SOL    HW110997   5.501   0.654   0.298
 3366SOL    HW210998   5.468   0.499   0.262
 3367SOL     OW10999   2.066   0.225   2.783
 3367SOL    HW111000   2.163   0.202   2.788
 3367SOL    HW211001   2.030   0.199   2.693
 3368SOL     OW11002   6.495   1.211   4.514
 3368SOL    HW111003   6.514   1.304   4.545
 3368SOL    HW211004   6.407   1.180   4.551
 3369SOL     OW11005   4.061   5.426   6.511
 3369SOL    HW111006   3.971   5.409   6.551
 3369SOL    HW211007   4.054   5.428   6.411
 3370SOL     OW11008   6.039   0.250   5.354
 3370SOL    HW111009   5.964   0.248   5.287
 3370SOL    HW211010   6.055   0.158   5.389
 3371SOL     OW11011   6.850   4.714   1.575
 3371SOL    HW111012   6.925   4.761   1.528
 3371SOL    HW211013   6.875   4.618   1.590
 3372SOL     OW11014   1.375   2.442   2.884
 3372SOL    HW111015   1.396   2.532   2.847
 3372SOL    HW211016   1.282   2.416   2.860
 3373SOL     OW11017   0.567   2.815   6.481
 3373SOL    HW111018   0.542   2.906   6.511
 3373SOL    HW211019   0.607   2.819   6.390
 3374SOL     OW11020   3.572   6.295   5.225
 3374SOL    HW111021   3.661   6.284   5.181
 3374SOL    HW211022   3.525   6.373   5.184
 3375SOL     OW11023   3.633   3.823   4.805
 3375SOL    HW111024   3.703   3.752   4.806
 3375SOL    HW211025   3.616   3.856   4.898
 3376SOL     OW11026   3.401   3.129   1.646
 3376SOL    HW111027   3.431   3.101   1.737
 3376SOL    HW211028   3.302   3.138   1.645
 3377SOL     OW11029   2.994   5.443   5.367
 3377SOL    HW111030   2.958   5.451   5.274
 3377SOL    HW211031   2.943   5.504   5.427
 3378SOL     OW11032   6.787   1.264   0.983
 3378SOL    HW111033   6.719   1.191   0.975
 3378SOL    HW211034   6.753   1.346   0.939
 3379SOL     OW11035   5.798   5.099   5.467
 3379SOL    HW111036   5.873   5.084   5.531
 3379SOL    HW211037   5.811   5.042   5.386
 3380SOL     OW11038   0.576   3.924   5.675
 3380SOL    HW111039   0.672   3.936   5.651
 3380SOL    HW211040   0.519   3.984   5.619
 3381SOL     OW11041   3.180   2.501   1.604
 3381SOL    HW111042   3.134   2.572   1.658
 3381SOL    HW211043   3.275   2.493   1.634
 3382SOL     OW11044   0.536   6.579   0.709
 3382SOL    HW111045   0.550   6.513   0.635
 3382SOL    HW211046   0.452   6.630   0.692
 3383SOL     OW11047   0.594   4.192   1.197
 3383SOL    HW111048   0.597   4.107   1.250
 3383SOL    HW211049   0.546   4.263   1.249
 3384SOL     OW11050   3.279   3.643   3.632
 3384SOL    HW111051   3.305   3.587   3.554
 3384SOL    HW211052   3.360   3.684   3.674
 3385SOL     OW11053   6.948   3.978   4.078
 3385SOL    HW111054   0.020   3.956   4.035
 3385SOL    HW211055   6.924   3.907   4.144
 3386SOL     OW11056   5.927   4.277   4.476
 3386SOL    HW111057   5.834   4.248   4.450
 3386SOL    HW211058   5.993   4.227   4.421
 3387SOL     OW11059   3.357   1.733   2.430
 3387SOL    HW111060   3.339   1.832   2.436
 3387SOL    HW211061   3.378   1.709   2.336
 3388SOL     OW11062   5.589   2.064   1.135
 3388SOL    HW111063   5.671   2.007   1.137
 3388SOL    HW211064   5.523   2.023   1.071
 3389SOL     OW11065   4.013   5.748   2.572
 3389SOL    HW111066   4.098   5.798   2.585
 3389SOL    HW211067   4.007   5.715   2.478
 3390SOL     OW11068   4.546   1.126   5.553
 3390SOL    HW111069   4.540   1.219   5.590
 3390SOL    HW211070   4.610   1.072   5.608
 3391SOL     OW11071   3.432   2.000   3.938
 3391SOL    HW111072   3.390   2.027   4.024
 3391SOL    HW211073   3.365   2.009   3.864
 3392SOL     OW11074   5.275   6.442   3.798
 3392SOL    HW111075   5.322   6.528   3.817
 3392SOL    HW211076   5.242   6.442   3.703
 3393SOL     OW11077   6.960   6.766   6.949
 3393SOL    HW111078   6.882   6.768   7.011
 3393SOL    HW211079   6.966   6.677   6.905
 3394SOL     OW11080   5.102   1.187   2.224
 3394SOL    HW111081   5.007   1.175   2.197
 3394SOL    HW211082   5.121   1.284   2.239
 3395SOL     OW11083   1.608   3.782   5.112
 3395SOL    HW111084   1.598   3.810   5.207
 3395SOL    HW211085   1.526   3.732   5.083
 3396SOL     OW11086   6.643   3.544   4.216
 3396SOL    HW111087   6.586   3.478   4.166
 3396SOL    HW211088   6.625   3.536   4.314
 3397SOL     OW11089   3.682   5.524   6.287
 3397SOL    HW111090   3.637   5.440   6.314
 3397SOL    HW211091   3.626   5.603   6.314
 3398SOL     OW11092   0.386   1.234   3.330
 3398SOL    HW111093   0.301   1.239   3.382
 3398SOL    HW211094   0.450   1.303   3.365
 3399SOL     OW11095   4.270   6.029   4.082
 3399SOL    HW111096   4.263   5.938   4.123
 3399SOL    HW211097   4.240   6.097   4.148
 3400SOL     OW11098   5.170   2.499   0.473
 3400SOL    HW111099   5.134   2.457   0.389
 3400SOL    HW211100   5.221   2.581   0.449
 3401SOL     OW11101   6.771   4.254   6.366
 3401SOL    HW111102   6.697   4.319   6.378
 3401SOL    HW211103   6.858   4.296   6.393
 3402SOL     OW11104   4.566   4.787   2.187
 3402SOL    HW111105   4.639   4.781   2.255
 3402SOL    HW211106   4.551   4.697   2.147
 3403SOL     OW11107   3.769   1.348   5.700
 3403SOL    HW111108   3.828   1.286   5.752
 3403SOL    HW211109   3.823   1.395   5.631
 3404SOL     OW11110   4.966   6.116   1.601
 3404SOL    HW111111   4.909   6.120   1.683
 3404SOL    HW211112   4.915   6.154   1.524
 3405SOL     OW11113   6.139   4.505   6.770
 3405SOL    HW111114   6.171   4.599   6.764
 3405SOL    HW211115   6.212   4.446   6.804
 3406SOL     OW11116   1.419   3.821   1.474
 3406SOL    HW111117   1.356   3.837   1.398
 3406SOL    HW211118   1.473   3.739   1.456
 3407SOL     OW11119   1.365   5.270   2.848
 3407SOL    HW111120   1.281   5.305   2.888
 3407SOL    HW211121   1.401   5.196   2.905
 3408SOL     OW11122   5.329   3.539   3.178
 3408SOL    HW111123   5.345   3.561   3.082
 3408SOL    HW211124   5.265   3.604   3.218
 3409SOL     OW11125   2.530   0.954   6.321
 3409SOL    HW111126   2.588   0.939   6.402
 3409SOL    HW211127   2.479   0.871   6.301
 3410SOL     OW11128   6.926   2.455   0.174
 3410SOL    HW111129   6.856   2.386   0.154
 3410SOL    HW211130   6.963   2.490   0.088
 3411SOL     OW11131   4.758   1.974   2.328
 3411SOL    HW111132   4.857   1.987   2.328
 3411SOL    HW211133   4.719   2.017   2.246
 3412SOL     OW11134   4.609   5.173   6.804
 3412SOL    HW111135   4.554   5.092   6.784
 3412SOL    HW211136   4.644   5.211   6.718
 3413SOL     OW11137   5.415   1.507   2.402
 3413SOL    HW111138   5.324   1.537   2.371
 3413SOL    HW211139   5.476   1.586   2.407
 3414SOL     OW11140   4.069   0.604   5.205
 3414SOL    HW111141   4.060   0.665   5.284
 3414SOL    HW211142   4.143   0.539   5.222
 3415SOL     OW11143   1.421   5.579   4.987
 3415SOL    HW111144   1.328   5.549   4.963
 3415SOL    HW211145   1.488   5.520   4.940
 3416SOL     OW11146   2.097   4.327   5.704
 3416SOL    HW111147   2.158   4.286   5.771
 3416SOL    HW211148   2.115   4.288   5.614
 3417SOL     OW11149   5.098   0.737   1.465
 3417SOL    HW111150   5.048   0.797   1.527
 3417SOL    HW211151   5.114   0.784   1.378
 3418SOL     OW11152   3.129   2.654   6.025
 3418SOL    HW111153   3.114   2.555   6.033
 3418SOL    HW211154   3.141   2.679   5.929
 3419SOL     OW11155   5.053   3.541   6.484
 3419SOL    HW111156   5.120   3.479   6.524
 3419SOL    HW211157   5.037   3.516   6.389
 3420SOL     OW11158   4.087   1.416   4.532
 3420SOL    HW111159   4.006   1.474   4.520
 3420SOL    HW211160   4.103   1.363   4.448
 3421SOL     OW11161   0.227   6.377   2.736
 3421SOL    HW111162   0.167   6.312   2.782
 3421SOL    HW211163   0.205   6.379   2.638
 3422SOL     OW11164   3.135   2.179   2.686
 3422SOL    HW111165   3.157   2.088   2.722
 3422SOL    HW211166   3.209   2.209   2.625
 3423SOL     OW11167   3.360   0.808   1.628
 3423SOL    HW111168   3.389   0.734   1.567
 3423SOL    HW211169   3.340   0.770   1.718
 3424SOL     OW11170   4.591   1.393   1.396
 3424SOL    HW111171   4.652   1.463   1.435
 3424SOL    HW211172   4.538   1.351   1.470
 3425SOL     OW11173   4.134   4.119   1.570
 3425SOL    HW111174   4.093   4.042   1.620
 3425SOL    HW211175   4.221   4.143   1.612
 3426SOL     OW11176   4.869   4.032   0.917
 3426SOL    HW111177   4.927   4.101   0.872
 3426SOL    HW211178   4.868   3.949   0.862
 3427SOL     OW11179   0.623   1.920   0.678
 3427SOL    HW111180   0.645   1.851   0.747
 3427SOL    HW211181   0.558   1.985   0.716
 3428SOL     OW11182   4.087   5.118   3.161
 3428SOL    HW111183   4.070   5.170   3.245
 3428SOL    HW211184   4.000   5.085   3.124
 3429SOL     OW11185   0.343   2.756   0.634
 3429SOL    HW111186   0.390   2.813   0.701
 3429SOL    HW211187   0.247   2.745   0.661
 3430SOL     OW11188   1.076   5.298   6.498
 3430SOL    HW111189   1.007   5.365   6.470
 3430SOL    HW211190   1.052   5.260   6.587
 3431SOL     OW11191   1.660   6.191   6.666
 3431SOL    HW111192   1.680   6.286   6.688
 3431SOL    HW211193   1.738   6.134   6.691
 3432SOL     OW11194   3.786   1.698   6.654
 3432SOL    HW111195   3.759   1.768   6.720
 3432SOL    HW211196   3.705   1.665   6.605
 3433SOL     OW11197   4.883   0.926   4.171
 3433SOL    HW111198   4.796   0.959   4.208
 3433SOL    HW211199   4.922   0.859   4.233
 3434SOL     OW11200   4.404   1.623   3.337
 3434SOL    HW111201   4.486   1.567   3.325
 3434SOL    HW211202   4.389   1.641   3.434
 3435SOL     OW11203   0.700   1.505   0.123
 3435SOL    HW111204   0.747   1.594   0.127
 3435SOL    HW211205   0.748   1.445   0.059
 3436SOL     OW11206   4.416   6.737   2.251
 3436SOL    HW111207   4.462   6.826   2.258
 3436SOL    HW211208   4.438   6.696   2.163
 3437SOL     OW11209   4.214   0.705   0.047
 3437SOL    HW111210   4.223   0.747   6.973
 3437SOL    HW211211   4.273   0.753   0.112
 3438SOL     OW11212   0.934   5.492   6.361
 3438SOL    HW111213   0.976   5.546   6.434
 3438SOL    HW211214   0.877   5.551   6.304
 3439SOL     OW11215   2.587   0.745   4.233
 3439SOL    HW111216   2.518   0.806   4.193
 3439SOL    HW211217   2.664   0.799   4.266
 3440SOL     OW11218   3.266   1.627   0.455
 3440SOL    HW111219   3.304   1.663   0.370
 3440SOL    HW211220   3.170   1.655   0.463
 3441SOL     OW11221   5.025   0.447   4.196
 3441SOL    HW111222   5.094   0.379   4.225
 3441SOL    HW211223   4.958   0.403   4.137
 3442SOL     OW11224   1.023   4.917   2.888
 3442SOL    HW111225   1.100   4.956   2.938
 3442SOL    HW211226   0.977   4.990   2.837
 3443SOL     OW11227   5.800   6.507   4.565
 3443SOL    HW111228   5.836   6.453   4.641
 3443SOL    HW211229   5.875   6.536   4.506
 3444SOL     OW11230   3.941   5.363   0.207
 3444SOL    HW111231   4.001   5.413   0.270
 3444SOL    HW211232   3.859   5.417   0.188
 3445SOL     OW11233   5.995   5.119   4.747
 3445SOL    HW111234   5.963   5.060   4.822
 3445SOL    HW211235   6.093   5.136   4.758
 3446SOL     OW11236   2.485   6.532   1.868
 3446SOL    HW111237   2.569   6.482   1.849
 3446SOL    HW211238   2.502   6.601   1.939
 3447SOL     OW11239   6.170   4.836   5.509
 3447SOL    HW111240   6.178   4.737   5.512
 3447SOL    HW211241   6.253   4.878   5.546
 3448SOL     OW11242   3.806   3.338   0.627
 3448SOL    HW111243   3.734   3.287   0.578
 3448SOL    HW211244   3.874   3.275   0.662
 3449SOL     OW11245   6.738   6.250   2.948
 3449SOL    HW111246   6.789   6.326   2.988
 3449SOL    HW211247   6.784   6.164   2.968
 3450SOL     OW11248   0.917   1.969   1.481
 3450SOL    HW111249   0.921   1.927   1.390
 3450SOL    HW211250   0.827   1.952   1.521
 3451SOL     OW11251   1.437   4.811   4.281
 3451SOL    HW111252   1.382   4.766   4.351
 3451SOL    HW211253   1.498   4.744   4.239
 3452SOL     OW11254   6.891   1.898   0.573
 3452SOL    HW111255   6.955   1.856   0.637
 3452SOL    HW211256   6.838   1.969   0.620
 3453SOL     OW11257   5.632   5.909   5.633
 3453SOL    HW111258   5.568   5.922   5.708
 3453SOL    HW211259   5.725   5.926   5.665
 3454SOL     OW11260   0.449   1.122   0.571
 3454SOL    HW111261   0.478   1.212   0.538
 3454SOL    HW211262   0.399   1.133   0.657
 3455SOL     OW11263   1.747   3.073   3.512
 3455SOL    HW111264   1.760   2.983   3.472
 3455SOL    HW211265   1.809   3.084   3.590
 3456SOL     OW11266   6.911   0.312   0.657
 3456SOL    HW111267   6.899   0.266   0.745
 3456SOL    HW211268   7.008   0.331   0.642
 3457SOL     OW11269   2.172   6.529   3.847
 3457SOL    HW111270   2.108   6.594   3.886
 3457SOL    HW211271   2.259   6.575   3.828
 3458SOL     OW11272   5.334   5.132   0.302
 3458SOL    HW111273   5.237   5.125   0.325
 3458SOL    HW211274   5.378   5.196   0.364
 3459SOL     OW11275   6.196   0.017   3.280
 3459SOL    HW111276   6.267   0.017   3.209
 3459SOL    HW211277   6.106   0.029   3.238
 3460SOL     OW11278   4.185   2.653   0.073
 3460SOL    HW111279   4.215   2.728   0.132
 3460SOL    HW211280   4.121   2.688   0.005
 3461SOL     OW11281   2.653   6.143   2.950
 3461SOL    HW111282   2.560   6.178   2.944
 3461SOL    HW211283   2.702   6.165   2.866
 3462SOL     OW11284   5.134   2.887   2.864
 3462SOL    HW111285   5.043   2.884   2.821
 3462SOL    HW211286   5.167   2.981   2.864
 3463SOL     OW11287   1.237   3.278   0.991
 3463SOL    HW111288   1.297   3.198   0.985
 3463SOL    HW211289   1.236   3.325   0.902
 3464SOL     OW11290   5.341   1.614   5.908
 3464SOL    HW111291   5.352   1.690   5.972
 3464SOL    HW211292   5.418   1.613   5.844
 3465SOL     OW11293   1.638   4.983   1.777
 3465SOL    HW111294   1.734   5.010   1.790
 3465SOL    HW211295   1.580   5.042   1.833
 3466SOL     OW11296   6.487   3.869   4.485
 3466SOL    HW111297   6.415   3.917   4.534
 3466SOL    HW211298   6.567   3.930   4.476
 3467SOL     OW11299   3.781   3.098   0.808
 3467SOL    HW111300   3.759   3.000   0.808
 3467SOL    HW211301   3.701   3.150   0.839
 3468SOL     OW11302   3.798   1.335   1.296
 3468SOL    HW111303   3.721   1.272   1.311
 3468SOL    HW211304   3.883   1.283   1.295
 3469SOL     OW11305   3.914   5.511   5.051
 3469SOL    HW111306   3.832   5.455   5.039
 3469SOL    HW211307   3.976   5.467   5.116
 3470SOL     OW11308   1.220   2.452   2.205
 3470SOL    HW111309   1.201   2.512   2.282
 3470SOL    HW211310   1.135   2.423   2.162
 3471SOL     OW11311   4.965   3.003   4.910
 3471SOL    HW111312   5.023   2.987   4.990
 3471SOL    HW211313   4.944   3.101   4.904
 3472SOL     OW11314   4.844   1.724   2.394
 3472SOL    HW111315   4.800   1.813   2.381
 3472SOL    HW211316   4.911   1.709   2.321
 3473SOL     OW11317   6.199   5.023   1.700
 3473SOL    HW111318   6.197   5.084   1.621
 3473SOL    HW211319   6.287   4.975   1.702
 3474SOL     OW11320   4.657   4.541   3.799
 3474SOL    HW111321   4.679   4.457   3.848
 3474SOL    HW211322   4.655   4.618   3.863
 3475SOL     OW11323   0.369   4.045   4.204
 3475SOL    HW111324   0.433   4.105   4.252
 3475SOL    HW211325   0.288   4.031   4.262
 3476SOL     OW11326   1.694   1.838   3.164
 3476SOL    HW111327   1.745   1.849   3.250
 3476SOL    HW211328   1.756   1.806   3.092
 3477SOL     OW11329   0.846   4.216   1.516
 3477SOL    HW111330   0.866   4.140   1.454
 3477SOL    HW211331   0.751   4.210   1.546
 3478SOL     OW11332   2.329   0.655   1.043
 3478SOL    HW111333   2.265   0.599   0.990
 3478SOL    HW211334   2.286   0.685   1.127
 3479SOL     OW11335   0.934   4.334   5.344
 3479SOL    HW111336   1.025   4.327   5.304
 3479SOL    HW211337   0.898   4.243   5.364
 3480SOL     OW11338   1.343   4.435   6.395
 3480SOL    HW111339   1.255   4.392   6.413
 3480SOL    HW211340   1.413   4.395   6.454
 3481SOL     OW11341   6.047   0.321   4.480
 3481SOL    HW111342   6.104   0.288   4.556
 3481SOL    HW211343   5.968   0.370   4.516
 3482SOL     OW11344   6.155   3.550   0.061
 3482SOL    HW111345   6.077   3.501   0.099
 3482SOL    HW211346   6.126   3.638   0.025
 3483SOL     OW11347   5.088   2.351   5.360
 3483SOL    HW111348   5.077   2.361   5.459
 3483SOL    HW211349   5.098   2.442   5.319
 3484SOL     OW11350   1.190   2.897   4.721
 3484SOL    HW111351   1.259   2.889   4.794
 3484SOL    HW211352   1.106   2.935   4.759
 3485SOL     OW11353   0.145   3.153   6.951
 3485SOL    HW111354   0.203   3.121   0.010
 3485SOL    HW211355   0.149   3.253   6.945
 3486SOL     OW11356   1.782   6.523   5.057
 3486SOL    HW111357   1.814   6.617   5.057
 3486SOL    HW211358   1.833   6.471   4.988
 3487SOL     OW11359   4.283   1.867   0.068
 3487SOL    HW111360   4.281   1.945   0.006
 3487SOL    HW211361   4.376   1.856   0.104
 3488SOL     OW11362   5.476   6.298   5.153
 3488SOL    HW111363   5.420   6.381   5.149
 3488SOL    HW211364   5.471   6.258   5.245
 3489SOL     OW11365   3.631   5.987   0.588
 3489SOL    HW111366   3.608   5.908   0.531
 3489SOL    HW211367   3.646   6.067   0.530
 3490SOL     OW11368   3.472   6.439   0.782
 3490SOL    HW111369   3.377   6.465   0.800
 3490SOL    HW211370   3.506   6.381   0.856
 3491SOL     OW11371   4.270   4.815   5.916
 3491SOL    HW111372   4.267   4.723   5.956
 3491SOL    HW211373   4.358   4.829   5.872
 3492SOL     OW11374   6.174   4.458   3.348
 3492SOL    HW111375   6.239   4.406   3.293
 3492SOL    HW211376   6.200   4.555   3.347
 3493SOL     OW11377   7.002   3.359   5.775
 3493SOL    HW111378   0.063   3.325   5.721
 3493SOL    HW211379   7.010   3.459   5.785
 3494SOL     OW11380   4.147   1.606   2.064
 3494SOL    HW111381   4.091   1.684   2.093
 3494SOL    HW211382   4.228   1.640   2.016
 3495SOL     OW11383   1.710   3.834   3.708
 3495SOL    HW111384   1.694   3.805   3.802
 3495SOL    HW211385   1.795   3.886   3.703
 3496SOL     OW11386   6.582   5.205   1.257
 3496SOL    HW111387   6.540   5.145   1.189
 3496SOL    HW211388   6.592   5.297   1.219
 3497SOL     OW11389   3.405   0.394   1.901
 3497SOL    HW111390   3.325   0.336   1.916
 3497SOL    HW211391   3.457   0.360   1.822
 3498SOL     OW11392   2.571   2.799   1.744
 3498SOL    HW111393   2.555   2.728   1.812
 3498SOL    HW211394   2.486   2.847   1.724
 3499SOL     OW11395   5.932   6.390   4.788
 3499SOL    HW111396   6.018   6.440   4.777
 3499SOL    HW211397   5.874   6.436   4.854
 3500SOL     OW11398   2.805   2.197   3.803
 3500SOL    HW111399   2.777   2.280   3.754
 3500SOL    HW211400   2.726   2.157   3.850
 3501SOL     OW11401   1.343   6.656   6.007
 3501SOL    HW111402   1.394   6.712   5.942
 3501SOL    HW211403   1.247   6.655   5.982
 3502SOL     OW11404   4.988   2.243   2.081
 3502SOL    HW111405   4.891   2.217   2.078
 3502SOL    HW211406   5.026   2.243   1.989
 3503SOL     OW11407   0.796   6.004   6.168
 3503SOL    HW111408   0.711   5.997   6.220
 3503SOL    HW211409   0.863   6.056   6.220
 3504SOL     OW11410   1.445   0.839   6.882
 3504SOL    HW111411   1.543   0.852   6.867
 3504SOL    HW211412   1.425   0.843   6.980
 3505SOL     OW11413   4.692   3.063   5.661
 3505SOL    HW111414   4.781   3.021   5.675
 3505SOL    HW211415   4.626   3.024   5.725
 3506SOL     OW11416   4.270   4.744   5.212
 3506SOL    HW111417   4.206   4.714   5.282
 3506SOL    HW211418   4.294   4.667   5.153
 3507SOL     OW11419   3.452   0.933   0.620
 3507SOL    HW111420   3.494   0.867   0.684
 3507SOL    HW211421   3.362   0.959   0.654
 3508SOL     OW11422   3.484   1.311   6.002
 3508SOL    HW111423   3.481   1.409   5.982
 3508SOL    HW211424   3.391   1.277   6.018
 3509SOL     OW11425   4.110   5.302   6.944
 3509SOL    HW111426   4.069   5.226   6.994
 3509SOL    HW211427   4.210   5.294   6.946
 3510SOL     OW11428   2.387   1.804   1.268
 3510SOL    HW111429   2.403   1.779   1.173
 3510SOL    HW211430   2.317   1.745   1.307
 3511SOL     OW11431   2.722   4.336   1.645
 3511SOL    HW111432   2.768   4.309   1.560
 3511SOL    HW211433   2.789   4.345   1.718
 3512SOL     OW11434   0.273   5.280   5.956
 3512SOL    HW111435   0.311   5.335   5.882
 3512SOL    HW211436   0.180   5.252   5.932
 3513SOL     OW11437   5.934   1.933   0.914
 3513SOL    HW111438   5.935   1.897   0.821
 3513SOL    HW211439   5.921   2.032   0.910
 3514SOL     OW11440   3.018   1.572   1.759
 3514SOL    HW111441   2.939   1.567   1.698
 3514SOL    HW211442   2.986   1.582   1.854
 3515SOL     OW11443   0.672   4.606   4.896
 3515SOL    HW111444   0.598   4.614   4.962
 3515SOL    HW211445   0.652   4.662   4.816
 3516SOL     OW11446   4.836   0.596   1.502
 3516SOL    HW111447   4.932   0.623   1.504
 3516SOL    HW211448   4.794   0.619   1.590
 3517SOL     OW11449   4.960   0.901   1.634
 3517SOL    HW111450   4.874   0.891   1.585
 3517SOL    HW211451   4.944   0.947   1.722
 3518SOL     OW11452   5.630   0.841   4.897
 3518SOL    HW111453   5.607   0.746   4.919
 3518SOL    HW211454   5.565   0.902   4.942
 3519SOL     OW11455   3.185   1.282   1.176
 3519SOL    HW111456   3.268   1.307   1.127
 3519SOL    HW211457   3.127   1.363   1.186
 3520SOL     OW11458   2.645   6.078   4.223
 3520SOL    HW111459   2.635   6.134   4.140
 3520SOL    HW211460   2.727   6.022   4.216
 3521SOL     OW11461   2.633   2.951   6.543
 3521SOL    HW111462   2.643   3.031   6.484
 3521SOL    HW211463   2.715   2.939   6.598
 3522SOL     OW11464   1.013   6.235   6.624
 3522SOL    HW111465   1.095   6.281   6.658
 3522SOL    HW211466   0.946   6.304   6.596
 3523SOL     OW11467   3.327   5.663   0.062
 3523SOL    HW111468   3.249   5.723   0.045
 3523SOL    HW211469   3.410   5.705   0.025
 3524SOL     OW11470   4.521   0.955   3.782
 3524SOL    HW111471   4.578   0.874   3.772
 3524SOL    HW211472   4.436   0.944   3.729
 3525SOL     OW11473   0.072   3.372   3.527
 3525SOL    HW111474   0.031   3.281   3.535
 3525SOL    HW211475   0.032   3.432   3.596
 3526SOL     OW11476   0.565   6.788   1.925
 3526SOL    HW111477   0.513   6.874   1.923
 3526SOL    HW211478   0.567   6.753   2.018
 3527SOL     OW11479   6.734   2.742   6.812
 3527SOL    HW111480   6.713   2.722   6.908
 3527SOL    HW211481   6.796   2.820   6.807
 3528SOL     OW11482   2.338   5.510   4.751
 3528SOL    HW111483   2.325   5.581   4.683
 3528SOL    HW211484   2.373   5.427   4.707
 3529SOL     OW11485   4.859   4.627   0.577
 3529SOL    HW111486   4.801   4.595   0.502
 3529SOL    HW211487   4.955   4.610   0.553
 3530SOL     OW11488   6.404   6.912   0.923
 3530SOL    HW111489   6.453   6.909   1.010
 3530SOL    HW211490   6.386   6.819   0.891
 3531SOL     OW11491   4.311   2.253   0.261
 3531SOL    HW111492   4.400   2.297   0.274
 3531SOL    HW211493   4.318   2.155   0.279
 3532SOL     OW11494   2.170   0.747   1.365
 3532SOL    HW111495   2.090   0.777   1.418
 3532SOL    HW211496   2.231   0.824   1.350
 3533SOL     OW11497   1.074   2.050   3.253
 3533SOL    HW111498   1.049   1.962   3.212
 3533SOL    HW211499   0.992   2.096   3.285
 3534SOL     OW11500   0.429   1.173   0.832
 3534SOL    HW111501   0.385   1.235   0.897
 3534SOL    HW211502   0.527   1.169   0.850
 3535SOL     OW11503   3.197   6.424   3.957
 3535SOL    HW111504   3.119   6.443   3.898
 3535SOL    HW211505   3.189   6.478   4.041
 3536SOL     OW11506   3.951   1.721   3.272
 3536SOL    HW111507   4.046   1.692   3.266
 3536SOL    HW211508   3.897   1.651   3.318
 3537SOL     OW11509   1.711   0.056   3.309
 3537SOL    HW111510   1.630   0.112   3.328
 3537SOL    HW211511   1.741   0.011   3.393
 3538SOL     OW11512   3.010   5.069   1.769
 3538SOL    HW111513   3.086   5.079   1.833
 3538SOL    HW211514   2.941   5.007   1.807
 3539SOL     OW11515   3.389   3.866   4.434
 3539SOL    HW111516   3.398   3.864   4.534
 3539SOL    HW211517   3.389   3.773   4.399
 3540SOL     OW11518   1.451   2.054   3.818
 3540SOL    HW111519   1.418   2.016   3.732
 3540SOL    HW211520   1.377   2.104   3.863
 3541SOL     OW11521   4.127   3.701   4.593
 3541SOL    HW111522   4.084   3.664   4.510
 3541SOL    HW211523   4.187   3.632   4.633
 3542SOL     OW11524   6.602   5.457   1.159
 3542SOL    HW111525   6.533   5.530   1.159
 3542SOL    HW211526   6.688   5.492   1.122
 3543SOL     OW11527   5.233   2.453   4.364
 3543SOL    HW111528   5.162   2.400   4.318
 3543SOL    HW211529   5.258   2.532   4.307
 3544SOL     OW11530   2.610   6.445   0.025
 3544SOL    HW111531   2.514   6.451   0.052
 3544SOL    HW211532   2.661   6.393   0.093
 3545SOL     OW11533   3.586   5.056   0.722
 3545SOL    HW111534   3.493   5.065   0.686
 3545SOL    HW211535   3.602   5.126   0.791
 3546SOL     OW11536   0.619   4.739   2.437
 3546SOL    HW111537   0.530   4.720   2.397
 3546SOL    HW211538   0.632   4.684   2.519
 3547SOL     OW11539   5.420   4.613   4.741
 3547SOL    HW111540   5.331   4.583   4.776
 3547SOL    HW211541   5.441   4.704   4.775
 3548SOL     OW11542   4.809   3.530   5.981
 3548SOL    HW111543   4.740   3.530   5.908
 3548SOL    HW211544   4.890   3.581   5.949
 3549SOL     OW11545   4.951   3.629   2.297
 3549SOL    HW111546   4.943   3.551   2.234
 3549SOL    HW211547   4.987   3.598   2.384
 3550SOL     OW11548   4.817   1.446   3.264
 3550SOL    HW111549   4.847   1.511   3.195
 3550SOL    HW211550   4.806   1.493   3.352
 3551SOL     OW11551   1.880   6.482   2.497
 3551SOL    HW111552   1.862   6.404   2.437
 3551SOL    HW211553   1.840   6.465   2.587
 3552SOL     OW11554   6.789   4.259   2.931
 3552SOL    HW111555   6.695   4.226   2.932
 3552SOL    HW211556   6.851   4.183   2.952
 3553SOL     OW11557   6.041   1.972   3.269
 3553SOL    HW111558   6.131   1.972   3.314
 3553SOL    HW211559   5.998   1.882   3.282
 3554SOL     OW11560   4.401   5.583   6.987
 3554SOL    HW111561   4.402   5.487   6.959
 3554SOL    HW211562   4.410   5.589   0.071
 3555SOL     OW11563   0.866   2.286   3.816
 3555SOL    HW111564   0.916   2.360   3.770
 3555SOL    HW211565   0.911   2.198   3.796
 3556SOL     OW11566   4.277   1.842   6.689
 3556SOL    HW111567   4.199   1.896   6.660
 3556SOL    HW211568   4.245   1.754   6.725
 3557SOL     OW11569   0.848   0.408   4.343
 3557SOL    HW111570   0.945   0.413   4.318
 3557SOL    HW211571   0.805   0.333   4.294
 3558SOL     OW11572   0.472   6.716   1.583
 3558SOL    HW111573   0.435   6.680   1.668
 3558SOL    HW211574   0.570   6.730   1.592
 3559SOL     OW11575   1.112   0.324   5.931
 3559SOL    HW111576   1.078   0.361   5.845
 3559SOL    HW211577   1.071   0.372   6.008
 3560SOL     OW11578   6.798   6.817   1.492
 3560SOL    HW111579   6.701   6.795   1.476
 3560SOL    HW211580   6.825   6.783   1.582
 3561SOL     OW11581   5.473   4.793   3.858
 3561SOL    HW111582   5.507   4.716   3.804
 3561SOL    HW211583   5.399   4.761   3.917
 3562SOL     OW11584   4.020   2.190   2.794
 3562SOL    HW111585   3.997   2.179   2.891
 3562SOL    HW211586   3.937   2.186   2.739
 3563SOL     OW11587   4.346   6.397   1.503
 3563SOL    HW111588   4.292   6.323   1.545
 3563SOL    HW211589   4.430   6.359   1.465
 3564SOL     OW11590   6.635   3.979   2.910
 3564SOL    HW111591   6.557   3.925   2.876
 3564SOL    HW211592   6.607   4.031   2.990
 3565SOL     OW11593   1.478   1.068   5.040
 3565SOL    HW111594   1.459   1.036   4.947
 3565SOL    HW211595   1.394   1.067   5.094
 3566SOL     OW11596   1.031   4.239   5.622
 3566SOL    HW111597   1.003   4.316   5.566
 3566SOL    HW211598   1.053   4.272   5.714
 3567SOL     OW11599   0.094   2.215   1.398
 3567SOL    HW111600   0.087   2.166   1.311
 3567SOL    HW211601   0.156   2.293   1.388
 3568SOL     OW11602   4.713   4.252   3.423
 3568SOL    HW111603   4.694   4.157   3.445
 3568SOL    HW211604   4.630   4.307   3.433
 3569SOL     OW11605   4.113   3.601   3.718
 3569SOL    HW111606   4.100   3.666   3.793
 3569SOL    HW211607   4.155   3.517   3.753
 3570SOL     OW11608   0.306   2.075   5.359
 3570SOL    HW111609   0.376   2.141   5.331
 3570SOL    HW211610   0.247   2.116   5.428
 3571SOL     OW11611   2.678   0.311   4.270
 3571SOL    HW111612   2.763   0.269   4.300
 3571SOL    HW211613   2.609   0.240   4.256
 3572SOL     OW11614   5.059   4.254   2.367
 3572SOL    HW111615   4.965   4.227   2.391
 3572SOL    HW211616   5.088   4.328   2.427
 3573SOL     OW11617   0.037   4.811   4.090
 3573SOL    HW111618   0.131   4.788   4.115
 3573SOL    HW211619   7.011   4.733   4.043
 3574SOL     OW11620   2.095   1.803   5.801
 3574SOL    HW111621   2.086   1.709   5.766
 3574SOL    HW211622   2.028   1.818   5.873
 3575SOL     OW11623   5.028   0.607   6.313
 3575SOL    HW111624   5.089   0.654   6.250
 3575SOL    HW211625   4.965   0.673   6.355
 3576SOL     OW11626   1.156   2.843   0.449
 3576SOL    HW111627   1.197   2.891   0.526
 3576SOL    HW211628   1.057   2.854   0.452
 3577SOL     OW11629   1.663   3.350   4.652
 3577SOL    HW111630   1.705   3.263   4.626
 3577SOL    HW211631   1.578   3.333   4.702
 3578SOL     OW11632   4.001   2.769   0.321
 3578SOL    HW111633   3.943   2.818   0.386
 3578SOL    HW211634   4.041   2.833   0.256
 3579SOL     OW11635   1.173   3.787   1.639
 3579SOL    HW111636   1.269   3.793   1.613
 3579SOL    HW211637   1.151   3.693   1.665
 3580SOL     OW11638   0.262   4.011   1.774
 3580SOL    HW111639   0.219   4.031   1.862
 3580SOL    HW211640   0.243   4.085   1.709
 3581SOL     OW11641   1.575   0.475   2.232
 3581SOL    HW111642   1.590   0.554   2.172
 3581SOL    HW211643   1.482   0.478   2.269
 3582SOL     OW11644   4.412   5.999   0.214
 3582SOL    HW111645   4.346   6.059   0.168
 3582SOL    HW211646   4.469   5.954   0.145
 3583SOL     OW11647   1.743   5.637   1.326
 3583SOL    HW111648   1.774   5.700   1.397
 3583SOL    HW211649   1.643   5.644   1.317
 3584SOL     OW11650   6.029   4.757   4.962
 3584SOL    HW111651   6.094   4.815   4.913
 3584SOL    HW211652   6.035   4.776   5.060
 3585SOL     OW11653   3.819   2.172   3.601
 3585SOL    HW111654   3.810   2.203   3.506
 3585SOL    HW211655   3.809   2.072   3.604
 3586SOL     OW11656   6.565   2.507   5.542
 3586SOL    HW111657   6.646   2.563   5.556
 3586SOL    HW211658   6.536   2.514   5.446
 3587SOL     OW11659   2.570   0.537   6.139
 3587SOL    HW111660   2.519   0.587   6.208
 3587SOL    HW211661   2.557   0.580   6.050
 3588SOL     OW11662   5.537   4.106   4.087
 3588SOL    HW111663   5.465   4.150   4.033
 3588SOL    HW211664   5.502   4.085   4.178
 3589SOL     OW11665   0.741   0.861   6.139
 3589SOL    HW111666   0.751   0.944   6.084
 3589SOL    HW211667   0.682   0.880   6.217
 3590SOL     OW11668   6.240   5.129   5.391
 3590SOL    HW111669   6.309   5.124   5.319
 3590SOL    HW211670   6.150   5.106   5.354
 3591SOL     OW11671   4.835   1.758   0.792
 3591SOL    HW111672   4.911   1.799   0.842
 3591SOL    HW211673   4.842   1.659   0.796
 3592SOL     OW11674   1.464   6.328   1.197
 3592SOL    HW111675   1.518   6.363   1.120
 3592SOL    HW211676   1.367   6.332   1.174
 3593SOL     OW11677   4.227   2.993   5.689
 3593SOL    HW111678   4.261   3.077   5.649
 3593SOL    HW211679   4.252   2.989   5.786
 3594SOL     OW11680   4.592   4.431   5.099
 3594SOL    HW111681   4.617   4.449   5.194
 3594SOL    HW211682   4.511   4.484   5.074
 3595SOL     OW11683   4.755   6.848   5.260
 3595SOL    HW111684   4.657   6.860   5.273
 3595SOL    HW211685   4.804   6.879   5.342
 3596SOL     OW11686   3.705   2.019   2.360
 3596SOL    HW111687   3.686   1.929   2.322
 3596SOL    HW211688   3.639   2.085   2.324
 3597SOL     OW11689   3.869   4.383   5.431
 3597SOL    HW111690   3.956   4.347   5.464
 3597SOL    HW211691   3.819   4.423   5.508
 3598SOL     OW11692   6.795   5.407   4.942
 3598SOL    HW111693   6.825   5.499   4.916
 3598SOL    HW211694   6.824   5.342   4.872
 3599SOL     OW11695   2.470   1.049   5.089
 3599SOL    HW111696   2.405   1.019   5.020
 3599SOL    HW211697   2.438   1.021   5.179
 3600SOL     OW11698   2.672   4.219   0.690
 3600SOL    HW111699   2.595   4.282   0.698
 3600SOL    HW211700   2.684   4.193   0.594
 3601SOL     OW11701   3.767   0.651   5.187
 3601SOL    HW111702   3.858   0.609   5.191
 3601SOL    HW211703   3.774   0.749   5.208
 3602SOL     OW11704   1.469   2.419   1.247
 3602SOL    HW111705   1.459   2.405   1.149
 3602SOL    HW211706   1.394   2.373   1.295
 3603SOL     OW11707   1.730   6.888   6.169
 3603SOL    HW111708   1.751   6.917   6.263
 3603SOL    HW211709   1.703   6.792   6.170
 3604SOL     OW11710   6.528   0.681   3.755
 3604SOL    HW111711   6.492   0.662   3.846
 3604SOL    HW211712   6.623   0.711   3.761
 3605SOL     OW11713   1.378   0.362   4.684
 3605SOL    HW111714   1.391   0.370   4.585
 3605SOL    HW211715   1.462   0.327   4.726
 3606SOL     OW11716   2.470   6.913   2.835
 3606SOL    HW111717   2.432   6.920   2.927
 3606SOL    HW211718   2.506   6.821   2.821
 3607SOL     OW11719   6.267   1.288   3.599
 3607SOL    HW111720   6.293   1.378   3.634
 3607SOL    HW211721   6.196   1.298   3.530
 3608SOL     OW11722   3.782   1.992   5.703
 3608SOL    HW111723   3.718   1.925   5.741
 3608SOL    HW211724   3.876   1.957   5.714
 3609SOL     OW11725   2.966   0.021   5.275
 3609SOL    HW111726   2.877   0.027   5.229
 3609SOL    HW211727   2.957   0.057   5.368
 3610SOL     OW11728   1.795   0.526   5.586
 3610SOL    HW111729   1.860   0.452   5.602
 3610SOL    HW211730   1.815   0.568   5.497
 3611SOL     OW11731   5.284   3.833   3.451
 3611SOL    HW111732   5.276   3.821   3.352
 3611SOL    HW211733   5.260   3.927   3.475
 3612SOL     OW11734   4.841   1.735   0.524
 3612SOL    HW111735   4.830   1.734   0.624
 3612SOL    HW211736   4.863   1.643   0.492
 3613SOL     OW11737   3.886   0.609   2.751
 3613SOL    HW111738   3.939   0.562   2.821
 3613SOL    HW211739   3.896   0.708   2.762
 3614SOL     OW11740   3.985   5.712   0.094
 3614SOL    HW111741   4.053   5.717   0.167
 3614SOL    HW211742   3.895   5.732   0.132
 3615SOL     OW11743   5.534   2.782   4.920
 3615SOL    HW111744   5.575   2.692   4.936
 3615SOL    HW211745   5.601   2.853   4.939
 3616SOL     OW11746   1.295   1.767   0.913
 3616SOL    HW111747   1.242   1.840   0.956
 3616SOL    HW211748   1.246   1.680   0.920
 3617SOL     OW11749   4.078   5.265   4.949
 3617SOL    HW111750   4.171   5.266   4.987
 3617SOL    HW211751   4.024   5.195   4.995
 3618SOL     OW11752   0.778   5.273   4.372
 3618SOL    HW111753   0.733   5.301   4.457
 3618SOL    HW211754   0.841   5.198   4.391
 3619SOL     OW11755   6.657   1.956   2.594
 3619SOL    HW111756   6.675   1.888   2.522
 3619SOL    HW211757   6.743   1.989   2.631
 3620SOL     OW11758   4.941   6.196   5.512
 3620SOL    HW111759   4.999   6.277   5.513
 3620SOL    HW211760   4.991   6.118   5.548
 3621SOL     OW11761   3.352   2.868   3.644
 3621SOL    HW111762   3.365   2.837   3.549
 3621SOL    HW211763   3.255   2.872   3.665
 3622SOL     OW11764   2.582   5.700   6.124
 3622SOL    HW111765   2.620   5.659   6.207
 3622SOL    HW211766   2.633   5.784   6.103
 3623SOL     OW11767   1.668   6.163   5.724
 3623SOL    HW111768   1.730   6.102   5.771
 3623SOL    HW211769   1.689   6.164   5.626
 3624SOL     OW11770   2.744   1.490   2.722
 3624SOL    HW111771   2.695   1.469   2.806
 3624SOL    HW211772   2.807   1.566   2.738
 3625SOL     OW11773   5.690   2.489   1.571
 3625SOL    HW111774   5.618   2.475   1.639
 3625SOL    HW211775   5.715   2.400   1.530
 3626SOL     OW11776   0.797   3.066   5.956
 3626SOL    HW111777   0.817   3.089   6.051
 3626SOL    HW211778   0.838   2.978   5.933
 3627SOL     OW11779   3.399   1.322   2.641
 3627SOL    HW111780   3.474   1.346   2.702
 3627SOL    HW211781   3.319   1.296   2.695
 3628SOL     OW11782   6.904   1.011   1.452
 3628SOL    HW111783   6.825   1.014   1.513
 3628SOL    HW211784   6.872   1.004   1.357
 3629SOL     OW11785   1.439   0.953   4.449
 3629SOL    HW111786   1.483   0.894   4.517
 3629SOL    HW211787   1.340   0.951   4.462
 3630SOL     OW11788   6.637   1.950   2.150
 3630SOL    HW111789   6.690   2.027   2.186
 3630SOL    HW211790   6.540   1.963   2.174
 3631SOL     OW11791   2.139   5.530   2.738
 3631SOL    HW111792   2.065   5.464   2.727
 3631SOL    HW211793   2.107   5.621   2.711
 3632SOL     OW11794   5.090   3.287   2.300
 3632SOL    HW111795   5.173   3.239   2.272
 3632SOL    HW211796   5.010   3.239   2.264
 3633SOL     OW11797   4.612   4.972   6.340
 3633SOL    HW111798   4.667   5.023   6.275
 3633SOL    HW211799   4.516   4.999   6.331
 3634SOL     OW11800   3.232   5.533   6.369
 3634SOL    HW111801   3.221   5.614   6.426
 3634SOL    HW211802   3.253   5.560   6.275
 3635SOL     OW11803   1.642   0.157   2.692
 3635SOL    HW111804   1.731   0.161   2.646
 3635SOL    HW211805   1.649   0.100   2.773
 3636SOL     OW11806   6.673   6.015   4.692
 3636SOL    HW111807   6.726   5.952   4.635
 3636SOL    HW211808   6.576   6.010   4.667
 3637SOL     OW11809   5.413   2.664   6.685
 3637SOL    HW111810   5.492   2.652   6.625
 3637SOL    HW211811   5.334   2.618   6.646
 3638SOL     OW11812   0.588   2.812   3.620
 3638SOL    HW111813   0.643   2.801   3.703
 3638SOL    HW211814   0.560   2.722   3.588
 3639SOL     OW11815   3.931   3.280   4.166
 3639SOL    HW111816   3.980   3.282   4.253
 3639SOL    HW211817   3.935   3.188   4.127
 3640SOL     OW11818   4.791   1.410   2.369
 3640SOL    HW111819   4.784   1.509   2.357
 3640SOL    HW211820   4.761   1.365   2.285
 3641SOL     OW11821   0.578   3.550   1.770
 3641SOL    HW111822   0.520   3.556   1.688
 3641SOL    HW211823   0.666   3.595   1.752
 3642SOL     OW11824   4.792   4.427   6.466
 3642SOL    HW111825   4.707   4.439   6.518
 3642SOL    HW211826   4.855   4.501   6.489
 3643SOL     OW11827   4.344   5.901   4.886
 3643SOL    HW111828   4.271   5.968   4.878
 3643SOL    HW211829   4.367   5.888   4.983
 3644SOL     OW11830   3.198   1.089   2.117
 3644SOL    HW111831   3.109   1.089   2.073
 3644SOL    HW211832   3.205   1.167   2.179
 3645SOL     OW11833   2.221   3.942   3.337
 3645SOL    HW111834   2.164   3.908   3.261
 3645SOL    HW211835   2.276   4.019   3.306
 3646SOL     OW11836   2.097   5.191   5.211
 3646SOL    HW111837   2.028   5.255   5.176
 3646SOL    HW211838   2.053   5.105   5.236
 3647SOL     OW11839   3.583   6.989   0.710
 3647SOL    HW111840   3.536   6.940   0.637
 3647SOL    HW211841   3.664   0.019   0.673
 3648SOL     OW11842   5.411   4.898   3.199
 3648SOL    HW111843   5.372   4.838   3.129
 3648SOL    HW211844   5.476   4.961   3.157
 3649SOL     OW11845   5.459   2.505   0.406
 3649SOL    HW111846   5.409   2.423   0.380
 3649SOL    HW211847   5.459   2.570   0.330
 3650SOL     OW11848   5.274   6.658   0.069
 3650SOL    HW111849   5.255   6.572   0.116
 3650SOL    HW211850   5.369   6.686   0.088
 3651SOL     OW11851   1.018   1.783   6.357
 3651SOL    HW111852   1.018   1.696   6.307
 3651SOL    HW211853   0.953   1.846   6.314
 3652SOL     OW11854   5.579   2.172   2.223
 3652SOL    HW111855   5.601   2.228   2.303
 3652SOL    HW211856   5.481   2.181   2.203
 3653SOL     OW11857   2.456   1.835   0.618
 3653SOL    HW111858   2.508   1.919   0.608
 3653SOL    HW211859   2.394   1.843   0.696
 3654SOL     OW11860   4.053   6.228   1.376
 3654SOL    HW111861   4.096   6.284   1.305
 3654SOL    HW211862   3.979   6.280   1.418
 3655SOL     OW11863   1.533   0.531   4.225
 3655SOL    HW111864   1.450   0.577   4.193
 3655SOL    HW211865   1.604   0.599   4.241
 3656SOL     OW11866   0.535   0.763   0.847
 3656SOL    HW111867   0.475   0.686   0.826
 3656SOL    HW211868   0.480   0.840   0.879
 3657SOL     OW11869   6.131   5.022   6.292
 3657SOL    HW111870   6.149   5.046   6.388
 3657SOL    HW211871   6.186   4.943   6.266
 3658SOL     OW11872   1.560   4.656   5.533
 3658SOL    HW111873   1.600   4.578   5.580
 3658SOL    HW211874   1.589   4.741   5.578
 3659SOL     OW11875   0.481   1.942   0.106
 3659SOL    HW111876   0.422   1.864   0.086
 3659SOL    HW211877   0.426   2.026   0.109
 3660SOL     OW11878   4.214   4.839   4.831
 3660SOL    HW111879   4.141   4.791   4.880
 3660SOL    HW211880   4.249   4.914   4.888
 3661SOL     OW11881   1.352   1.407   5.092
 3661SOL    HW111882   1.433   1.432   5.145
 3661SOL    HW211883   1.380   1.370   5.004
 3662SOL     OW11884   3.842   2.293   5.706
 3662SOL    HW111885   3.779   2.347   5.761
 3662SOL    HW211886   3.818   2.196   5.714
 3663SOL     OW11887   1.735   2.238   5.646
 3663SOL    HW111888   1.703   2.314   5.590
 3663SOL    HW211889   1.734   2.154   5.591
 3664SOL     OW11890   2.453   1.538   0.601
 3664SOL    HW111891   2.518   1.524   0.676
 3664SOL    HW211892   2.440   1.636   0.586
 3665SOL     OW11893   0.010   6.449   4.601
 3665SOL    HW111894   0.096   6.406   4.629
 3665SOL    HW211895   6.952   6.382   4.608
 3666SOL     OW11896   2.115   3.632   4.995
 3666SOL    HW111897   2.138   3.657   4.902
 3666SOL    HW211898   2.198   3.610   5.046
 3667SOL     OW11899   2.214   6.750   1.396
 3667SOL    HW111900   2.254   6.669   1.354
 3667SOL    HW211901   2.250   6.761   1.489
 3668SOL     OW11902   4.937   1.242   0.574
 3668SOL    HW111903   4.992   1.164   0.604
 3668SOL    HW211904   4.964   1.268   0.481
 3669SOL     OW11905   6.635   0.646   2.003
 3669SOL    HW111906   6.565   0.574   2.001
 3669SOL    HW211907   6.592   0.734   1.980
 3670SOL     OW11908   2.292   6.723   2.572
 3670SOL    HW111909   2.354   6.801   2.564
 3670SOL    HW211910   2.238   6.732   2.656
 3671SOL     OW11911   0.934   0.478   5.724
 3671SOL    HW111912   0.922   0.399   5.665
 3671SOL    HW211913   0.952   0.559   5.669
 3672SOL     OW11914   3.288   0.662   3.720
 3672SOL    HW111915   3.235   0.731   3.671
 3672SOL    HW211916   3.346   0.706   3.789
 3673SOL     OW11917   3.008   1.353   1.404
 3673SOL    HW111918   2.991   1.422   1.334
 3673SOL    HW211919   3.050   1.272   1.363
 3674SOL     OW11920   0.013   4.834   5.906
 3674SOL    HW111921   0.014   4.873   5.998
 3674SOL    HW211922   7.015   4.735   5.912
 3675SOL     OW11923   6.504   0.661   4.961
 3675SOL    HW111924   6.462   0.592   5.020
 3675SOL    HW211925   6.569   0.715   5.014
 3676SOL     OW11926   2.229   0.814   5.563
 3676SOL    HW111927   2.197   0.726   5.598
 3676SOL    HW211928   2.268   0.802   5.472
 3677SOL     OW11929   1.114   0.749   4.933
 3677SOL    HW111930   1.075   0.813   5.000
 3677SOL    HW211931   1.211   0.735   4.953
 3678SOL     OW11932   2.617   0.471   3.614
 3678SOL    HW111933   2.598   0.550   3.556
 3678SOL    HW211934   2.713   0.445   3.604
 3679SOL     OW11935   3.129   0.853   1.846
 3679SOL    HW111936   3.137   0.933   1.787
 3679SOL    HW211937   3.205   0.851   1.910
 3680SOL     OW11938   4.279   1.832   4.003
 3680SOL    HW111939   4.313   1.893   3.932
 3680SOL    HW211940   4.356   1.801   4.060
 3681SOL     OW11941   0.983   5.178   3.413
 3681SOL    HW111942   0.956   5.250   3.349
 3681SOL    HW211943   0.982   5.214   3.506
 3682SOL     OW11944   5.240   1.316   1.787
 3682SOL    HW111945   5.294   1.389   1.830
 3682SOL    HW211946   5.296   1.233   1.780
 3683SOL     OW11947   6.528   1.954   1.324
 3683SOL    HW111948   6.540   2.045   1.364
 3683SOL    HW211949   6.596   1.941   1.251
 3684SOL     OW11950   2.925   5.901   5.256
 3684SOL    HW111951   2.863   5.947   5.193
 3684SOL    HW211952   2.979   5.833   5.207
 3685SOL     OW11953   1.786   6.836   3.178
 3685SOL    HW111954   1.764   6.928   3.211
 3685SOL    HW211955   1.871   6.840   3.124
 3686SOL     OW11956   1.382   5.292   0.654
 3686SOL    HW111957   1.324   5.218   0.619
 3686SOL    HW211958   1.395   5.281   0.752
 3687SOL     OW11959   0.228   4.703   4.701
 3687SOL    HW111960   0.252   4.798   4.718
 3687SOL    HW211961   0.181   4.665   4.781
 3688SOL     OW11962   6.863   2.940   1.601
 3688SOL    HW111963   6.906   3.001   1.668
 3688SOL    HW211964   6.821   2.863   1.648
 3689SOL     OW11965   2.098   2.193   5.069
 3689SOL    HW111966   2.111   2.205   5.167
 3689SOL    HW211967   2.182   2.155   5.029
 3690SOL     OW11968   0.316   5.354   2.110
 3690SOL    HW111969   0.288   5.426   2.046
 3690SOL    HW211970   0.389   5.300   2.070
 3691SOL     OW11971   1.900   1.995   0.373
 3691SOL    HW111972   1.941   2.083   0.347
 3691SOL    HW211973   1.928   1.972   0.466
 3692SOL     OW11974   0.856   3.139   5.520
 3692SOL    HW111975   0.932   3.148   5.584
 3692SOL    HW211976   0.892   3.110   5.431
 3693SOL     OW11977   0.322   1.556   2.839
 3693SOL    HW111978   0.281   1.480   2.888
 3693SOL    HW211979   0.362   1.621   2.904
 3694SOL     OW11980   0.132   6.689   2.098
 3694SOL    HW111981   0.097   6.745   2.174
 3694SOL    HW211982   0.222   6.653   2.121
 3695SOL     OW11983   6.034   3.444   4.250
 3695SOL    HW111984   6.075   3.535   4.258
 3695SOL    HW211985   5.955   3.448   4.189
 3696SOL     OW11986   4.650   0.180   4.093
 3696SOL    HW111987   4.621   0.252   4.030
 3696SOL    HW211988   4.611   0.092   4.064
 3697SOL     OW11989   6.657   4.764   3.156
 3697SOL    HW111990   6.673   4.685   3.098
 3697SOL    HW211991   6.576   4.749   3.213
 3698SOL     OW11992   1.177   0.323   4.225
 3698SOL    HW111993   1.193   0.248   4.289
 3698SOL    HW211994   1.198   0.410   4.269
 3699SOL     OW11995   2.866   2.121   3.386
 3699SOL    HW111996   2.946   2.127   3.325
 3699SOL    HW211997   2.791   2.075   3.338
 3700SOL     OW11998   0.474   5.032   4.610
 3700SOL    HW111999   0.528   5.116   4.607
 3700SOL    HW212000   0.477   4.987   4.521
 3701SOL     OW12001   6.461   0.538   2.215
 3701SOL    HW112002   6.427   0.538   2.309
 3701SOL    HW212003   6.415   0.466   2.163
 3702SOL     OW12004   6.532   4.517   3.768
 3702SOL    HW112005   6.456   4.453   3.756
 3702SOL    HW212006   6.501   4.609   3.745
 3703SOL     OW12007   0.613   2.119   3.592
 3703SOL    HW112008   0.565   2.158   3.670
 3703SOL    HW212009   0.710   2.141   3.598
 3704SOL     OW12010   6.568   6.237   0.948
 3704SOL    HW112011   6.532   6.304   1.013
 3704SOL    HW212012   6.526   6.148   0.967
 3705SOL     OW12013   6.458   4.078   3.868
 3705SOL    HW112014   6.450   4.177   3.856
 3705SOL    HW212015   6.368   4.040   3.892
 3706SOL     OW12016   0.502   5.962   6.633
 3706SOL    HW112017   0.534   5.873   6.599
 3706SOL    HW212018   0.553   6.035   6.588
 3707SOL     OW12019   0.108   4.070   3.181
 3707SOL    HW112020   0.120   3.971   3.192
 3707SOL    HW212021   0.181   4.118   3.231
 3708SOL     OW12022   1.594   5.895   0.389
 3708SOL    HW112023   1.685   5.916   0.354
 3708SOL    HW212024   1.588   5.797   0.410
 3709SOL     OW12025   0.923   1.801   1.251
 3709SOL    HW112026   0.827   1.819   1.270
 3709SOL    HW212027   0.935   1.704   1.227
 3710SOL     OW12028   2.021   3.688   5.616
 3710SOL    HW112029   1.946   3.754   5.605
 3710SOL    HW212030   2.077   3.714   5.695
 3711SOL     OW12031   1.761   4.854   5.229
 3711SOL    HW112032   1.698   4.872   5.305
 3711SOL    HW212033   1.763   4.756   5.210
 3712SOL     OW12034   2.883   4.796   3.886
 3712SOL    HW112035   2.961   4.802   3.947
 3712SOL    HW212036   2.800   4.780   3.940
 3713SOL     OW12037   6.096   0.297   5.862
 3713SOL    HW112038   6.173   0.337   5.912
 3713SOL    HW212039   6.070   0.358   5.787
 3714SOL     OW12040   0.326   5.166   0.711
 3714SOL    HW112041   0.418   5.169   0.750
 3714SOL    HW212042   0.281   5.081   0.738
 3715SOL     OW12043   6.151   4.318   2.457
 3715SOL    HW112044   6.231   4.263   2.481
 3715SOL    HW212045   6.105   4.349   2.540
 3716SOL     OW12046   5.571   5.353   5.431
 3716SOL    HW112047   5.604   5.383   5.520
 3716SOL    HW212048   5.649   5.323   5.375
 3717SOL     OW12049   4.440   0.062   1.357
 3717SOL    HW112050   4.402   6.998   1.406
 3717SOL    HW212051   4.377   0.139   1.366
 3718SOL     OW12052   5.331   6.553   6.650
 3718SOL    HW112053   5.406   6.489   6.666
 3718SOL    HW212054   5.244   6.509   6.668
 3719SOL     OW12055   2.572   4.264   0.109
 3719SOL    HW112056   2.557   4.292   0.014
 3719SOL    HW212057   2.561   4.344   0.169
 3720SOL     OW12058   0.434   2.174   0.497
 3720SOL    HW112059   0.435   2.139   0.591
 3720SOL    HW212060   0.389   2.263   0.494
 3721SOL     OW12061   6.476   6.975   6.012
 3721SOL    HW112062   6.439   6.898   6.064
 3721SOL    HW212063   6.475   0.041   6.069
 3722SOL     OW12064   5.508   6.500   1.397
 3722SOL    HW112065   5.528   6.546   1.484
 3722SOL    HW212066   5.548   6.409   1.398
 3723SOL     OW12067   4.535   4.175   6.086
 3723SOL    HW112068   4.569   4.088   6.048
 3723SOL    HW212069   4.449   4.199   6.042
 3724SOL     OW12070   6.101   4.400   5.178
 3724SOL    HW112071   6.143   4.311   5.161
 3724SOL    HW212072   6.153   4.471   5.129
 3725SOL     OW12073   0.111   6.176   0.713
 3725SOL    HW112074   0.093   6.090   0.666
 3725SOL    HW212075   0.027   6.210   0.754
 3726SOL     OW12076   6.211   3.523   5.102
 3726SOL    HW112077   6.125   3.485   5.067
 3726SOL    HW212078   6.278   3.529   5.028
 3727SOL     OW12079   6.565   1.868   4.341
 3727SOL    HW112080   6.609   1.805   4.277
 3727SOL    HW212081   6.497   1.819   4.395
 3728SOL     OW12082   1.798   4.727   0.426
 3728SOL    HW112083   1.812   4.822   0.400
 3728SOL    HW212084   1.875   4.671   0.395
 3729SOL     OW12085   6.967   0.261   6.382
 3729SOL    HW112086   0.009   0.337   6.353
 3729SOL    HW212087   0.008   0.186   6.415
 3730SOL     OW12088   5.344   4.299   4.939
 3730SOL    HW112089   5.436   4.315   4.902
 3730SOL    HW212090   5.337   4.342   5.029
 3731SOL     OW12091   6.803   1.549   1.701
 3731SOL    HW112092   6.820   1.618   1.772
 3731SOL    HW212093   6.889   1.504   1.677
 3732SOL     OW12094   3.921   2.527   0.244
 3732SOL    HW112095   3.913   2.532   0.145
 3732SOL    HW212096   3.949   2.616   0.280
 3733SOL     OW12097   1.690   1.412   3.243
 3733SOL    HW112098   1.627   1.336   3.221
 3733SOL    HW212099   1.737   1.441   3.160
 3734SOL     OW12100   3.668   0.695   1.534
 3734SOL    HW112101   3.670   0.779   1.589
 3734SOL    HW212102   3.608   0.709   1.455
 3735SOL     OW12103   4.192   1.163   2.669
 3735SOL    HW112104   4.109   1.146   2.722
 3735SOL    HW212105   4.186   1.113   2.582
 3736SOL     OW12106   0.889   1.723   0.165
 3736SOL    HW112107   0.956   1.713   0.239
 3736SOL    HW212108   0.848   1.815   0.169
 3737SOL     OW12109   5.357   1.762   4.068
 3737SOL    HW112110   5.409   1.776   3.983
 3737SOL    HW212111   5.419   1.734   4.141
 3738SOL     OW12112   0.777   0.856   0.306
 3738SOL    HW112113   0.769   0.758   0.286
 3738SOL    HW212114   0.816   0.869   0.396
 3739SOL     OW12115   3.157   4.522   6.920
 3739SOL    HW112116   3.195   4.491   7.007
 3739SOL    HW212117   3.104   4.449   6.878
 3740SOL     OW12118   6.048   6.534   6.900
 3740SOL    HW112119   6.050   6.559   6.803
 3740SOL    HW212120   6.075   6.612   6.956
 3741SOL     OW12121   6.692   4.584   6.655
 3741SOL    HW112122   6.788   4.581   6.682
 3741SOL    HW212123   6.636   4.540   6.725
 3742SOL     OW12124   4.928   5.065   1.885
 3742SOL    HW112125   4.931   5.118   1.969
 3742SOL    HW212126   4.903   4.970   1.906
 3743SOL     OW12127   2.395   3.960   1.077
 3743SOL    HW112128   2.472   3.949   1.139
 3743SOL    HW212129   2.309   3.943   1.125
 3744SOL     OW12130   6.473   6.165   2.559
 3744SOL    HW112131   6.411   6.223   2.506
 3744SOL    HW212132   6.562   6.209   2.566
 3745SOL     OW12133   5.919   1.429   2.387
 3745SOL    HW112134   5.952   1.484   2.464
 3745SOL    HW212135   5.914   1.333   2.414
 3746SOL     OW12136   4.901   6.957   5.489
 3746SOL    HW112137   4.877   6.954   5.586
 3746SOL    HW212138   4.940   0.031   5.467
 3747SOL     OW12139   2.101   5.419   5.646
 3747SOL    HW112140   2.143   5.351   5.586
 3747SOL    HW212141   2.172   5.473   5.690
 3748SOL     OW12142   5.106   2.062   3.280
 3748SOL    HW112143   5.079   2.143   3.332
 3748SOL    HW212144   5.182   2.085   3.219
 3749SOL     OW12145   5.913   6.041   1.801
 3749SOL    HW112146   5.886   6.100   1.726
 3749SOL    HW212147   6.002   6.069   1.835
 3750SOL     OW12148   6.058   4.085   1.669
 3750SOL    HW112149   6.114   4.040   1.739
 3750SOL    HW212150   5.971   4.112   1.709
 3751SOL     OW12151   1.884   5.026   0.743
 3751SOL    HW112152   1.913   4.934   0.718
 3751SOL    HW212153   1.786   5.026   0.762
 3752SOL     OW12154   1.222   6.998   6.395
 3752SOL    HW112155   1.254   6.920   6.340
 3752SOL    HW212156   1.248   0.067   6.350
 3753SOL     OW12157   0.771   1.073   5.985
 3753SOL    HW112158   0.794   1.168   5.967
 3753SOL    HW212159   0.811   1.015   5.914
 3754SOL     OW12160   6.788   6.483   1.869
 3754SOL    HW112161   6.843   6.442   1.942
 3754SOL    HW212162   6.691   6.470   1.889
 3755SOL     OW12163   4.694   2.173   2.962
 3755SOL    HW112164   4.630   2.096   2.963
 3755SOL    HW212165   4.655   2.248   2.910
 3756SOL     OW12166   3.353   0.179   0.385
 3756SOL    HW112167   3.385   0.225   0.468
 3756SOL    HW212168   3.257   0.201   0.370
 3757SOL     OW12169   3.082   4.299   5.688
 3757SOL    HW112170   3.053   4.362   5.616
 3757SOL    HW212171   3.110   4.212   5.648
 3758SOL     OW12172   6.886   0.585   1.975
 3758SOL    HW112173   6.944   0.666   1.980
 3758SOL    HW212174   6.790   0.613   1.984
 3759SOL     OW12175   4.970   4.028   0.589
 3759SOL    HW112176   5.034   3.960   0.555
 3759SOL    HW212177   5.015   4.084   0.659
 3760SOL     OW12178   1.852   1.680   5.925
 3760SOL    HW112179   1.797   1.764   5.920
 3760SOL    HW212180   1.897   1.676   6.014
 3761SOL     OW12181   6.749   6.158   4.153
 3761SOL    HW112182   6.701   6.213   4.221
 3761SOL    HW212183   6.691   6.082   4.125
 3762SOL     OW12184   0.400   3.625   0.826
 3762SOL    HW112185   0.315   3.677   0.813
 3762SOL    HW212186   0.439   3.648   0.915
 3763SOL     OW12187   7.015   2.769   4.763
 3763SOL    HW112188   7.002   2.861   4.727
 3763SOL    HW212189   6.943   2.709   4.728
 3764SOL     OW12190   2.074   0.184   3.331
 3764SOL    HW112191   2.031   0.250   3.392
 3764SOL    HW212192   2.019   0.175   3.248
 3765SOL     OW12193   6.260   1.011   3.607
 3765SOL    HW112194   6.327   0.967   3.547
 3765SOL    HW212195   6.271   1.111   3.601
 3766SOL     OW12196   2.438   1.110   4.715
 3766SOL    HW112197   2.401   1.178   4.651
 3766SOL    HW212198   2.509   1.153   4.771
 3767SOL     OW12199   6.756   4.550   1.048
 3767SOL    HW112200   6.789   4.560   1.141
 3767SOL    HW212201   6.823   4.588   0.984
 3768SOL     OW12202   4.738   6.768   1.166
 3768SOL    HW112203   4.692   6.703   1.106
 3768SOL    HW212204   4.806   6.820   1.114
 3769SOL     OW12205   4.003   6.616   4.645
 3769SOL    HW112206   3.945   6.661   4.713
 3769SOL    HW212207   4.081   6.675   4.624
 3770SOL     OW12208   1.844   2.787   0.248
 3770SOL    HW112209   1.941   2.806   0.238
 3770SOL    HW212210   1.796   2.813   0.165
 3771SOL     OW12211   4.706   1.673   5.968
 3771SOL    HW112212   4.691   1.677   5.869
 3771SOL    HW212213   4.786   1.729   5.991
 3772SOL     OW12214   5.508   0.917   2.602
 3772SOL    HW112215   5.596   0.961   2.584
 3772SOL    HW212216   5.435   0.985   2.596
 3773SOL     OW12217   6.599   2.366   1.054
 3773SOL    HW112218   6.534   2.371   1.130
 3773SOL    HW212219   6.562   2.416   0.975
 3774SOL     OW12220   1.238   1.672   1.613
 3774SOL    HW112221   1.328   1.697   1.648
 3774SOL    HW212222   1.208   1.587   1.656
 3775SOL     OW12223   5.136   2.465   3.385
 3775SOL    HW112224   5.182   2.376   3.395
 3775SOL    HW212225   5.194   2.526   3.330
 3776SOL     OW12226   2.828   2.122   6.619
 3776SOL    HW112227   2.867   2.213   6.605
 3776SOL    HW212228   2.824   2.102   6.717
 3777SOL     OW12229   1.181   3.981   3.169
 3777SOL    HW112230   1.263   3.930   3.196
 3777SOL    HW212231   1.203   4.078   3.166
 3778SOL     OW12232   2.093   0.621   1.840
 3778SOL    HW112233   2.060   0.533   1.873
 3778SOL    HW212234   2.016   0.684   1.831
 3779SOL     OW12235   1.854   5.209   6.507
 3779SOL    HW112236   1.780   5.141   6.508
 3779SOL    HW212237   1.827   5.286   6.449
 3780SOL     OW12238   1.722   0.019   3.967
 3780SOL    HW112239   1.676   0.095   3.923
 3780SOL    HW212240   1.678   6.949   3.941
 3781SOL     OW12241   2.851   5.166   4.686
 3781SOL    HW112242   2.802   5.246   4.648
 3781SOL    HW212243   2.922   5.198   4.748
 3782SOL     OW12244   2.640   1.304   2.155
 3782SOL    HW112245   2.607   1.210   2.148
 3782SOL    HW212246   2.723   1.306   2.210
 3783SOL     OW12247   5.484   4.854   4.836
 3783SOL    HW112248   5.458   4.946   4.805
 3783SOL    HW212249   5.457   4.842   4.931
 3784SOL     OW12250   4.889   2.535   4.514
 3784SOL    HW112251   4.803   2.546   4.563
 3784SOL    HW212252   4.870   2.515   4.418
 3785SOL     OW12253   0.588   0.291   2.163
 3785SOL    HW112254   0.491   0.288   2.187
 3785SOL    HW212255   0.614   0.386   2.144
 3786SOL     OW12256   2.552   6.125   1.416
 3786SOL    HW112257   2.620   6.053   1.415
 3786SOL    HW212258   2.595   6.213   1.398
 3787SOL     OW12259   4.849   0.853   3.586
 3787SOL    HW112260   4.782   0.805   3.642
 3787SOL    HW212261   4.805   0.889   3.504
 3788SOL     OW12262   6.420   3.228   2.297
 3788SOL    HW112263   6.483   3.252   2.223
 3788SOL    HW212264   6.354   3.161   2.263
 3789SOL     OW12265   1.859   5.377   2.202
 3789SOL    HW112266   1.860   5.463   2.151
 3789SOL    HW212267   1.909   5.390   2.288
 3790SOL     OW12268   1.760   3.361   2.420
 3790SOL    HW112269   1.721   3.448   2.389
 3790SOL    HW212270   1.770   3.300   2.342
 3791SOL     OW12271   6.918   0.654   2.984
 3791SOL    HW112272   6.957   0.642   3.075
 3791SOL    HW212273   6.857   0.732   2.985
 3792SOL     OW12274   1.057   5.669   6.541
 3792SOL    HW112275   1.003   5.750   6.517
 3792SOL    HW212276   1.059   5.659   6.641
 3793SOL     OW12277   6.890   5.717   2.709
 3793SOL    HW112278   6.948   5.642   2.740
 3793SOL    HW212279   6.946   5.785   2.661
 3794SOL     OW12280   4.140   0.104   3.914
 3794SOL    HW112281   4.165   0.198   3.941
 3794SOL    HW212282   4.210   0.069   3.852
 3795SOL     OW12283   5.806   0.325   0.944
 3795SOL    HW112284   5.901   0.355   0.949
 3795SOL    HW212285   5.793   0.247   1.005
 3796SOL     OW12286   0.078   2.634   1.252
 3796SOL    HW112287   0.137   2.652   1.331
 3796SOL    HW212288   0.114   2.556   1.202
 3797SOL     OW12289   0.037   5.494   2.787
 3797SOL    HW112290   6.974   5.447   2.826
 3797SOL    HW212291   0.117   5.481   2.846
 3798SOL     OW12292   1.289   4.554   6.958
 3798SOL    HW112293   1.207   4.608   6.938
 3798SOL    HW212294   1.319   4.573   0.036
 3799SOL     OW12295   1.281   0.550   5.469
 3799SOL    HW112296   1.324   0.598   5.392
 3799SOL    HW212297   1.198   0.504   5.438
 3800SOL     OW12298   5.032   2.532   4.732
 3800SOL    HW112299   4.976   2.543   4.650
 3800SOL    HW212300   5.055   2.622   4.769
 3801SOL     OW12301   6.571   0.333   5.868
 3801SOL    HW112302   6.641   0.305   5.802
 3801SOL    HW212303   6.614   0.344   5.958
 3802SOL     OW12304   1.901   2.389   5.147
 3802SOL    HW112305   1.949   2.412   5.063
 3802SOL    HW212306   1.911   2.463   5.213
 3803SOL     OW12307   4.293   1.565   1.433
 3803SOL    HW112308   4.231   1.644   1.427
 3803SOL    HW212309   4.351   1.574   1.513
 3804SOL     OW12310   5.275   3.680   5.053
 3804SOL    HW112311   5.251   3.768   5.013
 3804SOL    HW212312   5.196   3.619   5.048
 3805SOL     OW12313   1.910   3.689   1.699
 3805SOL    HW112314   2.008   3.710   1.706
 3805SOL    HW212315   1.883   3.630   1.775
 3806SOL     OW12316   3.484   0.675   0.078
 3806SOL    HW112317   3.415   0.640   0.141
 3806SOL    HW212318   3.438   0.719   7.015
 3807SOL     OW12319   1.645   6.690   2.777
 3807SOL    HW112320   1.649   6.663   2.873
 3807SOL    HW212321   1.628   6.789   2.770
 3808SOL     OW12322   3.841   1.053   0.431
 3808SOL    HW112323   3.742   1.064   0.427
 3808SOL    HW212324   3.876   1.033   0.339
 3809SOL     OW12325   4.234   1.085   0.231
 3809SOL    HW112326   4.213   1.038   0.317
 3809SOL    HW212327   4.284   1.169   0.251
 3810SOL     OW12328   1.940   3.801   6.913
 3810SOL    HW112329   1.853   3.850   6.915
 3810SOL    HW212330   2.000   3.843   6.845
 3811SOL     OW12331   6.946   0.638   6.233
 3811SOL    HW112332   6.857   0.673   6.260
 3811SOL    HW212333   7.007   0.638   6.313
 3812SOL     OW12334   4.336   0.749   5.599
 3812SOL    HW112335   4.340   0.698   5.685
 3812SOL    HW212336   4.358   0.845   5.616
 3813SOL     OW12337   3.754   4.891   2.181
 3813SOL    HW112338   3.785   4.824   2.249
 3813SOL    HW212339   3.695   4.845   2.114
 3814SOL     OW12340   1.911   0.598   1.507
 3814SOL    HW112341   1.901   0.675   1.570
 3814SOL    HW212342   1.849   0.610   1.429
 3815SOL     OW12343   5.681   1.992   2.054
 3815SOL    HW112344   5.640   2.060   2.115
 3815SOL    HW212345   5.713   1.915   2.108
 3816SOL     OW12346   0.185   6.380   0.534
 3816SOL    HW112347   0.176   6.318   0.611
 3816SOL    HW212348   0.161   6.473   0.563
 3817SOL     OW12349   5.420   2.085   5.468
 3817SOL    HW112350   5.488   2.023   5.428
 3817SOL    HW212351   5.359   2.033   5.528
 3818SOL     OW12352   3.381   5.591   3.020
 3818SOL    HW112353   3.392   5.541   2.934
 3818SOL    HW212354   3.389   5.689   3.003
 3819SOL     OW12355   5.471   3.482   6.302
 3819SOL    HW112356   5.439   3.575   6.319
 3819SOL    HW212357   5.392   3.421   6.297
 3820SOL     OW12358   4.141   6.196   3.051
 3820SOL    HW112359   4.135   6.171   3.148
 3820SOL    HW212360   4.171   6.116   2.999
 3821SOL     OW12361   0.020   4.564   1.442
 3821SOL    HW112362   0.007   4.470   1.410
 3821SOL    HW212363   0.021   4.626   1.363
 3822SOL     OW12364   0.729   3.869   1.129
 3822SOL    HW112365   0.806   3.805   1.135
 3822SOL    HW212366   0.690   3.882   1.220
 3823SOL     OW12367   2.477   3.663   5.535
 3823SOL    HW112368   2.570   3.647   5.502
 3823SOL    HW212369   2.421   3.700   5.460
 3824SOL     OW12370   0.592   2.365   6.162
 3824SOL    HW112371   0.502   2.370   6.120
 3824SOL    HW212372   0.594   2.424   6.243
 3825SOL     OW12373   0.426   6.517   6.067
 3825SOL    HW112374   0.467   6.603   6.097
 3825SOL    HW212375   0.326   6.523   6.075
 3826SOL     OW12376   6.564   1.887   1.733
 3826SOL    HW112377   6.514   1.899   1.819
 3826SOL    HW212378   6.632   1.815   1.744
 3827SOL     OW12379   5.320   1.804   2.281
 3827SOL    HW112380   5.273   1.776   2.197
 3827SOL    HW212381   5.418   1.784   2.274
 3828SOL     OW12382   3.567   1.216   1.531
 3828SOL    HW112383   3.593   1.218   1.627
 3828SOL    HW212384   3.528   1.304   1.505
 3829SOL     OW12385   0.950   4.749   3.508
 3829SOL    HW112386   0.914   4.788   3.593
 3829SOL    HW212387   0.970   4.823   3.444
 3830SOL     OW12388   2.335   0.243   5.418
 3830SOL    HW112389   2.324   0.315   5.350
 3830SOL    HW212390   2.345   0.284   5.509
 3831SOL     OW12391   4.916   1.631   2.129
 3831SOL    HW112392   4.818   1.646   2.136
 3831SOL    HW212393   4.945   1.648   2.034
 3832SOL     OW12394   5.908   6.894   2.325
 3832SOL    HW112395   5.884   6.970   2.264
 3832SOL    HW212396   5.990   6.917   2.376
 3833SOL     OW12397   1.470   6.561   2.602
 3833SOL    HW112398   1.460   6.624   2.525
 3833SOL    HW212399   1.540   6.595   2.664
 3834SOL     OW12400   3.327   3.130   0.603
 3834SOL    HW112401   3.310   3.062   0.532
 3834SOL    HW212402   3.294   3.096   0.691
 3835SOL     OW12403   2.962   4.874   3.162
 3835SOL    HW112404   3.053   4.888   3.200
 3835SOL    HW212405   2.923   4.789   3.197
 3836SOL     OW12406   1.077   2.938   6.197
 3836SOL    HW112407   1.061   2.875   6.273
 3836SOL    HW212408   1.051   2.893   6.111
 3837SOL     OW12409   3.028   4.265   6.459
 3837SOL    HW112410   2.961   4.244   6.530
 3837SOL    HW212411   3.118   4.229   6.485
 3838SOL     OW12412   6.920   3.392   4.566
 3838SOL    HW112413   7.011   3.406   4.525
 3838SOL    HW212414   6.875   3.481   4.576
 3839SOL     OW12415   0.775   6.238   0.128
 3839SOL    HW112416   0.698   6.292   0.163
 3839SOL    HW212417   0.767   6.229   0.029
 3840SOL     OW12418   2.879   2.275   3.124
 3840SOL    HW112419   2.977   2.255   3.113
 3840SOL    HW212420   2.833   2.266   3.036
 3841SOL     OW12421   0.970   2.901   3.641
 3841SOL    HW112422   0.981   2.999   3.661
 3841SOL    HW212423   0.898   2.863   3.698
 3842SOL     OW12424   1.206   5.015   6.650
 3842SOL    HW112425   1.112   5.045   6.665
 3842SOL    HW212426   1.209   4.915   6.643
 3843SOL     OW12427   6.987   4.544   6.937
 3843SOL    HW112428   6.974   4.552   6.838
 3843SOL    HW212429   6.977   4.448   6.964
 3844SOL     OW12430   2.670   4.314   5.843
 3844SOL    HW112431   2.691   4.412   5.844
 3844SOL    HW212432   2.651   4.285   5.749
 3845SOL     OW12433   3.263   3.303   4.320
 3845SOL    HW112434   3.254   3.284   4.417
 3845SOL    HW212435   3.211   3.236   4.267
 3846SOL     OW12436   6.904   4.882   5.059
 3846SOL    HW112437   6.816   4.841   5.083
 3846SOL    HW212438   6.967   4.873   5.136
 3847SOL     OW12439   1.440   6.725   0.787
 3847SOL    HW112440   1.379   6.646   0.782
 3847SOL    HW212441   1.444   6.759   0.881
 3848SOL     OW12442   2.938   6.416   2.028
 3848SOL    HW112443   2.959   6.464   1.943
 3848SOL    HW212444   2.853   6.364   2.018
 3849SOL     OW12445   2.698   1.560   5.227
 3849SOL    HW112446   2.721   1.494   5.298
 3849SOL    HW212447   2.669   1.512   5.145
 3850SOL     OW12448   1.331   3.446   1.573
 3850SOL    HW112449   1.339   3.450   1.474
 3850SOL    HW212450   1.386   3.518   1.615
 3851SOL     OW12451   2.664   2.879   0.900
 3851SOL    HW112452   2.683   2.786   0.933
 3851SOL    HW212453   2.598   2.923   0.961
 3852SOL     OW12454   4.935   1.003   5.382
 3852SOL    HW112455   4.846   1.047   5.374
 3852SOL    HW212456   4.962   0.964   5.294
 3853SOL     OW12457   0.229   3.697   2.124
 3853SOL    HW112458   0.142   3.685   2.077
 3853SOL    HW212459   0.238   3.792   2.154
 3854SOL     OW12460   1.537   3.425   4.169
 3854SOL    HW112461   1.619   3.400   4.222
 3854SOL    HW212462   1.541   3.383   4.079
 3855SOL     OW12463   6.888   1.564   4.926
 3855SOL    HW112464   6.938   1.601   4.847
 3855SOL    HW212465   6.935   1.482   4.960
 3856SOL     OW12466   1.007   6.117   6.346
 3856SOL    HW112467   1.089   6.106   6.402
 3856SOL    HW212468   0.974   6.211   6.352
 3857SOL     OW12469   0.014   0.482   6.680
 3857SOL    HW112470   6.983   0.394   6.688
 3857SOL    HW212471   0.050   0.510   6.769
 3858SOL     OW12472   3.878   4.708   6.868
 3858SOL    HW112473   3.822   4.752   6.798
 3858SOL    HW212474   3.974   4.725   6.848
 3859SOL     OW12475   6.601   2.622   2.289
 3859SOL    HW112476   6.607   2.647   2.192
 3859SOL    HW212477   6.679   2.658   2.338
 3860SOL     OW12478   2.582   5.910   4.710
 3860SOL    HW112479   2.668   5.960   4.705
 3860SOL    HW212480   2.521   5.942   4.637
 3861SOL     OW12481   3.012   4.257   6.834
 3861SOL    HW112482   2.981   4.280   6.926
 3861SOL    HW212483   2.933   4.245   6.775
 3862SOL     OW12484   0.964   6.090   5.550
 3862SOL    HW112485   1.016   6.148   5.487
 3862SOL    HW212486   0.877   6.135   5.572
 3863SOL     OW12487   2.586   2.804   0.234
 3863SOL    HW112488   2.589   2.851   0.146
 3863SOL    HW212489   2.679   2.788   0.267
 3864SOL     OW12490   3.466   2.069   1.357
 3864SOL    HW112491   3.485   2.074   1.455
 3864SOL    HW212492   3.543   2.107   1.306
 3865SOL     OW12493   3.880   1.078   2.294
 3865SOL    HW112494   3.847   1.170   2.318
 3865SOL    HW212495   3.846   1.054   2.203
 3866SOL     OW12496   4.373   6.311   0.168
 3866SOL    HW112497   4.442   6.344   0.233
 3866SOL    HW212498   4.418   6.263   0.093
 3867SOL     OW12499   1.721   4.898   2.963
 3867SOL    HW112500   1.778   4.957   2.905
 3867SOL    HW212501   1.718   4.806   2.925
 3868SOL     OW12502   1.796   5.095   3.180
 3868SOL    HW112503   1.890   5.066   3.199
 3868SOL    HW212504   1.744   5.017   3.146
 3869SOL     OW12505   1.135   1.506   3.795
 3869SOL    HW112506   1.207   1.438   3.776
 3869SOL    HW212507   1.177   1.596   3.807
 3870SOL     OW12508   3.996   3.997   0.199
 3870SOL    HW112509   4.054   4.077   0.211
 3870SOL    HW212510   3.923   3.998   0.268
 3871SOL     OW12511   3.244   0.711   4.452
 3871SOL    HW112512   3.182   0.697   4.375
 3871SOL    HW212513   3.245   0.629   4.509
 3872SOL     OW12514   4.638   4.056   0.782
 3872SOL    HW112515   4.559   4.030   0.837
 3872SOL    HW212516   4.716   4.074   0.842
 3873SOL     OW12517   6.730   4.842   1.949
 3873SOL    HW112518   6.718   4.888   1.861
 3873SOL    HW212519   6.756   4.746   1.933
 3874SOL     OW12520   5.540   6.251   5.862
 3874SOL    HW112521   5.625   6.265   5.811
 3874SOL    HW212522   5.546   6.298   5.950
 3875SOL     OW12523   3.165   3.142   0.241
 3875SOL    HW112524   3.082   3.089   0.257
 3875SOL    HW212525   3.154   3.234   0.280
 3876SOL     OW12526   5.760   3.885   2.540
 3876SOL    HW112527   5.707   3.911   2.459
 3876SOL    HW212528   5.731   3.794   2.571
 3877SOL     OW12529   4.488   1.912   2.008
 3877SOL    HW112530   4.434   1.934   2.089
 3877SOL    HW212531   4.524   1.996   1.968
 3878SOL     OW12532   5.185   5.742   4.556
 3878SOL    HW112533   5.180   5.754   4.457
 3878SOL    HW212534   5.269   5.693   4.580
 3879SOL     OW12535   2.408   5.922   0.747
 3879SOL    HW112536   2.422   6.020   0.760
 3879SOL    HW212537   2.441   5.873   0.827
 3880SOL     OW12538   6.233   1.144   4.549
 3880SOL    HW112539   6.236   1.077   4.475
 3880SOL    HW212540   6.178   1.108   4.624
 3881SOL     OW12541   0.312   6.032   5.376
 3881SOL    HW112542   0.390   6.086   5.344
 3881SOL    HW212543   0.307   5.947   5.324
 3882SOL     OW12544   0.165   6.149   0.085
 3882SOL    HW112545   0.101   6.128   0.012
 3882SOL    HW212546   0.229   6.220   0.054
 3883SOL     OW12547   4.022   2.273   0.211
 3883SOL    HW112548   4.088   2.234   0.275
 3883SOL    HW212549   4.011   2.371   0.230
 3884SOL     OW12550   3.141   5.856   5.718
 3884SOL    HW112551   3.226   5.849   5.666
 3884SOL    HW212552   3.084   5.775   5.701
 3885SOL     OW12553   0.182   1.100   3.845
 3885SOL    HW112554   0.191   1.194   3.811
 3885SOL    HW212555   0.114   1.098   3.919
 3886SOL     OW12556   6.804   6.235   4.598
 3886SOL    HW112557   6.735   6.278   4.540
 3886SOL    HW212558   6.765   6.156   4.644
 3887SOL     OW12559   6.923   3.169   5.072
 3887SOL    HW112560   6.923   3.241   5.141
 3887SOL    HW212561   6.847   3.105   5.089
 3888SOL     OW12562   5.103   1.794   3.189
 3888SOL    HW112563   5.142   1.819   3.101
 3888SOL    HW212564   5.095   1.875   3.246
 3889SOL     OW12565   6.581   5.719   0.258
 3889SOL    HW112566   6.618   5.774   0.333
 3889SOL    HW212567   6.653   5.660   0.222
 3890SOL     OW12568   6.082   3.169   3.456
 3890SOL    HW112569   6.065   3.208   3.365
 3890SOL    HW212570   5.996   3.135   3.494
 3891SOL     OW12571   3.883   4.291   5.961
 3891SOL    HW112572   3.961   4.349   5.936
 3891SOL    HW212573   3.906   4.238   6.042
 3892SOL     OW12574   5.508   5.586   3.969
 3892SOL    HW112575   5.512   5.487   3.952
 3892SOL    HW212576   5.424   5.608   4.018
 3893SOL     OW12577   2.373   6.034   4.572
 3893SOL    HW112578   2.303   6.007   4.506
 3893SOL    HW212579   2.333   6.037   4.664
 3894SOL     OW12580   5.565   5.664   6.027
 3894SOL    HW112581   5.568   5.564   6.040
 3894SOL    HW212582   5.640   5.706   6.079
 3895SOL     OW12583   1.451   1.775   5.444
 3895SOL    HW112584   1.492   1.688   5.472
 3895SOL    HW212585   1.480   1.797   5.351
 3896SOL     OW12586   6.443   2.927   0.487
 3896SOL    HW112587   6.431   2.877   0.572
 3896SOL    HW212588   6.541   2.945   0.472
 3897SOL     OW12589   2.694   0.164   3.399
 3897SOL    HW112590   2.654   0.253   3.380
 3897SOL    HW212591   2.780   0.155   3.349
 3898SOL     OW12592   3.227   3.932   3.324
 3898SOL    HW112593   3.174   3.985   3.392
 3898SOL    HW212594   3.322   3.925   3.354
 3899SOL     OW12595   4.826   1.922   6.235
 3899SOL    HW112596   4.891   1.855   6.271
 3899SOL    HW212597   4.801   1.986   6.307
 3900SOL     OW12598   1.103   2.732   3.843
 3900SOL    HW112599   1.070   2.713   3.935
 3900SOL    HW212600   1.186   2.679   3.826
 3901SOL     OW12601   3.821   6.133   4.410
 3901SOL    HW112602   3.874   6.214   4.437
 3901SOL    HW212603   3.753   6.159   4.342
 3902SOL     OW12604   2.822   5.123   3.120
 3902SOL    HW112605   2.864   5.042   3.162
 3902SOL    HW212606   2.723   5.119   3.132
 3903SOL     OW12607   2.771   3.728   6.460
 3903SOL    HW112608   2.862   3.691   6.480
 3903SOL    HW212609   2.776   3.828   6.455
 3904SOL     OW12610   2.819   6.337   0.860
 3904SOL    HW112611   2.906   6.354   0.813
 3904SOL    HW212612   2.831   6.353   0.958
 3905SOL     OW12613   4.187   6.613   5.401
 3905SOL    HW112614   4.202   6.610   5.302
 3905SOL    HW212615   4.242   6.544   5.446
 3906SOL     OW12616   6.566   5.641   4.166
 3906SOL    HW112617   6.593   5.553   4.127
 3906SOL    HW212618   6.571   5.636   4.266
 3907SOL     OW12619   0.946   1.595   4.926
 3907SOL    HW112620   0.961   1.522   4.993
 3907SOL    HW212621   0.969   1.561   4.835
 3908SOL     OW12622   2.095   1.598   4.830
 3908SOL    HW112623   2.068   1.557   4.743
 3908SOL    HW212624   2.168   1.665   4.814
 3909SOL     OW12625   6.252   3.434   2.360
 3909SOL    HW112626   6.307   3.362   2.320
 3909SOL    HW212627   6.311   3.498   2.410
 3910SOL     OW12628   2.086   2.260   0.337
 3910SOL    HW112629   2.029   2.318   0.280
 3910SOL    HW212630   2.179   2.259   0.301
 3911SOL     OW12631   6.254   1.126   1.955
 3911SOL    HW112632   6.224   1.177   1.874
 3911SOL    HW212633   6.197   1.044   1.965
 3912SOL     OW12634   5.050   4.470   0.172
 3912SOL    HW112635   5.111   4.545   0.145
 3912SOL    HW212636   4.955   4.501   0.165
 3913SOL     OW12637   4.152   4.571   1.143
 3913SOL    HW112638   4.209   4.648   1.115
 3913SOL    HW212639   4.132   4.514   1.064
 3914SOL     OW12640   0.455   1.122   0.298
 3914SOL    HW112641   0.425   1.115   0.393
 3914SOL    HW212642   0.496   1.035   0.270
 3915SOL     OW12643   5.552   6.953   5.066
 3915SOL    HW112644   5.513   6.898   4.992
 3915SOL    HW212645   5.621   0.000   5.029
 3916SOL     OW12646   1.952   2.819   1.929
 3916SOL    HW112647   1.908   2.730   1.943
 3916SOL    HW212648   1.894   2.891   1.966
 3917SOL     OW12649   4.083   5.692   2.263
 3917SOL    HW112650   3.988   5.707   2.238
 3917SOL    HW212651   4.140   5.697   2.181
 3918SOL     OW12652   3.915   6.990   0.401
 3918SOL    HW112653   3.904   6.902   0.447
 3918SOL    HW212654   3.988   0.026   0.446
 3919SOL     OW12655   4.914   4.720   3.553
 3919SOL    HW112656   4.843   4.696   3.486
 3919SOL    HW212657   4.966   4.799   3.519
 3920SOL     OW12658   4.558   1.029   5.945
 3920SOL    HW112659   4.521   0.996   6.032
 3920SOL    HW212660   4.591   0.951   5.892
 3921SOL     OW12661   0.717   3.302   5.846
 3921SOL    HW112662   0.743   3.331   5.754
 3921SOL    HW212663   0.749   3.208   5.862
 3922SOL     OW12664   5.411   2.099   3.975
 3922SOL    HW112665   5.456   2.129   4.058
 3922SOL    HW212666   5.312   2.095   3.990
 3923SOL     OW12667   5.819   1.274   1.372
 3923SOL    HW112668   5.894   1.226   1.328
 3923SOL    HW212669   5.847   1.368   1.393
 3924SOL     OW12670   5.509   5.234   3.650
 3924SOL    HW112671   5.474   5.318   3.607
 3924SOL    HW212672   5.438   5.163   3.646
 3925SOL     OW12673   3.632   4.316   1.567
 3925SOL    HW112674   3.563   4.277   1.506
 3925SOL    HW212675   3.593   4.397   1.612
 3926SOL     OW12676   1.235   5.910   5.334
 3926SOL    HW112677   1.258   5.987   5.393
 3926SOL    HW212678   1.320   5.863   5.306
 3927SOL     OW12679   6.352   6.185   4.933
 3927SOL    HW112680   6.258   6.198   4.964
 3927SOL    HW212681   6.407   6.144   5.006
 3928SOL     OW12682   4.363   5.640   2.403
 3928SOL    HW112683   4.276   5.607   2.439
 3928SOL    HW212684   4.347   5.697   2.323
 3929SOL     OW12685   2.275   0.865   4.980
 3929SOL    HW112686   2.243   0.819   4.898
 3929SOL    HW212687   2.197   0.895   5.035
 3930SOL     OW12688   1.918   5.725   4.309
 3930SOL    HW112689   1.847   5.791   4.283
 3930SOL    HW212690   1.995   5.732   4.247
 3931SOL     OW12691   0.368   2.417   0.347
 3931SOL    HW112692   0.432   2.384   0.277
 3931SOL    HW212693   0.275   2.393   0.321
 3932SOL     OW12694   1.778   4.649   2.087
 3932SOL    HW112695   1.792   4.604   2.175
 3932SOL    HW212696   1.723   4.731   2.101
 3933SOL     OW12697   1.366   6.883   1.354
 3933SOL    HW112698   1.438   6.841   1.408
 3933SOL    HW212699   1.281   6.831   1.363
 3934SOL     OW12700   1.477   6.925   2.123
 3934SOL    HW112701   1.524   6.838   2.135
 3934SOL    HW212702   1.470   6.947   2.026
 3935SOL     OW12703   0.285   1.260   4.902
 3935SOL    HW112704   0.375   1.229   4.870
 3935SOL    HW212705   0.226   1.180   4.915
 3936SOL     OW12706   6.345   4.736   4.116
 3936SOL    HW112707   6.401   4.800   4.169
 3936SOL    HW212708   6.399   4.654   4.096
 3937SOL     OW12709   1.533   6.299   0.391
 3937SOL    HW112710   1.501   6.317   0.298
 3937SOL    HW212711   1.475   6.229   0.433
 3938SOL     OW12712   0.754   4.731   6.737
 3938SOL    HW112713   0.725   4.826   6.743
 3938SOL    HW212714   0.843   4.726   6.691
 3939SOL     OW12715   2.307   6.326   4.309
 3939SOL    HW112716   2.266   6.354   4.222
 3939SOL    HW212717   2.244   6.264   4.357
 3940SOL     OW12718   2.607   5.973   6.890
 3940SOL    HW112719   2.657   6.051   6.928
 3940SOL    HW212720   2.666   5.922   6.828
 3941SOL     OW12721   5.658   5.615   2.452
 3941SOL    HW112722   5.609   5.697   2.422
 3941SOL    HW212723   5.718   5.584   2.377
 3942SOL     OW12724   0.354   6.364   0.319
 3942SOL    HW112725   0.396   6.446   0.279
 3942SOL    HW212726   0.313   6.387   0.407
 3943SOL     OW12727   0.335   4.903   0.386
 3943SOL    HW112728   0.417   4.951   0.356
 3943SOL    HW212729   0.274   4.887   0.308
 3944SOL     OW12730   5.404   3.231   0.604
 3944SOL    HW112731   5.409   3.165   0.529
 3944SOL    HW212732   5.376   3.184   0.688
 3945SOL     OW12733   0.120   0.683   2.551
 3945SOL    HW112734   0.072   0.690   2.463
 3945SOL    HW212735   0.207   0.731   2.545
 3946SOL     OW12736   5.053   1.318   1.007
 3946SOL    HW112737   5.109   1.252   0.956
 3946SOL    HW212738   5.112   1.389   1.044
 3947SOL     OW12739   5.283   0.231   1.300
 3947SOL    HW112740   5.371   0.203   1.336
 3947SOL    HW212741   5.286   0.328   1.275
 3948SOL     OW12742   1.486   1.732   4.412
 3948SOL    HW112743   1.492   1.650   4.469
 3948SOL    HW212744   1.543   1.721   4.331
 3949SOL     OW12745   6.076   7.007   2.954
 3949SOL    HW112746   6.031   6.918   2.959
 3949SOL    HW212747   6.029   0.056   3.014
 3950SOL     OW12748   2.500   4.644   1.589
 3950SOL    HW112749   2.428   4.600   1.534
 3950SOL    HW212750   2.589   4.628   1.546
 3951SOL     OW12751   6.535   2.757   3.290
 3951SOL    HW112752   6.542   2.767   3.190
 3951SOL    HW212753   6.478   2.830   3.326
 3952SOL     OW12754   5.999   5.228   6.995
 3952SOL    HW112755   5.953   5.228   6.907
 3952SOL    HW212756   5.934   5.202   0.051
 3953SOL     OW12757   3.599   2.852   4.944
 3953SOL    HW112758   3.655   2.770   4.953
 3953SOL    HW212759   3.511   2.838   4.989
 3954SOL     OW12760   0.989   4.508   5.547
 3954SOL    HW112761   1.073   4.562   5.553
 3954SOL    HW212762   0.955   4.511   5.453
 3955SOL     OW12763   5.649   3.501   0.082
 3955SOL    HW112764   5.676   3.490   7.002
 3955SOL    HW212765   5.571   3.442   0.102
 3956SOL     OW12766   6.880   2.841   5.037
 3956SOL    HW112767   6.944   2.807   5.106
 3956SOL    HW212768   6.909   2.811   4.946
 3957SOL     OW12769   1.772   2.947   1.637
 3957SOL    HW112770   1.856   2.945   1.582
 3957SOL    HW212771   1.796   2.964   1.733
 3958SOL     OW12772   5.398   5.530   1.027
 3958SOL    HW112773   5.459   5.488   1.094
 3958SOL    HW212774   5.342   5.598   1.072
 3959SOL     OW12775   3.525   4.899   0.924
 3959SOL    HW112776   3.543   4.946   0.838
 3959SOL    HW212777   3.575   4.944   0.998
 3960SOL     OW12778   5.750   3.028   1.032
 3960SOL    HW112779   5.758   3.126   1.012
 3960SOL    HW212780   5.784   3.011   1.124
 3961SOL     OW12781   6.779   1.120   1.242
 3961SOL    HW112782   6.816   1.152   1.154
 3961SOL    HW212783   6.785   1.193   1.309
 3962SOL     OW12784   0.271   6.520   6.659
 3962SOL    HW112785   0.233   6.611   6.644
 3962SOL    HW212786   0.325   6.493   6.579
 3963SOL     OW12787   5.615   3.078   4.721
 3963SOL    HW112788   5.656   3.013   4.785
 3963SOL    HW212789   5.562   3.028   4.652
 3964SOL     OW12790   5.891   4.388   6.794
 3964SOL    HW112791   5.983   4.429   6.794
 3964SOL    HW212792   5.833   4.438   6.730
 3965SOL     OW12793   2.730   4.562   1.416
 3965SOL    HW112794   2.643   4.550   1.367
 3965SOL    HW212795   2.802   4.586   1.351
 3966SOL     OW12796   0.129   3.636   6.005
 3966SOL    HW112797   0.208   3.674   6.055
 3966SOL    HW212798   0.142   3.650   5.907
 3967SOL     OW12799   2.005   0.535   0.763
 3967SOL    HW112800   1.993   0.436   0.770
 3967SOL    HW212801   1.916   0.580   0.763
 3968SOL     OW12802   4.728   2.907   0.730
 3968SOL    HW112803   4.635   2.920   0.696
 3968SOL    HW212804   4.727   2.909   0.830
 3969SOL     OW12805   6.598   5.913   1.549
 3969SOL    HW112806   6.604   5.980   1.474
 3969SOL    HW212807   6.549   5.954   1.626
 3970SOL     OW12808   5.854   4.058   4.055
 3970SOL    HW112809   5.770   4.059   4.111
 3970SOL    HW212810   5.841   4.113   3.973
 3971SOL     OW12811   0.179   5.901   3.979
 3971SOL    HW112812   0.083   5.873   3.992
 3971SOL    HW212813   0.239   5.826   4.006
 3972SOL     OW12814   0.841   0.939   6.523
 3972SOL    HW112815   0.850   0.839   6.532
 3972SOL    HW212816   0.933   0.980   6.525
 3973SOL     OW12817   4.088   3.066   1.868
 3973SOL    HW112818   4.058   3.143   1.812
 3973SOL    HW212819   4.125   2.994   1.808
 3974SOL     OW12820   5.288   1.160   6.768
 3974SOL    HW112821   5.235   1.082   6.803
 3974SOL    HW212822   5.364   1.127   6.714
 3975SOL     OW12823   6.916   6.356   3.670
 3975SOL    HW112824   7.000   6.314   3.704
 3975SOL    HW212825   6.935   6.451   3.643
 3976SOL     OW12826   0.524   2.923   5.357
 3976SOL    HW112827   0.595   2.860   5.325
 3976SOL    HW212828   0.466   2.951   5.280
 3977SOL     OW12829   2.029   4.715   5.479
 3977SOL    HW112830   2.118   4.742   5.516
 3977SOL    HW212831   1.963   4.705   5.554
 3978SOL     OW12832   4.580   3.144   6.122
 3978SOL    HW112833   4.608   3.179   6.033
 3978SOL    HW212834   4.480   3.141   6.127
 3979SOL     OW12835   0.192   5.356   3.002
 3979SOL    HW112836   0.282   5.368   2.959
 3979SOL    HW212837   0.168   5.440   3.051
 3980SOL     OW12838   5.106   4.522   3.881
 3980SOL    HW112839   5.126   4.496   3.976
 3980SOL    HW212840   5.190   4.516   3.827
 3981SOL     OW12841   6.985   0.885   6.604
 3981SOL    HW112842   6.919   0.811   6.608
 3981SOL    HW212843   0.062   0.847   6.607
 3982SOL     OW12844   2.158   3.205   4.316
 3982SOL    HW112845   2.155   3.165   4.408
 3982SOL    HW212846   2.132   3.302   4.321
 3983SOL     OW12847   2.370   0.859   3.234
 3983SOL    HW112848   2.305   0.821   3.300
 3983SOL    HW212849   2.337   0.842   3.141
 3984SOL     OW12850   1.117   5.847   2.357
 3984SOL    HW112851   1.177   5.913   2.311
 3984SOL    HW212852   1.167   5.803   2.432
 3985SOL     OW12853   1.579   2.665   1.323
 3985SOL    HW112854   1.569   2.680   1.421
 3985SOL    HW212855   1.536   2.578   1.298
 3986SOL     OW12856   0.853   1.432   3.292
 3986SOL    HW112857   0.788   1.507   3.285
 3986SOL    HW212858   0.804   1.347   3.308
 3987SOL     OW12859   1.507   4.223   5.543
 3987SOL    HW112860   1.462   4.308   5.514
 3987SOL    HW212861   1.440   4.150   5.551
 3988SOL     OW12862   5.089   6.268   2.279
 3988SOL    HW112863   5.112   6.358   2.316
 3988SOL    HW212864   5.009   6.232   2.326
 3989SOL     OW12865   4.354   0.717   5.897
 3989SOL    HW112866   4.448   0.733   5.928
 3989SOL    HW212867   4.307   0.659   5.964
 3990SOL     OW12868   6.229   6.898   3.903
 3990SOL    HW112869   6.214   6.997   3.897
 3990SOL    HW212870   6.318   6.880   3.946
 3991SOL     OW12871   6.487   2.162   4.050
 3991SOL    HW112872   6.406   2.168   4.109
 3991SOL    HW212873   6.468   2.103   3.972
 3992SOL     OW12874   5.730   3.311   5.621
 3992SOL    HW112875   5.666   3.234   5.615
 3992SOL    HW212876   5.706   3.369   5.699
 3993SOL     OW12877   1.596   1.031   4.224
 3993SOL    HW112878   1.615   1.129   4.226
 3993SOL    HW212879   1.529   1.009   4.294
 3994SOL     OW12880   3.020   2.146   3.611
 3994SOL    HW112881   2.947   2.167   3.677
 3994SOL    HW212882   2.985   2.158   3.518
 3995SOL     OW12883   1.265   3.281   2.082
 3995SOL    HW112884   1.336   3.337   2.038
 3995SOL    HW212885   1.246   3.201   2.025
 3996SOL     OW12886   0.153   6.204   5.095
 3996SOL    HW112887   0.098   6.236   5.017
 3996SOL    HW212888   0.188   6.112   5.075
 3997SOL     OW12889   6.044   3.330   4.987
 3997SOL    HW112890   5.962   3.367   4.943
 3997SOL    HW212891   6.022   3.302   5.081
 3998SOL     OW12892   4.292   2.309   2.806
 3998SOL    HW112893   4.331   2.246   2.739
 3998SOL    HW212894   4.199   2.279   2.828
 3999SOL     OW12895   4.855   3.567   1.069
 3999SOL    HW112896   4.834   3.659   1.103
 3999SOL    HW212897   4.799   3.547   0.989
 4000SOL     OW12898   2.412   4.773   2.516
 4000SOL    HW112899   2.312   4.769   2.518
 4000SOL    HW212900   2.443   4.859   2.557
 4001SOL     OW12901   0.743   6.006   4.427
 4001SOL    HW112902   0.835   6.045   4.423
 4001SOL    HW212903   0.679   6.066   4.379
 4002SOL     OW12904   3.804   4.152   4.806
 4002SOL    HW112905   3.705   4.136   4.806
 4002SOL    HW212906   3.834   4.173   4.713
 4003SOL     OW12907   2.744   1.317   4.540
 4003SOL    HW112908   2.687   1.395   4.565
 4003SOL    HW212909   2.697   1.232   4.562
 4004SOL     OW12910   1.878   3.727   4.912
 4004SOL    HW112911   1.950   3.683   4.965
 4004SOL    HW212912   1.798   3.742   4.971
 4005SOL     OW12913   5.745   2.615   1.196
 4005SOL    HW112914   5.717   2.696   1.247
 4005SOL    HW212915   5.666   2.558   1.178
 4006SOL     OW12916   0.302   5.778   2.112
 4006SOL    HW112917   0.253   5.703   2.068
 4006SOL    HW212918   0.368   5.741   2.177
 4007SOL     OW12919   0.661   1.751   1.370
 4007SOL    HW112920   0.674   1.663   1.324
 4007SOL    HW212921   0.581   1.798   1.331
 4008SOL     OW12922   3.788   0.965   1.267
 4008SOL    HW112923   3.864   0.915   1.227
 4008SOL    HW212924   3.787   0.950   1.366
 4009SOL     OW12925   3.549   2.534   1.410
 4009SOL    HW112926   3.643   2.565   1.422
 4009SOL    HW212927   3.511   2.509   1.500
 4010SOL     OW12928   1.526   4.828   1.127
 4010SOL    HW112929   1.603   4.858   1.184
 4010SOL    HW212930   1.477   4.908   1.092
 4011SOL     OW12931   5.656   6.779   6.557
 4011SOL    HW112932   5.684   6.760   6.651
 4011SOL    HW212933   5.577   6.841   6.558
 4012SOL     OW12934   5.257   5.129   1.251
 4012SOL    HW112935   5.279   5.032   1.252
 4012SOL    HW212936   5.265   5.166   1.344
 4013SOL     OW12937   6.820   1.837   6.808
 4013SOL    HW112938   6.776   1.830   6.898
 4013SOL    HW212939   6.896   1.901   6.813
 4014SOL     OW12940   3.005   6.579   2.682
 4014SOL    HW112941   2.951   6.502   2.716
 4014SOL    HW212942   3.029   6.564   2.587
 4015SOL     OW12943   3.831   6.405   4.559
 4015SOL    HW112944   3.901   6.473   4.578
 4015SOL    HW212945   3.830   6.337   4.632
 4016SOL     OW12946   4.565   5.086   4.272
 4016SOL    HW112947   4.524   5.107   4.361
 4016SOL    HW212948   4.618   5.165   4.241
 4017SOL     OW12949   1.949   6.089   5.919
 4017SOL    HW112950   1.920   5.994   5.911
 4017SOL    HW212951   2.044   6.097   5.890
 4018SOL     OW12952   5.214   5.250   0.590
 4018SOL    HW112953   5.174   5.306   0.517
 4018SOL    HW212954   5.207   5.153   0.566
 4019SOL     OW12955   0.344   2.288   3.270
 4019SOL    HW112956   0.298   2.245   3.348
 4019SOL    HW212957   0.289   2.276   3.188
 4020SOL     OW12958   6.927   5.822   4.041
 4020SOL    HW112959   6.913   5.802   4.138
 4020SOL    HW212960   6.893   5.745   3.986
 4021SOL     OW12961   4.953   5.238   5.825
 4021SOL    HW112962   4.927   5.307   5.892
 4021SOL    HW212963   5.017   5.174   5.866
 4022SOL     OW12964   3.484   7.004   1.516
 4022SOL    HW112965   3.417   7.009   1.590
 4022SOL    HW212966   3.452   0.044   1.439
 4023SOL     OW12967   0.620   1.852   4.401
 4023SOL    HW112968   0.681   1.893   4.469
 4023SOL    HW212969   0.637   1.894   4.312
 4024SOL     OW12970   0.662   6.575   6.414
 4024SOL    HW112971   0.687   6.668   6.387
 4024SOL    HW212972   0.735   6.512   6.390
 4025SOL     OW12973   0.809   4.042   4.597
 4025SOL    HW112974   0.742   4.101   4.643
 4025SOL    HW212975   0.802   4.055   4.498
 4026SOL     OW12976   0.675   6.702   4.431
 4026SOL    HW112977   0.679   6.603   4.448
 4026SOL    HW212978   0.736   6.726   4.356
 4027SOL     OW12979   2.870   5.509   5.093
 4027SOL    HW112980   2.796   5.573   5.116
 4027SOL    HW212981   2.841   5.451   5.017
 4028SOL     OW12982   4.750   1.670   4.716
 4028SOL    HW112983   4.684   1.635   4.783
 4028SOL    HW212984   4.841   1.672   4.756
 4029SOL     OW12985   1.744   6.600   0.536
 4029SOL    HW112986   1.731   6.501   0.533
 4029SOL    HW212987   1.802   6.624   0.613
 4030SOL     OW12988   0.854   1.274   1.765
 4030SOL    HW112989   0.872   1.364   1.725
 4030SOL    HW212990   0.771   1.278   1.820
 4031SOL     OW12991   5.996   5.750   0.778
 4031SOL    HW112992   5.917   5.692   0.758
 4031SOL    HW212993   6.079   5.695   0.769
 4032SOL     OW12994   4.888   1.953   1.987
 4032SOL    HW112995   4.898   1.881   2.056
 4032SOL    HW212996   4.820   2.019   2.018
 4033SOL     OW12997   1.588   3.621   2.659
 4033SOL    HW112998   1.681   3.592   2.682
 4033SOL    HW212999   1.539   3.645   2.744
 4034SOL     OW13000   2.372   2.236   4.704
 4034SOL    HW113001   2.318   2.318   4.687
 4034SOL    HW213002   2.335   2.159   4.651
 4035SOL     OW13003   3.788   2.525   1.682
 4035SOL    HW113004   3.744   2.455   1.737
 4035SOL    HW213005   3.774   2.615   1.724
 4036SOL     OW13006   4.216   6.341   3.503
 4036SOL    HW113007   4.185   6.265   3.446
 4036SOL    HW213008   4.313   6.360   3.485
 4037SOL     OW13009   2.054   1.305   6.346
 4037SOL    HW113010   1.962   1.267   6.331
 4037SOL    HW213011   2.047   1.403   6.363
 4038SOL     OW13012   3.907   5.036   5.908
 4038SOL    HW113013   3.960   4.993   5.981
 4038SOL    HW213014   3.925   5.135   5.908
 4039SOL     OW13015   6.363   4.757   1.364
 4039SOL    HW113016   6.444   4.795   1.407
 4039SOL    HW213017   6.344   4.667   1.403
 4040SOL     OW13018   2.197   6.911   4.996
 4040SOL    HW113019   2.203   6.894   5.095
 4040SOL    HW213020   2.118   6.969   4.977
 4041SOL     OW13021   1.345   6.183   1.494
 4041SOL    HW113022   1.316   6.113   1.559
 4041SOL    HW213023   1.440   6.208   1.510
 4042SOL     OW13024   0.879   1.532   3.899
 4042SOL    HW113025   0.815   1.455   3.900
 4042SOL    HW213026   0.967   1.502   3.863
 4043SOL     OW13027   3.652   2.563   5.752
 4043SOL    HW113028   3.598   2.481   5.769
 4043SOL    HW213029   3.600   2.625   5.693
 4044SOL     OW13030   4.514   4.537   3.077
 4044SOL    HW113031   4.476   4.563   2.988
 4044SOL    HW213032   4.442   4.541   3.146
 4045SOL     OW13033   4.580   1.258   5.114
 4045SOL    HW113034   4.586   1.239   5.016
 4045SOL    HW213035   4.484   1.270   5.140
 4046SOL     OW13036   4.975   1.059   3.733
 4046SOL    HW113037   4.913   1.135   3.712
 4046SOL    HW213038   4.926   0.973   3.722
 4047SOL     OW13039   2.865   2.518   6.304
 4047SOL    HW113040   2.836   2.456   6.232
 4047SOL    HW213041   2.859   2.613   6.272
 4048SOL     OW13042   4.854   2.004   3.574
 4048SOL    HW113043   4.858   2.100   3.547
 4048SOL    HW213044   4.937   1.980   3.624
 4049SOL     OW13045   3.987   3.851   1.701
 4049SOL    HW113046   3.976   3.772   1.641
 4049SOL    HW213047   3.994   3.820   1.796
 4050SOL     OW13048   6.735   4.679   3.477
 4050SOL    HW113049   6.757   4.686   3.574
 4050SOL    HW213050   6.797   4.614   3.433
 4051SOL     OW13051   5.977   1.250   4.267
 4051SOL    HW113052   5.925   1.195   4.332
 4051SOL    HW213053   5.962   1.347   4.285
 4052SOL     OW13054   4.819   1.511   4.194
 4052SOL    HW113055   4.803   1.496   4.292
 4052SOL    HW213056   4.822   1.609   4.176
 4053SOL     OW13057   0.458   4.410   3.353
 4053SOL    HW113058   0.510   4.461   3.422
 4053SOL    HW213059   0.445   4.468   3.272
 4054SOL     OW13060   5.062   4.069   1.516
 4054SOL    HW113061   5.097   4.092   1.425
 4054SOL    HW213062   4.977   4.119   1.533
 4055SOL     OW13063   0.177   4.612   0.090
 4055SOL    HW113064   0.269   4.623   0.052
 4055SOL    HW213065   0.113   4.595   0.015
 4056SOL     OW13066   4.479   3.949   0.090
 4056SOL    HW113067   4.470   3.877   0.159
 4056SOL    HW213068   4.499   4.036   0.135
 4057SOL     OW13069   0.104   4.394   6.077
 4057SOL    HW113070   0.013   4.367   6.107
 4057SOL    HW213071   0.125   4.485   6.110
 4058SOL     OW13072   3.818   0.816   4.306
 4058SOL    HW113073   3.741   0.836   4.246
 4058SOL    HW213074   3.804   0.860   4.395
 4059SOL     OW13075   1.212   1.408   4.058
 4059SOL    HW113076   1.136   1.396   4.121
 4059SOL    HW213077   1.189   1.369   3.969
 4060SOL     OW13078   0.074   6.491   4.154
 4060SOL    HW113079   6.996   6.507   4.187
 4060SOL    HW213080   0.098   6.395   4.168
 4061SOL     OW13081   1.738   4.215   2.277
 4061SOL    HW113082   1.711   4.145   2.211
 4061SOL    HW213083   1.694   4.197   2.365
 4062SOL     OW13084   2.476   4.449   0.297
 4062SOL    HW113085   2.526   4.518   0.351
 4062SOL    HW213086   2.403   4.410   0.353
 4063SOL     OW13087   3.492   0.772   0.859
 4063SOL    HW113088   3.572   0.712   0.863
 4063SOL    HW213089   3.509   0.854   0.913
 4064SOL     OW13090   2.426   0.503   4.988
 4064SOL    HW113091   2.473   0.459   4.912
 4064SOL    HW213092   2.467   0.592   5.007
 4065SOL     OW13093   2.569   1.518   1.225
 4065SOL    HW113094   2.505   1.533   1.149
 4065SOL    HW213095   2.610   1.605   1.251
 4066SOL     OW13096   0.579   3.217   4.578
 4066SOL    HW113097   0.507   3.224   4.647
 4066SOL    HW213098   0.587   3.122   4.549
 4067SOL     OW13099   6.216   4.309   0.496
 4067SOL    HW113100   6.222   4.211   0.480
 4067SOL    HW213101   6.271   4.334   0.576
 4068SOL     OW13102   1.962   2.892   5.527
 4068SOL    HW113103   2.052   2.869   5.488
 4068SOL    HW213104   1.909   2.943   5.459
 4069SOL     OW13105   4.186   0.115   5.628
 4069SOL    HW113106   4.126   0.081   5.556
 4069SOL    HW213107   4.244   0.041   5.661
 4070SOL     OW13108   1.686   3.820   4.247
 4070SOL    HW113109   1.729   3.908   4.228
 4070SOL    HW213110   1.699   3.796   4.343
 4071SOL     OW13111   1.815   0.532   4.894
 4071SOL    HW113112   1.792   0.460   4.959
 4071SOL    HW213113   1.861   0.607   4.941
 4072SOL     OW13114   2.929   6.842   2.784
 4072SOL    HW113115   2.962   6.751   2.761
 4072SOL    HW213116   2.936   6.901   2.703
 4073SOL     OW13117   4.410   5.032   6.571
 4073SOL    HW113118   4.417   4.979   6.655
 4073SOL    HW213119   4.476   5.107   6.573
 4074SOL     OW13120   1.649   5.745   2.451
 4074SOL    HW113121   1.578   5.675   2.442
 4074SOL    HW213122   1.713   5.738   2.375
 4075SOL     OW13123   6.080   0.751   6.994
 4075SOL    HW113124   5.981   0.736   7.001
 4075SOL    HW213125   6.098   0.847   6.973
 4076SOL     OW13126   1.991   6.209   3.608
 4076SOL    HW113127   2.070   6.225   3.549
 4076SOL    HW213128   2.016   6.145   3.681
 4077SOL     OW13129   2.557   1.884   1.534
 4077SOL    HW113130   2.584   1.944   1.460
 4077SOL    HW213131   2.550   1.936   1.619
 4078SOL     OW13132   4.410   5.149   2.118
 4078SOL    HW113133   4.447   5.167   2.209
 4078SOL    HW213134   4.484   5.127   2.055
 4079SOL     OW13135   0.538   1.911   4.112
 4079SOL    HW113136   0.491   1.831   4.073
 4079SOL    HW213137   0.534   1.987   4.046
 4080SOL     OW13138   6.005   1.794   4.455
 4080SOL    HW113139   6.002   1.875   4.397
 4080SOL    HW213140   6.066   1.727   4.415
 4081SOL     OW13141   6.904   3.410   2.772
 4081SOL    HW113142   6.971   3.445   2.838
 4081SOL    HW213143   6.814   3.406   2.816
 4082SOL     OW13144   0.329   3.369   0.235
 4082SOL    HW113145   0.282   3.310   0.300
 4082SOL    HW213146   0.401   3.421   0.282
 4083SOL     OW13147   6.898   3.332   5.265
 4083SOL    HW113148   6.810   3.293   5.292
 4083SOL    HW213149   6.884   3.420   5.221
 4084SOL     OW13150   5.358   0.926   4.443
 4084SOL    HW113151   5.416   0.983   4.385
 4084SOL    HW213152   5.318   0.853   4.389
 4085SOL     OW13153   3.169   5.096   6.920
 4085SOL    HW113154   3.242   5.162   6.901
 4085SOL    HW213155   3.209   5.011   6.956
 4086SOL     OW13156   0.782   2.790   1.547
 4086SOL    HW113157   0.871   2.834   1.538
 4086SOL    HW213158   0.713   2.843   1.498
 4087SOL     OW13159   2.086   1.393   3.239
 4087SOL    HW113160   2.180   1.364   3.222
 4087SOL    HW213161   2.065   1.473   3.182
 4088SOL     OW13162   0.024   2.504   6.598
 4088SOL    HW113163   0.091   2.489   6.671
 4088SOL    HW213164   6.954   2.459   6.622
 4089SOL     OW13165   0.487   1.398   5.806
 4089SOL    HW113166   0.483   1.378   5.708
 4089SOL    HW213167   0.462   1.317   5.858
 4090SOL     OW13168   3.468   5.363   6.392
 4090SOL    HW113169   3.460   5.271   6.431
 4090SOL    HW213170   3.377   5.405   6.387
 4091SOL     OW13171   4.339   6.644   1.629
 4091SOL    HW113172   4.437   6.663   1.626
 4091SOL    HW213173   4.319   6.566   1.570
 4092SOL     OW13174   1.093   1.555   4.327
 4092SOL    HW113175   1.042   1.596   4.252
 4092SOL    HW213176   1.110   1.624   4.398
 4093SOL     OW13177   5.096   6.682   4.351
 4093SOL    HW113178   5.030   6.608   4.339
 4093SOL    HW213179   5.066   6.741   4.426
 4094SOL     OW13180   3.350   3.474   6.482
 4094SOL    HW113181   3.358   3.471   6.582
 4094SOL    HW213182   3.430   3.519   6.443
 4095SOL     OW13183   1.601   3.583   5.774
 4095SOL    HW113184   1.674   3.568   5.841
 4095SOL    HW213185   1.587   3.681   5.762
 4096SOL     OW13186   4.518   4.985   1.881
 4096SOL    HW113187   4.458   4.965   1.804
 4096SOL    HW213188   4.479   4.947   1.965
 4097SOL     OW13189   3.691   4.148   3.436
 4097SOL    HW113190   3.661   4.243   3.427
 4097SOL    HW213191   3.666   4.113   3.526
 4098SOL     OW13192   1.100   3.501   2.136
 4098SOL    HW113193   1.052   3.492   2.049
 4098SOL    HW213194   1.155   3.419   2.153
 4099SOL     OW13195   2.632   6.264   1.704
 4099SOL    HW113196   2.533   6.245   1.707
 4099SOL    HW213197   2.659   6.281   1.609
 4100SOL     OW13198   3.703   0.119   2.829
 4100SOL    HW113199   3.631   0.058   2.862
 4100SOL    HW213200   3.792   0.086   2.860
 4101SOL     OW13201   4.501   1.866   6.533
 4101SOL    HW113202   4.428   1.845   6.598
 4101SOL    HW213203   4.579   1.806   6.551
 4102SOL     OW13204   4.387   1.579   6.121
 4102SOL    HW113205   4.439   1.494   6.115
 4102SOL    HW213206   4.450   1.654   6.142
 4103SOL     OW13207   6.927   0.392   1.733
 4103SOL    HW113208   6.923   0.415   1.831
 4103SOL    HW213209   6.982   0.460   1.685
 4104SOL     OW13210   2.237   4.326   2.202
 4104SOL    HW113211   2.145   4.314   2.163
 4104SOL    HW213212   2.286   4.396   2.150
 4105SOL     OW13213   6.238   5.506   0.332
 4105SOL    HW113214   6.282   5.543   0.414
 4105SOL    HW213215   6.143   5.537   0.329
 4106SOL     OW13216   0.083   3.854   4.604
 4106SOL    HW113217   0.068   3.903   4.690
 4106SOL    HW213218   0.143   3.776   4.620
 4107SOL     OW13219   0.340   0.922   0.940
 4107SOL    HW113220   0.363   1.019   0.927
 4107SOL    HW213221   0.289   0.889   0.861
 4108SOL     OW13222   6.022   2.410   5.137
 4108SOL    HW113223   6.018   2.414   5.237
 4108SOL    HW213224   6.074   2.329   5.109
 4109SOL     OW13225   2.418   6.651   3.790
 4109SOL    HW113226   2.478   6.661   3.869
 4109SOL    HW213227   2.365   6.735   3.778
 4110SOL     OW13228   4.796   3.288   5.208
 4110SOL    HW113229   4.888   3.275   5.244
 4110SOL    HW213230   4.776   3.386   5.200
 4111SOL     OW13231   3.909   3.000   6.085
 4111SOL    HW113232   3.929   2.904   6.107
 4111SOL    HW213233   3.842   3.003   6.010
 4112SOL     OW13234   4.485   0.281   5.867
 4112SOL    HW113235   4.405   0.273   5.807
 4112SOL    HW213236   4.557   0.331   5.820
 4113SOL     OW13237   3.877   5.429   4.700
 4113SOL    HW113238   3.950   5.471   4.755
 4113SOL    HW213239   3.908   5.418   4.606
 4114SOL     OW13240   3.717   1.888   3.370
 4114SOL    HW113241   3.793   1.841   3.416
 4114SOL    HW213242   3.639   1.826   3.363
 4115SOL     OW13243   4.836   3.919   3.002
 4115SOL    HW113244   4.788   4.006   2.993
 4115SOL    HW213245   4.846   3.876   2.913
 4116SOL     OW13246   3.087   0.900   2.265
 4116SOL    HW113247   3.158   0.859   2.322
 4116SOL    HW213248   3.126   0.975   2.212
 4117SOL     OW13249   0.986   5.932   1.330
 4117SOL    HW113250   0.957   5.927   1.426
 4117SOL    HW213251   0.924   5.877   1.274
 4118SOL     OW13252   1.494   0.127   6.827
 4118SOL    HW113253   1.454   0.201   6.882
 4118SOL    HW213254   1.430   0.050   6.824
 4119SOL     OW13255   5.565   1.945   3.116
 4119SOL    HW113256   5.637   2.009   3.090
 4119SOL    HW213257   5.555   1.945   3.215
 4120SOL     OW13258   5.496   1.397   2.142
 4120SOL    HW113259   5.440   1.420   2.222
 4120SOL    HW213260   5.590   1.378   2.172
 4121SOL     OW13261   6.024   2.255   4.348
 4121SOL    HW113262   6.074   2.211   4.423
 4121SOL    HW213263   5.970   2.331   4.384
 4122SOL     OW13264   2.175   5.201   6.874
 4122SOL    HW113265   2.268   5.190   6.908
 4122SOL    HW213266   2.162   5.294   6.840
 4123SOL     OW13267   3.968   3.848   5.302
 4123SOL    HW113268   4.063   3.828   5.277
 4123SOL    HW213269   3.906   3.792   5.246
 4124SOL     OW13270   4.478   6.357   3.379
 4124SOL    HW113271   4.423   6.274   3.384
 4124SOL    HW213272   4.550   6.345   3.310
 4125SOL     OW13273   4.465   1.294   1.848
 4125SOL    HW113274   4.437   1.229   1.918
 4125SOL    HW213275   4.551   1.338   1.876
 4126SOL     OW13276   1.786   4.050   4.851
 4126SOL    HW113277   1.879   4.026   4.880
 4126SOL    HW213278   1.721   3.987   4.895
 4127SOL     OW13279   5.468   4.461   4.498
 4127SOL    HW113280   5.432   4.523   4.567
 4127SOL    HW213281   5.512   4.513   4.425
 4128SOL     OW13282   0.121   1.633   1.776
 4128SOL    HW113283   0.099   1.648   1.680
 4128SOL    HW213284   0.122   1.721   1.824
 4129SOL     OW13285   6.938   2.922   6.822
 4129SOL    HW113286   6.964   2.987   6.894
 4129SOL    HW213287   6.996   2.936   6.741
 4130SOL     OW13288   6.368   1.880   1.542
 4130SOL    HW113289   6.413   1.936   1.472
 4130SOL    HW213290   6.430   1.867   1.619
 4131SOL     OW13291   6.762   3.348   3.018
 4131SOL    HW113292   6.850   3.361   3.063
 4131SOL    HW213293   6.689   3.383   3.077
 4132SOL     OW13294   4.674   1.925   4.645
 4132SOL    HW113295   4.742   1.980   4.694
 4132SOL    HW213296   4.687   1.829   4.667
 4133SOL     OW13297   2.612   2.562   1.260
 4133SOL    HW113298   2.570   2.566   1.169
 4133SOL    HW213299   2.685   2.494   1.261
 4134SOL     OW13300   2.168   0.935   6.929
 4134SOL    HW113301   2.219   0.866   6.877
 4134SOL    HW213302   2.230   0.986   6.987
 4135SOL     OW13303   1.529   0.472   0.724
 4135SOL    HW113304   1.552   0.376   0.706
 4135SOL    HW213305   1.475   0.477   0.808
 4136SOL     OW13306   0.955   1.843   3.636
 4136SOL    HW113307   0.986   1.775   3.569
 4136SOL    HW213308   0.864   1.820   3.668
 4137SOL     OW13309   4.115   3.216   5.238
 4137SOL    HW113310   4.071   3.256   5.318
 4137SOL    HW213311   4.188   3.154   5.267
 4138SOL     OW13312   5.012   5.681   1.508
 4138SOL    HW113313   4.995   5.740   1.429
 4138SOL    HW213314   5.063   5.600   1.479
 4139SOL     OW13315   2.986   1.990   0.473
 4139SOL    HW113316   3.076   2.034   0.480
 4139SOL    HW213317   2.984   1.933   0.391
 4140SOL     OW13318   4.694   1.888   5.341
 4140SOL    HW113319   4.730   1.934   5.260
 4140SOL    HW213320   4.624   1.822   5.313
 4141SOL     OW13321   5.515   6.104   1.196
 4141SOL    HW113322   5.594   6.096   1.136
 4141SOL    HW213323   5.532   6.176   1.263
 4142SOL     OW13324   5.893   3.109   1.671
 4142SOL    HW113325   5.922   3.138   1.762
 4142SOL    HW213326   5.947   3.156   1.601
 4143SOL     OW13327   0.535   3.056   1.758
 4143SOL    HW113328   0.570   3.132   1.703
 4143SOL    HW213329   0.612   2.999   1.788
 4144SOL     OW13330   3.798   1.131   1.986
 4144SOL    HW113331   3.768   1.155   1.893
 4144SOL    HW213332   3.764   1.040   2.009
 4145SOL     OW13333   2.976   0.153   3.271
 4145SOL    HW113334   2.966   0.064   3.226
 4145SOL    HW213335   3.073   0.169   3.293
 4146SOL     OW13336   4.851   4.279   0.525
 4146SOL    HW113337   4.752   4.287   0.540
 4146SOL    HW213338   4.881   4.187   0.550
 4147SOL     OW13339   2.396   1.813   5.895
 4147SOL    HW113340   2.304   1.823   5.856
 4147SOL    HW213341   2.432   1.722   5.873
 4148SOL     OW13342   0.139   0.117   2.370
 4148SOL    HW113343   0.067   0.174   2.332
 4148SOL    HW213344   0.107   0.078   2.457
 4149SOL     OW13345   4.832   4.184   2.114
 4149SOL    HW113346   4.742   4.228   2.120
 4149SOL    HW213347   4.851   4.137   2.200
 4150SOL     OW13348   4.198   0.240   5.216
 4150SOL    HW113349   4.183   0.268   5.121
 4150SOL    HW213350   4.271   0.294   5.257
 4151SOL     OW13351   0.399   5.528   0.408
 4151SOL    HW113352   0.378   5.585   0.328
 4151SOL    HW213353   0.460   5.578   0.469
 4152SOL     OW13354   3.360   4.017   1.107
 4152SOL    HW113355   3.330   3.942   1.165
 4152SOL    HW213356   3.366   3.987   1.012
 4153SOL     OW13357   6.181   5.831   6.024
 4153SOL    HW113358   6.119   5.907   6.004
 4153SOL    HW213359   6.129   5.747   6.032
 4154SOL     OW13360   4.605   2.584   4.597
 4154SOL    HW113361   4.614   2.629   4.686
 4154SOL    HW213362   4.534   2.514   4.602
 4155SOL     OW13363   1.497   2.944   0.462
 4155SOL    HW113364   1.428   2.940   0.535
 4155SOL    HW213365   1.452   2.940   0.373
 4156SOL     OW13366   5.929   0.491   5.070
 4156SOL    HW113367   5.884   0.567   5.116
 4156SOL    HW213368   6.026   0.510   5.059
 4157SOL     OW13369   3.433   0.888   3.404
 4157SOL    HW113370   3.356   0.947   3.430
 4157SOL    HW213371   3.464   0.913   3.312
 4158SOL     OW13372   1.254   0.599   3.495
 4158SOL    HW113373   1.170   0.551   3.518
 4158SOL    HW213374   1.236   0.697   3.486
 4159SOL     OW13375   0.180   4.636   5.258
 4159SOL    HW113376   0.213   4.673   5.345
 4159SOL    HW213377   0.147   4.710   5.201
 4160SOL     OW13378   0.161   0.782   0.754
 4160SOL    HW113379   0.159   0.842   0.673
 4160SOL    HW213380   0.086   0.806   0.815
 4161SOL     OW13381   5.980   1.970   1.314
 4161SOL    HW113382   6.063   1.916   1.299
 4161SOL    HW213383   5.902   1.925   1.271
 4162SOL     OW13384   0.992   6.923   5.547
 4162SOL    HW113385   1.072   6.900   5.492
 4162SOL    HW213386   1.011   6.907   5.643
 4163SOL     OW13387   6.761   1.612   5.429
 4163SOL    HW113388   6.739   1.643   5.521
 4163SOL    HW213389   6.685   1.632   5.367
 4164SOL     OW13390   2.882   6.603   5.670
 4164SOL    HW113391   2.841   6.606   5.579
 4164SOL    HW213392   2.981   6.617   5.662
 4165SOL     OW13393   2.014   6.248   1.753
 4165SOL    HW113394   2.003   6.149   1.743
 4165SOL    HW213395   1.980   6.293   1.670
 4166SOL     OW13396   6.160   2.118   2.293
 4166SOL    HW113397   6.100   2.095   2.370
 4166SOL    HW213398   6.105   2.136   2.212
 4167SOL     OW13399   1.745   2.525   1.058
 4167SOL    HW113400   1.725   2.561   1.149
 4167SOL    HW213401   1.811   2.450   1.065
 4168SOL     OW13402   2.258   5.684   0.981
 4168SOL    HW113403   2.294   5.621   0.912
 4168SOL    HW213404   2.163   5.661   1.000
 4169SOL     OW13405   6.427   3.353   6.889
 4169SOL    HW113406   6.421   3.447   6.921
 4169SOL    HW213407   6.339   3.326   6.849
 4170SOL     OW13408   3.326   1.207   5.745
 4170SOL    HW113409   3.299   1.111   5.748
 4170SOL    HW213410   3.245   1.264   5.728
 4171SOL     OW13411   6.280   3.237   1.619
 4171SOL    HW113412   6.247   3.294   1.695
 4171SOL    HW213413   6.320   3.295   1.548
 4172SOL     OW13414   3.007   0.873   1.213
 4172SOL    HW113415   3.097   0.853   1.250
 4172SOL    HW213416   2.944   0.896   1.287
 4173SOL     OW13417   4.137   3.576   5.700
 4173SOL    HW113418   4.188   3.657   5.671
 4173SOL    HW213419   4.146   3.564   5.799
 4174SOL     OW13420   5.181   0.886   3.239
 4174SOL    HW113421   5.251   0.953   3.213
 4174SOL    HW213422   5.090   0.926   3.225
 4175SOL     OW13423   2.285   1.398   2.455
 4175SOL    HW113424   2.230   1.329   2.408
 4175SOL    HW213425   2.375   1.403   2.412
 4176SOL     OW13426   5.995   4.617   2.796
 4176SOL    HW113427   5.935   4.538   2.787
 4176SOL    HW213428   5.945   4.692   2.841
 4177SOL     OW13429   6.815   5.410   3.178
 4177SOL    HW113430   6.851   5.324   3.214
 4177SOL    HW213431   6.729   5.391   3.129
 4178SOL     OW13432   4.315   2.390   5.546
 4178SOL    HW113433   4.391   2.341   5.589
 4178SOL    HW213434   4.248   2.416   5.615
 4179SOL     OW13435   6.564   1.973   0.449
 4179SOL    HW113436   6.480   1.933   0.484
 4179SOL    HW213437   6.610   2.024   0.522
 4180SOL     OW13438   5.262   3.884   1.549
 4180SOL    HW113439   5.269   3.827   1.631
 4180SOL    HW213440   5.169   3.918   1.540
 4181SOL     OW13441   6.176   1.135   1.006
 4181SOL    HW113442   6.102   1.096   0.952
 4181SOL    HW213443   6.258   1.079   0.997
 4182SOL     OW13444   6.037   0.910   3.497
 4182SOL    HW113445   6.121   0.937   3.546
 4182SOL    HW213446   6.047   0.931   3.400
 4183SOL     OW13447   1.140   0.797   1.841
 4183SOL    HW113448   1.165   0.737   1.765
 4183SOL    HW213449   1.110   0.885   1.805
 4184SOL     OW13450   4.551   4.565   6.222
 4184SOL    HW113451   4.564   4.471   6.253
 4184SOL    HW213452   4.454   4.582   6.205
 4185SOL     OW13453   0.383   0.509   3.853
 4185SOL    HW113454   0.426   0.421   3.871
 4185SOL    HW213455   0.390   0.530   3.755
 4186SOL     OW13456   3.514   4.181   1.866
 4186SOL    HW113457   3.584   4.143   1.806
 4186SOL    HW213458   3.553   4.199   1.956
 4187SOL     OW13459   4.367   5.123   6.310
 4187SOL    HW113460   4.337   5.217   6.325
 4187SOL    HW213461   4.381   5.079   6.399
 4188SOL     OW13462   4.858   5.643   3.347
 4188SOL    HW113463   4.921   5.715   3.319
 4188SOL    HW213464   4.909   5.558   3.363
 4189SOL     OW13465   1.406   3.390   3.122
 4189SOL    HW113466   1.457   3.456   3.066
 4189SOL    HW213467   1.398   3.304   3.073
 4190SOL     OW13468   2.304   0.026   1.713
 4190SOL    HW113469   2.237   0.074   1.656
 4190SOL    HW213470   2.282   6.945   1.717
 4191SOL     OW13471   0.424   2.213   3.784
 4191SOL    HW113472   0.415   2.309   3.810
 4191SOL    HW213473   0.494   2.169   3.841
 4192SOL     OW13474   6.182   6.484   3.663
 4192SOL    HW113475   6.098   6.430   3.654
 4192SOL    HW213476   6.225   6.464   3.751
 4193SOL     OW13477   1.389   6.738   4.150
 4193SOL    HW113478   1.306   6.787   4.176
 4193SOL    HW213479   1.369   6.677   4.073
 4194SOL     OW13480   5.258   0.019   3.032
 4194SOL    HW113481   5.249   6.936   3.020
 4194SOL    HW213482   5.291   0.039   3.124
 4195SOL     OW13483   4.618   0.188   3.732
 4195SOL    HW113484   4.595   0.189   3.635
 4195SOL    HW213485   4.547   0.234   3.785
 4196SOL     OW13486   4.768   2.128   3.235
 4196SOL    HW113487   4.759   2.030   3.252
 4196SOL    HW213488   4.751   2.147   3.138
 4197SOL     OW13489   5.168   4.070   4.406
 4197SOL    HW113490   5.084   4.016   4.402
 4197SOL    HW213491   5.219   4.046   4.489
 4198SOL     OW13492   6.282   3.152   5.721
 4198SOL    HW113493   6.303   3.083   5.790
 4198SOL    HW213494   6.367   3.181   5.676
 4199SOL     OW13495   2.855   3.973   5.895
 4199SOL    HW113496   2.784   3.964   5.826
 4199SOL    HW213497   2.881   4.070   5.904
 4200SOL     OW13498   3.295   0.303   6.861
 4200SOL    HW113499   3.260   0.303   6.955
 4200SOL    HW213500   3.389   0.269   6.861
 4201SOL     OW13501   6.559   0.145   4.707
 4201SOL    HW113502   6.565   0.240   4.739
 4201SOL    HW213503   6.618   0.134   4.627
 4202SOL     OW13504   5.696   2.975   4.972
 4202SOL    HW113505   5.794   2.982   4.955
 4202SOL    HW213506   5.664   3.057   5.018
 4203SOL     OW13507   4.025   5.610   4.825
 4203SOL    HW113508   3.975   5.678   4.771
 4203SOL    HW213509   3.974   5.589   4.908
 4204SOL     OW13510   1.740   4.115   0.402
 4204SOL    HW113511   1.827   4.089   0.445
 4204SOL    HW213512   1.684   4.165   0.468
 4205SOL     OW13513   2.663   6.189   3.532
 4205SOL    HW113514   2.682   6.175   3.629
 4205SOL    HW213515   2.743   6.231   3.488
 4206SOL     OW13516   4.919   6.222   3.852
 4206SOL    HW113517   4.905   6.123   3.849
 4206SOL    HW213518   5.013   6.241   3.882
 4207SOL     OW13519   1.318   6.281   0.174
 4207SOL    HW113520   1.342   6.196   0.128
 4207SOL    HW213521   1.286   6.347   0.106
 4208SOL     OW13522   0.522   2.323   1.601
 4208SOL    HW113523   0.586   2.397   1.577
 4208SOL    HW213524   0.492   2.335   1.696
 4209SOL     OW13525   2.898   0.086   5.545
 4209SOL    HW113526   2.893   0.026   5.625
 4209SOL    HW213527   2.820   0.149   5.547
 4210SOL     OW13528   3.592   3.094   0.581
 4210SOL    HW113529   3.499   3.130   0.589
 4210SOL    HW213530   3.630   3.078   0.672
 4211SOL     OW13531   5.666   3.504   4.284
 4211SOL    HW113532   5.708   3.415   4.300
 4211SOL    HW213533   5.635   3.544   4.370
 4212SOL     OW13534   5.939   7.007   2.074
 4212SOL    HW113535   5.941   6.952   1.991
 4212SOL    HW213536   6.028   0.034   2.088
 4213SOL     OW13537   0.651   6.775   1.133
 4213SOL    HW113538   0.585   6.782   1.058
 4213SOL    HW213539   0.744   6.776   1.095
 4214SOL     OW13540   2.463   5.808   3.580
 4214SOL    HW113541   2.553   5.779   3.612
 4214SOL    HW213542   2.463   5.907   3.566
 4215SOL     OW13543   1.376   5.832   6.742
 4215SOL    HW113544   1.382   5.926   6.706
 4215SOL    HW213545   1.461   5.783   6.722
 4216SOL     OW13546   2.735   2.742   5.382
 4216SOL    HW113547   2.810   2.804   5.355
 4216SOL    HW213548   2.647   2.785   5.361
 4217SOL     OW13549   6.711   0.908   4.296
 4217SOL    HW113550   6.657   0.941   4.374
 4217SOL    HW213551   6.765   0.984   4.259
 4218SOL     OW13552   3.184   5.509   2.452
 4218SOL    HW113553   3.242   5.465   2.520
 4218SOL    HW213554   3.200   5.466   2.363
 4219SOL     OW13555   4.853   0.113   2.878
 4219SOL    HW113556   4.842   0.142   2.783
 4219SOL    HW213557   4.932   0.158   2.919
 4220SOL     OW13558   0.110   4.529   2.709
 4220SOL    HW113559   0.096   4.589   2.631
 4220SOL    HW213560   0.061   4.443   2.695
 4221SOL     OW13561   5.350   6.505   6.329
 4221SOL    HW113562   5.292   6.465   6.259
 4221SOL    HW213563   5.336   6.456   6.416
 4222SOL     OW13564   2.579   2.598   6.980
 4222SOL    HW113565   2.592   2.674   0.028
 4222SOL    HW213566   2.629   2.616   6.896
 4223SOL     OW13567   3.806   4.004   3.252
 4223SOL    HW113568   3.862   3.937   3.302
 4223SOL    HW213569   3.768   4.071   3.316
 4224SOL     OW13570   3.560   2.147   5.572
 4224SOL    HW113571   3.644   2.095   5.589
 4224SOL    HW213572   3.575   2.209   5.494
 4225SOL     OW13573   5.266   6.910   4.743
 4225SOL    HW113574   5.214   6.902   4.658
 4225SOL    HW213575   5.360   6.940   4.723
 4226SOL     OW13576   2.625   2.076   2.214
 4226SOL    HW113577   2.622   2.171   2.183
 4226SOL    HW213578   2.703   2.029   2.171
 4227SOL     OW13579   5.307   4.256   0.314
 4227SOL    HW113580   5.245   4.242   0.237
 4227SOL    HW213581   5.340   4.351   0.314
 4228SOL     OW13582   4.155   5.465   3.176
 4228SOL    HW113583   4.163   5.483   3.078
 4228SOL    HW213584   4.188   5.545   3.227
 4229SOL     OW13585   3.838   5.000   4.833
 4229SOL    HW113586   3.937   5.014   4.830
 4229SOL    HW213587   3.815   4.939   4.909
 4230SOL     OW13588   2.268   0.963   6.115
 4230SOL    HW113589   2.316   1.050   6.103
 4230SOL    HW213590   2.235   0.930   6.027
 4231SOL     OW13591   3.846   6.094   6.299
 4231SOL    HW113592   3.854   6.139   6.388
 4231SOL    HW213593   3.858   5.995   6.311
 4232SOL     OW13594   1.178   4.007   1.355
 4232SOL    HW113595   1.231   4.034   1.436
 4232SOL    HW213596   1.208   4.060   1.276
 4233SOL     OW13597   5.433   5.402   1.339
 4233SOL    HW113598   5.361   5.334   1.329
 4233SOL    HW213599   5.521   5.356   1.349
 4234SOL     OW13600   3.827   3.542   5.914
 4234SOL    HW113601   3.903   3.607   5.903
 4234SOL    HW213602   3.754   3.566   5.850
 4235SOL     OW13603   0.503   3.983   4.806
 4235SOL    HW113604   0.545   4.074   4.807
 4235SOL    HW213605   0.556   3.923   4.747
 4236SOL     OW13606   1.079   3.935   4.559
 4236SOL    HW113607   0.984   3.949   4.586
 4236SOL    HW213608   1.100   3.992   4.479
 4237SOL     OW13609   5.560   3.602   5.513
 4237SOL    HW113610   5.620   3.605   5.434
 4237SOL    HW213611   5.471   3.564   5.487
 4238SOL     OW13612   4.869   4.678   5.066
 4238SOL    HW113613   4.850   4.774   5.048
 4238SOL    HW213614   4.865   4.662   5.165
 4239SOL     OW13615   5.103   5.409   5.391
 4239SOL    HW113616   5.093   5.414   5.292
 4239SOL    HW213617   5.184   5.355   5.414
 4240SOL     OW13618   2.501   5.001   6.012
 4240SOL    HW113619   2.522   5.060   6.091
 4240SOL    HW213620   2.581   4.944   5.992
 4241SOL     OW13621   3.178   2.106   1.332
 4241SOL    HW113622   3.256   2.123   1.393
 4241SOL    HW213623   3.099   2.077   1.386
 4242SOL     OW13624   2.320   0.481   1.704
 4242SOL    HW113625   2.392   0.546   1.730
 4242SOL    HW213626   2.238   0.500   1.757
 4243SOL     OW13627   1.952   2.177   1.887
 4243SOL    HW113628   1.871   2.228   1.857
 4243SOL    HW213629   1.923   2.101   1.944
 4244SOL     OW13630   2.838   7.014   0.840
 4244SOL    HW113631   2.839   6.975   0.748
 4244SOL    HW213632   2.931   0.024   0.867
 4245SOL     OW13633   0.310   1.612   0.987
 4245SOL    HW113634   0.342   1.706   0.985
 4245SOL    HW213635   0.210   1.611   0.987
 4246SOL     OW13636   4.239   1.977   3.684
 4246SOL    HW113637   4.160   1.918   3.702
 4246SOL    HW213638   4.212   2.051   3.623
 4247SOL     OW13639   2.543   5.484   6.511
 4247SOL    HW113640   2.536   5.391   6.548
 4247SOL    HW213641   2.463   5.503   6.454
 4248SOL     OW13642   2.775   0.132   2.744
 4248SOL    HW113643   2.722   0.192   2.684
 4248SOL    HW213644   2.844   0.186   2.791
 4249SOL     OW13645   5.940   0.869   5.128
 4249SOL    HW113646   6.033   0.904   5.142
 4249SOL    HW213647   5.890   0.931   5.068
 4250SOL     OW13648   0.862   5.534   4.212
 4250SOL    HW113649   0.932   5.597   4.246
 4250SOL    HW213650   0.856   5.455   4.274
 4251SOL     OW13651   4.770   1.828   5.019
 4251SOL    HW113652   4.679   1.792   5.001
 4251SOL    HW213653   4.765   1.926   5.036
 4252SOL     OW13654   0.716   6.856   6.372
 4252SOL    HW113655   0.815   6.865   6.357
 4252SOL    HW213656   0.688   6.915   6.448
 4253SOL     OW13657   4.311   6.962   2.960
 4253SOL    HW113658   4.238   6.893   2.966
 4253SOL    HW213659   4.364   6.947   2.876
 4254SOL     OW13660   1.059   1.147   5.398
 4254SOL    HW113661   0.971   1.186   5.424
 4254SOL    HW213662   1.084   1.179   5.306
 4255SOL     OW13663   1.152   3.090   4.161
 4255SOL    HW113664   1.172   3.044   4.075
 4255SOL    HW213665   1.202   3.045   4.236
 4256SOL     OW13666   5.913   6.268   1.060
 4256SOL    HW113667   5.885   6.280   0.965
 4256SOL    HW213668   5.894   6.173   1.088
 4257SOL     OW13669   0.224   1.018   2.011
 4257SOL    HW113670   0.228   1.118   2.022
 4257SOL    HW213671   0.283   0.975   2.079
 4258SOL     OW13672   2.713   5.706   1.115
 4258SOL    HW113673   2.706   5.640   1.191
 4258SOL    HW213674   2.810   5.723   1.096
 4259SOL     OW13675   0.597   6.413   0.492
 4259SOL    HW113676   0.694   6.391   0.484
 4259SOL    HW213677   0.544   6.343   0.444
 4260SOL     OW13678   0.347   0.706   5.263
 4260SOL    HW113679   0.407   0.770   5.214
 4260SOL    HW213680   0.326   0.628   5.204
 4261SOL     OW13681   2.368   6.852   3.525
 4261SOL    HW113682   2.309   6.803   3.461
 4261SOL    HW213683   2.456   6.871   3.481
 4262SOL     OW13684   1.528   3.680   4.801
 4262SOL    HW113685   1.446   3.688   4.744
 4262SOL    HW213686   1.607   3.662   4.742
 4263SOL     OW13687   3.621   0.576   2.569
 4263SOL    HW113688   3.702   0.569   2.628
 4263SOL    HW213689   3.617   0.667   2.529
 4264SOL     OW13690   4.554   2.083   6.746
 4264SOL    HW113691   4.536   2.026   6.666
 4264SOL    HW213692   4.644   2.126   6.737
 4265SOL     OW13693   3.299   6.444   6.833
 4265SOL    HW113694   3.252   6.501   6.765
 4265SOL    HW213695   3.232   6.404   6.895
 4266SOL     OW13696   1.398   4.443   2.456
 4266SOL    HW113697   1.351   4.374   2.512
 4266SOL    HW213698   1.489   4.459   2.493
 4267SOL     OW13699   2.088   3.704   3.791
 4267SOL    HW113700   2.003   3.656   3.770
 4267SOL    HW213701   2.127   3.742   3.707
 4268SOL     OW13702   1.349   3.891   6.050
 4268SOL    HW113703   1.416   3.919   6.119
 4268SOL    HW213704   1.315   3.800   6.073
 4269SOL     OW13705   2.208   1.504   4.362
 4269SOL    HW113706   2.179   1.427   4.306
 4269SOL    HW213707   2.215   1.586   4.305
 4270SOL     OW13708   3.994   4.246   1.193
 4270SOL    HW113709   3.910   4.209   1.233
 4270SOL    HW213710   4.072   4.223   1.251
 4271SOL     OW13711   6.352   0.390   0.469
 4271SOL    HW113712   6.439   0.368   0.425
 4271SOL    HW213713   6.333   0.322   0.540
 4272SOL     OW13714   6.196   1.648   5.439
 4272SOL    HW113715   6.241   1.619   5.523
 4272SOL    HW213716   6.203   1.575   5.370
 4273SOL     OW13717   3.558   5.844   3.667
 4273SOL    HW113718   3.535   5.746   3.665
 4273SOL    HW213719   3.598   5.871   3.580
 4274SOL     OW13720   6.851   0.225   1.494
 4274SOL    HW113721   6.872   0.293   1.565
 4274SOL    HW213722   6.801   0.269   1.420
 4275SOL     OW13723   5.908   1.518   4.357
 4275SOL    HW113724   5.835   1.581   4.384
 4275SOL    HW213725   5.943   1.471   4.439
 4276SOL     OW13726   1.495   0.993   2.789
 4276SOL    HW113727   1.476   1.055   2.713
 4276SOL    HW213728   1.585   1.015   2.827
 4277SOL     OW13729   6.097   5.320   2.740
 4277SOL    HW113730   6.005   5.282   2.732
 4277SOL    HW213731   6.161   5.246   2.763
 4278SOL     OW13732   0.644   0.136   1.314
 4278SOL    HW113733   0.593   0.217   1.340
 4278SOL    HW213734   0.586   0.055   1.327
 4279SOL     OW13735   1.127   3.443   3.006
 4279SOL    HW113736   1.129   3.427   2.907
 4279SOL    HW213737   1.211   3.407   3.047
 4280SOL     OW13738   3.220   6.358   6.451
 4280SOL    HW113739   3.300   6.416   6.434
 4280SOL    HW213740   3.174   6.388   6.534
 4281SOL     OW13741   6.927   6.682   2.669
 4281SOL    HW113742   6.843   6.630   2.687
 4281SOL    HW213743   6.987   6.676   2.748
 4282SOL     OW13744   5.239   4.734   2.223
 4282SOL    HW113745   5.262   4.721   2.126
 4282SOL    HW213746   5.298   4.805   2.262
 4283SOL     OW13747   6.051   1.464   4.953
 4283SOL    HW113748   6.019   1.556   4.930
 4283SOL    HW213749   6.132   1.442   4.899
 4284SOL     OW13750   4.760   6.083   0.043
 4284SOL    HW113751   4.742   5.997   0.091
 4284SOL    HW213752   4.769   6.157   0.110
 4285SOL     OW13753   2.818   1.089   6.194
 4285SOL    HW113754   2.783   1.158   6.257
 4285SOL    HW213755   2.742   1.046   6.146
 4286SOL     OW13756   5.516   6.176   6.932
 4286SOL    HW113757   5.453   6.154   7.007
 4286SOL    HW213758   5.540   6.273   6.938
 4287SOL     OW13759   4.523   0.460   1.121
 4287SOL    HW113760   4.477   0.372   1.110
 4287SOL    HW213761   4.572   0.482   1.037
 4288SOL     OW13762   0.298   6.843   2.347
 4288SOL    HW113763   0.373   6.786   2.314
 4288SOL    HW213764   0.243   6.793   2.413
 4289SOL     OW13765   0.342   4.335   5.886
 4289SOL    HW113766   0.320   4.372   5.796
 4289SOL    HW213767   0.261   4.341   5.945
 4290SOL     OW13768   0.194   0.797   2.923
 4290SOL    HW113769   0.117   0.826   2.867
 4290SOL    HW213770   0.196   0.698   2.929
 4291SOL     OW13771   4.506   5.015   6.061
 4291SOL    HW113772   4.548   5.082   6.123
 4291SOL    HW213773   4.574   4.946   6.037
 4292SOL     OW13774   6.539   0.119   0.509
 4292SOL    HW113775   6.457   0.075   0.547
 4292SOL    HW213776   6.621   0.075   0.546
 4293SOL     OW13777   4.044   2.736   5.667
 4293SOL    HW113778   4.140   2.761   5.677
 4293SOL    HW213779   3.996   2.808   5.616
 4294SOL     OW13780   3.349   2.148   0.157
 4294SOL    HW113781   3.332   2.129   0.253
 4294SOL    HW213782   3.349   2.247   0.142
 4295SOL     OW13783   3.964   6.503   2.555
 4295SOL    HW113784   4.059   6.486   2.530
 4295SOL    HW213785   3.904   6.474   2.481
 4296SOL     OW13786   2.217   5.529   1.877
 4296SOL    HW113787   2.198   5.572   1.965
 4296SOL    HW213788   2.226   5.430   1.889
 4297SOL     OW13789   4.948   4.633   6.887
 4297SOL    HW113790   5.046   4.637   6.866
 4297SOL    HW213791   4.927   4.696   6.961
 4298SOL     OW13792   2.535   6.165   0.350
 4298SOL    HW113793   2.495   6.087   0.398
 4298SOL    HW213794   2.467   6.205   0.288
 4299SOL     OW13795   0.100   3.432   6.439
 4299SOL    HW113796   0.196   3.415   6.416
 4299SOL    HW213797   0.053   3.469   6.359
 4300SOL     OW13798   3.695   0.879   1.963
 4300SOL    HW113799   3.628   0.896   2.036
 4300SOL    HW213800   3.756   0.805   1.991
 4301SOL     OW13801   1.926   6.210   4.485
 4301SOL    HW113802   1.916   6.305   4.515
 4301SOL    HW213803   1.893   6.149   4.556
 4302SOL     OW13804   4.382   5.180   0.184
 4302SOL    HW113805   4.423   5.235   0.257
 4302SOL    HW213806   4.288   5.158   0.207
 4303SOL     OW13807   4.686   4.587   3.293
 4303SOL    HW113808   4.614   4.586   3.224
 4303SOL    HW213809   4.646   4.594   3.384
 4304SOL     OW13810   3.340   4.319   1.680
 4304SOL    HW113811   3.393   4.257   1.737
 4304SOL    HW213812   3.390   4.404   1.667
 4305SOL     OW13813   0.988   6.822   5.802
 4305SOL    HW113814   1.016   6.748   5.864
 4305SOL    HW213815   0.888   6.822   5.792
 4306SOL     OW13816   6.569   3.668   5.132
 4306SOL    HW113817   6.607   3.670   5.225
 4306SOL    HW213818   6.504   3.744   5.122
 4307SOL     OW13819   6.655   1.552   4.388
 4307SOL    HW113820   6.585   1.527   4.455
 4307SOL    HW213821   6.732   1.594   4.435
 4308SOL     OW13822   4.462   5.646   5.957
 4308SOL    HW113823   4.445   5.585   5.879
 4308SOL    HW213824   4.449   5.741   5.927
 4309SOL     OW13825   3.115   2.035   0.927
 4309SOL    HW113826   3.096   2.132   0.912
 4309SOL    HW213827   3.069   1.980   0.857
 4310SOL     OW13828   6.399   1.190   4.257
 4310SOL    HW113829   6.436   1.214   4.347
 4310SOL    HW213830   6.346   1.105   4.265
 4311SOL     OW13831   1.135   6.689   1.422
 4311SOL    HW113832   1.094   6.723   1.506
 4311SOL    HW213833   1.090   6.603   1.396
 4312SOL     OW13834   0.650   3.148   2.688
 4312SOL    HW113835   0.618   3.231   2.643
 4312SOL    HW213836   0.614   3.068   2.639
 4313SOL     OW13837   0.909   3.303   0.777
 4313SOL    HW113838   0.990   3.329   0.830
 4313SOL    HW213839   0.843   3.259   0.838
 4314SOL     OW13840   2.714   1.342   5.797
 4314SOL    HW113841   2.789   1.387   5.844
 4314SOL    HW213842   2.730   1.243   5.795
 4315SOL     OW13843   2.814   2.304   5.443
 4315SOL    HW113844   2.910   2.331   5.436
 4315SOL    HW213845   2.766   2.366   5.504
 4316SOL     OW13846   4.441   4.340   1.311
 4316SOL    HW113847   4.362   4.281   1.329
 4316SOL    HW213848   4.413   4.415   1.251
 4317SOL     OW13849   5.265   0.247   3.805
 4317SOL    HW113850   5.316   0.193   3.739
 4317SOL    HW213851   5.172   0.212   3.814
 4318SOL     OW13852   1.900   6.120   4.046
 4318SOL    HW113853   1.968   6.085   3.982
 4318SOL    HW213854   1.812   6.132   3.999
 4319SOL     OW13855   2.277   4.665   1.202
 4319SOL    HW113856   2.275   4.765   1.193
 4319SOL    HW213857   2.284   4.640   1.299
 4320SOL     OW13858   4.071   1.343   1.999
 4320SOL    HW113859   4.065   1.442   2.011
 4320SOL    HW213860   4.100   1.323   1.906
 4321SOL     OW13861   6.220   6.033   3.104
 4321SOL    HW113862   6.240   6.063   3.197
 4321SOL    HW213863   6.180   6.108   3.051
 4322SOL     OW13864   2.876   1.880   4.460
 4322SOL    HW113865   2.883   1.978   4.481
 4322SOL    HW213866   2.874   1.828   4.545
 4323SOL     OW13867   5.217   4.266   1.661
 4323SOL    HW113868   5.138   4.237   1.608
 4323SOL    HW213869   5.273   4.186   1.684
 4324SOL     OW13870   6.586   3.976   5.485
 4324SOL    HW113871   6.629   3.903   5.537
 4324SOL    HW213872   6.492   3.950   5.462
 4325SOL     OW13873   1.506   0.834   0.941
 4325SOL    HW113874   1.541   0.920   0.904
 4325SOL    HW213875   1.529   0.827   1.038
 4326SOL     OW13876   4.989   2.612   2.144
 4326SOL    HW113877   4.939   2.690   2.182
 4326SOL    HW213878   4.998   2.541   2.214
 4327SOL     OW13879   2.862   6.727   4.107
 4327SOL    HW113880   2.860   6.795   4.033
 4327SOL    HW213881   2.837   6.638   4.071
 4328SOL     OW13882   5.960   0.378   2.308
 4328SOL    HW113883   5.937   0.299   2.252
 4328SOL    HW213884   5.972   0.458   2.249
 4329SOL     OW13885   5.771   3.983   0.325
 4329SOL    HW113886   5.696   4.007   0.264
 4329SOL    HW213887   5.849   4.045   0.308
 4330SOL     OW13888   2.732   6.029   5.111
 4330SOL    HW113889   2.671   6.105   5.136
 4330SOL    HW213890   2.681   5.960   5.060
 4331SOL     OW13891   6.112   1.458   2.843
 4331SOL    HW113892   6.205   1.488   2.863
 4331SOL    HW213893   6.105   1.359   2.855
 4332SOL     OW13894   0.236   5.890   1.354
 4332SOL    HW113895   0.208   5.958   1.422
 4332SOL    HW213896   0.156   5.854   1.307
 4333SOL     OW13897   3.883   2.987   5.766
 4333SOL    HW113898   3.947   3.063   5.781
 4333SOL    HW213899   3.896   2.950   5.674
 4334SOL     OW13900   0.161   2.245   3.491
 4334SOL    HW113901   0.163   2.147   3.511
 4334SOL    HW213902   0.091   2.290   3.547
 4335SOL     OW13903   2.123   3.340   1.496
 4335SOL    HW113904   2.151   3.373   1.405
 4335SOL    HW213905   2.204   3.317   1.549
 4336SOL     OW13906   2.220   5.235   5.492
 4336SOL    HW113907   2.262   5.161   5.546
 4336SOL    HW213908   2.206   5.204   5.398
 4337SOL     OW13909   0.233   4.440   4.224
 4337SOL    HW113910   0.200   4.426   4.130
 4337SOL    HW213911   0.231   4.353   4.272
 4338SOL     OW13912   3.372   3.103   5.531
 4338SOL    HW113913   3.456   3.056   5.505
 4338SOL    HW213914   3.386   3.202   5.529
 4339SOL     OW13915   3.569   4.003   5.343
 4339SOL    HW113916   3.618   3.928   5.388
 4339SOL    HW213917   3.634   4.076   5.321
 4340SOL     OW13918   6.870   4.302   0.077
 4340SOL    HW113919   6.956   4.270   0.118
 4340SOL    HW213920   6.799   4.305   0.146
 4341SOL     OW13921   6.002   6.368   1.689
 4341SOL    HW113922   6.085   6.392   1.638
 4341SOL    HW213923   5.986   6.437   1.760
 4342SOL     OW13924   4.949   3.438   2.042
 4342SOL    HW113925   4.880   3.451   1.971
 4342SOL    HW213926   4.961   3.341   2.060
 4343SOL     OW13927   4.517   6.828   6.232
 4343SOL    HW113928   4.596   6.871   6.189
 4343SOL    HW213929   4.490   6.748   6.179
 4344SOL     OW13930   1.346   3.998   1.832
 4344SOL    HW113931   1.440   3.982   1.802
 4344SOL    HW213932   1.334   3.960   1.924
 4345SOL     OW13933   4.128   3.306   2.677
 4345SOL    HW113934   4.204   3.371   2.668
 4345SOL    HW213935   4.061   3.322   2.604
 4346SOL     OW13936   0.712   3.524   2.484
 4346SOL    HW113937   0.708   3.482   2.393
 4346SOL    HW213938   0.794   3.494   2.532
 4347SOL     OW13939   5.998   6.047   1.419
 4347SOL    HW113940   5.920   6.106   1.439
 4347SOL    HW213941   5.967   5.952   1.411
 4348SOL     OW13942   6.401   4.359   6.334
 4348SOL    HW113943   6.399   4.310   6.422
 4348SOL    HW213944   6.484   4.414   6.328
 4349SOL     OW13945   0.938   3.511   3.770
 4349SOL    HW113946   0.994   3.592   3.752
 4349SOL    HW213947   0.966   3.470   3.857
 4350SOL     OW13948   5.351   0.008   3.674
 4350SOL    HW113949   5.386   6.950   3.615
 4350SOL    HW213950   5.263   6.997   3.712
 4351SOL     OW13951   0.187   6.330   1.135
 4351SOL    HW113952   0.233   6.344   1.048
 4351SOL    HW213953   0.255   6.312   1.206
 4352SOL     OW13954   3.802   4.491   1.403
 4352SOL    HW113955   3.710   4.478   1.366
 4352SOL    HW213956   3.804   4.462   1.499
 4353SOL     OW13957   2.199   4.066   0.252
 4353SOL    HW113958   2.204   3.970   0.278
 4353SOL    HW213959   2.248   4.080   0.166
 4354SOL     OW13960   5.471   4.973   2.031
 4354SOL    HW113961   5.547   4.922   1.992
 4354SOL    HW213962   5.457   4.945   2.126
 4355SOL     OW13963   1.955   4.869   3.797
 4355SOL    HW113964   1.957   4.966   3.771
 4355SOL    HW213965   1.923   4.814   3.720
 4356SOL     OW13966   5.817   1.609   5.815
 4356SOL    HW113967   5.817   1.548   5.736
 4356SOL    HW213968   5.723   1.621   5.848
 4357SOL     OW13969   4.564   5.749   2.986
 4357SOL    HW113970   4.611   5.830   2.951
 4357SOL    HW213971   4.552   5.758   3.085
 4358SOL     OW13972   2.760   0.637   1.321
 4358SOL    HW113973   2.673   0.600   1.292
 4358SOL    HW213974   2.817   0.564   1.359
 4359SOL     OW13975   2.724   3.239   1.751
 4359SOL    HW113976   2.640   3.196   1.719
 4359SOL    HW213977   2.704   3.333   1.778
 4360SOL     OW13978   2.904   6.260   4.120
 4360SOL    HW113979   2.983   6.199   4.128
 4360SOL    HW213980   2.897   6.293   4.026
 4361SOL     OW13981   1.820   0.917   6.531
 4361SOL    HW113982   1.831   0.837   6.471
 4361SOL    HW213983   1.900   0.926   6.590
 4362SOL     OW13984   6.756   6.090   2.638
 4362SOL    HW113985   6.702   6.052   2.563
 4362SOL    HW213986   6.706   6.078   2.724
 4363SOL     OW13987   3.978   0.157   2.425
 4363SOL    HW113988   3.893   0.163   2.478
 4363SOL    HW213989   4.037   0.087   2.464
 4364SOL     OW13990   3.008   3.938   3.033
 4364SOL    HW113991   2.990   3.851   3.079
 4364SOL    HW213992   3.105   3.961   3.040
 4365SOL     OW13993   2.524   1.417   0.850
 4365SOL    HW113994   2.533   1.516   0.864
 4365SOL    HW213995   2.598   1.370   0.897
 4366SOL     OW13996   4.987   5.722   4.747
 4366SOL    HW113997   5.050   5.748   4.674
 4366SOL    HW213998   4.903   5.776   4.741
 4367SOL     OW13999   1.807   6.964   1.781
 4367SOL    HW114000   1.876   7.011   1.726
 4367SOL    HW214001   1.728   0.008   1.795
 4368SOL     OW14002   4.828   4.848   4.677
 4368SOL    HW114003   4.802   4.869   4.583
 4368SOL    HW214004   4.812   4.928   4.735
 4369SOL     OW14005   6.703   4.033   4.382
 4369SOL    HW114006   6.680   4.029   4.285
 4369SOL    HW214007   6.748   4.120   4.402
 4370SOL     OW14008   5.091   4.487   1.021
 4370SOL    HW114009   5.081   4.576   0.978
 4370SOL    HW214010   5.014   4.428   0.994
 4371SOL     OW14011   3.411   0.619   3.382
 4371SOL    HW114012   3.447   0.601   3.474
 4371SOL    HW214013   3.417   0.717   3.363
 4372SOL     OW14014   1.795   4.306   5.534
 4372SOL    HW114015   1.883   4.334   5.574
 4372SOL    HW214016   1.721   4.338   5.593
 4373SOL     OW14017   4.555   0.641   0.372
 4373SOL    HW114018   4.608   0.608   0.294
 4373SOL    HW214019   4.564   0.576   0.448
 4374SOL     OW14020   2.374   5.990   0.486
 4374SOL    HW114021   2.368   5.978   0.585
 4374SOL    HW214022   2.281   5.993   0.448
 4375SOL     OW14023   4.919   0.865   6.028
 4375SOL    HW114024   4.906   0.920   5.946
 4375SOL    HW214025   4.922   0.924   6.108
 4376SOL     OW14026   3.040   4.763   6.957
 4376SOL    HW114027   3.114   4.829   6.946
 4376SOL    HW214028   3.072   4.672   6.930
 4377SOL     OW14029   5.621   6.458   0.152
 4377SOL    HW114030   5.684   6.396   0.197
 4377SOL    HW214031   5.671   6.519   0.090
 4378SOL     OW14032   3.394   4.768   1.484
 4378SOL    HW114033   3.328   4.693   1.483
 4378SOL    HW214034   3.368   4.834   1.555
 4379SOL     OW14035   6.521   6.187   0.395
 4379SOL    HW114036   6.557   6.105   0.352
 4379SOL    HW214037   6.591   6.259   0.393
 4380SOL     OW14038   1.874   6.111   4.876
 4380SOL    HW114039   1.870   6.103   4.976
 4380SOL    HW214040   1.791   6.071   4.836
 4381SOL     OW14041   3.356   6.379   4.211
 4381SOL    HW114042   3.387   6.468   4.176
 4381SOL    HW214043   3.276   6.350   4.159
 4382SOL     OW14044   5.332   4.179   3.921
 4382SOL    HW114045   5.339   4.275   3.892
 4382SOL    HW214046   5.290   4.126   3.847
 4383SOL     OW14047   1.262   0.423   6.827
 4383SOL    HW114048   1.186   0.421   6.762
 4383SOL    HW214049   1.334   0.484   6.792
 4384SOL     OW14050   3.815   6.790   2.065
 4384SOL    HW114051   3.761   6.815   1.984
 4384SOL    HW214052   3.813   6.865   2.130
 4385SOL     OW14053   6.150   2.565   4.477
 4385SOL    HW114054   6.053   2.561   4.501
 4385SOL    HW214055   6.187   2.472   4.472
 4386SOL     OW14056   2.009   5.619   6.985
 4386SOL    HW114057   2.011   5.719   6.988
 4386SOL    HW214058   2.079   5.586   6.922
 4387SOL     OW14059   6.123   2.417   0.871
 4387SOL    HW114060   6.037   2.430   0.919
 4387SOL    HW214061   6.150   2.502   0.827
 4388SOL     OW14062   3.958   1.174   5.821
 4388SOL    HW114063   4.010   1.259   5.806
 4388SOL    HW214064   3.975   1.140   5.913
 4389SOL     OW14065   0.926   2.247   2.755
 4389SOL    HW114066   0.903   2.281   2.664
 4389SOL    HW214067   0.859   2.281   2.821
 4390SOL     OW14068   4.719   4.130   1.130
 4390SOL    HW114069   4.626   4.094   1.116
 4390SOL    HW214070   4.774   4.113   1.048
 4391SOL     OW14071   0.402   5.488   0.877
 4391SOL    HW114072   0.308   5.455   0.875
 4391SOL    HW214073   0.406   5.579   0.837
 4392SOL     OW14074   5.111   5.071   4.882
 4392SOL    HW114075   5.016   5.097   4.903
 4392SOL    HW214076   5.135   5.104   4.790
 4393SOL     OW14077   4.618   6.385   2.910
 4393SOL    HW114078   4.591   6.472   2.871
 4393SOL    HW214079   4.611   6.313   2.841
 4394SOL     OW14080   4.619   0.933   2.495
 4394SOL    HW114081   4.542   0.991   2.470
 4394SOL    HW214082   4.585   0.843   2.521
 4395SOL     OW14083   4.389   2.645   0.768
 4395SOL    HW114084   4.331   2.723   0.791
 4395SOL    HW214085   4.428   2.658   0.677
 4396SOL     OW14086   1.780   1.550   2.465
 4396SOL    HW114087   1.879   1.566   2.467
 4396SOL    HW214088   1.762   1.461   2.423
 4397SOL     OW14089   4.103   1.392   7.004
 4397SOL    HW114090   4.060   1.437   6.926
 4397SOL    HW214091   4.116   1.295   6.985
 4398SOL     OW14092   0.874   4.984   4.728
 4398SOL    HW114093   0.897   5.021   4.638
 4398SOL    HW214094   0.957   4.966   4.780
 4399SOL     OW14095   2.885   0.503   1.571
 4399SOL    HW114096   2.856   0.439   1.500
 4399SOL    HW214097   2.952   0.458   1.631
 4400SOL     OW14098   3.232   4.926   2.822
 4400SOL    HW114099   3.205   4.985   2.898
 4400SOL    HW214100   3.155   4.868   2.797
 4401SOL     OW14101   5.031   6.402   4.578
 4401SOL    HW114102   5.015   6.406   4.480
 4401SOL    HW214103   5.076   6.316   4.601
 4402SOL     OW14104   0.120   6.272   1.981
 4402SOL    HW114105   0.028   6.291   2.014
 4402SOL    HW214106   0.149   6.182   2.014
 4403SOL     OW14107   6.315   1.735   3.532
 4403SOL    HW114108   6.263   1.726   3.447
 4403SOL    HW214109   6.321   1.832   3.557
 4404SOL     OW14110   1.856   3.626   2.485
 4404SOL    HW114111   1.871   3.528   2.474
 4404SOL    HW214112   1.914   3.676   2.421
 4405SOL     OW14113   2.599   3.510   6.531
 4405SOL    HW114114   2.665   3.567   6.483
 4405SOL    HW214115   2.587   3.423   6.483
 4406SOL     OW14116   5.783   2.510   2.266
 4406SOL    HW114117   5.688   2.533   2.242
 4406SOL    HW214118   5.845   2.572   2.219
 4407SOL     OW14119   1.022   0.710   0.353
 4407SOL    HW114120   0.941   0.654   0.368
 4407SOL    HW214121   1.092   0.657   0.305
 4408SOL     OW14122   4.273   6.091   1.521
 4408SOL    HW114123   4.205   6.103   1.449
 4408SOL    HW214124   4.237   6.125   1.607
 4409SOL     OW14125   3.491   2.033   3.098
 4409SOL    HW114126   3.502   1.934   3.109
 4409SOL    HW214127   3.492   2.077   3.188
 4410SOL     OW14128   2.160   5.799   0.703
 4410SOL    HW114129   2.179   5.738   0.626
 4410SOL    HW214130   2.246   5.834   0.740
 4411SOL     OW14131   3.477   2.934   2.212
 4411SOL    HW114132   3.472   2.998   2.288
 4411SOL    HW214133   3.569   2.895   2.207
 4412SOL     OW14134   3.566   1.318   6.277
 4412SOL    HW114135   3.550   1.314   6.179
 4412SOL    HW214136   3.647   1.265   6.301
 4413SOL     OW14137   3.759   5.432   3.702
 4413SOL    HW114138   3.678   5.421   3.761
 4413SOL    HW214139   3.787   5.528   3.703
 4414SOL     OW14140   3.515   4.928   1.752
 4414SOL    HW114141   3.544   4.840   1.790
 4414SOL    HW214142   3.594   4.975   1.714
 4415SOL     OW14143   4.056   1.030   1.606
 4415SOL    HW114144   3.963   1.021   1.569
 4415SOL    HW214145   4.055   1.011   1.704
 4416SOL     OW14146   2.884   2.130   4.530
 4416SOL    HW114147   2.951   2.141   4.603
 4416SOL    HW214148   2.793   2.154   4.565
 4417SOL     OW14149   5.697   6.863   1.535
 4417SOL    HW114150   5.740   6.949   1.508
 4417SOL    HW214151   5.762   6.788   1.525
 4418SOL     OW14152   4.533   0.155   3.149
 4418SOL    HW114153   4.556   0.249   3.177
 4418SOL    HW214154   4.434   0.143   3.151
 4419SOL     OW14155   6.183   5.517   6.296
 4419SOL    HW114156   6.203   5.435   6.242
 4419SOL    HW214157   6.120   5.494   6.370
 4420SOL     OW14158   5.260   0.768   0.875
 4420SOL    HW114159   5.239   0.860   0.908
 4420SOL    HW214160   5.332   0.773   0.806
 4421SOL     OW14161   0.460   1.548   3.264
 4421SOL    HW114162   0.467   1.525   3.361
 4421SOL    HW214163   0.388   1.617   3.252
 4422SOL     OW14164   1.318   4.074   5.822
 4422SOL    HW114165   1.346   4.008   5.892
 4422SOL    HW214166   1.293   4.026   5.738
 4423SOL     OW14167   6.703   1.707   5.700
 4423SOL    HW114168   6.765   1.722   5.778
 4423SOL    HW214169   6.670   1.613   5.701
 4424SOL     OW14170   1.505   5.452   3.398
 4424SOL    HW114171   1.570   5.405   3.338
 4424SOL    HW214172   1.412   5.431   3.370
 4425SOL     OW14173   5.096   3.833   1.799
 4425SOL    HW114174   5.031   3.887   1.853
 4425SOL    HW214175   5.046   3.776   1.734
 4426SOL     OW14176   0.362   6.831   6.589
 4426SOL    HW114177   0.416   6.757   6.630
 4426SOL    HW214178   0.268   6.826   6.622
 4427SOL     OW14179   0.752   5.586   3.448
 4427SOL    HW114180   0.822   5.621   3.510
 4427SOL    HW214181   0.706   5.507   3.490
 4428SOL     OW14182   1.438   0.087   2.935
 4428SOL    HW114183   1.407   0.178   2.909
 4428SOL    HW214184   1.450   0.031   2.853
 4429SOL     OW14185   2.696   0.194   2.185
 4429SOL    HW114186   2.661   0.158   2.271
 4429SOL    HW214187   2.775   0.254   2.204
 4430SOL     OW14188   2.069   0.376   1.970
 4430SOL    HW114189   2.101   0.282   1.976
 4430SOL    HW214190   1.999   0.393   2.039
 4431SOL     OW14191   1.790   2.300   2.656
 4431SOL    HW114192   1.841   2.339   2.732
 4431SOL    HW214193   1.833   2.215   2.627
 4432SOL     OW14194   3.629   4.145   4.534
 4432SOL    HW114195   3.579   4.123   4.450
 4432SOL    HW214196   3.677   4.063   4.566
 4433SOL     OW14197   6.587   0.017   1.414
 4433SOL    HW114198   6.672   0.016   1.467
 4433SOL    HW214199   6.532   0.097   1.441
 4434SOL     OW14200   5.504   1.812   5.641
 4434SOL    HW114201   5.415   1.856   5.653
 4434SOL    HW214202   5.574   1.865   5.690
 4435SOL     OW14203   3.862   2.940   1.927
 4435SOL    HW114204   3.822   2.904   1.843
 4435SOL    HW214205   3.949   2.985   1.907
 4436SOL     OW14206   5.800   0.256   0.247
 4436SOL    HW114207   5.715   0.217   0.210
 4436SOL    HW214208   5.790   0.355   0.254
 4437SOL     OW14209   3.297   6.890   5.566
 4437SOL    HW114210   3.299   6.980   5.609
 4437SOL    HW214211   3.389   6.851   5.564
 4438SOL     OW14212   3.622   2.517   6.831
 4438SOL    HW114213   3.663   2.546   6.745
 4438SOL    HW214214   3.600   2.420   6.826
 4439SOL     OW14215   1.388   4.221   2.886
 4439SOL    HW114216   1.308   4.210   2.828
 4439SOL    HW214217   1.359   4.227   2.982
 4440SOL     OW14218   6.248   0.948   0.694
 4440SOL    HW114219   6.165   0.964   0.641
 4440SOL    HW214220   6.224   0.932   0.790
 4441SOL     OW14221   6.761   0.549   4.222
 4441SOL    HW114222   6.752   0.452   4.200
 4441SOL    HW214223   6.674   0.582   4.261
 4442SOL     OW14224   2.012   5.540   2.446
 4442SOL    HW114225   1.994   5.638   2.439
 4442SOL    HW214226   1.942   5.497   2.503
 4443SOL     OW14227   1.847   1.346   0.999
 4443SOL    HW114228   1.907   1.296   1.061
 4443SOL    HW214229   1.873   1.327   0.904
 4444SOL     OW14230   4.817   1.693   3.120
 4444SOL    HW114231   4.891   1.759   3.107
 4444SOL    HW214232   4.760   1.691   3.037
 4445SOL     OW14233   0.813   2.213   6.208
 4445SOL    HW114234   0.731   2.266   6.189
 4445SOL    HW214235   0.807   2.175   6.301
 4446SOL     OW14236   6.779   4.889   4.379
 4446SOL    HW114237   6.743   4.876   4.471
 4446SOL    HW214238   6.834   4.810   4.353
 4447SOL     OW14239   4.958   3.839   5.124
 4447SOL    HW114240   4.896   3.766   5.096
 4447SOL    HW214241   4.922   3.883   5.206
 4448SOL     OW14242   2.566   3.449   6.808
 4448SOL    HW114243   2.551   3.351   6.798
 4448SOL    HW214244   2.583   3.490   6.719
 4449SOL     OW14245   6.899   1.384   5.398
 4449SOL    HW114246   6.846   1.468   5.403
 4449SOL    HW214247   6.845   1.308   5.433
 4450SOL     OW14248   3.878   3.622   3.388
 4450SOL    HW114249   3.808   3.555   3.363
 4450SOL    HW214250   3.968   3.580   3.385
 4451SOL     OW14251   0.694   5.141   1.163
 4451SOL    HW114252   0.677   5.108   1.070
 4451SOL    HW214253   0.793   5.150   1.178
 4452SOL     OW14254   0.481   3.771   6.751
 4452SOL    HW114255   0.545   3.828   6.802
 4452SOL    HW214256   0.402   3.750   6.808
 4453SOL     OW14257   6.016   0.324   1.618
 4453SOL    HW114258   5.933   0.290   1.663
 4453SOL    HW214259   6.065   0.385   1.679
 4454SOL     OW14260   5.886   3.423   1.759
 4454SOL    HW114261   5.947   3.454   1.686
 4454SOL    HW214262   5.793   3.416   1.723
 4455SOL     OW14263   4.601   2.423   2.802
 4455SOL    HW114264   4.524   2.371   2.767
 4455SOL    HW214265   4.676   2.420   2.736
 4456SOL     OW14266   0.519   5.915   2.351
 4456SOL    HW114267   0.616   5.891   2.344
 4456SOL    HW214268   0.472   5.846   2.407
 4457SOL     OW14269   4.418   2.606   6.333
 4457SOL    HW114270   4.390   2.519   6.292
 4457SOL    HW214271   4.344   2.642   6.390
 4458SOL     OW14272   4.701   2.007   1.157
 4458SOL    HW114273   4.649   2.028   1.239
 4458SOL    HW214274   4.643   1.960   1.091
 4459SOL     OW14275   5.790   5.746   6.159
 4459SOL    HW114276   5.809   5.840   6.186
 4459SOL    HW214277   5.866   5.710   6.105
 4460SOL     OW14278   1.420   1.440   0.352
 4460SOL    HW114279   1.487   1.446   0.427
 4460SOL    HW214280   1.335   1.402   0.387
 4461SOL     OW14281   1.926   0.869   2.946
 4461SOL    HW114282   1.865   0.919   3.008
 4461SOL    HW214283   1.935   0.921   2.861
 4462SOL     OW14284   7.011   3.559   0.725
 4462SOL    HW114285   0.048   3.553   0.809
 4462SOL    HW214286   6.922   3.515   0.738
 4463SOL     OW14287   0.669   4.607   6.968
 4463SOL    HW114288   0.725   4.530   6.999
 4463SOL    HW214289   0.699   4.635   6.877
 4464SOL     OW14290   6.876   3.188   0.054
 4464SOL    HW114291   6.954   3.178   7.008
 4464SOL    HW214292   6.901   3.153   0.145
 4465SOL     OW14293   6.243   5.352   1.206
 4465SOL    HW114294   6.150   5.317   1.217
 4465SOL    HW214295   6.267   5.409   1.285
 4466SOL     OW14296   6.648   2.994   3.927
 4466SOL    HW114297   6.583   3.008   3.852
 4466SOL    HW214298   6.600   3.002   4.014
 4467SOL     OW14299   1.006   0.594   4.671
 4467SOL    HW114300   1.057   0.535   4.733
 4467SOL    HW214301   0.995   0.685   4.711
 4468SOL     OW14302   1.122   1.094   0.645
 4468SOL    HW114303   1.193   1.114   0.578
 4468SOL    HW214304   1.068   1.176   0.663
 4469SOL     OW14305   4.942   6.918   0.429
 4469SOL    HW114306   4.996   6.839   0.458
 4469SOL    HW214307   4.973   6.947   0.338
 4470SOL     OW14308   4.822   4.639   1.346
 4470SOL    HW114309   4.777   4.571   1.403
 4470SOL    HW214310   4.881   4.593   1.280
 4471SOL     OW14311   5.744   2.427   1.937
 4471SOL    HW114312   5.732   2.459   2.031
 4471SOL    HW214313   5.842   2.418   1.918
 4472SOL     OW14314   2.421   5.095   1.348
 4472SOL    HW114315   2.406   5.193   1.332
 4472SOL    HW214316   2.424   5.077   1.446
 4473SOL     OW14317   6.075   0.377   0.898
 4473SOL    HW114318   6.129   0.421   0.826
 4473SOL    HW214319   6.106   0.410   0.987
 4474SOL     OW14320   6.219   1.152   4.888
 4474SOL    HW114321   6.288   1.216   4.856
 4474SOL    HW214322   6.263   1.071   4.926
 4475SOL     OW14323   1.473   3.464   0.450
 4475SOL    HW114324   1.474   3.501   0.543
 4475SOL    HW214325   1.482   3.539   0.384
 4476SOL     OW14326   3.580   6.184   2.723
 4476SOL    HW114327   3.599   6.101   2.775
 4476SOL    HW214328   3.648   6.254   2.745
 4477SOL     OW14329   1.978   2.343   0.995
 4477SOL    HW114330   1.912   2.292   0.940
 4477SOL    HW214331   2.033   2.402   0.936
 4478SOL     OW14332   1.265   4.810   0.827
 4478SOL    HW114333   1.310   4.748   0.891
 4478SOL    HW214334   1.181   4.846   0.868
 4479SOL     OW14335   1.723   6.617   6.124
 4479SOL    HW114336   1.813   6.575   6.137
 4479SOL    HW214337   1.689   6.597   6.032
 4480SOL     OW14338   6.729   3.541   3.295
 4480SOL    HW114339   6.733   3.602   3.375
 4480SOL    HW214340   6.694   3.592   3.217
 4481SOL     OW14341   0.777   1.061   4.682
 4481SOL    HW114342   0.787   0.965   4.709
 4481SOL    HW214343   0.856   1.113   4.714
 4482SOL     OW14344   0.461   3.899   3.030
 4482SOL    HW114345   0.390   3.836   3.060
 4482SOL    HW214346   0.495   3.870   2.941
 4483SOL     OW14347   5.878   3.744   1.101
 4483SOL    HW114348   5.956   3.805   1.084
 4483SOL    HW214349   5.801   3.770   1.043
 4484SOL     OW14350   3.297   3.470   6.759
 4484SOL    HW114351   3.225   3.539   6.751
 4484SOL    HW214352   3.365   3.499   6.826
 4485SOL     OW14353   4.449   7.013   5.901
 4485SOL    HW114354   4.488   0.088   5.914
 4485SOL    HW214355   4.400   7.010   5.813
 4486SOL     OW14356   6.205   3.190   4.170
 4486SOL    HW114357   6.159   3.109   4.207
 4486SOL    HW214358   6.136   3.256   4.140
 4487SOL     OW14359   3.096   3.210   5.956
 4487SOL    HW114360   3.062   3.131   5.904
 4487SOL    HW214361   3.067   3.295   5.910
 4488SOL     OW14362   6.864   2.308   6.716
 4488SOL    HW114363   6.941   2.265   6.764
 4488SOL    HW214364   6.779   2.287   6.764
 4489SOL     OW14365   0.939   1.081   3.076
 4489SOL    HW114366   0.927   1.041   2.985
 4489SOL    HW214367   1.012   1.150   3.072
 4490SOL     OW14368   6.669   2.108   4.307
 4490SOL    HW114369   6.644   2.023   4.353
 4490SOL    HW214370   6.604   2.127   4.234
 4491SOL     OW14371   1.920   4.333   1.787
 4491SOL    HW114372   1.861   4.338   1.868
 4491SOL    HW214373   1.864   4.317   1.706
 4492SOL     OW14374   4.980   3.774   5.917
 4492SOL    HW114375   4.996   3.742   5.823
 4492SOL    HW214376   5.062   3.759   5.972
 4493SOL     OW14377   5.955   4.281   3.221
 4493SOL    HW114378   6.024   4.353   3.229
 4493SOL    HW214379   6.000   4.192   3.215
 4494SOL     OW14380   5.105   2.602   1.905
 4494SOL    HW114381   5.066   2.586   1.996
 4494SOL    HW214382   5.040   2.573   1.835
 4495SOL     OW14383   5.645   5.275   1.793
 4495SOL    HW114384   5.580   5.326   1.737
 4495SOL    HW214385   5.633   5.177   1.777
 4496SOL     OW14386   6.032   3.435   5.971
 4496SOL    HW114387   6.015   3.337   5.956
 4496SOL    HW214388   5.946   3.484   5.962
 4497SOL     OW14389   6.763   6.314   1.418
 4497SOL    HW114390   6.758   6.298   1.516
 4497SOL    HW214391   6.806   6.403   1.401
 4498SOL     OW14392   1.125   4.057   6.136
 4498SOL    HW114393   1.053   3.993   6.163
 4498SOL    HW214394   1.206   4.007   6.109
 4499SOL     OW14395   5.695   3.926   0.672
 4499SOL    HW114396   5.677   3.854   0.606
 4499SOL    HW214397   5.793   3.931   0.691
 4500SOL     OW14398   3.844   4.020   2.064
 4500SOL    HW114399   3.919   3.957   2.045
 4500SOL    HW214400   3.855   4.102   2.008
 4501SOL     OW14401   1.877   5.491   4.859
 4501SOL    HW114402   1.959   5.495   4.915
 4501SOL    HW214403   1.902   5.473   4.764
 4502SOL     OW14404   5.667   2.463   0.600
 4502SOL    HW114405   5.583   2.445   0.652
 4502SOL    HW214406   5.644   2.473   0.503
 4503SOL     OW14407   0.926   3.189   2.612
 4503SOL    HW114408   0.948   3.274   2.661
 4503SOL    HW214409   0.839   3.153   2.645
 4504SOL     OW14410   4.440   2.269   4.024
 4504SOL    HW114411   4.359   2.292   3.971
 4504SOL    HW214412   4.413   2.252   4.119
 4505SOL     OW14413   2.508   5.340   0.347
 4505SOL    HW114414   2.542   5.408   0.282
 4505SOL    HW214415   2.556   5.253   0.331
 4506SOL     OW14416   3.567   6.789   5.552
 4506SOL    HW114417   3.554   6.691   5.567
 4506SOL    HW214418   3.657   6.816   5.585
 4507SOL     OW14419   6.308   3.711   2.506
 4507SOL    HW114420   6.375   3.776   2.542
 4507SOL    HW214421   6.233   3.761   2.463
 4508SOL     OW14422   1.987   4.010   0.480
 4508SOL    HW114423   2.050   3.943   0.439
 4508SOL    HW214424   2.011   4.023   0.576
 4509SOL     OW14425   0.770   2.833   3.401
 4509SOL    HW114426   0.725   2.815   3.489
 4509SOL    HW214427   0.866   2.807   3.408
 4510SOL     OW14428   2.806   6.579   6.617
 4510SOL    HW114429   2.791   6.611   6.523
 4510SOL    HW214430   2.725   6.600   6.672
 4511SOL     OW14431   0.554   2.419   0.164
 4511SOL    HW114432   0.541   2.518   0.159
 4511SOL    HW214433   0.529   2.377   0.077
 4512SOL     OW14434   2.414   4.064   0.033
 4512SOL    HW114435   2.473   4.138   0.065
 4512SOL    HW214436   2.348   4.100   6.983
 4513SOL     OW14437   6.618   1.502   3.006
 4513SOL    HW114438   6.524   1.476   3.028
 4513SOL    HW214439   6.671   1.509   3.090
 4514SOL     OW14440   2.426   0.131   4.998
 4514SOL    HW114441   2.379   0.141   4.911
 4514SOL    HW214442   2.521   0.105   4.982
 4515SOL     OW14443   0.089   4.959   0.509
 4515SOL    HW114444   0.175   4.918   0.479
 4515SOL    HW214445   0.032   4.889   0.552
 4516SOL     OW14446   0.590   6.812   3.936
 4516SOL    HW114447   0.543   6.759   3.866
 4516SOL    HW214448   0.638   6.889   3.894
 4517SOL     OW14449   2.596   0.674   6.750
 4517SOL    HW114450   2.665   0.746   6.756
 4517SOL    HW214451   2.639   0.586   6.772
 4518SOL     OW14452   1.516   0.477   3.523
 4518SOL    HW114453   1.531   0.446   3.429
 4518SOL    HW214454   1.426   0.521   3.529
 4519SOL     OW14455   6.661   2.236   4.789
 4519SOL    HW114456   6.724   2.254   4.865
 4519SOL    HW214457   6.711   2.240   4.703
 4520SOL     OW14458   0.134   3.371   3.253
 4520SOL    HW114459   0.147   3.368   3.352
 4520SOL    HW214460   0.216   3.338   3.207
 4521SOL     OW14461   5.264   1.832   6.375
 4521SOL    HW114462   5.291   1.924   6.348
 4521SOL    HW214463   5.169   1.833   6.407
 4522SOL     OW14464   5.354   6.785   3.433
 4522SOL    HW114465   5.377   6.706   3.375
 4522SOL    HW214466   5.255   6.787   3.448
 4523SOL     OW14467   4.909   2.056   5.785
 4523SOL    HW114468   4.845   2.115   5.834
 4523SOL    HW214469   4.888   2.059   5.687
 4524SOL     OW14470   5.807   0.918   5.379
 4524SOL    HW114471   5.836   0.865   5.299
 4524SOL    HW214472   5.862   1.002   5.385
 4525SOL     OW14473   6.706   1.527   3.859
 4525SOL    HW114474   6.784   1.513   3.920
 4525SOL    HW214475   6.621   1.508   3.909
 4526SOL     OW14476   2.855   1.761   1.521
 4526SOL    HW114477   2.851   1.728   1.616
 4526SOL    HW214478   2.946   1.745   1.484
 4527SOL     OW14479   4.480   6.477   3.882
 4527SOL    HW114480   4.503   6.558   3.828
 4527SOL    HW214481   4.381   6.462   3.879
 4528SOL     OW14482   4.713   0.331   6.319
 4528SOL    HW114483   4.701   0.237   6.352
 4528SOL    HW214484   4.626   0.380   6.325
 4529SOL     OW14485   3.292   0.412   4.129
 4529SOL    HW114486   3.323   0.346   4.197
 4529SOL    HW214487   3.343   0.497   4.140
 4530SOL     OW14488   6.512   2.499   4.145
 4530SOL    HW114489   6.584   2.568   4.141
 4530SOL    HW214490   6.518   2.440   4.065
 4531SOL     OW14491   0.175   3.958   3.933
 4531SOL    HW114492   0.219   3.868   3.933
 4531SOL    HW214493   0.241   4.028   3.961
 4532SOL     OW14494   0.539   2.562   0.514
 4532SOL    HW114495   0.487   2.510   0.446
 4532SOL    HW214496   0.476   2.610   0.575
 4533SOL     OW14497   3.346   6.513   1.949
 4533SOL    HW114498   3.307   6.602   1.973
 4533SOL    HW214499   3.441   6.524   1.921
 4534SOL     OW14500   6.559   3.884   6.017
 4534SOL    HW114501   6.568   3.788   5.989
 4534SOL    HW214502   6.638   3.911   6.071
 4535SOL     OW14503   5.077   2.204   2.454
 4535SOL    HW114504   5.119   2.155   2.378
 4535SOL    HW214505   5.020   2.141   2.507
 4536SOL     OW14506   0.002   0.139   3.633
 4536SOL    HW114507   0.076   0.197   3.669
 4536SOL    HW214508   0.039   0.052   3.603
 4537SOL     OW14509   4.659   2.867   5.465
 4537SOL    HW114510   4.712   2.894   5.385
 4537SOL    HW214511   4.642   2.946   5.523
 4538SOL     OW14512   3.615   2.051   1.750
 4538SOL    HW114513   3.625   2.093   1.660
 4538SOL    HW214514   3.612   2.122   1.820
 4539SOL     OW14515   2.525   3.111   1.603
 4539SOL    HW114516   2.448   3.049   1.615
 4539SOL    HW214517   2.512   3.165   1.520
 4540SOL     OW14518   3.536   2.865   4.667
 4540SOL    HW114519   3.553   2.774   4.628
 4540SOL    HW214520   3.577   2.870   4.758
 4541SOL     OW14521   6.395   1.330   1.553
 4541SOL    HW114522   6.429   1.409   1.604
 4541SOL    HW214523   6.303   1.307   1.585
 4542SOL     OW14524   5.280   6.491   3.494
 4542SOL    HW114525   5.298   6.483   3.396
 4542SOL    HW214526   5.229   6.576   3.511
 4543SOL     OW14527   5.380   2.345   2.625
 4543SOL    HW114528   5.349   2.253   2.645
 4543SOL    HW214529   5.304   2.410   2.633
 4544SOL     OW14530   5.509   4.903   6.428
 4544SOL    HW114531   5.548   4.817   6.461
 4544SOL    HW214532   5.466   4.951   6.505
 4545SOL     OW14533   3.838   3.873   6.808
 4545SOL    HW114534   3.911   3.804   6.816
 4545SOL    HW214535   3.761   3.833   6.759
 4546SOL     OW14536   0.554   6.072   0.409
 4546SOL    HW114537   0.643   6.060   0.365
 4546SOL    HW214538   0.481   6.066   0.340
 4547SOL     OW14539   4.531   1.332   2.835
 4547SOL    HW114540   4.627   1.317   2.859
 4547SOL    HW214541   4.513   1.292   2.745
 4548SOL     OW14542   0.891   3.217   4.123
 4548SOL    HW114543   0.924   3.310   4.113
 4548SOL    HW214544   0.963   3.159   4.161
 4549SOL     OW14545   5.744   1.318   2.232
 4549SOL    HW114546   5.784   1.388   2.290
 4549SOL    HW214547   5.804   1.238   2.230
 4550SOL     OW14548   2.267   5.170   4.986
 4550SOL    HW114549   2.223   5.117   4.913
 4550SOL    HW214550   2.204   5.177   5.063
 4551SOL     OW14551   6.697   3.615   0.462
 4551SOL    HW114552   6.700   3.515   0.465
 4551SOL    HW214553   6.769   3.653   0.519
 4552SOL     OW14554   0.031   3.415   4.963
 4552SOL    HW114555   7.001   3.328   4.945
 4552SOL    HW214556   0.107   3.401   5.026
 4553SOL     OW14557   5.431   5.041   6.647
 4553SOL    HW114558   5.481   5.052   6.732
 4553SOL    HW214559   5.333   5.056   6.663
 4554SOL     OW14560   6.525   6.411   3.845
 4554SOL    HW114561   6.519   6.348   3.767
 4554SOL    HW214562   6.621   6.421   3.871
 4555SOL     OW14563   3.948   3.032   0.445
 4555SOL    HW114564   3.855   3.063   0.424
 4555SOL    HW214565   4.014   3.088   0.393
 4556SOL     OW14566   4.366   0.566   5.131
 4556SOL    HW114567   4.389   0.657   5.098
 4556SOL    HW214568   4.383   0.499   5.058
 4557SOL     OW14569   5.500   1.078   4.262
 4557SOL    HW114570   5.543   1.055   4.175
 4557SOL    HW214571   5.475   1.175   4.262
 4558SOL     OW14572   0.219   2.968   6.332
 4558SOL    HW114573   0.279   2.892   6.307
 4558SOL    HW214574   0.137   2.932   6.376
 4559SOL     OW14575   1.483   6.436   1.458
 4559SOL    HW114576   1.460   6.406   1.365
 4559SOL    HW214577   1.399   6.447   1.511
 4560SOL     OW14578   5.751   2.948   2.752
 4560SOL    HW114579   5.730   2.937   2.654
 4560SOL    HW214580   5.755   2.858   2.795
 4561SOL     OW14581   3.249   6.241   5.881
 4561SOL    HW114582   3.223   6.321   5.936
 4561SOL    HW214583   3.254   6.161   5.940
 4562SOL     OW14584   2.595   4.217   6.095
 4562SOL    HW114585   2.511   4.167   6.073
 4562SOL    HW214586   2.621   4.274   6.018
 4563SOL     OW14587   5.987   2.756   6.945
 4563SOL    HW114588   6.001   2.760   6.846
 4563SOL    HW214589   6.069   2.717   6.989
 4564SOL     OW14590   6.925   5.054   0.052
 4564SOL    HW114591   6.929   5.106   0.138
 4564SOL    HW214592   6.933   4.957   0.072
 4565SOL     OW14593   3.454   1.230   3.939
 4565SOL    HW114594   3.360   1.207   3.967
 4565SOL    HW214595   3.480   1.175   3.860
 4566SOL     OW14596   1.757   0.899   0.671
 4566SOL    HW114597   1.684   0.957   0.707
 4566SOL    HW214598   1.758   0.906   0.571
 4567SOL     OW14599   5.334   1.798   0.409
 4567SOL    HW114600   5.237   1.822   0.399
 4567SOL    HW214601   5.390   1.881   0.406
 4568SOL     OW14602   4.691   4.715   4.004
 4568SOL    HW114603   4.619   4.784   4.016
 4568SOL    HW214604   4.715   4.675   4.093
 4569SOL     OW14605   1.301   2.075   4.240
 4569SOL    HW114606   1.308   2.117   4.150
 4569SOL    HW214607   1.259   1.985   4.232
 4570SOL     OW14608   5.298   5.745   5.119
 4570SOL    HW114609   5.255   5.832   5.094
 4570SOL    HW214610   5.373   5.726   5.056
 4571SOL     OW14611   3.901   2.989   4.097
 4571SOL    HW114612   3.947   2.912   4.141
 4571SOL    HW214613   3.919   2.986   3.999
 4572SOL     OW14614   2.601   5.382   0.815
 4572SOL    HW114615   2.625   5.294   0.857
 4572SOL    HW214616   2.558   5.441   0.883
 4573SOL     OW14617   4.963   7.010   1.561
 4573SOL    HW114618   5.003   0.083   1.537
 4573SOL    HW214619   4.925   6.967   1.479
 4574SOL     OW14620   0.246   4.731   1.976
 4574SOL    HW114621   0.252   4.641   1.933
 4574SOL    HW214622   0.164   4.778   1.944
 4575SOL     OW14623   0.050   5.972   1.804
 4575SOL    HW114624   0.075   5.982   1.900
 4575SOL    HW214625   6.977   5.926   1.797
 4576SOL     OW14626   3.138   6.617   4.149
 4576SOL    HW114627   3.210   6.685   4.163
 4576SOL    HW214628   3.049   6.661   4.156
 4577SOL     OW14629   1.951   3.910   3.903
 4577SOL    HW114630   1.971   4.003   3.874
 4577SOL    HW214631   2.025   3.849   3.874
 4578SOL     OW14632   6.324   5.839   3.471
 4578SOL    HW114633   6.339   5.759   3.530
 4578SOL    HW214634   6.305   5.809   3.378
 4579SOL     OW14635   4.683   1.618   3.499
 4579SOL    HW114636   4.676   1.711   3.463
 4579SOL    HW214637   4.615   1.606   3.572
 4580SOL     OW14638   0.321   5.315   0.044
 4580SOL    HW114639   0.243   5.253   0.048
 4580SOL    HW214640   0.373   5.297   6.976
 4581SOL     OW14641   3.535   5.966   4.605
 4581SOL    HW114642   3.580   5.891   4.653
 4581SOL    HW214643   3.436   5.959   4.618
 4582SOL     OW14644   4.847   6.590   3.373
 4582SOL    HW114645   4.870   6.671   3.426
 4582SOL    HW214646   4.787   6.531   3.426
 4583SOL     OW14647   3.399   0.135   5.694
 4583SOL    HW114648   3.492   0.162   5.721
 4583SOL    HW214649   3.375   0.179   5.608
 4584SOL     OW14650   6.905   5.622   5.488
 4584SOL    HW114651   6.899   5.533   5.533
 4584SOL    HW214652   6.976   5.677   5.532
 4585SOL     OW14653   2.977   6.494   2.300
 4585SOL    HW114654   2.941   6.567   2.356
 4585SOL    HW214655   2.932   6.495   2.210
 4586SOL     OW14656   2.280   6.173   1.493
 4586SOL    HW114657   2.265   6.213   1.584
 4586SOL    HW214658   2.366   6.123   1.492
 4587SOL     OW14659   2.795   4.856   0.566
 4587SOL    HW114660   2.711   4.809   0.591
 4587SOL    HW214661   2.872   4.817   0.617
 4588SOL     OW14662   3.361   4.157   5.129
 4588SOL    HW114663   3.416   4.211   5.193
 4588SOL    HW214664   3.271   4.140   5.169
 4589SOL     OW14665   1.787   2.109   3.584
 4589SOL    HW114666   1.876   2.144   3.558
 4589SOL    HW214667   1.743   2.171   3.648
 4590SOL     OW14668   3.789   6.343   2.789
 4590SOL    HW114669   3.850   6.342   2.868
 4590SOL    HW214670   3.806   6.425   2.734
 4591SOL     OW14671   4.858   5.998   5.002
 4591SOL    HW114672   4.881   6.058   5.078
 4591SOL    HW214673   4.895   6.037   4.917
 4592SOL     OW14674   3.562   1.794   5.871
 4592SOL    HW114675   3.659   1.774   5.882
 4592SOL    HW214676   3.508   1.719   5.910
 4593SOL     OW14677   4.132   6.209   1.725
 4593SOL    HW114678   4.136   6.277   1.798
 4593SOL    HW214679   4.036   6.186   1.706
 4594SOL     OW14680   4.208   2.134   2.592
 4594SOL    HW114681   4.203   2.044   2.635
 4594SOL    HW214682   4.145   2.196   2.637
 4595SOL     OW14683   4.263   3.278   5.577
 4595SOL    HW114684   4.307   3.319   5.657
 4595SOL    HW214685   4.178   3.327   5.557
 4596SOL     OW14686   4.990   0.676   2.692
 4596SOL    HW114687   5.073   0.728   2.711
 4596SOL    HW214688   4.974   0.610   2.766
 4597SOL     OW14689   6.281   3.710   5.711
 4597SOL    HW114690   6.230   3.629   5.741
 4597SOL    HW214691   6.364   3.681   5.662
 4598SOL     OW14692   2.544   3.816   6.642
 4598SOL    HW114693   2.569   3.729   6.600
 4598SOL    HW214694   2.462   3.804   6.698
 4599SOL     OW14695   3.343   5.110   0.638
 4599SOL    HW114696   3.275   5.142   0.704
 4599SOL    HW214697   3.302   5.039   0.580
 4600SOL     OW14698   2.664   3.785   0.722
 4600SOL    HW114699   2.609   3.710   0.686
 4600SOL    HW214700   2.606   3.846   0.776
 4601SOL     OW14701   1.850   5.240   3.513
 4601SOL    HW114702   1.785   5.288   3.454
 4601SOL    HW214703   1.813   5.235   3.606
 4602SOL     OW14704   1.600   6.739   1.450
 4602SOL    HW114705   1.586   6.649   1.410
 4602SOL    HW214706   1.657   6.794   1.389
 4603SOL     OW14707   2.956   1.101   2.007
 4603SOL    HW114708   2.885   1.044   1.966
 4603SOL    HW214709   3.000   1.156   1.936
 4604SOL     OW14710   1.383   6.821   3.308
 4604SOL    HW114711   1.425   6.781   3.389
 4604SOL    HW214712   1.363   6.749   3.242
 4605SOL     OW14713   5.372   6.340   5.645
 4605SOL    HW114714   5.447   6.305   5.702
 4605SOL    HW214715   5.383   6.438   5.632
 4606SOL     OW14716   6.520   6.527   4.296
 4606SOL    HW114717   6.502   6.560   4.389
 4606SOL    HW214718   6.436   6.532   4.242
 4607SOL     OW14719   3.099   3.681   0.619
 4607SOL    HW114720   3.120   3.599   0.672
 4607SOL    HW214721   3.052   3.747   0.677
 4608SOL     OW14722   1.110   3.193   6.143
 4608SOL    HW114723   1.161   3.186   6.057
 4608SOL    HW214724   1.096   3.102   6.181
 4609SOL     OW14725   3.098   0.169   0.325
 4609SOL    HW114726   3.005   0.161   0.360
 4609SOL    HW214727   3.120   0.088   0.271
 4610SOL     OW14728   6.966   3.586   0.278
 4610SOL    HW114729   6.926   3.644   0.349
 4610SOL    HW214730   6.913   3.596   0.194
 4611SOL     OW14731   2.012   5.032   6.316
 4611SOL    HW114732   1.970   5.058   6.404
 4611SOL    HW214733   2.107   5.004   6.332
 4612SOL     OW14734   1.692   0.606   6.612
 4612SOL    HW114735   1.771   0.581   6.556
 4612SOL    HW214736   1.644   0.683   6.570
 4613SOL     OW14737   3.929   5.125   1.587
 4613SOL    HW114738   3.990   5.151   1.513
 4613SOL    HW214739   3.890   5.035   1.568
 4614SOL     OW14740   2.017   4.720   7.014
 4614SOL    HW114741   2.008   4.817   6.993
 4614SOL    HW214742   2.093   4.706   0.062
 4615SOL     OW14743   5.963   3.195   6.263
 4615SOL    HW114744   6.005   3.282   6.290
 4615SOL    HW214745   5.907   3.161   6.339
 4616SOL     OW14746   5.391   0.725   6.796
 4616SOL    HW114747   5.338   0.786   6.855
 4616SOL    HW214748   5.388   0.759   6.702
 4617SOL     OW14749   0.248   4.206   1.556
 4617SOL    HW114750   0.180   4.277   1.537
 4617SOL    HW214751   0.250   4.141   1.480
 4618SOL     OW14752   0.902   3.411   6.484
 4618SOL    HW114753   0.994   3.424   6.449
 4618SOL    HW214754   0.889   3.316   6.510
 4619SOL     OW14755   3.994   0.886   3.845
 4619SOL    HW114756   4.004   0.859   3.940
 4619SOL    HW214757   4.060   0.958   3.823
 4620SOL     OW14758   1.859   5.937   0.326
 4620SOL    HW114759   1.858   6.011   0.259
 4620SOL    HW214760   1.905   5.857   0.287
 4621SOL     OW14761   6.608   0.426   6.501
 4621SOL    HW114762   6.551   0.360   6.550
 4621SOL    HW214763   6.647   0.383   6.419
 4622SOL     OW14764   1.547   4.489   0.266
 4622SOL    HW114765   1.526   4.541   0.183
 4622SOL    HW214766   1.644   4.464   0.265
 4623SOL     OW14767   5.422   3.619   3.775
 4623SOL    HW114768   5.431   3.717   3.760
 4623SOL    HW214769   5.335   3.601   3.821
 4624SOL     OW14770   4.486   6.437   6.234
 4624SOL    HW114771   4.407   6.491   6.204
 4624SOL    HW214772   4.473   6.410   6.329
 4625SOL     OW14773   1.261   3.983   6.462
 4625SOL    HW114774   1.207   3.899   6.465
 4625SOL    HW214775   1.273   4.018   6.554
 4626SOL     OW14776   6.059   4.353   2.011
 4626SOL    HW114777   6.115   4.406   1.948
 4626SOL    HW214778   5.970   4.398   2.021
 4627SOL     OW14779   1.983   0.094   4.665
 4627SOL    HW114780   1.929   0.011   4.649
 4627SOL    HW214781   1.927   0.174   4.644
 4628SOL     OW14782   6.644   2.749   2.022
 4628SOL    HW114783   6.742   2.764   2.010
 4628SOL    HW214784   6.593   2.809   1.960
 4629SOL     OW14785   3.963   5.161   4.194
 4629SOL    HW114786   3.928   5.102   4.122
 4629SOL    HW214787   3.909   5.148   4.277
 4630SOL     OW14788   2.528   6.220   2.501
 4630SOL    HW114789   2.511   6.265   2.413
 4630SOL    HW214790   2.442   6.193   2.542
 4631SOL     OW14791   1.884   1.284   2.677
 4631SOL    HW114792   1.975   1.321   2.659
 4631SOL    HW214793   1.824   1.303   2.599
 4632SOL     OW14794   5.548   6.066   3.730
 4632SOL    HW114795   5.597   6.066   3.817
 4632SOL    HW214796   5.608   6.031   3.658
 4633SOL     OW14797   5.200   2.861   6.128
 4633SOL    HW114798   5.125   2.908   6.082
 4633SOL    HW214799   5.208   2.894   6.222
 4634SOL     OW14800   2.684   4.171   0.372
 4634SOL    HW114801   2.716   4.086   0.415
 4634SOL    HW214802   2.589   4.159   0.343
 4635SOL     OW14803   5.012   3.484   1.644
 4635SOL    HW114804   4.941   3.444   1.702
 4635SOL    HW214805   4.994   3.582   1.632
 4636SOL     OW14806   0.722   4.979   1.866
 4636SOL    HW114807   0.804   5.036   1.865
 4636SOL    HW214808   0.709   4.939   1.775
 4637SOL     OW14809   0.961   0.712   5.625
 4637SOL    HW114810   1.000   0.729   5.534
 4637SOL    HW214811   0.871   0.754   5.631
 4638SOL     OW14812   4.222   5.123   5.896
 4638SOL    HW114813   4.138   5.172   5.917
 4638SOL    HW214814   4.200   5.034   5.855
 4639SOL     OW14815   6.726   2.029   5.192
 4639SOL    HW114816   6.639   2.033   5.241
 4639SOL    HW214817   6.728   1.948   5.134
 4640SOL     OW14818   6.377   5.043   3.032
 4640SOL    HW114819   6.471   5.041   3.064
 4640SOL    HW214820   6.366   5.119   2.968
 4641SOL     OW14821   2.333   3.766   5.325
 4641SOL    HW114822   2.247   3.714   5.320
 4641SOL    HW214823   2.327   3.846   5.265
 4642SOL     OW14824   5.718   5.622   4.197
 4642SOL    HW114825   5.721   5.717   4.166
 4642SOL    HW214826   5.716   5.561   4.119
 4643SOL     OW14827   4.487   3.766   1.277
 4643SOL    HW114828   4.565   3.828   1.273
 4643SOL    HW214829   4.482   3.724   1.368
 4644SOL     OW14830   3.410   4.941   5.569
 4644SOL    HW114831   3.413   5.034   5.606
 4644SOL    HW214832   3.334   4.933   5.504
 4645SOL     OW14833   1.541   6.258   4.768
 4645SOL    HW114834   1.569   6.213   4.683
 4645SOL    HW214835   1.477   6.199   4.818
 4646SOL     OW14836   3.285   0.664   0.997
 4646SOL    HW114837   3.331   0.741   0.952
 4646SOL    HW214838   3.245   0.695   1.083
 4647SOL     OW14839   6.817   0.356   5.066
 4647SOL    HW114840   6.866   0.366   5.153
 4647SOL    HW214841   6.767   0.270   5.065
 4648SOL     OW14842   2.352   6.222   3.509
 4648SOL    HW114843   2.311   6.132   3.494
 4648SOL    HW214844   2.447   6.221   3.478
 4649SOL     OW14845   5.917   5.757   5.798
 4649SOL    HW114846   5.884   5.811   5.876
 4649SOL    HW214847   5.967   5.817   5.735
 4650SOL     OW14848   6.548   4.777   1.108
 4650SOL    HW114849   6.466   4.753   1.161
 4650SOL    HW214850   6.629   4.746   1.157
 4651SOL     OW14851   6.024   2.150   2.066
 4651SOL    HW114852   6.041   2.223   2.000
 4651SOL    HW214853   5.929   2.122   2.061
 4652SOL     OW14854   0.167   6.275   5.507
 4652SOL    HW114855   0.153   6.197   5.446
 4652SOL    HW214856   0.264   6.300   5.507
 4653SOL     OW14857   1.286   4.981   6.984
 4653SOL    HW114858   1.209   4.930   0.008
 4653SOL    HW214859   1.327   4.928   6.910
 4654SOL     OW14860   1.309   2.017   0.205
 4654SOL    HW114861   1.308   2.002   0.106
 4654SOL    HW214862   1.392   1.977   0.244
 4655SOL     OW14863   0.768   4.892   4.032
 4655SOL    HW114864   0.713   4.859   3.955
 4655SOL    HW214865   0.864   4.868   4.016
 4656SOL     OW14866   2.819   0.389   3.144
 4656SOL    HW114867   2.852   0.310   3.196
 4656SOL    HW214868   2.814   0.365   3.047
 4657SOL     OW14869   6.429   0.750   5.942
 4657SOL    HW114870   6.397   0.806   5.865
 4657SOL    HW214871   6.361   0.752   6.015
 4658SOL     OW14872   5.447   0.244   3.462
 4658SOL    HW114873   5.414   0.335   3.488
 4658SOL    HW214874   5.522   0.218   3.523
 4659SOL     OW14875   2.162   3.419   4.625
 4659SOL    HW114876   2.095   3.380   4.689
 4659SOL    HW214877   2.235   3.463   4.677
 4660SOL     OW14878   6.520   1.238   5.168
 4660SOL    HW114879   6.551   1.324   5.129
 4660SOL    HW214880   6.571   1.162   5.126
 4661SOL     OW14881   3.950   3.017   3.826
 4661SOL    HW114882   4.024   3.075   3.791
 4661SOL    HW214883   3.885   2.999   3.752
 4662SOL     OW14884   6.216   6.382   4.318
 4662SOL    HW114885   6.295   6.417   4.368
 4662SOL    HW214886   6.200   6.439   4.238
 4663SOL     OW14887   0.788   2.562   2.501
 4663SOL    HW114888   0.833   2.476   2.476
 4663SOL    HW214889   0.771   2.564   2.600
 4664SOL     OW14890   3.595   4.169   0.207
 4664SOL    HW114891   3.623   4.096   0.145
 4664SOL    HW214892   3.594   4.256   0.158
 4665SOL     OW14893   5.756   0.242   5.698
 4665SOL    HW114894   5.724   0.336   5.711
 4665SOL    HW214895   5.696   0.195   5.633
 4666SOL     OW14896   1.757   1.337   0.362
 4666SOL    HW114897   1.837   1.299   0.315
 4666SOL    HW214898   1.778   1.429   0.393
 4667SOL     OW14899   0.364   6.034   3.832
 4667SOL    HW114900   0.289   5.989   3.880
 4667SOL    HW214901   0.345   6.036   3.734
 4668SOL     OW14902   5.219   0.586   4.873
 4668SOL    HW114903   5.250   0.671   4.916
 4668SOL    HW214904   5.166   0.533   4.939
 4669SOL     OW14905   2.132   1.857   2.412
 4669SOL    HW114906   2.037   1.863   2.382
 4669SOL    HW214907   2.190   1.909   2.349
 4670SOL     OW14908   2.308   1.564   4.598
 4670SOL    HW114909   2.270   1.551   4.506
 4670SOL    HW214910   2.309   1.662   4.620
 4671SOL     OW14911   6.017   1.796   2.761
 4671SOL    HW114912   5.931   1.847   2.771
 4671SOL    HW214913   6.004   1.719   2.698
 4672SOL     OW14914   2.814   2.253   4.893
 4672SOL    HW114915   2.812   2.157   4.864
 4672SOL    HW214916   2.904   2.274   4.931
 4673SOL     OW14917   5.336   0.442   2.075
 4673SOL    HW114918   5.296   0.396   2.155
 4673SOL    HW214919   5.351   0.538   2.096
 4674SOL     OW14920   4.768   6.411   5.315
 4674SOL    HW114921   4.677   6.414   5.274
 4674SOL    HW214922   4.826   6.348   5.262
 4675SOL     OW14923   0.727   4.379   6.714
 4675SOL    HW114924   0.745   4.450   6.646
 4675SOL    HW214925   0.808   4.367   6.771
 4676SOL     OW14926   1.148   4.540   3.794
 4676SOL    HW114927   1.140   4.503   3.702
 4676SOL    HW214928   1.105   4.479   3.860
 4677SOL     OW14929   1.205   3.383   0.744
 4677SOL    HW114930   1.177   3.301   0.694
 4677SOL    HW214931   1.267   3.437   0.688
 4678SOL     OW14932   1.151   2.945   1.321
 4678SOL    HW114933   1.191   3.032   1.294
 4678SOL    HW214934   1.051   2.951   1.316
 4679SOL     OW14935   4.586   0.622   2.563
 4679SOL    HW114936   4.557   0.622   2.659
 4679SOL    HW214937   4.511   0.592   2.505
 4680SOL     OW14938   2.216   0.738   6.530
 4680SOL    HW114939   2.210   0.821   6.473
 4680SOL    HW214940   2.282   0.753   6.603
 4681SOL     OW14941   4.658   5.670   2.427
 4681SOL    HW114942   4.558   5.668   2.426
 4681SOL    HW214943   4.691   5.675   2.332
 4682SOL     OW14944   3.603   3.232   6.017
 4682SOL    HW114945   3.651   3.161   5.965
 4682SOL    HW214946   3.510   3.201   6.038
 4683SOL     OW14947   6.595   4.262   4.116
 4683SOL    HW114948   6.667   4.290   4.179
 4683SOL    HW214949   6.623   4.179   4.068
 4684SOL     OW14950   5.608   0.126   5.501
 4684SOL    HW114951   5.639   0.174   5.419
 4684SOL    HW214952   5.654   0.037   5.506
 4685SOL     OW14953   3.198   4.126   4.358
 4685SOL    HW114954   3.290   4.149   4.328
 4685SOL    HW214955   3.187   4.152   4.454
 4686SOL     OW14956   1.307   6.974   6.924
 4686SOL    HW114957   1.320   6.998   0.005
 4686SOL    HW214958   1.224   6.920   6.914
 4687SOL     OW14959   1.600   0.806   2.596
 4687SOL    HW114960   1.597   0.832   2.693
 4687SOL    HW214961   1.526   0.851   2.547
 4688SOL     OW14962   4.633   2.737   4.825
 4688SOL    HW114963   4.622   2.836   4.820
 4688SOL    HW214964   4.574   2.700   4.897
 4689SOL     OW14965   6.896   0.775   1.136
 4689SOL    HW114966   6.855   0.750   1.224
 4689SOL    HW214967   6.972   0.714   1.116
 4690SOL     OW14968   3.720   2.678   1.075
 4690SOL    HW114969   3.714   2.760   1.133
 4690SOL    HW214970   3.740   2.598   1.131
 4691SOL     OW14971   6.477   3.625   1.904
 4691SOL    HW114972   6.501   3.673   1.989
 4691SOL    HW214973   6.381   3.597   1.907
 4692SOL     OW14974   5.350   2.938   2.474
 4692SOL    HW114975   5.316   2.857   2.427
 4692SOL    HW214976   5.444   2.921   2.505
 4693SOL     OW14977   0.253   0.265   3.588
 4693SOL    HW114978   0.285   0.354   3.622
 4693SOL    HW214979   0.322   0.196   3.605
 4694SOL     OW14980   2.274   6.703   6.104
 4694SOL    HW114981   2.285   6.607   6.128
 4694SOL    HW214982   2.357   6.753   6.127
 4695SOL     OW14983   2.204   4.760   1.932
 4695SOL    HW114984   2.300   4.739   1.916
 4695SOL    HW214985   2.147   4.690   1.889
 4696SOL     OW14986   1.968   6.483   6.123
 4696SOL    HW114987   1.961   6.384   6.140
 4696SOL    HW214988   2.021   6.498   6.040
 4697SOL     OW14989   4.741   5.688   0.849
 4697SOL    HW114990   4.694   5.776   0.838
 4697SOL    HW214991   4.720   5.651   0.939
 4698SOL     OW14992   5.333   1.356   4.491
 4698SOL    HW114993   5.240   1.381   4.465
 4698SOL    HW214994   5.390   1.349   4.409
 4699SOL     OW14995   0.798   1.444   2.602
 4699SOL    HW114996   0.880   1.492   2.570
 4699SOL    HW214997   0.792   1.452   2.701
 4700SOL     OW14998   6.469   1.987   3.270
 4700SOL    HW114999   6.396   2.041   3.313
 4700SOL    HW215000   6.436   1.950   3.183
 4701SOL     OW15001   2.999   2.681   1.758
 4701SOL    HW115002   2.972   2.624   1.836
 4701SOL    HW215003   2.921   2.734   1.726
 4702SOL     OW15004   6.505   5.043   1.058
 4702SOL    HW115005   6.420   5.059   1.008
 4702SOL    HW215006   6.521   4.945   1.066
 4703SOL     OW15007   0.412   4.969   3.665
 4703SOL    HW115008   0.379   4.963   3.571
 4703SOL    HW215009   0.395   5.061   3.700
 4704SOL     OW15010   1.762   4.698   4.903
 4704SOL    HW115011   1.664   4.700   4.921
 4704SOL    HW215012   1.812   4.693   4.990
 4705SOL     OW15013   3.377   1.942   1.965
 4705SOL    HW115014   3.282   1.969   1.954
 4705SOL    HW215015   3.428   1.966   1.882
 4706SOL     OW15016   1.726   2.124   0.936
 4706SOL    HW115017   1.698   2.031   0.960
 4706SOL    HW215018   1.647   2.185   0.944
 4707SOL     OW15019   1.697   5.455   1.899
 4707SOL    HW115020   1.767   5.493   1.960
 4707SOL    HW215021   1.713   5.487   1.806
 4708SOL     OW15022   2.135   2.803   6.351
 4708SOL    HW115023   2.112   2.739   6.425
 4708SOL    HW215024   2.099   2.893   6.374
 4709SOL     OW15025   5.487   3.567   4.925
 4709SOL    HW115026   5.390   3.574   4.949
 4709SOL    HW215027   5.542   3.605   5.000
 4710SOL     OW15028   5.813   5.636   5.351
 4710SOL    HW115029   5.818   5.666   5.256
 4710SOL    HW215030   5.838   5.540   5.358
 4711SOL     OW15031   5.096   4.527   3.084
 4711SOL    HW115032   5.190   4.509   3.112
 4711SOL    HW215033   5.037   4.451   3.112
 4712SOL     OW15034   3.740   4.747   5.691
 4712SOL    HW115035   3.713   4.816   5.759
 4712SOL    HW215036   3.683   4.757   5.609
 4713SOL     OW15037   5.588   4.546   0.904
 4713SOL    HW115038   5.505   4.490   0.914
 4713SOL    HW215039   5.563   4.642   0.894
 4714SOL     OW15040   4.290   1.772   5.873
 4714SOL    HW115041   4.230   1.693   5.885
 4714SOL    HW215042   4.286   1.830   5.955
 4715SOL     OW15043   6.758   1.795   2.368
 4715SOL    HW115044   6.722   1.846   2.289
 4715SOL    HW215045   6.856   1.782   2.356
 4716SOL     OW15046   3.501   4.431   5.587
 4716SOL    HW115047   3.419   4.451   5.642
 4716SOL    HW215048   3.583   4.450   5.641
 4717SOL     OW15049   1.896   4.921   5.894
 4717SOL    HW115050   1.912   5.015   5.864
 4717SOL    HW215051   1.800   4.896   5.877
 4718SOL     OW15052   4.918   3.923   2.483
 4718SOL    HW115053   4.933   3.898   2.387
 4718SOL    HW215054   4.870   4.010   2.488
 4719SOL     OW15055   5.958   3.723   4.060
 4719SOL    HW115056   5.880   3.775   4.097
 4719SOL    HW215057   5.928   3.667   3.984
 4720SOL     OW15058   1.112   2.183   6.340
 4720SOL    HW115059   1.192   2.148   6.292
 4720SOL    HW215060   1.035   2.188   6.276
 4721SOL     OW15061   0.328   2.793   2.698
 4721SOL    HW115062   0.302   2.821   2.790
 4721SOL    HW215063   0.306   2.867   2.634
 4722SOL     OW15064   1.345   5.540   5.831
 4722SOL    HW115065   1.394   5.595   5.765
 4722SOL    HW215066   1.335   5.591   5.917
 4723SOL     OW15067   2.547   4.890   6.381
 4723SOL    HW115068   2.462   4.860   6.338
 4723SOL    HW215069   2.533   4.981   6.421
 4724SOL     OW15070   0.243   6.970   4.165
 4724SOL    HW115071   0.170   0.012   4.202
 4724SOL    HW215072   0.246   6.884   4.216
 4725SOL     OW15073   6.395   5.082   1.434
 4725SOL    HW115074   6.326   5.039   1.375
 4725SOL    HW215075   6.466   5.122   1.377
 4726SOL     OW15076   1.766   2.756   5.671
 4726SOL    HW115077   1.810   2.701   5.742
 4726SOL    HW215078   1.834   2.810   5.622
 4727SOL     OW15079   6.145   5.643   1.551
 4727SOL    HW115080   6.049   5.635   1.578
 4727SOL    HW215081   6.173   5.739   1.554
 4728SOL     OW15082   4.950   0.435   3.460
 4728SOL    HW115083   4.899   0.507   3.412
 4728SOL    HW215084   5.016   0.478   3.523
 4729SOL     OW15085   0.148   1.074   2.634
 4729SOL    HW115086   0.112   1.155   2.678
 4729SOL    HW215087   0.143   0.996   2.697
 4730SOL     OW15088   3.059   0.808   3.682
 4730SOL    HW115089   3.028   0.786   3.774
 4730SOL    HW215090   2.981   0.803   3.619
 4731SOL     OW15091   3.233   6.760   2.015
 4731SOL    HW115092   3.188   6.795   1.933
 4731SOL    HW215093   3.276   6.835   2.065
 4732SOL     OW15094   0.348   4.933   4.842
 4732SOL    HW115095   0.330   4.992   4.921
 4732SOL    HW215096   0.417   4.975   4.784
 4733SOL     OW15097   1.709   4.039   3.104
 4733SOL    HW115098   1.658   3.992   3.176
 4733SOL    HW215099   1.663   4.024   3.016
 4734SOL     OW15100   4.745   4.139   6.518
 4734SOL    HW115101   4.693   4.087   6.586
 4734SOL    HW215102   4.759   4.232   6.551
 4735SOL     OW15103   6.915   0.392   5.321
 4735SOL    HW115104   6.979   0.315   5.314
 4735SOL    HW215105   6.964   0.471   5.358
 4736SOL     OW15106   6.247   0.679   4.764
 4736SOL    HW115107   6.181   0.603   4.766
 4736SOL    HW215108   6.304   0.671   4.682
 4737SOL     OW15109   2.373   5.181   0.022
 4737SOL    HW115110   2.345   5.212   0.113
 4737SOL    HW215111   2.405   5.086   0.028
 4738SOL     OW15112   0.377   5.440   3.388
 4738SOL    HW115113   0.339   5.533   3.385
 4738SOL    HW215114   0.304   5.376   3.411
 4739SOL     OW15115   5.683   3.622   3.525
 4739SOL    HW115116   5.648   3.605   3.432
 4739SOL    HW215117   5.610   3.608   3.591
 4740SOL     OW15118   2.365   6.509   0.912
 4740SOL    HW115119   2.362   6.608   0.895
 4740SOL    HW215120   2.331   6.461   0.832
 4741SOL     OW15121   5.593   4.567   1.736
 4741SOL    HW115122   5.632   4.620   1.660
 4741SOL    HW215123   5.579   4.473   1.707
 4742SOL     OW15124   1.866   5.616   2.054
 4742SOL    HW115125   1.833   5.699   2.010
 4742SOL    HW215126   1.965   5.611   2.046
 4743SOL     OW15127   2.677   3.933   0.500
 4743SOL    HW115128   2.719   3.886   0.422
 4743SOL    HW215129   2.680   3.873   0.580
 4744SOL     OW15130   2.894   1.662   5.803
 4744SOL    HW115131   2.797   1.643   5.785
 4744SOL    HW215132   2.902   1.723   5.881
 4745SOL     OW15133   4.472   5.692   4.434
 4745SOL    HW115134   4.471   5.783   4.391
 4745SOL    HW215135   4.390   5.641   4.407
 4746SOL     OW15136   5.513   1.256   0.928
 4746SOL    HW115137   5.531   1.159   0.942
 4746SOL    HW215138   5.498   1.299   1.017
 4747SOL     OW15139   0.875   2.817   2.459
 4747SOL    HW115140   0.897   2.821   2.361
 4747SOL    HW215141   0.852   2.723   2.484
 4748SOL     OW15142   2.291   6.323   0.276
 4748SOL    HW115143   2.261   6.230   0.295
 4748SOL    HW215144   2.277   6.380   0.357
 4749SOL     OW15145   3.522   0.901   6.766
 4749SOL    HW115146   3.509   0.943   6.676
 4749SOL    HW215147   3.541   0.803   6.754
 4750SOL     OW15148   0.501   2.120   5.003
 4750SOL    HW115149   0.576   2.182   5.027
 4750SOL    HW215150   0.483   2.058   5.079
 4751SOL     OW15151   1.481   4.385   6.828
 4751SOL    HW115152   1.551   4.439   6.875
 4751SOL    HW215153   1.396   4.437   6.824
 4752SOL     OW15154   2.024   6.006   1.420
 4752SOL    HW115155   2.066   6.096   1.422
 4752SOL    HW215156   1.966   5.998   1.339
 4753SOL     OW15157   0.288   0.935   6.307
 4753SOL    HW115158   0.381   0.903   6.289
 4753SOL    HW215159   0.277   1.026   6.270
 4754SOL     OW15160   1.531   1.503   6.224
 4754SOL    HW115161   1.454   1.451   6.187
 4754SOL    HW215162   1.519   1.514   6.323
 4755SOL     OW15163   3.191   6.870   2.902
 4755SOL    HW115164   3.092   6.860   2.912
 4755SOL    HW215165   3.213   6.965   2.882
 4756SOL     OW15166   5.726   2.273   1.423
 4756SOL    HW115167   5.792   2.283   1.349
 4756SOL    HW215168   5.642   2.233   1.389
 4757SOL     OW15169   2.538   2.607   0.690
 4757SOL    HW115170   2.607   2.597   0.618
 4757SOL    HW215171   2.581   2.598   0.780
 4758SOL     OW15172   6.083   3.940   6.450
 4758SOL    HW115173   6.103   4.037   6.436
 4758SOL    HW215174   6.164   3.886   6.427
 4759SOL     OW15175   7.012   4.420   6.469
 4759SOL    HW115176   0.030   4.336   6.428
 4759SOL    HW215177   0.037   4.499   6.422
 4760SOL     OW15178   1.111   2.587   0.348
 4760SOL    HW115179   1.131   2.673   0.395
 4760SOL    HW215180   1.098   2.605   0.250
 4761SOL     OW15181   2.775   6.141   6.241
 4761SOL    HW115182   2.872   6.161   6.235
 4761SOL    HW215183   2.751   6.119   6.336
 4762SOL     OW15184   3.739   0.124   2.561
 4762SOL    HW115185   3.736   0.135   2.660
 4762SOL    HW215186   3.748   0.027   2.539
 4763SOL     OW15187   4.799   4.939   5.061
 4763SOL    HW115188   4.857   4.992   5.123
 4763SOL    HW215189   4.704   4.943   5.092
 4764SOL     OW15190   3.660   3.695   3.763
 4764SOL    HW115191   3.711   3.720   3.681
 4764SOL    HW215192   3.705   3.619   3.809
 4765SOL     OW15193   5.773   5.688   6.492
 4765SOL    HW115194   5.847   5.753   6.512
 4765SOL    HW215195   5.718   5.722   6.416
 4766SOL     OW15196   2.875   1.481   3.272
 4766SOL    HW115197   2.865   1.522   3.363
 4766SOL    HW215198   2.907   1.387   3.281
 4767SOL     OW15199   4.503   0.751   6.935
 4767SOL    HW115200   4.470   0.681   6.871
 4767SOL    HW215201   4.444   0.831   6.929
 4768SOL     OW15202   1.839   0.635   5.349
 4768SOL    HW115203   1.935   0.608   5.356
 4768SOL    HW215204   1.831   0.734   5.362
 4769SOL     OW15205   4.677   0.618   1.705
 4769SOL    HW115206   4.635   0.700   1.666
 4769SOL    HW215207   4.669   0.619   1.804
 4770SOL     OW15208   2.193   0.912   4.001
 4770SOL    HW115209   2.113   0.964   4.031
 4770SOL    HW215210   2.168   0.852   3.925
 4771SOL     OW15211   3.749   4.484   5.675
 4771SOL    HW115212   3.810   4.442   5.742
 4771SOL    HW215213   3.743   4.582   5.693
 4772SOL     OW15214   3.148   2.729   0.279
 4772SOL    HW115215   3.160   2.738   0.180
 4772SOL    HW215216   3.051   2.735   0.302
 4773SOL     OW15217   6.735   5.020   5.354
 4773SOL    HW115218   6.808   5.087   5.347
 4773SOL    HW215219   6.647   5.064   5.334
 4774SOL     OW15220   1.646   4.628   6.877
 4774SOL    HW115221   1.557   4.660   6.843
 4774SOL    HW215222   1.689   4.701   6.929
 4775SOL     OW15223   2.027   2.783   2.260
 4775SOL    HW115224   2.053   2.716   2.190
 4775SOL    HW215225   2.097   2.854   2.265
 4776SOL     OW15226   4.206   5.149   1.850
 4776SOL    HW115227   4.254   5.231   1.819
 4776SOL    HW215228   4.223   5.075   1.785
 4777SOL     OW15229   2.285   4.241   1.647
 4777SOL    HW115230   2.327   4.330   1.663
 4777SOL    HW215231   2.353   4.168   1.660
 4778SOL     OW15232   5.397   3.672   2.562
 4778SOL    HW115233   5.324   3.730   2.527
 4778SOL    HW215234   5.470   3.729   2.599
 4779SOL     OW15235   5.179   1.129   2.863
 4779SOL    HW115236   5.244   1.087   2.927
 4779SOL    HW215237   5.113   1.060   2.834
 4780SOL     OW15238   1.950   1.271   5.730
 4780SOL    HW115239   1.929   1.204   5.660
 4780SOL    HW215240   1.866   1.301   5.774
 4781SOL     OW15241   2.138   5.540   3.076
 4781SOL    HW115242   2.196   5.540   3.157
 4781SOL    HW215243   2.180   5.484   3.004
 4782SOL     OW15244   6.153   6.280   6.927
 4782SOL    HW115245   6.092   6.349   6.889
 4782SOL    HW215246   6.199   6.231   6.852
 4783SOL     OW15247   6.022   3.934   2.618
 4783SOL    HW115248   6.046   3.997   2.544
 4783SOL    HW215249   5.937   3.886   2.595
 4784SOL     OW15250   5.652   4.598   5.197
 4784SOL    HW115251   5.673   4.621   5.102
 4784SOL    HW215252   5.721   4.638   5.257
 4785SOL     OW15253   5.558   6.555   0.759
 4785SOL    HW115254   5.536   6.458   0.771
 4785SOL    HW215255   5.657   6.565   0.748
 4786SOL     OW15256   1.172   4.073   2.362
 4786SOL    HW115257   1.255   4.078   2.417
 4786SOL    HW215258   1.151   4.163   2.324
 4787SOL     OW15259   3.995   2.143   3.075
 4787SOL    HW115260   3.943   2.058   3.082
 4787SOL    HW215261   4.078   2.137   3.131
 4788SOL     OW15262   2.253   0.272   4.509
 4788SOL    HW115263   2.301   0.359   4.494
 4788SOL    HW215264   2.264   0.244   4.604
 4789SOL     OW15265   5.310   6.153   0.105
 4789SOL    HW115266   5.314   6.106   0.193
 4789SOL    HW215267   5.252   6.234   0.113
 4790SOL     OW15268   5.119   0.090   6.711
 4790SOL    HW115269   5.097   7.011   6.689
 4790SOL    HW215270   5.135   0.099   6.810
 4791SOL     OW15271   4.273   2.313   3.395
 4791SOL    HW115272   4.372   2.303   3.403
 4791SOL    HW215273   4.251   2.362   3.310
 4792SOL     OW15274   3.118   3.472   0.795
 4792SOL    HW115275   3.059   3.496   0.872
 4792SOL    HW215276   3.106   3.375   0.772
 4793SOL     OW15277   0.291   0.669   0.117
 4793SOL    HW115278   0.356   0.743   0.138
 4793SOL    HW215279   0.270   0.618   0.200
 4794SOL     OW15280   5.412   1.477   1.899
 4794SOL    HW115281   5.448   1.488   1.992
 4794SOL    HW215282   5.443   1.553   1.842
 4795SOL     OW15283   5.876   2.732   4.008
 4795SOL    HW115284   5.851   2.795   3.935
 4795SOL    HW215285   5.872   2.779   4.096
 4796SOL     OW15286   5.141   3.879   0.437
 4796SOL    HW115287   5.237   3.902   0.449
 4796SOL    HW215288   5.100   3.943   0.371
 4797SOL     OW15289   1.092   5.892   4.568
 4797SOL    HW115290   1.058   5.814   4.515
 4797SOL    HW215291   1.182   5.871   4.605
 4798SOL     OW15292   7.003   5.187   5.921
 4798SOL    HW115293   6.994   5.112   5.856
 4798SOL    HW215294   6.920   5.191   5.978
 4799SOL     OW15295   5.058   1.523   3.913
 4799SOL    HW115296   5.108   1.439   3.891
 4799SOL    HW215297   4.963   1.513   3.884
 4800SOL     OW15298   1.729   2.842   3.783
 4800SOL    HW115299   1.814   2.860   3.732
 4800SOL    HW215300   1.750   2.784   3.862
 4801SOL     OW15301   0.046   2.076   0.464
 4801SOL    HW115302   6.989   2.015   0.495
 4801SOL    HW215303   0.132   2.024   0.459
 4802SOL     OW15304   1.603   0.409   1.898
 4802SOL    HW115305   1.692   0.431   1.859
 4802SOL    HW215306   1.596   0.446   1.990
 4803SOL     OW15307   1.037   6.921   0.781
 4803SOL    HW115308   1.022   7.010   0.824
 4803SOL    HW215309   1.072   6.857   0.849
 4804SOL     OW15310   4.533   5.601   0.507
 4804SOL    HW115311   4.591   5.674   0.469
 4804SOL    HW215312   4.568   5.512   0.477
 4805SOL     OW15313   0.434   0.039   1.805
 4805SOL    HW115314   0.362   6.998   1.765
 4805SOL    HW215315   0.394   0.121   1.844
 4806SOL     OW15316   0.258   2.217   4.032
 4806SOL    HW115317   0.238   2.208   3.935
 4806SOL    HW215318   0.313   2.299   4.047
 4807SOL     OW15319   1.073   0.364   2.645
 4807SOL    HW115320   1.077   0.283   2.703
 4807SOL    HW215321   1.080   0.336   2.549
 4808SOL     OW15322   6.638   2.359   0.378
 4808SOL    HW115323   6.555   2.386   0.426
 4808SOL    HW215324   6.635   2.394   0.284
 4809SOL     OW15325   4.670   7.014   0.525
 4809SOL    HW115326   4.762   6.985   0.499
 4809SOL    HW215327   4.625   0.040   0.446
 4810SOL     OW15328   2.017   6.222   0.037
 4810SOL    HW115329   1.927   6.189   0.009
 4810SOL    HW215330   2.008   6.316   0.072
 4811SOL     OW15331   5.108   4.095   4.133
 4811SOL    HW115332   5.158   4.018   4.092
 4811SOL    HW215333   5.136   4.106   4.228
 4812SOL     OW15334   6.471   5.140   4.105
 4812SOL    HW115335   6.429   5.142   4.014
 4812SOL    HW215336   6.449   5.225   4.153
 4813SOL     OW15337   5.639   3.397   3.031
 4813SOL    HW115338   5.679   3.325   2.974
 4813SOL    HW215339   5.638   3.367   3.126
 4814SOL     OW15340   0.016   2.906   1.280
 4814SOL    HW115341   0.053   2.813   1.279
 4814SOL    HW215342   6.943   2.906   1.327
 4815SOL     OW15343   4.879   0.263   3.727
 4815SOL    HW115344   4.784   0.232   3.737
 4815SOL    HW215345   4.890   0.305   3.637
 4816SOL     OW15346   5.690   4.346   3.924
 4816SOL    HW115347   5.632   4.320   3.847
 4816SOL    HW215348   5.777   4.298   3.918
 4817SOL     OW15349   6.260   1.719   6.711
 4817SOL    HW115350   6.238   1.816   6.704
 4817SOL    HW215351   6.234   1.685   6.802
 4818SOL     OW15352   6.802   5.862   3.515
 4818SOL    HW115353   6.810   5.867   3.415
 4818SOL    HW215354   6.866   5.926   3.557
 4819SOL     OW15355   1.811   3.212   0.730
 4819SOL    HW115356   1.784   3.223   0.635
 4819SOL    HW215357   1.872   3.132   0.738
 4820SOL     OW15358   6.749   3.821   1.926
 4820SOL    HW115359   6.671   3.790   1.979
 4820SOL    HW215360   6.820   3.856   1.987
 4821SOL     OW15361   0.718   5.569   3.964
 4821SOL    HW115362   0.778   5.582   4.044
 4821SOL    HW215363   0.720   5.652   3.908
 4822SOL     OW15364   2.553   4.589   4.368
 4822SOL    HW115365   2.622   4.646   4.322
 4822SOL    HW215366   2.473   4.579   4.308
 4823SOL     OW15367   1.106   2.073   0.599
 4823SOL    HW115368   1.205   2.080   0.592
 4823SOL    HW215369   1.066   2.061   0.507
 4824SOL     OW15370   6.689   2.165   6.901
 4824SOL    HW115371   6.599   2.124   6.913
 4824SOL    HW215372   6.757   2.093   6.891
 4825SOL     OW15373   1.065   6.364   3.771
 4825SOL    HW115374   1.071   6.274   3.728
 4825SOL    HW215375   0.991   6.417   3.729
 4826SOL     OW15376   4.241   6.675   0.464
 4826SOL    HW115377   4.340   6.683   0.451
 4826SOL    HW215378   4.222   6.626   0.549
 4827SOL     OW15379   5.948   1.505   1.463
 4827SOL    HW115380   6.033   1.457   1.441
 4827SOL    HW215381   5.942   1.519   1.562
 4828SOL     OW15382   5.287   1.075   6.390
 4828SOL    HW115383   5.257   1.048   6.481
 4828SOL    HW215384   5.387   1.077   6.387
 4829SOL     OW15385   4.456   5.907   5.135
 4829SOL    HW115386   4.523   5.981   5.128
 4829SOL    HW215387   4.483   5.845   5.209
 4830SOL     OW15388   1.813   6.693   3.458
 4830SOL    HW115389   1.912   6.689   3.477
 4830SOL    HW215390   1.799   6.715   3.362
 4831SOL     OW15391   3.016   4.912   5.445
 4831SOL    HW115392   3.026   4.813   5.438
 4831SOL    HW215393   3.088   4.957   5.392
 4832SOL     OW15394   4.057   3.210   4.393
 4832SOL    HW115395   4.042   3.281   4.461
 4832SOL    HW215396   4.031   3.121   4.432
 4833SOL     OW15397   5.745   2.324   5.218
 4833SOL    HW115398   5.838   2.289   5.203
 4833SOL    HW215399   5.749   2.423   5.232
 4834SOL     OW15400   0.658   5.025   0.918
 4834SOL    HW115401   0.757   5.039   0.920
 4834SOL    HW215402   0.614   5.104   0.874
 4835SOL     OW15403   6.736   3.431   6.126
 4835SOL    HW115404   6.679   3.485   6.187
 4835SOL    HW215405   6.828   3.470   6.122
 4836SOL     OW15406   4.652   0.838   5.760
 4836SOL    HW115407   4.709   0.816   5.681
 4836SOL    HW215408   4.631   0.754   5.810
 4837SOL     OW15409   1.206   3.503   4.769
 4837SOL    HW115410   1.256   3.578   4.725
 4837SOL    HW215411   1.262   3.420   4.765
 4838SOL     OW15412   2.304   4.209   5.816
 4838SOL    HW115413   2.339   4.129   5.865
 4838SOL    HW215414   2.374   4.243   5.754
 4839SOL     OW15415   2.554   1.043   2.144
 4839SOL    HW115416   2.523   0.952   2.172
 4839SOL    HW215417   2.560   1.047   2.044
 4840SOL     OW15418   4.792   2.270   3.461
 4840SOL    HW115419   4.770   2.242   3.367
 4840SOL    HW215420   4.804   2.369   3.464
 4841SOL     OW15421   2.898   5.364   2.986
 4841SOL    HW115422   2.904   5.273   3.025
 4841SOL    HW215423   2.964   5.425   3.031
 4842SOL     OW15424   4.289   5.288   3.351
 4842SOL    HW115425   4.388   5.304   3.339
 4842SOL    HW215426   4.239   5.342   3.283
 4843SOL     OW15427   5.339   2.268   0.249
 4843SOL    HW115428   5.420   2.275   0.190
 4843SOL    HW215429   5.257   2.267   0.191
 4844SOL     OW15430   0.940   5.127   6.676
 4844SOL    HW115431   0.871   5.128   6.603
 4844SOL    HW215432   0.902   5.084   6.757
 4845SOL     OW15433   5.354   4.041   5.064
 4845SOL    HW115434   5.289   3.979   5.020
 4845SOL    HW215435   5.348   4.132   5.023
 4846SOL     OW15436   6.624   4.283   4.517
 4846SOL    HW115437   6.531   4.253   4.493
 4846SOL    HW215438   6.662   4.338   4.442
 4847SOL     OW15439   3.072   6.986   0.115
 4847SOL    HW115440   3.074   6.973   0.016
 4847SOL    HW215441   3.074   6.897   0.160
 4848SOL     OW15442   4.608   1.218   3.839
 4848SOL    HW115443   4.582   1.121   3.838
 4848SOL    HW215444   4.606   1.252   3.933
 4849SOL     OW15445   1.426   5.487   2.008
 4849SOL    HW115446   1.521   5.466   1.983
 4849SOL    HW215447   1.406   5.448   2.098
 4850SOL     OW15448   3.561   0.052   2.275
 4850SOL    HW115449   3.602   0.114   2.208
 4850SOL    HW215450   3.618   0.048   2.356
 4851SOL     OW15451   4.664   4.592   6.807
 4851SOL    HW115452   4.639   4.533   6.884
 4851SOL    HW215453   4.763   4.606   6.806
 4852SOL     OW15454   4.909   3.959   5.631
 4852SOL    HW115455   4.900   4.003   5.542
 4852SOL    HW215456   4.995   3.908   5.635
 4853SOL     OW15457   4.050   0.642   2.976
 4853SOL    HW115458   3.995   0.704   3.032
 4853SOL    HW215459   4.070   0.559   3.027
 4854SOL     OW15460   4.199   6.733   2.398
 4854SOL    HW115461   4.269   6.735   2.327
 4854SOL    HW215462   4.202   6.645   2.446
 4855SOL     OW15463   4.112   4.996   5.643
 4855SOL    HW115464   4.157   4.906   5.646
 4855SOL    HW215465   4.059   5.004   5.559
 4856SOL     OW15466   1.101   2.659   2.361
 4856SOL    HW115467   1.125   2.612   2.447
 4856SOL    HW215468   1.007   2.636   2.336
 4857SOL     OW15469   2.624   1.961   5.879
 4857SOL    HW115470   2.595   2.008   5.795
 4857SOL    HW215471   2.547   1.912   5.919
 4858SOL     OW15472   1.910   4.884   4.760
 4858SOL    HW115473   1.884   4.822   4.834
 4858SOL    HW215474   1.892   4.840   4.672
 4859SOL     OW15475   6.421   5.495   3.349
 4859SOL    HW115476   6.375   5.410   3.375
 4859SOL    HW215477   6.354   5.568   3.341
 4860SOL     OW15478   4.187   5.356   1.107
 4860SOL    HW115479   4.155   5.283   1.047
 4860SOL    HW215480   4.194   5.441   1.055
 4861SOL     OW15481   6.244   4.758   4.663
 4861SOL    HW115482   6.309   4.760   4.588
 4861SOL    HW215483   6.151   4.771   4.627
 4862SOL     OW15484   1.820   5.556   4.524
 4862SOL    HW115485   1.854   5.610   4.448
 4862SOL    HW215486   1.897   5.517   4.574
 4863SOL     OW15487   5.925   1.441   1.738
 4863SOL    HW115488   5.939   1.527   1.787
 4863SOL    HW215489   5.850   1.390   1.780
 4864SOL     OW15490   2.329   2.923   1.672
 4864SOL    HW115491   2.295   2.938   1.765
 4864SOL    HW215492   2.278   2.849   1.629
 4865SOL     OW15493   3.786   6.708   5.183
 4865SOL    HW115494   3.703   6.753   5.150
 4865SOL    HW215495   3.841   6.677   5.106
 4866SOL     OW15496   0.609   4.884   1.638
 4866SOL    HW115497   0.578   4.959   1.580
 4866SOL    HW215498   0.532   4.850   1.692
 4867SOL     OW15499   5.653   4.910   5.875
 4867SOL    HW115500   5.724   4.862   5.824
 4867SOL    HW215501   5.641   4.867   5.965
 4868SOL     OW15502   2.090   5.873   1.969
 4868SOL    HW115503   2.169   5.933   1.955
 4868SOL    HW215504   2.065   5.830   1.882
 4869SOL     OW15505   0.517   1.863   1.867
 4869SOL    HW115506   0.462   1.871   1.950
 4869SOL    HW215507   0.536   1.767   1.848
 4870SOL     OW15508   5.985   1.085   0.831
 4870SOL    HW115509   6.008   1.085   0.734
 4870SOL    HW215510   5.930   1.005   0.853
 4871SOL     OW15511   2.087   2.610   5.476
 4871SOL    HW115512   2.186   2.613   5.469
 4871SOL    HW215513   2.060   2.554   5.554
 4872SOL     OW15514   1.965   2.553   2.548
 4872SOL    HW115515   2.041   2.579   2.490
 4872SOL    HW215516   1.895   2.625   2.547
 4873SOL     OW15517   0.716   6.752   5.776
 4873SOL    HW115518   0.678   6.831   5.823
 4873SOL    HW215519   0.672   6.741   5.687
 4874SOL     OW15520   5.751   1.962   3.892
 4874SOL    HW115521   5.723   1.890   3.956
 4874SOL    HW215522   5.724   2.051   3.928
 4875SOL     OW15523   0.046   2.878   0.285
 4875SOL    HW115524   0.091   2.813   0.346
 4875SOL    HW215525   7.002   2.828   0.222
 4876SOL     OW15526   6.593   1.020   6.987
 4876SOL    HW115527   6.496   1.034   7.009
 4876SOL    HW215528   6.632   0.954   0.036
 4877SOL     OW15529   4.333   1.906   1.330
 4877SOL    HW115530   4.406   1.919   1.397
 4877SOL    HW215531   4.365   1.842   1.259
 4878SOL     OW15532   1.238   3.034   2.301
 4878SOL    HW115533   1.228   3.111   2.239
 4878SOL    HW215534   1.305   3.056   2.372
 4879SOL     OW15535   3.578   6.178   3.390
 4879SOL    HW115536   3.485   6.184   3.352
 4879SOL    HW215537   3.613   6.086   3.375
 4880SOL     OW15538   6.369   2.048   6.027
 4880SOL    HW115539   6.402   2.064   6.120
 4880SOL    HW215540   6.269   2.041   6.028
 4881SOL     OW15541   2.958   6.224   5.730
 4881SOL    HW115542   2.941   6.249   5.634
 4881SOL    HW215543   2.929   6.299   5.789
 4882SOL     OW15544   5.815   5.825   6.769
 4882SOL    HW115545   5.845   5.883   6.845
 4882SOL    HW215546   5.854   5.733   6.781
 4883SOL     OW15547   6.055   5.816   0.152
 4883SOL    HW115548   6.072   5.798   0.056
 4883SOL    HW215549   6.142   5.831   0.199
 4884SOL     OW15550   3.832   6.284   1.544
 4884SOL    HW115551   3.795   6.219   1.610
 4884SOL    HW215552   3.867   6.364   1.592
 4885SOL     OW15553   1.661   0.688   2.107
 4885SOL    HW115554   1.657   0.742   2.023
 4885SOL    HW215555   1.683   0.748   2.184
 4886SOL     OW15556   6.104   0.991   5.557
 4886SOL    HW115557   6.126   1.036   5.643
 4886SOL    HW215558   6.114   1.056   5.482
 4887SOL     OW15559   0.116   2.175   5.516
 4887SOL    HW115560   0.145   2.180   5.612
 4887SOL    HW215561   0.047   2.103   5.506
 4888SOL     OW15562   4.274   5.936   0.928
 4888SOL    HW115563   4.179   5.940   0.958
 4888SOL    HW215564   4.334   5.931   1.008
 4889SOL     OW15565   1.445   3.445   6.388
 4889SOL    HW115566   1.505   3.366   6.402
 4889SOL    HW215567   1.447   3.471   6.292
 4890SOL     OW15568   7.014   0.465   4.327
 4890SOL    HW115569   6.930   0.493   4.281
 4890SOL    HW215570   0.046   0.546   4.361
 4891SOL     OW15571   1.207   5.124   0.548
 4891SOL    HW115572   1.131   5.072   0.585
 4891SOL    HW215573   1.183   5.160   0.458
 4892SOL     OW15574   1.936   5.813   2.326
 4892SOL    HW115575   1.995   5.892   2.339
 4892SOL    HW215576   1.898   5.814   2.234
 4893SOL     OW15577   0.306   4.508   6.430
 4893SOL    HW115578   0.297   4.442   6.505
 4893SOL    HW215579   0.385   4.566   6.445
 4894SOL     OW15580   0.655   6.687   3.227
 4894SOL    HW115581   0.569   6.644   3.256
 4894SOL    HW215582   0.642   6.728   3.136
 4895SOL     OW15583   6.309   4.292   6.586
 4895SOL    HW115584   6.254   4.240   6.651
 4895SOL    HW215585   6.405   4.290   6.615
 4896SOL     OW15586   3.938   0.657   4.505
 4896SOL    HW115587   4.026   0.673   4.549
 4896SOL    HW215588   3.937   0.704   4.416
 4897SOL     OW15589   2.598   5.300   6.933
 4897SOL    HW115590   2.645   5.358   7.000
 4897SOL    HW215591   2.503   5.289   6.960
 4898SOL     OW15592   4.997   2.786   4.189
 4898SOL    HW115593   5.028   2.774   4.283
 4898SOL    HW215594   5.022   2.706   4.135
 4899SOL     OW15595   6.774   3.622   4.634
 4899SOL    HW115596   6.766   3.611   4.733
 4899SOL    HW215597   6.785   3.719   4.612
 4900SOL     OW15598   0.536   6.717   5.572
 4900SOL    HW115599   0.491   6.729   5.483
 4900SOL    HW215600   0.472   6.739   5.645
 4901SOL     OW15601   5.630   6.098   3.321
 4901SOL    HW115602   5.564   6.162   3.360
 4901SOL    HW215603   5.605   6.079   3.226
 4902SOL     OW15604   3.854   5.186   0.721
 4902SOL    HW115605   3.775   5.125   0.716
 4902SOL    HW215606   3.831   5.266   0.776
 4903SOL     OW15607   5.877   5.060   6.240
 4903SOL    HW115608   5.976   5.059   6.253
 4903SOL    HW215609   5.846   4.968   6.216
 4904SOL     OW15610   2.904   1.188   3.588
 4904SOL    HW115611   2.968   1.232   3.651
 4904SOL    HW215612   2.860   1.111   3.634
 4905SOL     OW15613   5.914   3.797   3.043
 4905SOL    HW115614   5.832   3.741   3.032
 4905SOL    HW215615   5.974   3.784   2.963
 4906SOL     OW15616   4.626   0.378   2.170
 4906SOL    HW115617   4.544   0.362   2.224
 4906SOL    HW215618   4.641   0.300   2.109
 4907SOL     OW15619   2.748   2.636   1.540
 4907SOL    HW115620   2.815   2.585   1.594
 4907SOL    HW215621   2.660   2.636   1.587
 4908SOL     OW15622   5.227   4.936   6.350
 4908SOL    HW115623   5.324   4.912   6.340
 4908SOL    HW215624   5.218   5.035   6.355
 4909SOL     OW15625   5.756   6.317   5.744
 4909SOL    HW115626   5.754   6.413   5.716
 4909SOL    HW215627   5.830   6.270   5.696
 4910SOL     OW15628   5.322   6.600   5.630
 4910SOL    HW115629   5.302   6.581   5.534
 4910SOL    HW215630   5.359   6.693   5.638
 4911SOL     OW15631   0.290   4.410   6.695
 4911SOL    HW115632   0.206   4.368   6.730
 4911SOL    HW215633   0.369   4.360   6.730
 4912SOL     OW15634   2.173   3.144   1.179
 4912SOL    HW115635   2.141   3.121   1.087
 4912SOL    HW215636   2.167   3.064   1.238
 4913SOL     OW15637   3.090   3.268   2.016
 4913SOL    HW115638   3.042   3.200   1.962
 4913SOL    HW215639   3.074   3.251   2.114
 4914SOL     OW15640   1.189   0.087   2.716
 4914SOL    HW115641   1.225   0.058   2.805
 4914SOL    HW215642   1.265   0.097   2.652
 4915SOL     OW15643   3.595   6.575   3.954
 4915SOL    HW115644   3.550   6.566   3.865
 4915SOL    HW215645   3.682   6.623   3.943
 4916SOL     OW15646   1.305   1.354   1.910
 4916SOL    HW115647   1.222   1.329   1.961
 4916SOL    HW215648   1.351   1.429   1.956
 4917SOL     OW15649   1.022   4.615   6.392
 4917SOL    HW115650   1.110   4.579   6.422
 4917SOL    HW215651   0.983   4.556   6.322
 4918SOL     OW15652   2.483   6.771   4.239
 4918SOL    HW115653   2.415   6.728   4.299
 4918SOL    HW215654   2.562   6.798   4.294
 4919SOL     OW15655   1.916   2.946   0.700
 4919SOL    HW115656   1.852   2.937   0.623
 4919SOL    HW215657   1.876   2.907   0.782
 4920SOL     OW15658   3.598   2.009   6.598
 4920SOL    HW115659   3.552   1.964   6.521
 4920SOL    HW215660   3.535   2.015   6.675
 4921SOL     OW15661   6.791   4.813   2.491
 4921SOL    HW115662   6.794   4.902   2.537
 4921SOL    HW215663   6.735   4.821   2.409
 4922SOL     OW15664   0.585   3.157   6.198
 4922SOL    HW115665   0.563   3.066   6.162
 4922SOL    HW215666   0.683   3.163   6.218
 4923SOL     OW15667   3.411   2.205   6.719
 4923SOL    HW115668   3.439   2.293   6.681
 4923SOL    HW215669   3.348   2.160   6.656
 4924SOL     OW15670   0.142   2.771   4.438
 4924SOL    HW115671   0.222   2.766   4.498
 4924SOL    HW215672   0.120   2.867   4.419
 4925SOL     OW15673   4.494   4.905   5.111
 4925SOL    HW115674   4.432   4.828   5.096
 4925SOL    HW215675   4.490   4.933   5.207
 4926SOL     OW15676   4.229   3.343   0.601
 4926SOL    HW115677   4.229   3.355   0.502
 4926SOL    HW215678   4.148   3.291   0.628
 4927SOL     OW15679   2.915   3.783   1.837
 4927SOL    HW115680   2.947   3.876   1.850
 4927SOL    HW215681   2.977   3.719   1.883
 4928SOL     OW15682   6.899   1.563   6.970
 4928SOL    HW115683   6.956   1.620   0.014
 4928SOL    HW215684   6.937   1.565   6.878
 4929SOL     OW15685   0.935   4.277   4.409
 4929SOL    HW115686   0.872   4.351   4.433
 4929SOL    HW215687   0.997   4.260   4.486
 4930SOL     OW15688   0.282   3.749   6.919
 4930SOL    HW115689   0.214   3.729   6.848
 4930SOL    HW215690   0.250   3.715   7.007
 4931SOL     OW15691   5.431   6.995   1.053
 4931SOL    HW115692   5.503   6.996   1.122
 4931SOL    HW215693   5.470   6.966   0.965
 4932SOL     OW15694   3.589   1.517   0.926
 4932SOL    HW115695   3.688   1.503   0.921
 4932SOL    HW215696   3.570   1.602   0.975
 4933SOL     OW15697   2.730   0.151   5.148
 4933SOL    HW115698   2.738   0.140   5.049
 4933SOL    HW215699   2.638   0.127   5.177
 4934SOL     OW15700   2.173   6.242   5.040
 4934SOL    HW115701   2.237   6.313   5.069
 4934SOL    HW215702   2.221   6.154   5.036
 4935SOL     OW15703   2.006   2.194   0.580
 4935SOL    HW115704   2.085   2.201   0.641
 4935SOL    HW215705   2.033   2.224   0.488
 4936SOL     OW15706   6.548   4.191   1.608
 4936SOL    HW115707   6.626   4.134   1.582
 4936SOL    HW215708   6.492   4.142   1.675
 4937SOL     OW15709   0.774   3.758   5.115
 4937SOL    HW115710   0.800   3.846   5.076
 4937SOL    HW215711   0.807   3.684   5.056
 4938SOL     OW15712   3.657   4.268   0.904
 4938SOL    HW115713   3.647   4.298   0.810
 4938SOL    HW215714   3.663   4.168   0.906
 4939SOL     OW15715   0.880   1.469   1.152
 4939SOL    HW115716   0.916   1.421   1.232
 4939SOL    HW215717   0.932   1.442   1.071
 4940SOL     OW15718   1.817   1.339   5.141
 4940SOL    HW115719   1.903   1.344   5.090
 4940SOL    HW215720   1.836   1.327   5.238
 4941SOL     OW15721   4.001   1.978   6.092
 4941SOL    HW115722   4.060   2.045   6.137
 4941SOL    HW215723   3.909   1.983   6.132
 4942SOL     OW15724   0.555   1.120   2.319
 4942SOL    HW115725   0.630   1.064   2.353
 4942SOL    HW215726   0.513   1.170   2.395
 4943SOL     OW15727   4.998   2.662   6.321
 4943SOL    HW115728   5.032   2.633   6.232
 4943SOL    HW215729   4.974   2.759   6.318
 4944SOL     OW15730   0.718   5.025   0.630
 4944SOL    HW115731   0.639   5.084   0.649
 4944SOL    HW215732   0.686   4.937   0.596
 4945SOL     OW15733   2.456   0.024   6.347
 4945SOL    HW115734   2.385   6.972   6.327
 4945SOL    HW215735   2.430   0.076   6.429
 4946SOL     OW15736   2.918   5.663   6.854
 4946SOL    HW115737   2.844   5.685   6.790
 4946SOL    HW215738   2.886   5.593   6.918
 4947SOL     OW15739   1.228   0.149   1.246
 4947SOL    HW115740   1.222   0.049   1.252
 4947SOL    HW215741   1.150   0.191   1.292
 4948SOL     OW15742   1.634   2.983   2.365
 4948SOL    HW115743   1.586   2.989   2.277
 4948SOL    HW215744   1.588   3.042   2.432
 4949SOL     OW15745   6.372   4.896   6.274
 4949SOL    HW115746   6.422   4.955   6.337
 4949SOL    HW215747   6.410   4.906   6.182
 4950SOL     OW15748   4.211   4.090   6.036
 4950SOL    HW115749   4.164   4.053   6.115
 4950SOL    HW215750   4.239   4.184   6.055
 4951SOL     OW15751   4.909   5.167   3.454
 4951SOL    HW115752   4.823   5.216   3.443
 4951SOL    HW215753   4.896   5.087   3.513
 4952SOL     OW15754   0.759   1.072   6.775
 4952SOL    HW115755   0.795   0.994   6.826
 4952SOL    HW215756   0.767   1.055   6.677
 4953SOL     OW15757   1.426   1.257   5.881
 4953SOL    HW115758   1.335   1.249   5.840
 4953SOL    HW215759   1.459   1.351   5.870
 4954SOL     OW15760   3.303   3.629   5.408
 4954SOL    HW115761   3.211   3.603   5.377
 4954SOL    HW215762   3.328   3.717   5.369
 4955SOL     OW15763   3.813   6.210   6.986
 4955SOL    HW115764   3.889   6.213   0.036
 4955SOL    HW215765   3.729   6.239   0.015
 4956SOL     OW15766   2.597   0.520   4.396
 4956SOL    HW115767   2.619   0.441   4.339
 4956SOL    HW215768   2.575   0.598   4.337
 4957SOL     OW15769   5.935   5.499   6.897
 4957SOL    HW115770   5.890   5.553   6.968
 4957SOL    HW215771   6.005   5.441   6.939
 4958SOL     OW15772   3.510   5.161   0.207
 4958SOL    HW115773   3.567   5.170   0.125
 4958SOL    HW215774   3.565   5.184   0.288
 4959SOL     OW15775   1.053   1.671   3.425
 4959SOL    HW115776   1.050   1.654   3.326
 4959SOL    HW215777   1.130   1.731   3.446
 4960SOL     OW15778   4.880   3.983   4.384
 4960SOL    HW115779   4.859   3.906   4.323
 4960SOL    HW215780   4.845   3.964   4.475
 4961SOL     OW15781   3.745   2.831   2.152
 4961SOL    HW115782   3.759   2.733   2.158
 4961SOL    HW215783   3.775   2.863   2.062
 4962SOL     OW15784   1.788   2.310   0.659
 4962SOL    HW115785   1.874   2.269   0.628
 4962SOL    HW215786   1.715   2.242   0.656
 4963SOL     OW15787   0.712   3.707   6.625
 4963SOL    HW115788   0.690   3.634   6.560
 4963SOL    HW215789   0.628   3.749   6.657
 4964SOL     OW15790   1.242   5.159   4.113
 4964SOL    HW115791   1.262   5.256   4.103
 4964SOL    HW215792   1.144   5.143   4.101
 4965SOL     OW15793   2.153   0.363   3.051
 4965SOL    HW115794   2.146   0.426   3.127
 4965SOL    HW215795   2.165   0.414   2.966
 4966SOL     OW15796   4.253   6.969   5.166
 4966SOL    HW115797   4.269   0.047   5.134
 4966SOL    HW215798   4.202   6.971   5.252
 4967SOL     OW15799   4.322   4.592   3.237
 4967SOL    HW115800   4.324   4.600   3.336
 4967SOL    HW215801   4.251   4.652   3.200
 4968SOL     OW15802   6.471   3.035   3.706
 4968SOL    HW115803   6.374   3.046   3.687
 4968SOL    HW215804   6.510   2.965   3.646
 4969SOL     OW15805   1.134   6.054   4.182
 4969SOL    HW115806   1.130   5.954   4.192
 4969SOL    HW215807   1.083   6.096   4.257
 4970SOL     OW15808   2.115   1.314   1.197
 4970SOL    HW115809   2.115   1.215   1.180
 4970SOL    HW215810   2.054   1.334   1.274
 4971SOL     OW15811   0.626   5.860   1.924
 4971SOL    HW115812   0.572   5.926   1.977
 4971SOL    HW215813   0.668   5.794   1.986
 4972SOL     OW15814   0.462   3.695   0.179
 4972SOL    HW115815   0.488   3.630   0.251
 4972SOL    HW215816   0.532   3.696   0.108
 4973SOL     OW15817   5.096   2.634   6.909
 4973SOL    HW115818   5.032   2.560   6.889
 4973SOL    HW215819   5.093   2.655   7.006
 4974SOL     OW15820   3.182   0.185   5.871
 4974SOL    HW115821   3.193   0.281   5.895
 4974SOL    HW215822   3.258   0.156   5.813
 4975SOL     OW15823   5.795   4.312   1.454
 4975SOL    HW115824   5.805   4.375   1.377
 4975SOL    HW215825   5.714   4.337   1.507
 4976SOL     OW15826   1.131   0.566   3.800
 4976SOL    HW115827   1.101   0.535   3.890
 4976SOL    HW215828   1.052   0.573   3.739
 4977SOL     OW15829   1.130   3.577   5.029
 4977SOL    HW115830   1.043   3.568   5.077
 4977SOL    HW215831   1.127   3.519   4.947
 4978SOL     OW15832   6.168   5.444   4.602
 4978SOL    HW115833   6.073   5.446   4.572
 4978SOL    HW215834   6.222   5.507   4.547
 4979SOL     OW15835   3.846   6.329   6.136
 4979SOL    HW115836   3.856   6.243   6.188
 4979SOL    HW215837   3.934   6.351   6.094
 4980SOL     OW15838   5.549   2.550   3.713
 4980SOL    HW115839   5.617   2.523   3.781
 4980SOL    HW215840   5.470   2.489   3.719
 4981SOL     OW15841   3.296   6.116   3.307
 4981SOL    HW115842   3.336   6.028   3.279
 4981SOL    HW215843   3.306   6.182   3.233
 4982SOL     OW15844   4.366   1.965   4.937
 4982SOL    HW115845   4.278   2.008   4.957
 4982SOL    HW215846   4.378   1.960   4.838
 4983SOL     OW15847   5.700   3.647   2.974
 4983SOL    HW115848   5.642   3.701   3.036
 4983SOL    HW215849   5.675   3.551   2.980
 4984SOL     OW15850   4.967   3.562   5.318
 4984SOL    HW115851   5.010   3.522   5.237
 4984SOL    HW215852   4.879   3.602   5.293
 4985SOL     OW15853   5.342   0.525   2.635
 4985SOL    HW115854   5.301   0.589   2.571
 4985SOL    HW215855   5.439   0.515   2.615
 4986SOL     OW15856   1.540   5.445   1.101
 4986SOL    HW115857   1.459   5.390   1.078
 4986SOL    HW215858   1.519   5.505   1.178
 4987SOL     OW15859   2.336   3.965   1.902
 4987SOL    HW115860   2.321   4.060   1.930
 4987SOL    HW215861   2.349   3.908   1.983
 4988SOL     OW15862   6.419   5.321   3.888
 4988SOL    HW115863   6.499   5.355   3.838
 4988SOL    HW215864   6.365   5.398   3.921
 4989SOL     OW15865   0.063   6.894   3.719
 4989SOL    HW115866   0.006   6.861   3.795
 4989SOL    HW215867   0.083   6.817   3.658
 4990SOL     OW15868   5.240   1.913   5.589
 4990SOL    HW115869   5.189   1.996   5.611
 4990SOL    HW215870   5.180   1.849   5.542
 4991SOL     OW15871   2.128   5.788   5.467
 4991SOL    HW115872   2.128   5.838   5.554
 4991SOL    HW215873   2.207   5.815   5.413
 4992SOL     OW15874   2.597   3.182   5.559
 4992SOL    HW115875   2.650   3.106   5.596
 4992SOL    HW215876   2.618   3.266   5.610
 4993SOL     OW15877   2.313   5.438   4.167
 4993SOL    HW115878   2.235   5.401   4.116
 4993SOL    HW215879   2.345   5.370   4.233
 4994SOL     OW15880   2.954   4.779   5.675
 4994SOL    HW115881   2.991   4.830   5.598
 4994SOL    HW215882   2.882   4.718   5.643
 4995SOL     OW15883   0.369   1.837   5.420
 4995SOL    HW115884   0.324   1.914   5.375
 4995SOL    HW215885   0.302   1.765   5.438
 4996SOL     OW15886   6.994   0.641   4.587
 4996SOL    HW115887   0.065   0.592   4.577
 4996SOL    HW215888   6.942   0.601   4.662
 4997SOL     OW15889   3.823   1.400   0.560
 4997SOL    HW115890   3.732   1.369   0.589
 4997SOL    HW215891   3.868   1.327   0.509
 4998SOL     OW15892   0.955   3.704   3.276
 4998SOL    HW115893   0.935   3.639   3.348
 4998SOL    HW215894   0.901   3.682   3.195
 4999SOL     OW15895   7.000   3.055   3.434
 4999SOL    HW115896   0.058   3.002   3.475
 4999SOL    HW215897   7.002   3.044   3.335
 5000SOL     OW15898   2.849   6.449   2.910
 5000SOL    HW115899   2.845   6.357   2.872
 5000SOL    HW215900   2.758   6.477   2.939
 5001SOL     OW15901   0.176   5.639   3.420
 5001SOL    HW115902   0.180   5.738   3.424
 5001SOL    HW215903   0.081   5.609   3.433
 5002SOL     OW15904   0.911   4.737   3.813
 5002SOL    HW115905   0.931   4.639   3.821
 5002SOL    HW215906   0.996   4.788   3.806
 5003SOL     OW15907   3.350   1.052   1.242
 5003SOL    HW115908   3.373   1.036   1.338
 5003SOL    HW215909   3.256   1.084   1.235
 5004SOL     OW15910   4.585   6.370   0.383
 5004SOL    HW115911   4.546   6.302   0.445
 5004SOL    HW215912   4.604   6.454   0.433
 5005SOL     OW15913   4.269   2.887   0.997
 5005SOL    HW115914   4.334   2.900   1.072
 5005SOL    HW215915   4.200   2.959   1.000
 5006SOL     OW15916   4.886   0.719   3.034
 5006SOL    HW115917   4.952   0.785   3.071
 5006SOL    HW215918   4.933   0.632   3.018
 5007SOL     OW15919   6.298   5.252   2.176
 5007SOL    HW115920   6.395   5.258   2.198
 5007SOL    HW215921   6.256   5.342   2.188
 5008SOL     OW15922   5.095   6.697   3.563
 5008SOL    HW115923   5.030   6.772   3.554
 5008SOL    HW215924   5.057   6.626   3.623
 5009SOL     OW15925   0.513   1.754   6.760
 5009SOL    HW115926   0.552   1.843   6.784
 5009SOL    HW215927   0.563   1.716   6.682
 5010SOL     OW15928   4.854   4.331   0.980
 5010SOL    HW115929   4.781   4.392   0.948
 5010SOL    HW215930   4.853   4.329   1.080
 5011SOL     OW15931   1.702   2.358   6.105
 5011SOL    HW115932   1.693   2.454   6.133
 5011SOL    HW215933   1.793   2.325   6.127
 5012SOL     OW15934   6.262   2.548   6.110
 5012SOL    HW115935   6.280   2.539   6.208
 5012SOL    HW215936   6.310   2.477   6.060
 5013SOL     OW15937   5.802   6.241   5.141
 5013SOL    HW115938   5.750   6.313   5.095
 5013SOL    HW215939   5.743   6.162   5.155
 5014SOL     OW15940   6.301   3.901   0.824
 5014SOL    HW115941   6.279   3.864   0.733
 5014SOL    HW215942   6.394   3.937   0.823
 5015SOL     OW15943   6.482   5.185   4.657
 5015SOL    HW115944   6.537   5.256   4.614
 5015SOL    HW215945   6.539   5.105   4.675
 5016SOL     OW15946   1.257   2.391   6.466
 5016SOL    HW115947   1.211   2.470   6.507
 5016SOL    HW215948   1.202   2.309   6.479
 5017SOL     OW15949   1.125   2.891   2.057
 5017SOL    HW115950   1.199   2.866   1.995
 5017SOL    HW215951   1.160   2.903   2.149
 5018SOL     OW15952   1.000   0.881   0.141
 5018SOL    HW115953   0.927   0.928   0.191
 5018SOL    HW215954   1.027   0.799   0.192
 5019SOL     OW15955   1.894   4.074   3.652
 5019SOL    HW115956   1.882   4.172   3.664
 5019SOL    HW215957   1.910   4.054   3.555
 5020SOL     OW15958   1.822   6.992   3.566
 5020SOL    HW115959   1.847   7.015   3.660
 5020SOL    HW215960   1.874   6.912   3.536
 5021SOL     OW15961   2.319   0.522   1.419
 5021SOL    HW115962   2.322   0.493   1.515
 5021SOL    HW215963   2.262   0.604   1.411
 5022SOL     OW15964   6.820   2.900   0.992
 5022SOL    HW115965   6.826   2.809   0.952
 5022SOL    HW215966   6.910   2.943   0.990
 5023SOL     OW15967   0.705   2.543   2.773
 5023SOL    HW115968   0.702   2.482   2.853
 5023SOL    HW215969   0.722   2.637   2.804
 5024SOL     OW15970   4.801   4.139   6.875
 5024SOL    HW115971   4.891   4.179   6.862
 5024SOL    HW215972   4.751   4.191   6.946
 5025SOL     OW15973   5.101   2.019   4.673
 5025SOL    HW115974   5.169   2.067   4.729
 5025SOL    HW215975   5.055   2.084   4.613
 5026SOL     OW15976   4.946   5.730   5.103
 5026SOL    HW115977   4.963   5.633   5.090
 5026SOL    HW215978   4.916   5.770   5.016
 5027SOL     OW15979   5.240   6.811   0.829
 5027SOL    HW115980   5.318   6.797   0.768
 5027SOL    HW215981   5.174   6.872   0.786
 5028SOL     OW15982   6.695   1.536   2.578
 5028SOL    HW115983   6.716   1.625   2.536
 5028SOL    HW215984   6.635   1.550   2.657
 5029SOL     OW15985   5.532   2.620   2.522
 5029SOL    HW115986   5.575   2.541   2.478
 5029SOL    HW215987   5.436   2.600   2.541
 5030SOL     OW15988   0.406   3.173   1.109
 5030SOL    HW115989   0.353   3.225   1.042
 5030SOL    HW215990   0.359   3.174   1.197
 5031SOL     OW15991   6.716   0.018   5.848
 5031SOL    HW115992   6.674   6.972   5.916
 5031SOL    HW215993   6.755   0.097   5.895
 5032SOL     OW15994   2.527   4.324   6.367
 5032SOL    HW115995   2.604   4.377   6.331
 5032SOL    HW215996   2.444   4.347   6.316
 5033SOL     OW15997   1.647   6.665   4.565
 5033SOL    HW115998   1.593   6.584   4.586
 5033SOL    HW215999   1.636   6.688   4.468
 5034SOL     OW16000   4.193   5.587   3.683
 5034SOL    HW116001   4.279   5.586   3.735
 5034SOL    HW216002   4.147   5.498   3.695
 5035SOL     OW16003   1.846   3.431   3.217
 5035SOL    HW116004   1.942   3.459   3.216
 5035SOL    HW216005   1.841   3.331   3.209
 5036SOL     OW16006   1.399   3.318   4.800
 5036SOL    HW116007   1.425   3.225   4.774
 5036SOL    HW216008   1.368   3.318   4.896
 5037SOL     OW16009   5.442   4.552   1.172
 5037SOL    HW116010   5.368   4.620   1.173
 5037SOL    HW216011   5.414   4.474   1.115
 5038SOL     OW16012   3.106   3.813   4.619
 5038SOL    HW116013   3.179   3.756   4.656
 5038SOL    HW216014   3.087   3.888   4.682
 5039SOL     OW16015   0.695   3.672   0.025
 5039SOL    HW116016   0.739   3.611   0.091
 5039SOL    HW216017   0.718   3.643   6.948
 5040SOL     OW16018   0.510   1.876   5.163
 5040SOL    HW116019   0.541   1.787   5.130
 5040SOL    HW216020   0.445   1.863   5.237
 5041SOL     OW16021   6.988   2.262   1.650
 5041SOL    HW116022   0.027   2.246   1.567
 5041SOL    HW216023   6.910   2.199   1.651
 5042SOL     OW16024   1.089   1.877   5.945
 5042SOL    HW116025   1.028   1.889   6.024
 5042SOL    HW216026   1.035   1.849   5.865
 5043SOL     OW16027   2.647   6.764   1.643
 5043SOL    HW116028   2.728   6.708   1.660
 5043SOL    HW216029   2.645   6.840   1.707
 5044SOL     OW16030   0.453   5.881   0.606
 5044SOL    HW116031   0.484   5.943   0.535
 5044SOL    HW216032   0.498   5.792   0.595
 5045SOL     OW16033   5.742   2.769   1.634
 5045SOL    HW116034   5.754   2.670   1.639
 5045SOL    HW216035   5.662   2.796   1.689
 5046SOL     OW16036   4.055   3.183   2.307
 5046SOL    HW116037   4.086   3.122   2.379
 5046SOL    HW216038   3.976   3.142   2.261
 5047SOL     OW16039   1.731   4.421   3.581
 5047SOL    HW116040   1.707   4.504   3.631
 5047SOL    HW216041   1.669   4.410   3.503
 5048SOL     OW16042   2.461   0.128   5.885
 5048SOL    HW116043   2.469   0.225   5.908
 5048SOL    HW216044   2.411   0.080   5.958
 5049SOL     OW16045   3.884   1.492   6.825
 5049SOL    HW116046   3.817   1.456   6.890
 5049SOL    HW216047   3.843   1.566   6.772
 5050SOL     OW16048   1.219   0.498   0.839
 5050SOL    HW116049   1.304   0.482   0.890
 5050SOL    HW216050   1.207   0.596   0.824
 5051SOL     OW16051   4.484   4.349   0.867
 5051SOL    HW116052   4.485   4.361   0.768
 5051SOL    HW216053   4.400   4.303   0.895
 5052SOL     OW16054   2.031   3.453   4.391
 5052SOL    HW116055   2.059   3.439   4.486
 5052SOL    HW216056   2.053   3.547   4.364
 5053SOL     OW16057   6.329   0.598   0.907
 5053SOL    HW116058   6.390   0.670   0.873
 5053SOL    HW216059   6.365   0.560   0.992
 5054SOL     OW16060   4.358   5.578   3.374
 5054SOL    HW116061   4.340   5.538   3.464
 5054SOL    HW216062   4.455   5.599   3.366
 5055SOL     OW16063   0.236   4.442   5.630
 5055SOL    HW116064   0.244   4.538   5.603
 5055SOL    HW216065   0.140   4.420   5.646
 5056SOL     OW16066   6.716   4.550   3.010
 5056SOL    HW116067   6.764   4.471   2.972
 5056SOL    HW216068   6.618   4.539   2.999
 5057SOL     OW16069   0.146   6.192   2.289
 5057SOL    HW116070   0.126   6.282   2.326
 5057SOL    HW216071   0.137   6.123   2.361
 5058SOL     OW16072   2.450   5.711   5.615
 5058SOL    HW116073   2.472   5.788   5.556
 5058SOL    HW216074   2.500   5.630   5.585
 5059SOL     OW16075   6.796   0.178   1.872
 5059SOL    HW116076   6.705   0.218   1.885
 5059SOL    HW216077   6.853   0.242   1.821
 5060SOL     OW16078   0.347   2.742   6.268
 5060SOL    HW116079   0.387   2.696   6.347
 5060SOL    HW216080   0.273   2.686   6.230
 5061SOL     OW16081   5.893   3.158   0.657
 5061SOL    HW116082   5.811   3.102   0.654
 5061SOL    HW216083   5.965   3.116   0.601
 5062SOL     OW16084   6.254   0.056   6.890
 5062SOL    HW116085   6.293   0.048   6.982
 5062SOL    HW216086   6.182   7.002   6.879
 5063SOL     OW16087   0.963   6.470   2.610
 5063SOL    HW116088   1.061   6.450   2.619
 5063SOL    HW216089   0.925   6.492   2.700
 5064SOL     OW16090   5.132   3.845   0.000
 5064SOL    HW116091   5.209   3.873   6.958
 5064SOL    HW216092   5.055   3.819   6.958
 5065SOL     OW16093   2.995   6.436   6.079
 5065SOL    HW116094   2.929   6.415   6.006
 5065SOL    HW216095   3.013   6.353   6.131
 5066SOL     OW16096   5.057   4.466   0.456
 5066SOL    HW116097   5.001   4.385   0.475
 5066SOL    HW216098   5.046   4.493   0.361
 5067SOL     OW16099   5.509   1.075   6.635
 5067SOL    HW116100   5.582   1.039   6.693
 5067SOL    HW216101   5.539   1.076   6.540
 5068SOL     OW16102   3.869   4.986   1.117
 5068SOL    HW116103   3.900   4.901   1.158
 5068SOL    HW216104   3.948   5.045   1.097
 5069SOL     OW16105   6.640   5.174   2.985
 5069SOL    HW116106   6.608   5.233   3.059
 5069SOL    HW216107   6.582   5.187   2.904
 5070SOL     OW16108   5.005   2.359   3.663
 5070SOL    HW116109   5.024   2.335   3.568
 5070SOL    HW216110   5.091   2.378   3.711
 5071SOL     OW16111   5.446   0.925   1.318
 5071SOL    HW116112   5.350   0.904   1.301
 5071SOL    HW216113   5.454   1.020   1.349
 5072SOL     OW16114   0.530   3.960   1.601
 5072SOL    HW116115   0.522   4.059   1.614
 5072SOL    HW216116   0.600   3.924   1.663
 5073SOL     OW16117   3.791   2.172   3.331
 5073SOL    HW116118   3.842   2.212   3.255
 5073SOL    HW216119   3.776   2.075   3.314
 5074SOL     OW16120   4.141   4.177   5.231
 5074SOL    HW116121   4.093   4.115   5.169
 5074SOL    HW216122   4.146   4.268   5.190
 5075SOL     OW16123   6.989   0.256   4.005
 5075SOL    HW116124   6.905   0.286   4.050
 5075SOL    HW216125   0.012   0.331   3.952
 5076SOL     OW16126   5.198   0.553   1.268
 5076SOL    HW116127   5.121   0.490   1.258
 5076SOL    HW216128   5.180   0.615   1.345
 5077SOL     OW16129   6.647   2.540   2.883
 5077SOL    HW116130   6.550   2.517   2.885
 5077SOL    HW216131   6.659   2.638   2.903
 5078SOL     OW16132   0.106   1.633   4.796
 5078SOL    HW116133   0.171   1.597   4.863
 5078SOL    HW216134   0.077   1.725   4.823
 5079SOL     OW16135   4.684   5.091   4.791
 5079SOL    HW116136   4.591   5.079   4.828
 5079SOL    HW216137   4.746   5.117   4.865
 5080SOL     OW16138   5.743   0.608   6.280
 5080SOL    HW116139   5.830   0.626   6.235
 5080SOL    HW216140   5.743   0.514   6.316
 5081SOL     OW16141   3.028   3.135   3.132
 5081SOL    HW116142   2.938   3.121   3.090
 5081SOL    HW216143   3.015   3.168   3.226
 5082SOL     OW16144   0.689   1.643   5.608
 5082SOL    HW116145   0.634   1.725   5.619
 5082SOL    HW216146   0.768   1.647   5.669
 5083SOL     OW16147   0.720   4.159   1.805
 5083SOL    HW116148   0.661   4.085   1.836
 5083SOL    HW216149   0.812   4.123   1.787
 5084SOL     OW16150   1.144   5.636   2.186
 5084SOL    HW116151   1.154   5.712   2.251
 5084SOL    HW216152   1.164   5.669   2.093
 5085SOL     OW16153   6.185   3.943   0.187
 5085SOL    HW116154   6.132   3.909   0.110
 5085SOL    HW216155   6.283   3.939   0.164
 5086SOL     OW16156   6.142   5.467   4.881
 5086SOL    HW116157   6.239   5.492   4.882
 5086SOL    HW216158   6.106   5.475   4.789
 5087SOL     OW16159   5.339   5.237   5.426
 5087SOL    HW116160   5.431   5.273   5.411
 5087SOL    HW216161   5.302   5.201   5.340
 5088SOL     OW16162   6.234   0.905   6.437
 5088SOL    HW116163   6.144   0.909   6.393
 5088SOL    HW216164   6.264   0.810   6.443
 5089SOL     OW16165   5.226   2.721   3.903
 5089SOL    HW116166   5.215   2.770   3.816
 5089SOL    HW216167   5.151   2.655   3.913
 5090SOL     OW16168   1.357   5.350   0.265
 5090SOL    HW116169   1.263   5.317   0.264
 5090SOL    HW216170   1.377   5.391   0.353
 5091SOL     OW16171   0.673   6.152   3.684
 5091SOL    HW116172   0.601   6.213   3.719
 5091SOL    HW216173   0.716   6.104   3.761
 5092SOL     OW16174   3.377   2.754   1.377
 5092SOL    HW116175   3.403   2.658   1.385
 5092SOL    HW216176   3.278   2.761   1.366
 5093SOL     OW16177   0.686   0.956   1.893
 5093SOL    HW116178   0.762   0.893   1.884
 5093SOL    HW216179   0.629   0.928   1.971
 5094SOL     OW16180   0.139   0.163   6.675
 5094SOL    HW116181   0.218   0.104   6.693
 5094SOL    HW216182   0.133   0.183   6.577
 5095SOL     OW16183   3.119   0.234   5.613
 5095SOL    HW116184   3.137   0.212   5.709
 5095SOL    HW216185   3.057   0.165   5.575
 5096SOL     OW16186   3.501   6.084   2.218
 5096SOL    HW116187   3.450   6.107   2.135
 5096SOL    HW216188   3.523   5.987   2.219
 5097SOL     OW16189   1.163   2.237   6.669
 5097SOL    HW116190   1.132   2.180   6.744
 5097SOL    HW216191   1.244   2.196   6.627
 5098SOL     OW16192   0.712   2.281   2.936
 5098SOL    HW116193   0.641   2.211   2.929
 5098SOL    HW216194   0.774   2.258   3.011
 5099SOL     OW16195   0.527   1.484   4.180
 5099SOL    HW116196   0.583   1.476   4.097
 5099SOL    HW216197   0.431   1.478   4.156
 5100SOL     OW16198   4.495   4.813   5.777
 5100SOL    HW116199   4.580   4.838   5.824
 5100SOL    HW216200   4.505   4.722   5.736
 5101SOL     OW16201   5.553   6.273   0.813
 5101SOL    HW116202   5.642   6.238   0.842
 5101SOL    HW216203   5.484   6.252   0.882
 5102SOL     OW16204   3.328   5.976   3.733
 5102SOL    HW116205   3.280   5.950   3.649
 5102SOL    HW216206   3.423   5.943   3.729
 5103SOL     OW16207   1.393   1.883   3.593
 5103SOL    HW116208   1.367   1.791   3.563
 5103SOL    HW216209   1.368   1.949   3.522
 5104SOL     OW16210   0.719   0.298   0.258
 5104SOL    HW116211   0.754   0.286   0.165
 5104SOL    HW216212   0.796   0.312   0.321
 5105SOL     OW16213   1.654   2.963   6.551
 5105SOL    HW116214   1.720   2.994   6.483
 5105SOL    HW216215   1.702   2.916   6.625
 5106SOL     OW16216   2.230   6.674   2.320
 5106SOL    HW116217   2.242   6.760   2.271
 5106SOL    HW216218   2.263   6.684   2.414
 5107SOL     OW16219   1.943   6.735   6.470
 5107SOL    HW116220   1.996   6.739   6.385
 5107SOL    HW216221   1.864   6.796   6.463
 5108SOL     OW16222   3.785   3.929   4.593
 5108SOL    HW116223   3.721   3.882   4.654
 5108SOL    HW216224   3.873   3.939   4.638
 5109SOL     OW16225   0.522   2.091   2.797
 5109SOL    HW116226   0.595   2.024   2.777
 5109SOL    HW216227   0.450   2.082   2.729
 5110SOL     OW16228   2.260   6.056   5.513
 5110SOL    HW116229   2.264   6.148   5.552
 5110SOL    HW216230   2.349   6.012   5.521
 5111SOL     OW16231   1.411   0.388   6.548
 5111SOL    HW116232   1.425   0.473   6.601
 5111SOL    HW216233   1.319   0.353   6.567
 5112SOL     OW16234   0.266   0.070   2.914
 5112SOL    HW116235   0.323   0.073   2.996
 5112SOL    HW216236   0.253   0.163   2.879
 5113SOL     OW16237   0.562   1.318   6.803
 5113SOL    HW116238   0.559   1.304   6.704
 5113SOL    HW216239   0.648   1.280   6.839
 5114SOL     OW16240   4.949   5.627   6.439
 5114SOL    HW116241   5.024   5.642   6.504
 5114SOL    HW216242   4.983   5.637   6.346
 5115SOL     OW16243   2.573   4.014   5.303
 5115SOL    HW116244   2.650   3.951   5.294
 5115SOL    HW216245   2.505   3.993   5.233
 5116SOL     OW16246   6.927   3.726   1.068
 5116SOL    HW116247   6.888   3.818   1.074
 5116SOL    HW216248   6.858   3.664   1.031
 5117SOL     OW16249   2.381   5.222   3.081
 5117SOL    HW116250   2.343   5.265   3.163
 5117SOL    HW216251   2.443   5.286   3.036
 5118SOL     OW16252   3.991   0.233   1.240
 5118SOL    HW116253   4.056   0.307   1.251
 5118SOL    HW216254   4.040   0.147   1.225
 5119SOL     OW16255   5.810   0.770   2.337
 5119SOL    HW116256   5.836   0.862   2.367
 5119SOL    HW216257   5.785   0.714   2.416
 5120SOL     OW16258   3.345   1.345   1.823
 5120SOL    HW116259   3.307   1.369   1.734
 5120SOL    HW216260   3.389   1.256   1.817
 5121SOL     OW16261   0.550   3.965   4.037
 5121SOL    HW116262   0.599   3.883   4.067
 5121SOL    HW216263   0.474   3.983   4.099
 5122SOL     OW16264   2.411   5.514   2.956
 5122SOL    HW116265   2.386   5.446   2.888
 5122SOL    HW216266   2.477   5.474   3.020
 5123SOL     OW16267   6.108   3.358   2.852
 5123SOL    HW116268   6.025   3.395   2.894
 5123SOL    HW216269   6.097   3.260   2.837
 5124SOL     OW16270   3.226   6.159   0.752
 5124SOL    HW116271   3.293   6.086   0.758
 5124SOL    HW216272   3.209   6.196   0.844
 5125SOL     OW16273   0.709   1.770   5.983
 5125SOL    HW116274   0.649   1.841   6.020
 5125SOL    HW216275   0.660   1.683   5.981
 5126SOL     OW16276   4.412   1.846   0.564
 5126SOL    HW116277   4.351   1.805   0.631
 5126SOL    HW216278   4.442   1.777   0.498
 5127SOL     OW16279   4.631   3.713   6.288
 5127SOL    HW116280   4.560   3.748   6.348
 5127SOL    HW216281   4.717   3.760   6.308
 5128SOL     OW16282   0.300   0.443   6.761
 5128SOL    HW116283   0.252   0.443   6.849
 5128SOL    HW216284   0.265   0.370   6.704
 5129SOL     OW16285   4.655   2.731   3.924
 5129SOL    HW116286   4.641   2.727   4.023
 5129SOL    HW216287   4.706   2.814   3.901
 5130SOL     OW16288   2.553   6.657   4.915
 5130SOL    HW116289   2.485   6.629   4.982
 5130SOL    HW216290   2.521   6.739   4.867
 5131SOL     OW16291   3.113   5.082   3.013
 5131SOL    HW116292   3.123   5.162   3.072
 5131SOL    HW216293   3.029   5.033   3.037
 5132SOL     OW16294   3.444   1.895   6.398
 5132SOL    HW116295   3.505   1.826   6.359
 5132SOL    HW216296   3.410   1.954   6.325
 5133SOL     OW16297   4.247   4.552   6.090
 5133SOL    HW116298   4.191   4.569   6.171
 5133SOL    HW216299   4.194   4.501   6.023
 5134SOL     OW16300   5.866   6.274   0.781
 5134SOL    HW116301   5.779   6.252   0.736
 5134SOL    HW216302   5.925   6.193   0.778
 5135SOL     OW16303   0.458   2.907   2.312
 5135SOL    HW116304   0.520   2.928   2.387
 5135SOL    HW216305   0.480   2.964   2.233
 5136SOL     OW16306   0.056   0.130   4.269
 5136SOL    HW116307   6.987   0.151   4.318
 5136SOL    HW216308   0.053   0.173   4.179
 5137SOL     OW16309   5.568   0.712   2.780
 5137SOL    HW116310   5.503   0.709   2.857
 5137SOL    HW216311   5.548   0.792   2.723
 5138SOL     OW16312   3.353   3.519   2.890
 5138SOL    HW116313   3.282   3.515   2.819
 5138SOL    HW216314   3.418   3.591   2.867
 5139SOL     OW16315   5.036   0.709   4.657
 5139SOL    HW116316   5.016   0.628   4.603
 5139SOL    HW216317   5.102   0.687   4.728
 5140SOL     OW16318   2.754   3.742   6.024
 5140SOL    HW116319   2.695   3.703   5.953
 5140SOL    HW216320   2.783   3.833   5.996
 5141SOL     OW16321   0.989   3.121   1.021
 5141SOL    HW116322   1.074   3.174   1.013
 5141SOL    HW216323   1.000   3.033   0.975
 5142SOL     OW16324   0.288   6.840   2.805
 5142SOL    HW116325   0.355   6.802   2.868
 5142SOL    HW216326   0.292   6.940   2.809
 5143SOL     OW16327   6.271   6.375   2.814
 5143SOL    HW116328   6.342   6.434   2.853
 5143SOL    HW216329   6.282   6.369   2.715
 5144SOL     OW16330   2.195   2.995   5.255
 5144SOL    HW116331   2.142   3.080   5.258
 5144SOL    HW216332   2.283   3.012   5.212
 5145SOL     OW16333   1.344   5.416   5.576
 5145SOL    HW116334   1.315   5.474   5.652
 5145SOL    HW216335   1.338   5.320   5.604
 5146SOL     OW16336   5.422   6.207   6.669
 5146SOL    HW116337   5.489   6.280   6.654
 5146SOL    HW216338   5.443   6.160   6.755
 5147SOL     OW16339   4.883   1.093   2.976
 5147SOL    HW116340   4.954   1.163   2.971
 5147SOL    HW216341   4.831   1.094   2.890
 5148SOL     OW16342   6.045   1.420   0.844
 5148SOL    HW116343   6.053   1.321   0.852
 5148SOL    HW216344   5.955   1.449   0.876
 5149SOL     OW16345   2.763   6.502   3.754
 5149SOL    HW116346   2.856   6.504   3.791
 5149SOL    HW216347   2.745   6.587   3.705
 5150SOL     OW16348   6.892   0.686   4.018
 5150SOL    HW116349   6.839   0.642   4.090
 5150SOL    HW216350   6.979   0.718   4.055
 5151SOL     OW16351   5.296   4.627   1.977
 5151SOL    HW116352   5.239   4.566   1.922
 5151SOL    HW216353   5.383   4.582   1.997
 5152SOL     OW16354   2.335   1.749   0.124
 5152SOL    HW116355   2.409   1.768   0.188
 5152SOL    HW216356   2.247   1.756   0.171
 5153SOL     OW16357   2.534   2.420   0.160
 5153SOL    HW116358   2.555   2.484   0.086
 5153SOL    HW216359   2.442   2.384   0.149
 5154SOL     OW16360   0.750   2.679   0.037
 5154SOL    HW116361   0.666   2.661   0.088
 5154SOL    HW216362   0.732   2.672   6.955
 5155SOL     OW16363   1.381   0.842   0.164
 5155SOL    HW116364   1.471   0.813   0.197
 5155SOL    HW216365   1.365   0.938   0.190
 5156SOL     OW16366   5.371   4.999   6.056
 5156SOL    HW116367   5.444   4.935   6.032
 5156SOL    HW216368   5.406   5.068   6.119
 5157SOL     OW16369   3.412   1.095   1.883
 5157SOL    HW116370   3.342   1.099   1.954
 5157SOL    HW216371   3.488   1.039   1.916
 5158SOL     OW16372   1.792   2.770   2.671
 5158SOL    HW116373   1.751   2.840   2.612
 5158SOL    HW216374   1.722   2.733   2.732
 5159SOL     OW16375   6.587   2.873   5.512
 5159SOL    HW116376   6.587   2.973   5.508
 5159SOL    HW216377   6.615   2.843   5.604
 5160SOL     OW16378   6.939   0.382   2.981
 5160SOL    HW116379   6.850   0.337   2.994
 5160SOL    HW216380   6.925   0.480   2.970
 5161SOL     OW16381   1.048   1.988   6.525
 5161SOL    HW116382   1.044   1.916   6.456
 5161SOL    HW216383   1.092   2.069   6.485
 5162SOL     OW16384   0.436   0.040   5.710
 5162SOL    HW116385   0.461   6.976   5.765
 5162SOL    HW216386   0.412   0.012   5.618
 5163SOL     OW16387   2.897   0.916   1.541
 5163SOL    HW116388   2.968   0.974   1.580
 5163SOL    HW216389   2.854   0.963   1.464
 5164SOL     OW16390   2.428   3.043   0.269
 5164SOL    HW116391   2.365   3.001   0.334
 5164SOL    HW216392   2.515   2.994   0.270
 5165SOL     OW16393   1.091   5.072   5.462
 5165SOL    HW116394   1.182   5.087   5.501
 5165SOL    HW216395   1.049   4.991   5.503
 5166SOL     OW16396   6.822   6.170   5.619
 5166SOL    HW116397   6.872   6.256   5.612
 5166SOL    HW216398   6.758   6.162   5.542
 5167SOL     OW16399   6.447   3.497   6.028
 5167SOL    HW116400   6.492   3.540   6.107
 5167SOL    HW216401   6.472   3.401   6.024
 5168SOL     OW16402   5.348   1.800   3.387
 5168SOL    HW116403   5.332   1.732   3.315
 5168SOL    HW216404   5.443   1.830   3.384
 5169SOL     OW16405   5.114   5.482   4.384
 5169SOL    HW116406   5.112   5.383   4.372
 5169SOL    HW216407   5.020   5.517   4.393
 5170SOL     OW16408   2.333   3.704   6.171
 5170SOL    HW116409   2.431   3.699   6.193
 5170SOL    HW216410   2.319   3.676   6.076
 5171SOL     OW16411   2.186   6.507   5.592
 5171SOL    HW116412   2.145   6.441   5.655
 5171SOL    HW216413   2.279   6.528   5.623
 5172SOL     OW16414   5.038   5.485   5.661
 5172SOL    HW116415   5.037   5.410   5.727
 5172SOL    HW216416   5.040   5.447   5.568
 5173SOL     OW16417   3.703   6.265   3.979
 5173SOL    HW116418   3.620   6.267   3.923
 5173SOL    HW216419   3.708   6.349   4.034
 5174SOL     OW16420   0.536   5.595   3.156
 5174SOL    HW116421   0.501   5.688   3.146
 5174SOL    HW216422   0.573   5.583   3.248
 5175SOL     OW16423   2.912   1.468   6.462
 5175SOL    HW116424   2.908   1.498   6.558
 5175SOL    HW216425   2.838   1.404   6.444
 5176SOL     OW16426   5.739   6.551   6.441
 5176SOL    HW116427   5.723   6.564   6.343
 5176SOL    HW216428   5.721   6.636   6.490
 5177SOL     OW16429   5.717   5.626   0.671
 5177SOL    HW116430   5.697   5.661   0.579
 5177SOL    HW216431   5.631   5.610   0.720
 5178SOL     OW16432   1.099   4.379   0.701
 5178SOL    HW116433   1.067   4.374   0.795
 5178SOL    HW216434   1.120   4.288   0.667
 5179SOL     OW16435   3.762   5.368   2.728
 5179SOL    HW116436   3.747   5.323   2.641
 5179SOL    HW216437   3.824   5.312   2.784
 5180SOL     OW16438   2.704   5.059   2.010
 5180SOL    HW116439   2.744   4.992   1.948
 5180SOL    HW216440   2.774   5.127   2.035
 5181SOL     OW16441   6.615   1.434   5.668
 5181SOL    HW116442   6.649   1.383   5.747
 5181SOL    HW216443   6.628   1.379   5.585
 5182SOL     OW16444   1.843   6.198   2.404
 5182SOL    HW116445   1.772   6.143   2.447
 5182SOL    HW216446   1.837   6.189   2.305
 5183SOL     OW16447   5.551   1.959   3.389
 5183SOL    HW116448   5.528   2.053   3.413
 5183SOL    HW216449   5.623   1.925   3.451
 5184SOL     OW16450   3.136   1.260   2.387
 5184SOL    HW116451   3.111   1.261   2.484
 5184SOL    HW216452   3.232   1.288   2.377
 5185SOL     OW16453   6.399   0.200   1.532
 5185SOL    HW116454   6.371   0.296   1.537
 5185SOL    HW216455   6.343   0.146   1.595
 5186SOL     OW16456   5.894   2.584   6.691
 5186SOL    HW116457   5.964   2.654   6.677
 5186SOL    HW216458   5.938   2.495   6.704
 5187SOL     OW16459   1.380   4.717   4.780
 5187SOL    HW116460   1.420   4.750   4.866
 5187SOL    HW216461   1.450   4.717   4.708
 5188SOL     OW16462   0.156   0.205   1.623
 5188SOL    HW116463   0.067   0.214   1.667
 5188SOL    HW216464   0.172   0.109   1.598
 5189SOL     OW16465   5.652   6.144   6.459
 5189SOL    HW116466   5.708   6.204   6.403
 5189SOL    HW216467   5.564   6.188   6.479
 5190SOL     OW16468   1.514   5.217   0.888
 5190SOL    HW116469   1.611   5.232   0.872
 5190SOL    HW216470   1.493   5.231   0.985
 5191SOL     OW16471   3.021   4.023   1.842
 5191SOL    HW116472   3.119   4.016   1.863
 5191SOL    HW216473   2.988   4.113   1.872
 5192SOL     OW16474   0.588   4.404   2.911
 5192SOL    HW116475   0.585   4.308   2.938
 5192SOL    HW216476   0.508   4.427   2.856
 5193SOL     OW16477   4.022   0.292   4.606
 5193SOL    HW116478   4.046   0.384   4.575
 5193SOL    HW216479   4.104   0.248   4.643
 5194SOL     OW16480   4.543   1.383   5.645
 5194SOL    HW116481   4.574   1.396   5.550
 5194SOL    HW216482   4.609   1.424   5.707
 5195SOL     OW16483   1.899   1.283   5.382
 5195SOL    HW116484   1.959   1.363   5.388
 5195SOL    HW216485   1.953   1.200   5.401
 5196SOL     OW16486   5.381   6.281   3.134
 5196SOL    HW116487   5.377   6.318   3.041
 5196SOL    HW216488   5.450   6.208   3.137
 5197SOL     OW16489   1.900   4.040   5.386
 5197SOL    HW116490   1.938   4.131   5.405
 5197SOL    HW216491   1.962   3.991   5.325
 5198SOL     OW16492   6.349   5.598   3.927
 5198SOL    HW116493   6.430   5.636   3.971
 5198SOL    HW216494   6.275   5.666   3.929
 5199SOL     OW16495   1.010   5.526   1.431
 5199SOL    HW116496   0.961   5.549   1.514
 5199SOL    HW216497   0.947   5.488   1.363
 5200SOL     OW16498   6.707   4.198   5.010
 5200SOL    HW116499   6.790   4.221   5.060
 5200SOL    HW216500   6.645   4.147   5.070
 5201SOL     OW16501   0.976   6.124   4.526
 5201SOL    HW116502   0.944   6.173   4.607
 5201SOL    HW216503   1.030   6.045   4.553
 5202SOL     OW16504   0.121   4.482   1.689
 5202SOL    HW116505   0.090   4.504   1.596
 5202SOL    HW216506   0.096   4.557   1.751
 5203SOL     OW16507   6.545   3.352   6.369
 5203SOL    HW116508   6.544   3.288   6.292
 5203SOL    HW216509   6.639   3.367   6.399
 5204SOL     OW16510   5.439   5.352   6.343
 5204SOL    HW116511   5.469   5.362   6.248
 5204SOL    HW216512   5.493   5.413   6.402
 5205SOL     OW16513   2.728   5.705   0.334
 5205SOL    HW116514   2.718   5.782   0.270
 5205SOL    HW216515   2.772   5.737   0.418
 5206SOL     OW16516   0.814   4.385   4.997
 5206SOL    HW116517   0.743   4.341   5.052
 5206SOL    HW216518   0.774   4.464   4.949
 5207SOL     OW16519   1.375   6.095   2.185
 5207SOL    HW116520   1.423   6.177   2.216
 5207SOL    HW216521   1.391   6.021   2.250
 5208SOL     OW16522   4.632   1.626   0.350
 5208SOL    HW116523   4.708   1.661   0.405
 5208SOL    HW216524   4.669   1.576   0.271
 5209SOL     OW16525   6.243   4.921   3.241
 5209SOL    HW116526   6.281   4.828   3.246
 5209SOL    HW216527   6.302   4.977   3.182
 5210SOL     OW16528   5.215   3.810   3.167
 5210SOL    HW116529   5.121   3.834   3.142
 5210SOL    HW216530   5.278   3.873   3.122
 5211SOL     OW16531   3.261   4.158   2.499
 5211SOL    HW116532   3.286   4.131   2.592
 5211SOL    HW216533   3.214   4.246   2.502
 5212SOL     OW16534   0.717   7.006   6.616
 5212SOL    HW116535   0.741   7.000   6.713
 5212SOL    HW216536   0.764   0.068   6.574
 5213SOL     OW16537   4.695   2.256   6.155
 5213SOL    HW116538   4.754   2.334   6.178
 5213SOL    HW216539   4.703   2.186   6.226
 5214SOL     OW16540   4.790   2.157   0.333
 5214SOL    HW116541   4.781   2.096   0.255
 5214SOL    HW216542   4.783   2.104   0.418
 5215SOL     OW16543   5.668   5.152   4.118
 5215SOL    HW116544   5.671   5.063   4.072
 5215SOL    HW216545   5.702   5.142   4.212
 5216SOL     OW16546   4.466   5.881   1.117
 5216SOL    HW116547   4.478   5.904   1.214
 5216SOL    HW216548   4.449   5.782   1.109
 5217SOL     OW16549   3.035   4.961   3.702
 5217SOL    HW116550   3.036   5.057   3.730
 5217SOL    HW216551   2.956   4.915   3.742
 5218SOL     OW16552   1.476   0.306   3.272
 5218SOL    HW116553   1.444   0.216   3.245
 5218SOL    HW216554   1.535   0.344   3.200
 5219SOL     OW16555   3.241   0.067   1.098
 5219SOL    HW116556   3.281   0.016   1.021
 5219SOL    HW216557   3.314   0.112   1.149
 5220SOL     OW16558   0.744   6.621   2.463
 5220SOL    HW116559   0.700   6.672   2.538
 5220SOL    HW216560   0.811   6.558   2.501
 5221SOL     OW16561   4.656   0.879   0.701
 5221SOL    HW116562   4.588   0.806   0.696
 5221SOL    HW216563   4.743   0.845   0.664
 5222SOL     OW16564   0.498   6.474   2.644
 5222SOL    HW116565   0.552   6.555   2.668
 5222SOL    HW216566   0.405   6.485   2.678
 5223SOL     OW16567   4.296   6.860   1.465
 5223SOL    HW116568   4.310   6.788   1.533
 5223SOL    HW216569   4.203   6.897   1.475
 5224SOL     OW16570   5.541   0.707   3.856
 5224SOL    HW116571   5.464   0.761   3.824
 5224SOL    HW216572   5.624   0.733   3.806
 5225SOL     OW16573   0.117   6.811   5.474
 5225SOL    HW116574   0.065   6.880   5.525
 5225SOL    HW216575   0.057   6.766   5.408
 5226SOL     OW16576   2.399   0.715   4.012
 5226SOL    HW116577   2.314   0.767   4.002
 5226SOL    HW216578   2.446   0.711   3.924
 5227SOL     OW16579   4.948   3.382   4.676
 5227SOL    HW116580   4.923   3.343   4.588
 5227SOL    HW216581   5.030   3.335   4.711
 5228SOL     OW16582   4.656   6.785   1.827
 5228SOL    HW116583   4.705   6.872   1.822
 5228SOL    HW216584   4.646   6.758   1.923
 5229SOL     OW16585   0.767   4.021   3.576
 5229SOL    HW116586   0.715   3.976   3.648
 5229SOL    HW216587   0.840   3.960   3.545
 5230SOL     OW16588   0.335   1.670   6.401
 5230SOL    HW116589   0.406   1.683   6.470
 5230SOL    HW216590   0.246   1.666   6.445
 5231SOL     OW16591   2.904   3.670   3.427
 5231SOL    HW116592   2.813   3.710   3.411
 5231SOL    HW216593   2.951   3.658   3.340
 5232SOL     OW16594   5.270   2.974   4.679
 5232SOL    HW116595   5.296   3.016   4.766
 5232SOL    HW216596   5.326   2.893   4.664
 5233SOL     OW16597   0.942   6.789   2.985
 5233SOL    HW116598   0.934   6.734   3.068
 5233SOL    HW216599   1.014   6.857   2.998
 5234SOL     OW16600   3.924   4.728   1.240
 5234SOL    HW116601   3.849   4.677   1.283
 5234SOL    HW216602   3.977   4.666   1.182
 5235SOL     OW16603   0.935   2.665   1.913
 5235SOL    HW116604   0.983   2.582   1.940
 5235SOL    HW216605   0.972   2.743   1.964
 5236SOL     OW16606   6.279   3.459   0.300
 5236SOL    HW116607   6.205   3.485   0.237
 5236SOL    HW216608   6.242   3.400   0.372
 5237SOL     OW16609   1.859   2.025   2.510
 5237SOL    HW116610   1.785   1.964   2.538
 5237SOL    HW216611   1.840   2.061   2.419
 5238SOL     OW16612   2.316   3.285   0.854
 5238SOL    HW116613   2.344   3.376   0.824
 5238SOL    HW216614   2.357   3.216   0.794
 5239SOL     OW16615   2.817   3.399   5.303
 5239SOL    HW116616   2.899   3.417   5.248
 5239SOL    HW216617   2.781   3.309   5.280
 5240SOL     OW16618   3.973   2.225   4.576
 5240SOL    HW116619   4.026   2.283   4.637
 5240SOL    HW216620   4.030   2.194   4.500
 5241SOL     OW16621   3.959   5.599   5.392
 5241SOL    HW116622   3.889   5.591   5.463
 5241SOL    HW216623   3.963   5.694   5.361
 5242SOL     OW16624   3.728   0.399   5.531
 5242SOL    HW116625   3.763   0.474   5.587
 5242SOL    HW216626   3.769   0.313   5.561
 5243SOL     OW16627   1.333   3.923   0.635
 5243SOL    HW116628   1.341   3.893   0.730
 5243SOL    HW216629   1.284   3.853   0.582
 5244SOL     OW16630   5.749   3.521   6.832
 5244SOL    HW116631   5.814   3.445   6.839
 5244SOL    HW216632   5.717   3.529   6.738
 5245SOL     OW16633   4.586   3.947   5.903
 5245SOL    HW116634   4.669   3.965   5.957
 5245SOL    HW216635   4.560   3.851   5.915
 5246SOL     OW16636   1.210   3.502   3.559
 5246SOL    HW116637   1.280   3.491   3.488
 5246SOL    HW216638   1.252   3.539   3.642
 5247SOL     OW16639   0.602   4.787   0.474
 5247SOL    HW116640   0.603   4.776   0.375
 5247SOL    HW216641   0.587   4.697   0.517
 5248SOL     OW16642   4.942   1.038   0.297
 5248SOL    HW116643   4.950   0.939   0.286
 5248SOL    HW216644   4.846   1.065   0.287
 5249SOL     OW16645   0.904   5.574   0.117
 5249SOL    HW116646   0.804   5.573   0.120
 5249SOL    HW216647   0.937   5.490   0.075
 5250SOL     OW16648   1.017   1.564   5.940
 5250SOL    HW116649   0.964   1.622   5.877
 5250SOL    HW216650   1.089   1.517   5.889
 5251SOL     OW16651   0.597   2.908   1.365
 5251SOL    HW116652   0.540   2.987   1.383
 5251SOL    HW216653   0.591   2.884   1.268
 5252SOL     OW16654   5.024   6.202   1.003
 5252SOL    HW116655   4.982   6.114   0.980
 5252SOL    HW216656   5.114   6.207   0.960
 5253SOL     OW16657   5.487   2.801   3.753
 5253SOL    HW116658   5.417   2.797   3.824
 5253SOL    HW216659   5.524   2.709   3.737
 5254SOL     OW16660   5.685   0.231   4.474
 5254SOL    HW116661   5.723   0.312   4.428
 5254SOL    HW216662   5.750   0.156   4.467
 5255SOL     OW16663   2.449   5.743   3.299
 5255SOL    HW116664   2.479   5.748   3.395
 5255SOL    HW216665   2.386   5.666   3.289
 5256SOL     OW16666   4.913   5.973   2.253
 5256SOL    HW116667   4.962   5.949   2.168
 5256SOL    HW216668   4.976   5.963   2.331
 5257SOL     OW16669   3.174   1.218   2.759
 5257SOL    HW116670   3.166   1.119   2.764
 5257SOL    HW216671   3.091   1.257   2.720
 5258SOL     OW16672   5.675   1.869   1.589
 5258SOL    HW116673   5.758   1.925   1.599
 5258SOL    HW216674   5.677   1.822   1.501
 5259SOL     OW16675   5.955   4.970   1.804
 5259SOL    HW116676   6.017   4.990   1.729
 5259SOL    HW216677   5.949   4.871   1.817
 5260SOL     OW16678   4.820   2.810   1.678
 5260SOL    HW116679   4.917   2.818   1.653
 5260SOL    HW216680   4.811   2.751   1.758
 5261SOL     OW16681   2.396   2.649   5.024
 5261SOL    HW116682   2.346   2.724   5.068
 5261SOL    HW216683   2.335   2.602   4.960
 5262SOL     OW16684   1.335   0.015   1.753
 5262SOL    HW116685   1.274   6.970   1.702
 5262SOL    HW216686   1.282   0.071   1.816
 5263SOL     OW16687   1.162   0.078   0.159
 5263SOL    HW116688   1.213   0.143   0.214
 5263SOL    HW216689   1.111   0.016   0.219
 5264SOL     OW16690   1.029   0.553   0.582
 5264SOL    HW116691   1.055   0.478   0.643
 5264SOL    HW216692   1.067   0.639   0.618
 5265SOL     OW16693   5.075   4.747   4.437
 5265SOL    HW116694   5.074   4.793   4.526
 5265SOL    HW216695   5.013   4.669   4.439
 5266SOL     OW16696   1.410   0.057   0.927
 5266SOL    HW116697   1.412   0.133   0.992
 5266SOL    HW216698   1.330   0.066   0.867
 5267SOL     OW16699   3.913   4.117   5.040
 5267SOL    HW116700   3.873   4.026   5.048
 5267SOL    HW216701   3.882   4.159   4.955
 5268SOL     OW16702   5.582   4.989   5.602
 5268SOL    HW116703   5.629   4.964   5.687
 5268SOL    HW216704   5.637   5.056   5.552
 5269SOL     OW16705   2.507   5.390   5.434
 5269SOL    HW116706   2.413   5.385   5.401
 5269SOL    HW216707   2.560   5.315   5.394
 5270SOL     OW16708   6.834   1.967   2.987
 5270SOL    HW116709   6.785   2.010   3.063
 5270SOL    HW216710   6.896   2.033   2.945
 5271SOL     OW16711   5.418   3.623   5.260
 5271SOL    HW116712   5.339   3.640   5.203
 5271SOL    HW216713   5.502   3.646   5.210
 5272SOL     OW16714   2.426   2.233   3.657
 5272SOL    HW116715   2.383   2.262   3.572
 5272SOL    HW216716   2.475   2.147   3.642
 5273SOL     OW16717   6.423   0.484   5.660
 5273SOL    HW116718   6.442   0.466   5.756
 5273SOL    HW216719   6.509   0.498   5.611
 5274SOL     OW16720   0.443   5.302   4.243
 5274SOL    HW116721   0.421   5.353   4.327
 5274SOL    HW216722   0.376   5.325   4.172
 5275SOL     OW16723   2.215   6.323   6.891
 5275SOL    HW116724   2.144   6.266   6.932
 5275SOL    HW216725   2.246   6.280   6.806
 5276SOL     OW16726   0.411   0.029   0.362
 5276SOL    HW116727   0.403   0.109   0.301
 5276SOL    HW216728   0.505   0.020   0.393
 5277SOL     OW16729   0.607   0.954   1.629
 5277SOL    HW116730   0.627   0.957   1.727
 5277SOL    HW216731   0.523   1.005   1.610
 5278SOL     OW16732   0.754   4.970   6.147
 5278SOL    HW116733   0.787   4.944   6.056
 5278SOL    HW216734   0.820   5.030   6.191
 5279SOL     OW16735   2.355   6.459   0.068
 5279SOL    HW116736   2.318   6.412   0.148
 5279SOL    HW216737   2.332   6.408   7.001
 5280SOL     OW16738   4.466   6.300   6.020
 5280SOL    HW116739   4.536   6.347   5.967
 5280SOL    HW216740   4.454   6.346   6.108
 5281SOL     OW16741   2.060   6.722   4.818
 5281SOL    HW116742   2.116   6.639   4.816
 5281SOL    HW216743   2.090   6.781   4.893
 5282SOL     OW16744   6.610   5.837   0.891
 5282SOL    HW116745   6.619   5.775   0.813
 5282SOL    HW216746   6.699   5.876   0.914
 5283SOL     OW16747   1.718   0.701   4.318
 5283SOL    HW116748   1.737   0.790   4.360
 5283SOL    HW216749   1.681   0.639   4.388
 5284SOL     OW16750   4.846   2.861   2.233
 5284SOL    HW116751   4.926   2.915   2.259
 5284SOL    HW216752   4.791   2.912   2.167
 5285SOL     OW16753   1.779   1.994   4.338
 5285SOL    HW116754   1.804   1.983   4.435
 5285SOL    HW216755   1.692   2.043   4.332
 5286SOL     OW16756   6.733   3.305   1.331
 5286SOL    HW116757   6.787   3.315   1.415
 5286SOL    HW216758   6.680   3.221   1.336
 5287SOL     OW16759   0.528   4.992   2.284
 5287SOL    HW116760   0.557   4.904   2.322
 5287SOL    HW216761   0.443   4.981   2.233
 5288SOL     OW16762   4.003   1.178   1.276
 5288SOL    HW116763   4.010   1.097   1.335
 5288SOL    HW216764   3.978   1.149   1.183
 5289SOL     OW16765   1.891   4.808   6.167
 5289SOL    HW116766   1.892   4.897   6.214
 5289SOL    HW216767   1.877   4.822   6.069
 5290SOL     OW16768   1.509   3.111   5.149
 5290SOL    HW116769   1.540   3.019   5.126
 5290SOL    HW216770   1.570   3.150   5.218
 5291SOL     OW16771   2.754   5.410   4.644
 5291SOL    HW116772   2.753   5.505   4.673
 5291SOL    HW216773   2.772   5.405   4.546
 5292SOL     OW16774   0.625   3.761   4.727
 5292SOL    HW116775   0.714   3.771   4.683
 5292SOL    HW216776   0.585   3.673   4.702
 5293SOL     OW16777   2.380   0.488   3.285
 5293SOL    HW116778   2.378   0.392   3.312
 5293SOL    HW216779   2.288   0.527   3.296
 5294SOL     OW16780   5.049   6.965   4.196
 5294SOL    HW116781   5.037   6.873   4.156
 5294SOL    HW216782   5.145   6.977   4.222
 5295SOL     OW16783   2.045   0.836   0.988
 5295SOL    HW116784   2.104   0.827   0.908
 5295SOL    HW216785   2.013   0.745   1.016
 5296SOL     OW16786   4.725   5.035   2.182
 5296SOL    HW116787   4.820   5.037   2.214
 5296SOL    HW216788   4.691   4.941   2.181
 5297SOL     OW16789   3.581   5.184   6.169
 5297SOL    HW116790   3.541   5.094   6.154
 5297SOL    HW216791   3.533   5.230   6.243
 5298SOL     OW16792   3.309   1.401   6.866
 5298SOL    HW116793   3.358   1.415   6.952
 5298SOL    HW216794   3.308   1.486   6.814
 5299SOL     OW16795   1.989   0.585   1.166
 5299SOL    HW116796   2.058   0.596   1.238
 5299SOL    HW216797   1.948   0.494   1.173
 5300SOL     OW16798   3.136   5.110   6.539
 5300SOL    HW116799   3.085   5.156   6.466
 5300SOL    HW216800   3.148   5.173   6.615
 5301SOL     OW16801   6.467   6.847   5.710
 5301SOL    HW116802   6.406   6.782   5.754
 5301SOL    HW216803   6.498   6.915   5.776
 5302SOL     OW16804   4.809   5.372   2.956
 5302SOL    HW116805   4.781   5.448   2.897
 5302SOL    HW216806   4.736   5.304   2.961
 5303SOL     OW16807   1.327   6.392   5.109
 5303SOL    HW116808   1.379   6.429   5.032
 5303SOL    HW216809   1.387   6.333   5.164
 5304SOL     OW16810   0.532   0.606   3.110
 5304SOL    HW116811   0.471   0.527   3.118
 5304SOL    HW216812   0.574   0.607   3.020
 5305SOL     OW16813   0.098   5.275   4.779
 5305SOL    HW116814   0.061   5.256   4.688
 5305SOL    HW216815   0.062   5.208   4.844
 5306SOL     OW16816   0.885   1.940   6.154
 5306SOL    HW116817   0.827   1.880   6.099
 5306SOL    HW216818   0.841   2.029   6.163
 5307SOL     OW16819   0.633   1.520   1.260
 5307SOL    HW116820   0.561   1.457   1.231
 5307SOL    HW216821   0.719   1.494   1.216
 5308SOL     OW16822   1.948   4.538   2.560
 5308SOL    HW116823   1.929   4.504   2.468
 5308SOL    HW216824   2.039   4.509   2.589
 5309SOL     OW16825   5.434   6.222   3.523
 5309SOL    HW116826   5.370   6.298   3.538
 5309SOL    HW216827   5.482   6.203   3.609
 5310SOL     OW16828   6.391   1.663   3.228
 5310SOL    HW116829   6.443   1.699   3.306
 5310SOL    HW216830   6.394   1.728   3.153
 5311SOL     OW16831   5.852   6.951   0.307
 5311SOL    HW116832   5.886   0.006   0.370
 5311SOL    HW216833   5.867   6.981   0.213
 5312SOL     OW16834   5.832   6.549   0.768
 5312SOL    HW116835   5.834   6.450   0.782
 5312SOL    HW216836   5.925   6.582   0.753
 5313SOL     OW16837   1.546   6.778   5.872
 5313SOL    HW116838   1.634   6.784   5.918
 5313SOL    HW216839   1.556   6.725   5.787
 5314SOL     OW16840   5.833   2.100   1.617
 5314SOL    HW116841   5.922   2.143   1.627
 5314SOL    HW216842   5.781   2.147   1.546
 5315SOL     OW16843   4.099   2.231   3.614
 5315SOL    HW116844   4.145   2.252   3.528
 5315SOL    HW216845   4.003   2.208   3.596
 5316SOL     OW16846   0.405   3.022   5.149
 5316SOL    HW116847   0.311   3.047   5.172
 5316SOL    HW216848   0.418   3.031   5.050
 5317SOL     OW16849   5.451   3.311   0.156
 5317SOL    HW116850   5.404   3.357   0.231
 5317SOL    HW216851   5.521   3.250   0.194
 5318SOL     OW16852   0.282   3.871   5.582
 5318SOL    HW116853   0.264   3.822   5.497
 5318SOL    HW216854   0.275   3.970   5.566
 5319SOL     OW16855   3.542   6.276   2.441
 5319SOL    HW116856   3.503   6.209   2.379
 5319SOL    HW216857   3.548   6.238   2.533
 5320SOL     OW16858   4.861   6.033   0.850
 5320SOL    HW116859   4.782   5.972   0.854
 5320SOL    HW216860   4.940   5.983   0.816
 5321SOL     OW16861   1.585   3.991   5.953
 5321SOL    HW116862   1.656   3.930   5.987
 5321SOL    HW216863   1.514   3.938   5.906
 5322SOL     OW16864   3.736   6.198   2.067
 5322SOL    HW116865   3.687   6.155   2.143
 5322SOL    HW216866   3.672   6.220   1.994
 5323SOL     OW16867   4.134   0.322   6.121
 5323SOL    HW116868   4.163   0.230   6.094
 5323SOL    HW216869   4.071   0.315   6.198
 5324SOL     OW16870   1.537   2.091   1.614
 5324SOL    HW116871   1.625   2.132   1.641
 5324SOL    HW216872   1.544   1.992   1.620
 5325SOL     OW16873   2.023   2.801   4.872
 5325SOL    HW116874   2.107   2.835   4.830
 5325SOL    HW216875   2.015   2.838   4.965
 5326SOL     OW16876   6.166   6.753   1.448
 5326SOL    HW116877   6.187   6.782   1.355
 5326SOL    HW216878   6.250   6.720   1.492
 5327SOL     OW16879   0.646   2.553   5.511
 5327SOL    HW116880   0.684   2.460   5.509
 5327SOL    HW216881   0.716   2.617   5.542
 5328SOL     OW16882   4.421   5.031   0.553
 5328SOL    HW116883   4.412   5.128   0.529
 5328SOL    HW216884   4.331   4.988   0.548
 5329SOL     OW16885   2.177   6.477   5.924
 5329SOL    HW116886   2.167   6.568   5.885
 5329SOL    HW216887   2.261   6.473   5.979
 5330SOL     OW16888   2.749   4.849   1.189
 5330SOL    HW116889   2.677   4.790   1.150
 5330SOL    HW216890   2.743   4.940   1.148
 5331SOL     OW16891   6.402   1.259   6.601
 5331SOL    HW116892   6.470   1.325   6.635
 5331SOL    HW216893   6.342   1.305   6.536
 5332SOL     OW16894   0.841   4.458   1.385
 5332SOL    HW116895   0.840   4.527   1.458
 5332SOL    HW216896   0.839   4.367   1.426
 5333SOL     OW16897   0.724   6.411   4.907
 5333SOL    HW116898   0.738   6.505   4.877
 5333SOL    HW216899   0.676   6.411   4.995
 5334SOL     OW16900   3.774   0.002   5.336
 5334SOL    HW116901   3.772   0.053   5.422
 5334SOL    HW216902   3.720   6.934   5.345
 5335SOL     OW16903   6.726   6.101   0.652
 5335SOL    HW116904   6.761   6.072   0.741
 5335SOL    HW216905   6.652   6.167   0.665
 5336SOL     OW16906   1.427   4.332   1.273
 5336SOL    HW116907   1.412   4.431   1.271
 5336SOL    HW216908   1.341   4.285   1.251
 5337SOL     OW16909   4.929   4.450   1.669
 5337SOL    HW116910   4.840   4.431   1.711
 5337SOL    HW216911   4.985   4.505   1.732
 5338SOL     OW16912   5.197   3.038   0.256
 5338SOL    HW116913   5.237   3.016   0.167
 5338SOL    HW216914   5.265   3.082   0.314
 5339SOL     OW16915   6.326   0.316   2.088
 5339SOL    HW116916   6.327   0.291   2.185
 5339SOL    HW216917   6.242   0.283   2.046
 5340SOL     OW16918   4.914   2.775   6.661
 5340SOL    HW116919   4.914   2.734   6.571
 5340SOL    HW216920   4.990   2.738   6.715
 5341SOL     OW16921   4.977   0.373   1.234
 5341SOL    HW116922   4.972   0.295   1.297
 5341SOL    HW216923   4.966   0.340   1.140
 5342SOL     OW16924   2.933   0.214   6.024
 5342SOL    HW116925   2.858   0.202   5.959
 5342SOL    HW216926   3.015   0.169   5.988
 5343SOL     OW16927   3.494   3.820   1.658
 5343SOL    HW116928   3.474   3.798   1.753
 5343SOL    HW216929   3.418   3.791   1.600
 5344SOL     OW16930   2.083   2.330   2.431
 5344SOL    HW116931   2.021   2.397   2.472
 5344SOL    HW216932   2.144   2.293   2.501
 5345SOL     OW16933   4.580   0.414   3.214
 5345SOL    HW116934   4.546   0.507   3.230
 5345SOL    HW216935   4.670   0.419   3.169
 5346SOL     OW16936   2.943   0.572   3.865
 5346SOL    HW116937   2.845   0.580   3.884
 5346SOL    HW216938   2.986   0.520   3.939
 5347SOL     OW16939   6.746   1.326   1.440
 5347SOL    HW116940   6.686   1.387   1.387
 5347SOL    HW216941   6.722   1.333   1.537
 5348SOL     OW16942   6.369   1.421   0.088
 5348SOL    HW116943   6.344   1.346   0.149
 5348SOL    HW216944   6.468   1.433   0.090
 5349SOL     OW16945   5.842   0.115   1.502
 5349SOL    HW116946   5.881   0.199   1.462
 5349SOL    HW216947   5.810   0.134   1.595
 5350SOL     OW16948   2.417   0.374   6.661
 5350SOL    HW116949   2.433   0.404   6.567
 5350SOL    HW216950   2.495   0.319   6.692
 5351SOL     OW16951   4.244   1.131   2.060
 5351SOL    HW116952   4.197   1.218   2.075
 5351SOL    HW216953   4.242   1.078   2.145
 5352SOL     OW16954   3.056   6.507   3.720
 5352SOL    HW116955   3.124   6.455   3.669
 5352SOL    HW216956   3.071   6.605   3.703
 5353SOL     OW16957   5.902   0.075   5.857
 5353SOL    HW116958   5.980   0.136   5.864
 5353SOL    HW216959   5.827   0.122   5.811
 5354SOL     OW16960   1.701   3.204   0.988
 5354SOL    HW116961   1.604   3.182   0.980
 5354SOL    HW216962   1.742   3.205   0.897
 5355SOL     OW16963   4.615   1.439   6.032
 5355SOL    HW116964   4.680   1.509   6.004
 5355SOL    HW216965   4.541   1.433   5.964
 5356SOL     OW16966   6.552   3.250   1.014
 5356SOL    HW116967   6.501   3.206   0.940
 5356SOL    HW216968   6.597   3.179   1.070
 5357SOL     OW16969   3.890   6.036   0.256
 5357SOL    HW116970   3.843   6.087   0.329
 5357SOL    HW216971   3.955   6.097   0.210
 5358SOL     OW16972   5.133   4.447   1.863
 5358SOL    HW116973   5.167   4.392   1.787
 5358SOL    HW216974   5.121   4.388   1.943
 5359SOL     OW16975   3.337   6.954   6.305
 5359SOL    HW116976   3.405   6.944   6.232
 5359SOL    HW216977   3.256   7.002   6.269
 5360SOL     OW16978   4.374   1.560   6.987
 5360SOL    HW116979   4.333   1.480   0.016
 5360SOL    HW216980   4.339   1.644   0.015
 5361SOL     OW16981   1.427   1.141   6.326
 5361SOL    HW116982   1.351   1.078   6.341
 5361SOL    HW216983   1.395   1.235   6.328
 5362SOL     OW16984   4.000   5.669   3.488
 5362SOL    HW116985   4.083   5.635   3.532
 5362SOL    HW216986   3.969   5.752   3.534
 5363SOL     OW16987   0.781   5.754   4.702
 5363SOL    HW116988   0.850   5.814   4.742
 5363SOL    HW216989   0.765   5.781   4.606
 5364SOL     OW16990   1.369   6.056   7.008
 5364SOL    HW116991   1.467   6.044   0.005
 5364SOL    HW216992   1.346   6.043   6.911
 5365SOL     OW16993   3.762   1.983   6.228
 5365SOL    HW116994   3.664   2.000   6.228
 5365SOL    HW216995   3.786   1.926   6.307
 5366SOL     OW16996   3.484   3.836   6.302
 5366SOL    HW116997   3.507   3.806   6.210
 5366SOL    HW216998   3.543   3.913   6.328
 5367SOL     OW16999   0.362   4.752   1.029
 5367SOL    HW117000   0.341   4.836   1.079
 5367SOL    HW217001   0.405   4.775   0.942
 5368SOL     OW17002   0.759   0.686   4.022
 5368SOL    HW117003   0.794   0.631   3.946
 5368SOL    HW217004   0.678   0.642   4.060
 5369SOL     OW17005   2.123   3.634   2.572
 5369SOL    HW117006   2.175   3.693   2.510
 5369SOL    HW217007   2.029   3.627   2.540
 5370SOL     OW17008   3.760   3.018   1.441
 5370SOL    HW117009   3.777   3.111   1.473
 5370SOL    HW217010   3.664   2.995   1.456
 5371SOL     OW17011   1.910   4.260   5.137
 5371SOL    HW117012   1.951   4.320   5.068
 5371SOL    HW217013   1.930   4.165   5.113
 5372SOL     OW17014   3.254   6.411   2.262
 5372SOL    HW117015   3.169   6.435   2.214
 5372SOL    HW217016   3.260   6.464   2.347
 5373SOL     OW17017   1.569   5.297   3.918
 5373SOL    HW117018   1.478   5.276   3.882
 5373SOL    HW217019   1.627   5.216   3.913
 5374SOL     OW17020   3.169   2.357   0.560
 5374SOL    HW117021   3.116   2.441   0.548
 5374SOL    HW217022   3.265   2.381   0.576
 5375SOL     OW17023   1.246   3.807   5.052
 5375SOL    HW117024   1.275   3.856   4.970
 5375SOL    HW217025   1.204   3.720   5.026
 5376SOL     OW17026   2.877   4.652   6.221
 5376SOL    HW117027   2.860   4.715   6.145
 5376SOL    HW217028   2.836   4.563   6.200
 5377SOL     OW17029   0.765   2.074   1.965
 5377SOL    HW117030   0.824   2.150   1.938
 5377SOL    HW217031   0.671   2.106   1.973
 5378SOL     OW17032   5.067   0.370   6.791
 5378SOL    HW117033   5.093   0.283   6.750
 5378SOL    HW217034   4.988   0.357   6.850
 5379SOL     OW17035   0.147   0.023   0.470
 5379SOL    HW117036   0.073   0.061   0.415
 5379SOL    HW217037   0.234   0.041   0.426
 5380SOL     OW17038   2.002   1.358   4.969
 5380SOL    HW117039   1.993   1.451   4.935
 5380SOL    HW217040   2.070   1.309   4.915
 5381SOL     OW17041   6.167   3.652   1.785
 5381SOL    HW117042   6.132   3.612   1.870
 5381SOL    HW217043   6.129   3.602   1.707
 5382SOL     OW17044   1.908   6.706   1.740
 5382SOL    HW117045   1.986   6.692   1.801
 5382SOL    HW217046   1.865   6.793   1.762
 5383SOL     OW17047   2.243   1.827   4.757
 5383SOL    HW117048   2.159   1.864   4.718
 5383SOL    HW217049   2.277   1.888   4.828
 5384SOL     OW17050   5.375   6.774   4.431
 5384SOL    HW117051   5.288   6.734   4.401
 5384SOL    HW217052   5.442   6.701   4.445
 5385SOL     OW17053   3.798   3.996   2.748
 5385SOL    HW117054   3.864   3.923   2.728
 5385SOL    HW217055   3.791   4.056   2.668
 5386SOL     OW17056   6.167   6.467   5.923
 5386SOL    HW117057   6.109   6.472   5.842
 5386SOL    HW217058   6.134   6.530   5.993
 5387SOL     OW17059   3.637   5.097   1.168
 5387SOL    HW117060   3.724   5.052   1.152
 5387SOL    HW217061   3.600   5.068   1.257
 5388SOL     OW17062   5.694   5.732   3.085
 5388SOL    HW117063   5.598   5.733   3.115
 5388SOL    HW217064   5.751   5.695   3.159
 5389SOL     OW17065   5.632   3.139   1.567
 5389SOL    HW117066   5.729   3.124   1.586
 5389SOL    HW217067   5.619   3.152   1.469
 5390SOL     OW17068   6.452   5.334   6.342
 5390SOL    HW117069   6.372   5.381   6.303
 5390SOL    HW217070   6.505   5.399   6.396
 5391SOL     OW17071   3.636   4.031   6.983
 5391SOL    HW117072   3.731   4.048   6.959
 5391SOL    HW217073   3.594   3.971   6.915
 5392SOL     OW17074   0.023   2.747   3.255
 5392SOL    HW117075   0.037   2.682   3.181
 5392SOL    HW217076   0.040   2.840   3.222
 5393SOL     OW17077   6.575   6.933   6.333
 5393SOL    HW117078   6.493   6.887   6.366
 5393SOL    HW217079   6.550   0.005   6.292
 5394SOL     OW17080   1.795   3.827   6.019
 5394SOL    HW117081   1.877   3.877   6.050
 5394SOL    HW217082   1.815   3.729   6.016
 5395SOL     OW17083   4.422   0.837   1.359
 5395SOL    HW117084   4.505   0.781   1.358
 5395SOL    HW217085   4.440   0.923   1.310
 5396SOL     OW17086   4.676   2.625   1.326
 5396SOL    HW117087   4.598   2.589   1.378
 5396SOL    HW217088   4.660   2.612   1.229
 5397SOL     OW17089   1.536   2.612   1.839
 5397SOL    HW117090   1.633   2.595   1.858
 5397SOL    HW217091   1.482   2.537   1.877
 5398SOL     OW17092   3.404   3.222   2.929
 5398SOL    HW117093   3.377   3.314   2.900
 5398SOL    HW217094   3.422   3.222   3.027
 5399SOL     OW17095   0.492   5.304   0.282
 5399SOL    HW117096   0.478   5.384   0.340
 5399SOL    HW217097   0.404   5.276   0.244
 5400SOL     OW17098   2.208   3.450   6.871
 5400SOL    HW117099   2.116   3.486   6.886
 5400SOL    HW217100   2.207   3.386   6.794
 5401SOL     OW17101   6.357   1.754   0.890
 5401SOL    HW117102   6.332   1.658   0.897
 5401SOL    HW217103   6.437   1.772   0.947
 5402SOL     OW17104   1.067   6.169   2.256
 5402SOL    HW117105   1.108   6.170   2.165
 5402SOL    HW217106   0.972   6.140   2.249
 5403SOL     OW17107   6.346   3.034   6.401
 5403SOL    HW117108   6.312   3.079   6.319
 5403SOL    HW217109   6.384   3.102   6.464
 5404SOL     OW17110   0.959   3.053   3.140
 5404SOL    HW117111   0.957   3.150   3.164
 5404SOL    HW217112   1.053   3.020   3.145
 5405SOL     OW17113   6.525   4.388   5.403
 5405SOL    HW117114   6.602   4.450   5.414
 5405SOL    HW217115   6.531   4.315   5.471
 5406SOL     OW17116   1.518   0.024   3.712
 5406SOL    HW117117   1.560   6.983   3.783
 5406SOL    HW217118   1.452   6.986   3.661
 5407SOL     OW17119   4.284   3.411   6.442
 5407SOL    HW117120   4.350   3.339   6.419
 5407SOL    HW217121   4.331   3.486   6.487
 5408SOL     OW17122   3.678   1.030   6.338
 5408SOL    HW117123   3.735   1.002   6.261
 5408SOL    HW217124   3.710   1.118   6.374
 5409SOL     OW17125   5.133   0.447   1.663
 5409SOL    HW117126   5.157   0.508   1.588
 5409SOL    HW217127   5.086   0.498   1.734
 5410SOL     OW17128   1.535   2.664   3.197
 5410SOL    HW117129   1.466   2.594   3.182
 5410SOL    HW217130   1.551   2.676   3.295
 5411SOL     OW17131   2.279   4.780   4.806
 5411SOL    HW117132   2.279   4.686   4.840
 5411SOL    HW217133   2.366   4.799   4.760
 5412SOL     OW17134   6.383   1.952   2.225
 5412SOL    HW117135   6.305   2.010   2.251
 5412SOL    HW217136   6.396   1.881   2.293
 5413SOL     OW17137   1.483   6.941   2.697
 5413SOL    HW117138   1.413   6.915   2.631
 5413SOL    HW217139   1.559   6.987   2.650
 5414SOL     OW17140   4.271   0.094   6.122
 5414SOL    HW117141   4.232   0.006   6.097
 5414SOL    HW217142   4.367   0.084   6.146
 5415SOL     OW17143   6.180   3.537   3.195
 5415SOL    HW117144   6.198   3.509   3.289
 5415SOL    HW217145   6.215   3.468   3.132
 5416SOL     OW17146   4.217   5.077   4.114
 5416SOL    HW117147   4.238   5.000   4.174
 5416SOL    HW217148   4.123   5.107   4.130
 5417SOL     OW17149   2.896   6.897   5.702
 5417SOL    HW117150   2.885   6.799   5.685
 5417SOL    HW217151   2.856   6.919   5.791
 5418SOL     OW17152   3.478   1.092   3.216
 5418SOL    HW117153   3.515   1.077   3.125
 5418SOL    HW217154   3.393   1.143   3.209
 5419SOL     OW17155   3.182   4.071   6.899
 5419SOL    HW117156   3.132   4.148   6.859
 5419SOL    HW217157   3.130   4.035   6.977
 5420SOL     OW17158   0.960   2.272   3.058
 5420SOL    HW117159   0.900   2.218   3.118
 5420SOL    HW217160   1.003   2.212   2.991
 5421SOL     OW17161   2.265   2.192   0.715
 5421SOL    HW117162   2.233   2.122   0.779
 5421SOL    HW217163   2.358   2.218   0.738
 5422SOL     OW17164   0.843   3.501   0.192
 5422SOL    HW117165   0.933   3.545   0.186
 5422SOL    HW217166   0.843   3.434   0.266
 5423SOL     OW17167   4.430   3.004   5.893
 5423SOL    HW117168   4.465   3.046   5.977
 5423SOL    HW217169   4.485   2.923   5.871
 5424SOL     OW17170   5.204   2.854   5.720
 5424SOL    HW117171   5.257   2.886   5.798
 5424SOL    HW217172   5.238   2.896   5.636
 5425SOL     OW17173   5.131   1.008   4.820
 5425SOL    HW117174   5.198   0.940   4.850
 5425SOL    HW217175   5.166   1.055   4.738
 5426SOL     OW17176   0.378   0.080   4.654
 5426SOL    HW117177   0.370   7.011   4.706
 5426SOL    HW217178   0.455   0.134   4.690
 5427SOL     OW17179   4.188   0.257   0.226
 5427SOL    HW117180   4.175   0.282   0.130
 5427SOL    HW217181   4.280   0.286   0.255
 5428SOL     OW17182   1.704   0.996   0.084
 5428SOL    HW117183   1.683   0.987   7.003
 5428SOL    HW217184   1.771   0.926   0.110
 5429SOL     OW17185   1.047   2.567   5.937
 5429SOL    HW117186   1.144   2.555   5.918
 5429SOL    HW217187   1.001   2.478   5.930
 5430SOL     OW17188   2.327   2.765   5.705
 5430SOL    HW117189   2.306   2.819   5.623
 5430SOL    HW217190   2.354   2.673   5.677
 5431SOL     OW17191   3.809   5.643   4.121
 5431SOL    HW117192   3.870   5.565   4.109
 5431SOL    HW217193   3.859   5.727   4.098
 5432SOL     OW17194   5.700   4.994   1.371
 5432SOL    HW117195   5.688   4.918   1.308
 5432SOL    HW217196   5.653   4.974   1.457
 5433SOL     OW17197   0.918   1.478   3.600
 5433SOL    HW117198   0.947   1.537   3.525
 5433SOL    HW217199   0.967   1.503   3.683
 5434SOL     OW17200   2.229   6.522   4.810
 5434SOL    HW117201   2.265   6.505   4.902
 5434SOL    HW217202   2.268   6.456   4.746
 5435SOL     OW17203   4.854   0.826   2.266
 5435SOL    HW117204   4.862   0.829   2.366
 5435SOL    HW217205   4.940   0.856   2.225
 5436SOL     OW17206   5.702   4.068   2.775
 5436SOL    HW117207   5.739   4.008   2.704
 5436SOL    HW217208   5.611   4.098   2.749
 5437SOL     OW17209   3.895   4.759   6.236
 5437SOL    HW117210   3.822   4.698   6.204
 5437SOL    HW217211   3.861   4.816   6.310
 5438SOL     OW17212   6.572   0.694   0.750
 5438SOL    HW117213   6.615   0.617   0.704
 5438SOL    HW217214   6.634   0.773   0.747
 5439SOL     OW17215   1.090   3.152   0.634
 5439SOL    HW117216   1.014   3.202   0.675
 5439SOL    HW217217   1.094   3.171   0.536
 5440SOL     OW17218   1.827   0.937   1.297
 5440SOL    HW117219   1.906   0.965   1.242
 5440SOL    HW217220   1.856   0.922   1.392
 5441SOL     OW17221   3.705   2.136   4.546
 5441SOL    HW117222   3.662   2.110   4.632
 5441SOL    HW217223   3.799   2.166   4.562
 5442SOL     OW17224   3.310   0.835   2.057
 5442SOL    HW117225   3.400   0.833   2.101
 5442SOL    HW217226   3.254   0.905   2.099
 5443SOL     OW17227   1.734   6.598   5.756
 5443SOL    HW117228   1.776   6.518   5.798
 5443SOL    HW217229   1.685   6.570   5.673
 5444SOL     OW17230   0.533   1.393   3.483
 5444SOL    HW117231   0.517   1.453   3.561
 5444SOL    HW217232   0.601   1.323   3.507
 5445SOL     OW17233   6.270   3.556   2.077
 5445SOL    HW117234   6.298   3.561   2.173
 5445SOL    HW217235   6.171   3.567   2.070
 5446SOL     OW17236   6.408   5.967   6.053
 5446SOL    HW117237   6.455   5.961   5.965
 5446SOL    HW217238   6.329   5.906   6.052
 5447SOL     OW17239   3.190   2.493   0.985
 5447SOL    HW117240   3.184   2.461   1.080
 5447SOL    HW217241   3.286   2.501   0.958
 5448SOL     OW17242   5.490   1.670   6.319
 5448SOL    HW117243   5.418   1.722   6.365
 5448SOL    HW217244   5.559   1.643   6.385
 5449SOL     OW17245   0.240   2.713   6.955
 5449SOL    HW117246   0.158   2.672   6.916
 5449SOL    HW217247   0.272   2.788   6.897
 5450SOL     OW17248   2.719   6.080   0.750
 5450SOL    HW117249   2.795   6.020   0.727
 5450SOL    HW217250   2.754   6.167   0.785
 5451SOL     OW17251   2.664   0.538   2.799
 5451SOL    HW117252   2.698   0.607   2.736
 5451SOL    HW217253   2.569   0.516   2.777
 5452SOL     OW17254   2.626   3.915   5.732
 5452SOL    HW117255   2.558   3.905   5.804
 5452SOL    HW217256   2.581   3.941   5.647
 5453SOL     OW17257   0.464   5.600   5.468
 5453SOL    HW117258   0.512   5.669   5.523
 5453SOL    HW217259   0.486   5.509   5.502
 5454SOL     OW17260   0.915   4.079   5.362
 5454SOL    HW117261   0.990   4.073   5.296
 5454SOL    HW217262   0.881   3.987   5.381
 5455SOL     OW17263   6.728   2.122   0.633
 5455SOL    HW117264   6.715   2.123   0.732
 5455SOL    HW217265   6.779   2.204   0.606
 5456SOL     OW17266   3.556   6.787   1.353
 5456SOL    HW117267   3.537   6.868   1.408
 5456SOL    HW217268   3.642   6.746   1.382
 5457SOL     OW17269   6.413   3.515   1.023
 5457SOL    HW117270   6.443   3.422   1.043
 5457SOL    HW217271   6.459   3.549   0.941
 5458SOL     OW17272   1.646   4.248   5.955
 5458SOL    HW117273   1.613   4.155   5.939
 5458SOL    HW217274   1.746   4.246   5.965
 5459SOL     OW17275   2.436   3.922   6.281
 5459SOL    HW117276   2.526   3.878   6.283
 5459SOL    HW217277   2.369   3.859   6.243
 5460SOL     OW17278   3.882   0.283   3.860
 5460SOL    HW117279   3.802   0.335   3.891
 5460SOL    HW217280   3.899   0.208   3.924
 5461SOL     OW17281   4.156   6.757   5.014
 5461SOL    HW117282   4.192   6.834   5.067
 5461SOL    HW217283   4.226   6.685   5.008
 5462SOL     OW17284   0.281   0.261   1.113
 5462SOL    HW117285   0.356   0.254   1.047
 5462SOL    HW217286   0.312   0.312   1.193
 5463SOL     OW17287   6.677   3.031   0.790
 5463SOL    HW117288   6.743   3.009   0.862
 5463SOL    HW217289   6.725   3.074   0.713
 5464SOL     OW17290   1.503   6.447   4.539
 5464SOL    HW117291   1.483   6.378   4.608
 5464SOL    HW217292   1.556   6.405   4.465
 5465SOL     OW17293   3.082   5.877   6.869
 5465SOL    HW117294   3.148   5.888   6.795
 5465SOL    HW217295   3.029   5.793   6.854
 5466SOL     OW17296   5.521   5.765   4.717
 5466SOL    HW117297   5.459   5.687   4.706
 5466SOL    HW217298   5.496   5.836   4.651
 5467SOL     OW17299   5.913   1.725   1.756
 5467SOL    HW117300   5.891   1.806   1.810
 5467SOL    HW217301   5.962   1.753   1.673
 5468SOL     OW17302   4.224   1.237   6.446
 5468SOL    HW117303   4.243   1.151   6.495
 5468SOL    HW217304   4.298   1.302   6.464
 5469SOL     OW17305   4.915   4.763   1.882
 5469SOL    HW117306   4.817   4.753   1.864
 5469SOL    HW217307   4.966   4.753   1.797
 5470SOL     OW17308   0.003   4.694   3.219
 5470SOL    HW117309   0.061   4.685   3.300
 5470SOL    HW217310   0.000   4.606   3.170
 5471SOL     OW17311   6.546   4.365   2.164
 5471SOL    HW117312   6.621   4.410   2.212
 5471SOL    HW217313   6.487   4.435   2.122
 5472SOL     OW17314   3.722   5.334   4.960
 5472SOL    HW117315   3.630   5.313   4.993
 5472SOL    HW217316   3.760   5.255   4.913
 5473SOL     OW17317   1.692   4.653   3.686
 5473SOL    HW117318   1.731   4.661   3.778
 5473SOL    HW217319   1.606   4.704   3.682
 5474SOL     OW17320   0.927   6.133   3.141
 5474SOL    HW117321   0.988   6.212   3.131
 5474SOL    HW217322   0.879   6.117   3.056
 5475SOL     OW17323   3.141   2.919   1.499
 5475SOL    HW117324   3.157   3.009   1.457
 5475SOL    HW217325   3.171   2.921   1.594
 5476SOL     OW17326   2.000   3.047   6.758
 5476SOL    HW117327   1.947   3.132   6.754
 5476SOL    HW217328   2.030   3.031   6.852
 5477SOL     OW17329   2.207   2.440   2.209
 5477SOL    HW117330   2.304   2.458   2.228
 5477SOL    HW217331   2.171   2.377   2.278
 5478SOL     OW17332   0.080   5.782   5.594
 5478SOL    HW117333   0.043   5.855   5.651
 5478SOL    HW217334   0.179   5.779   5.602
 5479SOL     OW17335   4.469   6.234   5.472
 5479SOL    HW117336   4.497   6.195   5.385
 5479SOL    HW217337   4.551   6.257   5.525
 5480SOL     OW17338   0.172   2.224   5.933
 5480SOL    HW117339   0.098   2.275   5.887
 5480SOL    HW217340   0.197   2.145   5.877
 5481SOL     OW17341   3.942   6.368   3.000
 5481SOL    HW117342   3.914   6.446   3.056
 5481SOL    HW217343   4.027   6.330   3.036
 5482SOL     OW17344   1.793   6.299   2.097
 5482SOL    HW117345   1.781   6.358   2.017
 5482SOL    HW217346   1.713   6.307   2.156
 5483SOL     OW17347   0.929   2.368   6.607
 5483SOL    HW117348   1.022   2.335   6.621
 5483SOL    HW217349   0.916   2.453   6.657
 5484SOL     OW17350   5.522   7.010   4.682
 5484SOL    HW117351   5.546   0.086   4.713
 5484SOL    HW217352   5.604   6.952   4.684
 5485SOL     OW17353   3.577   0.734   4.682
 5485SOL    HW117354   3.656   0.786   4.714
 5485SOL    HW217355   3.510   0.725   4.755
 5486SOL     OW17356   3.319   4.951   3.817
 5486SOL    HW117357   3.227   4.926   3.788
 5486SOL    HW217358   3.321   4.963   3.916
 5487SOL     OW17359   3.421   5.939   5.025
 5487SOL    HW117360   3.469   6.004   4.966
 5487SOL    HW217361   3.481   5.861   5.044
 5488SOL     OW17362   4.890   2.396   6.393
 5488SOL    HW117363   4.970   2.453   6.376
 5488SOL    HW217364   4.814   2.453   6.422
 5489SOL     OW17365   6.732   2.679   4.131
 5489SOL    HW117366   6.718   2.769   4.172
 5489SOL    HW217367   6.798   2.686   4.056
 5490SOL     OW17368   0.711   5.221   2.117
 5490SOL    HW117369   0.630   5.163   2.121
 5490SOL    HW217370   0.732   5.244   2.022
 5491SOL     OW17371   6.224   4.043   0.436
 5491SOL    HW117372   6.255   3.970   0.496
 5491SOL    HW217373   6.170   4.003   0.361
 5492SOL     OW17374   0.596   1.988   6.832
 5492SOL    HW117375   0.673   2.051   6.837
 5492SOL    HW217376   0.556   1.978   6.923
 5493SOL     OW17377   4.413   4.084   6.609
 5493SOL    HW117378   4.475   4.025   6.662
 5493SOL    HW217379   4.342   4.121   6.670
 5494SOL     OW17380   5.600   2.546   5.550
 5494SOL    HW117381   5.605   2.454   5.588
 5494SOL    HW217382   5.570   2.610   5.620
 5495SOL     OW17383   5.885   0.827   0.879
 5495SOL    HW117384   5.815   0.776   0.931
 5495SOL    HW217385   5.877   0.803   0.783
 5496SOL     OW17386   4.272   6.121   5.893
 5496SOL    HW117387   4.331   6.188   5.937
 5496SOL    HW217388   4.281   6.128   5.794
 5497SOL     OW17389   1.035   6.785   6.137
 5497SOL    HW117390   1.072   6.871   6.101
 5497SOL    HW217391   1.076   6.766   6.226
 5498SOL     OW17392   0.918   5.800   1.582
 5498SOL    HW117393   0.842   5.851   1.622
 5498SOL    HW217394   0.948   5.729   1.646
 5499SOL     OW17395   2.110   0.530   3.580
 5499SOL    HW117396   2.159   0.463   3.635
 5499SOL    HW217397   2.028   0.560   3.629
 5500SOL     OW17398   1.658   6.348   1.651
 5500SOL    HW117399   1.708   6.286   1.591
 5500SOL    HW217400   1.599   6.407   1.597
 5501SOL     OW17401   5.514   3.658   0.693
 5501SOL    HW117402   5.605   3.677   0.655
 5501SOL    HW217403   5.469   3.744   0.718
 5502SOL     OW17404   4.469   3.618   0.444
 5502SOL    HW117405   4.526   3.683   0.394
 5502SOL    HW217406   4.458   3.649   0.539
 5503SOL     OW17407   6.123   3.001   1.364
 5503SOL    HW117408   6.109   2.934   1.437
 5503SOL    HW217409   6.094   3.091   1.394
 5504SOL     OW17410   3.443   2.034   6.940
 5504SOL    HW117411   3.388   2.085   6.874
 5504SOL    HW217412   3.403   2.043   0.015
 5505SOL     OW17413   2.569   5.294   1.969
 5505SOL    HW117414   2.595   5.198   1.961
 5505SOL    HW217415   2.542   5.313   2.064
 5506SOL     OW17416   6.621   2.588   5.966
 5506SOL    HW117417   6.715   2.554   5.979
 5506SOL    HW217418   6.557   2.512   5.980
 5507SOL     OW17419   3.881   6.318   0.415
 5507SOL    HW117420   3.924   6.367   0.338
 5507SOL    HW217421   3.951   6.265   0.463
 5508SOL     OW17422   6.597   1.928   6.420
 5508SOL    HW117423   6.692   1.909   6.398
 5508SOL    HW217424   6.568   2.013   6.375
 5509SOL     OW17425   5.977   4.201   0.291
 5509SOL    HW117426   5.987   4.289   0.245
 5509SOL    HW217427   6.062   4.150   0.284
 5510SOL     OW17428   5.617   5.884   0.052
 5510SOL    HW117429   5.670   5.969   0.052
 5510SOL    HW217430   5.519   5.907   0.054
 5511SOL     OW17431   0.972   2.748   6.397
 5511SOL    HW117432   1.013   2.691   6.325
 5511SOL    HW217433   0.876   2.764   6.377
 5512SOL     OW17434   3.115   7.013   2.141
 5512SOL    HW117435   3.188   6.973   2.197
 5512SOL    HW217436   3.029   6.966   2.161
 5513SOL     OW17437   3.947   4.522   6.601
 5513SOL    HW117438   4.015   4.460   6.561
 5513SOL    HW217439   3.994   4.594   6.652
 5514SOL     OW17440   3.643   1.550   0.373
 5514SOL    HW117441   3.558   1.500   0.358
 5514SOL    HW217442   3.716   1.485   0.395
 5515SOL     OW17443   3.114   4.961   2.463
 5515SOL    HW117444   3.061   4.917   2.391
 5515SOL    HW217445   3.108   4.907   2.547
 5516SOL     OW17446   1.074   2.608   6.199
 5516SOL    HW117447   1.067   2.610   6.100
 5516SOL    HW217448   1.107   2.518   6.229
 5517SOL     OW17449   1.022   1.997   4.478
 5517SOL    HW117450   0.930   2.001   4.518
 5517SOL    HW217451   1.069   2.084   4.496
 5518SOL     OW17452   4.350   4.266   5.849
 5518SOL    HW117453   4.274   4.331   5.843
 5518SOL    HW217454   4.315   4.173   5.843
 5519SOL     OW17455   5.272   2.594   5.769
 5519SOL    HW117456   5.217   2.525   5.723
 5519SOL    HW217457   5.232   2.685   5.752
 5520SOL     OW17458   5.377   5.943   1.564
 5520SOL    HW117459   5.352   5.862   1.618
 5520SOL    HW217460   5.335   6.024   1.604
 5521SOL     OW17461   4.618   0.796   2.131
 5521SOL    HW117462   4.704   0.795   2.182
 5521SOL    HW217463   4.546   0.832   2.190
 5522SOL     OW17464   4.666   6.254   6.661
 5522SOL    HW117465   4.642   6.339   6.709
 5522SOL    HW217466   4.738   6.206   6.711
 5523SOL     OW17467   5.245   1.849   0.770
 5523SOL    HW117468   5.168   1.831   0.831
 5523SOL    HW217469   5.215   1.911   0.697
 5524SOL     OW17470   2.310   1.623   3.141
 5524SOL    HW117471   2.386   1.660   3.087
 5524SOL    HW217472   2.243   1.580   3.080
 5525SOL     OW17473   0.021   1.011   1.069
 5525SOL    HW117474   0.009   1.010   0.970
 5525SOL    HW217475   6.989   0.932   1.109
 5526SOL     OW17476   4.933   4.355   4.142
 5526SOL    HW117477   4.959   4.381   4.235
 5526SOL    HW217478   4.992   4.281   4.111
 5527SOL     OW17479   6.310   0.522   2.487
 5527SOL    HW117480   6.309   0.444   2.550
 5527SOL    HW217481   6.227   0.577   2.500
 5528SOL     OW17482   1.519   1.428   0.094
 5528SOL    HW117483   1.476   1.396   0.179
 5528SOL    HW217484   1.583   1.358   0.062
 5529SOL     OW17485   3.632   0.266   2.055
 5529SOL    HW117486   3.709   0.326   2.074
 5529SOL    HW217487   3.563   0.316   2.002
 5530SOL     OW17488   0.964   1.773   0.890
 5530SOL    HW117489   1.012   1.689   0.866
 5530SOL    HW217490   1.026   1.833   0.940
 5531SOL     OW17491   1.181   4.918   0.252
 5531SOL    HW117492   1.197   4.829   0.294
 5531SOL    HW217493   1.246   4.984   0.289
 5532SOL     OW17494   0.104   4.623   6.285
 5532SOL    HW117495   0.183   4.584   6.331
 5532SOL    HW217496   0.102   4.722   6.300
 5533SOL     OW17497   2.958   1.237   3.318
 5533SOL    HW117498   2.960   1.219   3.417
 5533SOL    HW217499   2.933   1.153   3.269
 5534SOL     OW17500   1.370   0.681   4.629
 5534SOL    HW117501   1.461   0.706   4.663
 5534SOL    HW217502   1.321   0.629   4.699
 5535SOL     OW17503   0.329   1.894   2.573
 5535SOL    HW117504   0.323   1.896   2.474
 5535SOL    HW217505   0.291   1.979   2.610
 5536SOL     OW17506   4.631   0.158   4.366
 5536SOL    HW117507   4.641   0.157   4.267
 5536SOL    HW217508   4.544   0.201   4.391
 5537SOL     OW17509   2.493   2.176   2.819
 5537SOL    HW117510   2.444   2.111   2.878
 5537SOL    HW217511   2.434   2.254   2.799
 5538SOL     OW17512   4.053   5.356   3.755
 5538SOL    HW117513   3.954   5.352   3.741
 5538SOL    HW217514   4.089   5.264   3.772
 5539SOL     OW17515   2.774   3.904   0.019
 5539SOL    HW117516   2.702   3.973   0.013
 5539SOL    HW217517   2.789   3.863   6.945
 5540SOL     OW17518   3.722   5.356   1.226
 5540SOL    HW117519   3.660   5.279   1.213
 5540SOL    HW217520   3.808   5.324   1.267
 5541SOL     OW17521   4.517   0.497   6.370
 5541SOL    HW117522   4.465   0.493   6.285
 5541SOL    HW217523   4.524   0.592   6.400
 5542SOL     OW17524   5.662   4.043   6.510
 5542SOL    HW117525   5.736   4.110   6.510
 5542SOL    HW217526   5.699   3.952   6.492
 5543SOL     OW17527   0.734   2.280   5.073
 5543SOL    HW117528   0.710   2.365   5.119
 5543SOL    HW217529   0.833   2.275   5.060
 5544SOL     OW17530   5.317   0.375   0.275
 5544SOL    HW117531   5.309   0.278   0.298
 5544SOL    HW217532   5.251   0.398   0.204
 5545SOL     OW17533   2.370   2.459   1.921
 5545SOL    HW117534   2.341   2.444   1.826
 5545SOL    HW217535   2.364   2.557   1.942
 5546SOL     OW17536   3.647   5.591   4.782
 5546SOL    HW117537   3.708   5.515   4.803
 5546SOL    HW217538   3.699   5.665   4.738
 5547SOL     OW17539   2.729   5.172   3.624
 5547SOL    HW117540   2.725   5.156   3.723
 5547SOL    HW217541   2.720   5.084   3.576
 5548SOL     OW17542   6.680   1.917   4.781
 5548SOL    HW117543   6.651   2.012   4.795
 5548SOL    HW217544   6.778   1.910   4.798
 5549SOL     OW17545   3.273   5.485   5.978
 5549SOL    HW117546   3.213   5.487   5.899
 5549SOL    HW217547   3.367   5.506   5.950
 5550SOL     OW17548   2.585   5.922   2.551
 5550SOL    HW117549   2.514   5.874   2.601
 5550SOL    HW217550   2.577   6.020   2.567
 5551SOL     OW17551   0.557   1.331   2.554
 5551SOL    HW117552   0.656   1.339   2.570
 5551SOL    HW217553   0.513   1.418   2.577
 5552SOL     OW17554   1.858   2.200   2.257
 5552SOL    HW117555   1.784   2.257   2.221
 5552SOL    HW217556   1.912   2.254   2.322
 5553SOL     OW17557   4.977   6.789   6.380
 5553SOL    HW117558   4.877   6.793   6.386
 5553SOL    HW217559   5.003   6.717   6.315
 5554SOL     OW17560   3.216   0.477   5.233
 5554SOL    HW117561   3.148   0.529   5.283
 5554SOL    HW217562   3.189   0.380   5.230
 5555SOL     OW17563   1.202   5.970   1.619
 5555SOL    HW117564   1.149   5.888   1.637
 5555SOL    HW217565   1.169   6.044   1.678
 5556SOL     OW17566   6.600   1.329   4.843
 5556SOL    HW117567   6.656   1.371   4.771
 5556SOL    HW217568   6.592   1.393   4.920
 5557SOL     OW17569   3.997   0.914   2.488
 5557SOL    HW117570   3.981   0.819   2.461
 5557SOL    HW217571   3.964   0.976   2.416
 5558SOL     OW17572   4.810   2.758   6.021
 5558SOL    HW117573   4.730   2.717   6.064
 5558SOL    HW217574   4.893   2.714   6.057
 5559SOL     OW17575   2.927   0.824   0.713
 5559SOL    HW117576   2.842   0.874   0.730
 5559SOL    HW217577   2.919   0.731   0.748
 5560SOL     OW17578   6.964   1.902   4.817
 5560SOL    HW117579   6.978   1.980   4.877
 5560SOL    HW217580   6.976   1.931   4.722
 5561SOL     OW17581   2.050   4.581   1.834
 5561SOL    HW117582   2.010   4.584   1.926
 5561SOL    HW217583   2.036   4.490   1.795
 5562SOL     OW17584   3.689   2.471   0.344
 5562SOL    HW117585   3.787   2.452   0.332
 5562SOL    HW217586   3.637   2.430   0.269
 5563SOL     OW17587   3.797   4.632   0.886
 5563SOL    HW117588   3.825   4.551   0.939
 5563SOL    HW217589   3.697   4.636   0.883
 5564SOL     OW17590   6.621   1.154   2.270
 5564SOL    HW117591   6.627   1.155   2.170
 5564SOL    HW217592   6.636   1.246   2.306
 5565SOL     OW17593   1.507   2.869   5.711
 5565SOL    HW117594   1.516   2.955   5.760
 5565SOL    HW217595   1.594   2.819   5.713
 5566SOL     OW17596   2.243   4.320   0.382
 5566SOL    HW117597   2.160   4.340   0.434
 5566SOL    HW217598   2.234   4.230   0.340
 5567SOL     OW17599   1.212   5.428   3.341
 5567SOL    HW117600   1.181   5.346   3.293
 5567SOL    HW217601   1.166   5.508   3.302
 5568SOL     OW17602   3.656   2.726   0.219
 5568SOL    HW117603   3.742   2.771   0.197
 5568SOL    HW217604   3.674   2.648   0.279
 5569SOL     OW17605   4.771   1.755   6.550
 5569SOL    HW117606   4.771   1.672   6.493
 5569SOL    HW217607   4.851   1.810   6.529
 5570SOL     OW17608   1.804   2.627   5.917
 5570SOL    HW117609   1.867   2.626   5.995
 5570SOL    HW217610   1.732   2.560   5.931
 5571SOL     OW17611   0.489   4.712   6.519
 5571SOL    HW117612   0.578   4.672   6.539
 5571SOL    HW217613   0.501   4.793   6.461
 5572SOL     OW17614   0.845   3.420   5.593
 5572SOL    HW117615   0.832   3.340   5.536
 5572SOL    HW217616   0.783   3.493   5.564
 5573SOL     OW17617   6.716   3.626   6.552
 5573SOL    HW117618   6.685   3.579   6.634
 5573SOL    HW217619   6.792   3.575   6.511
 5574SOL     OW17620   2.149   6.044   4.393
 5574SOL    HW117621   2.162   6.025   4.296
 5574SOL    HW217622   2.058   6.084   4.407
 5575SOL     OW17623   1.320   1.343   3.051
 5575SOL    HW117624   1.342   1.252   3.084
 5575SOL    HW217625   1.221   1.357   3.052
 5576SOL     OW17626   5.318   6.963   6.102
 5576SOL    HW117627   5.228   6.955   6.061
 5576SOL    HW217628   5.321   6.909   6.187
 5577SOL     OW17629   1.223   4.943   4.695
 5577SOL    HW117630   1.232   4.953   4.596
 5577SOL    HW217631   1.279   4.866   4.726
 5578SOL     OW17632   4.116   1.514   6.090
 5578SOL    HW117633   4.207   1.545   6.114
 5578SOL    HW217634   4.110   1.500   5.991
 5579SOL     OW17635   4.753   4.795   2.403
 5579SOL    HW117636   4.712   4.830   2.488
 5579SOL    HW217637   4.826   4.731   2.425
 5580SOL     OW17638   6.609   1.151   1.779
 5580SOL    HW117639   6.704   1.170   1.804
 5580SOL    HW217640   6.548   1.215   1.827
 5581SOL     OW17641   3.394   3.388   0.552
 5581SOL    HW117642   3.425   3.446   0.627
 5581SOL    HW217643   3.355   3.303   0.588
 5582SOL     OW17644   3.148   3.664   5.077
 5582SOL    HW117645   3.052   3.649   5.055
 5582SOL    HW217646   3.199   3.578   5.066
 5583SOL     OW17647   3.859   0.784   6.480
 5583SOL    HW117648   3.899   0.858   6.535
 5583SOL    HW217649   3.791   0.822   6.417
 5584SOL     OW17650   4.880   3.140   4.436
 5584SOL    HW117651   4.875   3.084   4.518
 5584SOL    HW217652   4.843   3.089   4.358
 5585SOL     OW17653   0.114   0.902   3.579
 5585SOL    HW117654   0.111   0.957   3.663
 5585SOL    HW217655   0.036   0.840   3.578
 5586SOL     OW17656   1.724   0.495   6.873
 5586SOL    HW117657   1.821   0.492   6.894
 5586SOL    HW217658   1.711   0.524   6.778
 5587SOL     OW17659   3.425   5.848   2.957
 5587SOL    HW117660   3.359   5.869   2.885
 5587SOL    HW217661   3.514   5.890   2.935
 5588SOL     OW17662   4.765   5.416   6.934
 5588SOL    HW117663   4.690   5.349   6.935
 5588SOL    HW217664   4.736   5.498   6.886
 5589SOL     OW17665   1.669   2.539   6.683
 5589SOL    HW117666   1.602   2.491   6.627
 5589SOL    HW217667   1.623   2.582   6.761
 5590SOL     OW17668   6.324   0.714   3.551
 5590SOL    HW117669   6.230   0.701   3.584
 5590SOL    HW217670   6.388   0.699   3.627
 5591SOL     OW17671   5.182   1.299   6.293
 5591SOL    HW117672   5.203   1.204   6.317
 5591SOL    HW217673   5.139   1.345   6.371
 5592SOL     OW17674   1.458   3.751   2.356
 5592SOL    HW117675   1.481   3.714   2.446
 5592SOL    HW217676   1.393   3.689   2.311
 5593SOL     OW17677   2.114   3.619   5.306
 5593SOL    HW117678   2.060   3.573   5.377
 5593SOL    HW217679   2.155   3.550   5.246
 5594SOL     OW17680   3.064   0.882   6.113
 5594SOL    HW117681   3.108   0.953   6.168
 5594SOL    HW217682   3.070   0.907   6.016
 5595SOL     OW17683   6.798   3.455   6.949
 5595SOL    HW117684   6.708   3.431   6.986
 5595SOL    HW217685   6.867   3.397   6.991
 5596SOL     OW17686   5.009   3.635   4.378
 5596SOL    HW117687   5.030   3.637   4.476
 5596SOL    HW217688   4.993   3.541   4.350
 5597SOL     OW17689   0.377   2.027   6.593
 5597SOL    HW117690   0.464   1.979   6.586
 5597SOL    HW217691   0.363   2.083   6.511
 5598SOL     OW17692   6.772   6.905   3.381
 5598SOL    HW117693   6.754   6.927   3.285
 5598SOL    HW217694   6.791   6.990   3.431
 5599SOL     OW17695   4.885   3.343   3.126
 5599SOL    HW117696   4.919   3.347   3.032
 5599SOL    HW217697   4.862   3.249   3.149
 5600SOL     OW17698   1.930   3.242   1.708
 5600SOL    HW117699   2.005   3.281   1.654
 5600SOL    HW217700   1.853   3.221   1.648
 5601SOL     OW17701   5.231   2.564   6.467
 5601SOL    HW117702   5.303   2.569   6.397
 5601SOL    HW217703   5.149   2.611   6.434
 5602SOL     OW17704   5.936   1.186   2.496
 5602SOL    HW117705   5.973   1.093   2.504
 5602SOL    HW217706   5.938   1.230   2.586
 5603SOL     OW17707   3.636   1.041   5.948
 5603SOL    HW117708   3.583   1.122   5.976
 5603SOL    HW217709   3.645   1.040   5.849
 5604SOL     OW17710   1.360   4.138   3.420
 5604SOL    HW117711   1.444   4.113   3.467
 5604SOL    HW217712   1.298   4.183   3.484
 5605SOL     OW17713   3.455   6.684   4.660
 5605SOL    HW117714   3.496   6.593   4.647
 5605SOL    HW217715   3.385   6.679   4.731
 5606SOL     OW17716   4.224   4.145   1.331
 5606SOL    HW117717   4.195   4.067   1.276
 5606SOL    HW217718   4.184   4.139   1.422
 5607SOL     OW17719   1.361   1.975   2.266
 5607SOL    HW117720   1.344   1.877   2.275
 5607SOL    HW217721   1.294   2.026   2.321
 5608SOL     OW17722   6.514   6.224   3.651
 5608SOL    HW117723   6.423   6.192   3.623
 5608SOL    HW217724   6.584   6.166   3.611
 5609SOL     OW17725   6.524   1.028   0.649
 5609SOL    HW117726   6.435   0.985   0.662
 5609SOL    HW217727   6.521   1.089   0.570
 5610SOL     OW17728   5.326   6.826   6.633
 5610SOL    HW117729   5.229   6.843   6.654
 5610SOL    HW217730   5.341   6.728   6.625
 5611SOL     OW17731   0.027   3.948   1.384
 5611SOL    HW117732   7.001   3.906   1.464
 5611SOL    HW217733   6.973   3.964   1.314
 5612SOL     OW17734   5.014   2.203   1.258
 5612SOL    HW117735   4.948   2.257   1.310
 5612SOL    HW217736   5.089   2.262   1.229
 5613SOL     OW17737   6.613   5.305   5.390
 5613SOL    HW117738   6.589   5.336   5.482
 5613SOL    HW217739   6.674   5.372   5.347
 5614SOL     OW17740   5.634   2.525   4.407
 5614SOL    HW117741   5.554   2.560   4.358
 5614SOL    HW217742   5.606   2.491   4.497
 5615SOL     OW17743   0.485   3.419   2.572
 5615SOL    HW117744   0.552   3.478   2.526
 5615SOL    HW217745   0.470   3.453   2.665
 5616SOL     OW17746   1.561   3.055   1.471
 5616SOL    HW117747   1.574   3.012   1.382
 5616SOL    HW217748   1.631   3.022   1.535
 5617SOL     OW17749   0.246   5.319   5.012
 5617SOL    HW117750   0.180   5.285   4.945
 5617SOL    HW217751   0.198   5.366   5.086
 5618SOL     OW17752   4.951   0.992   3.213
 5618SOL    HW117753   4.878   1.020   3.276
 5618SOL    HW217754   4.929   1.024   3.121
 5619SOL     OW17755   3.831   4.022   4.254
 5619SOL    HW117756   3.788   4.095   4.307
 5619SOL    HW217757   3.788   4.016   4.164
 5620SOL     OW17758   4.229   4.716   5.513
 5620SOL    HW117759   4.239   4.627   5.469
 5620SOL    HW217760   4.315   4.767   5.505
 5621SOL     OW17761   1.088   3.384   6.840
 5621SOL    HW117762   1.083   3.288   6.811
 5621SOL    HW217763   0.996   3.417   6.861
 5622SOL     OW17764   5.431   5.694   3.141
 5622SOL    HW117765   5.433   5.615   3.203
 5622SOL    HW217766   5.395   5.665   3.053
 5623SOL     OW17767   4.323   4.680   3.494
 5623SOL    HW117768   4.355   4.765   3.452
 5623SOL    HW217769   4.231   4.694   3.532
 5624SOL     OW17770   4.984   4.178   3.580
 5624SOL    HW117771   4.938   4.266   3.568
 5624SOL    HW217772   4.949   4.134   3.663
 5625SOL     OW17773   4.009   6.878   6.279
 5625SOL    HW117774   4.070   6.875   6.199
 5625SOL    HW217775   3.915   6.859   6.250
 5626SOL     OW17776   1.857   4.413   5.823
 5626SOL    HW117777   1.877   4.445   5.915
 5626SOL    HW217778   1.932   4.354   5.791
 5627SOL     OW17779   0.590   5.452   1.097
 5627SOL    HW117780   0.564   5.462   1.001
 5627SOL    HW217781   0.567   5.536   1.147
 5628SOL     OW17782   0.868   2.428   0.056
 5628SOL    HW117783   0.854   2.527   0.061
 5628SOL    HW217784   0.877   2.390   0.148
 5629SOL     OW17785   0.399   3.200   4.922
 5629SOL    HW117786   0.363   3.175   4.832
 5629SOL    HW217787   0.331   3.252   4.973
 5630SOL     OW17788   1.248   4.609   6.655
 5630SOL    HW117789   1.218   4.514   6.663
 5630SOL    HW217790   1.336   4.612   6.609
 5631SOL     OW17791   3.141   0.954   3.426
 5631SOL    HW117792   3.072   1.010   3.471
 5631SOL    HW217793   3.101   0.867   3.399
 5632SOL     OW17794   3.501   6.421   6.213
 5632SOL    HW117795   3.566   6.496   6.203
 5632SOL    HW217796   3.424   6.436   6.150
 5633SOL     OW17797   2.289   5.731   4.910
 5633SOL    HW117798   2.229   5.789   4.855
 5633SOL    HW217799   2.328   5.659   4.852
 5634SOL     OW17800   2.443   0.257   1.719
 5634SOL    HW117801   2.372   0.187   1.723
 5634SOL    HW217802   2.401   0.347   1.709
 5635SOL     OW17803   4.143   1.151   2.324
 5635SOL    HW117804   4.144   1.251   2.325
 5635SOL    HW217805   4.053   1.118   2.296
 5636SOL     OW17806   4.974   0.711   4.300
 5636SOL    HW117807   4.972   0.619   4.259
 5636SOL    HW217808   5.068   0.733   4.326
 5637SOL     OW17809   6.053   6.981   5.364
 5637SOL    HW117810   5.987   6.912   5.335
 5637SOL    HW217811   6.071   6.969   5.462
 5638SOL     OW17812   1.224   5.762   6.968
 5638SOL    HW117813   1.171   5.823   0.011
 5638SOL    HW217814   1.264   5.816   6.893
 5639SOL     OW17815   3.308   0.005   1.711
 5639SOL    HW117816   3.334   7.008   1.806
 5639SOL    HW217817   3.210   7.005   1.701
 5640SOL     OW17818   3.985   6.929   4.215
 5640SOL    HW117819   3.933   6.888   4.290
 5640SOL    HW217820   4.062   6.982   4.252
 5641SOL     OW17821   6.583   4.889   3.752
 5641SOL    HW117822   6.617   4.927   3.838
 5641SOL    HW217823   6.489   4.859   3.764
 5642SOL     OW17824   2.358   1.875   6.475
 5642SOL    HW117825   2.444   1.825   6.465
 5642SOL    HW217826   2.366   1.963   6.428
 5643SOL     OW17827   4.986   2.694   3.507
 5643SOL    HW117828   4.905   2.637   3.523
 5643SOL    HW217829   5.068   2.639   3.524
 5644SOL     OW17830   3.077   0.631   5.899
 5644SOL    HW117831   3.169   0.597   5.879
 5644SOL    HW217832   3.065   0.721   5.858
 5645SOL     OW17833   6.328   6.006   3.996
 5645SOL    HW117834   6.252   5.951   3.963
 5645SOL    HW217835   6.306   6.103   3.987
 5646SOL     OW17836   6.558   1.157   2.576
 5646SOL    HW117837   6.516   1.138   2.486
 5646SOL    HW217838   6.657   1.164   2.566
 5647SOL     OW17839   5.890   3.668   6.264
 5647SOL    HW117840   5.841   3.582   6.252
 5647SOL    HW217841   5.888   3.719   6.179
 5648SOL     OW17842   1.689   1.473   3.997
 5648SOL    HW117843   1.654   1.551   4.048
 5648SOL    HW217844   1.697   1.497   3.900
 5649SOL     OW17845   6.733   0.696   4.528
 5649SOL    HW117846   6.725   0.729   4.433
 5649SOL    HW217847   6.829   0.695   4.555
 5650SOL     OW17848   6.035   4.763   5.231
 5650SOL    HW117849   6.077   4.674   5.217
 5650SOL    HW217850   6.082   4.811   5.305
 5651SOL     OW17851   5.940   0.359   3.209
 5651SOL    HW117852   6.025   0.342   3.160
 5651SOL    HW217853   5.911   0.453   3.194
 5652SOL     OW17854   4.232   4.446   6.632
 5652SOL    HW117855   4.254   4.432   6.728
 5652SOL    HW217856   4.207   4.359   6.589
 5653SOL     OW17857   2.248   6.216   6.648
 5653SOL    HW117858   2.188   6.283   6.605
 5653SOL    HW217859   2.333   6.209   6.595
 5654SOL     OW17860   2.603   6.732   0.293
 5654SOL    HW117861   2.672   6.781   0.240
 5654SOL    HW217862   2.648   6.661   0.348
 5655SOL     OW17863   6.438   5.908   2.625
 5655SOL    HW117864   6.448   6.007   2.617
 5655SOL    HW217865   6.505   5.863   2.566
 5656SOL     OW17866   3.404   5.103   6.451
 5656SOL    HW117867   3.314   5.086   6.490
 5656SOL    HW217868   3.465   5.027   6.473
 5657SOL     OW17869   4.989   5.398   2.017
 5657SOL    HW117870   5.066   5.438   2.067
 5657SOL    HW217871   4.980   5.301   2.041
 5658SOL     OW17872   4.981   6.545   6.235
 5658SOL    HW117873   4.891   6.517   6.201
 5658SOL    HW217874   5.052   6.490   6.191
 5659SOL     OW17875   3.347   3.606   2.050
 5659SOL    HW117876   3.359   3.506   2.050
 5659SOL    HW217877   3.262   3.629   2.097
 5660SOL     OW17878   0.145   5.384   1.630
 5660SOL    HW117879   0.061   5.437   1.645
 5660SOL    HW217880   0.184   5.407   1.541
 5661SOL     OW17881   6.040   5.800   4.304
 5661SOL    HW117882   6.113   5.845   4.356
 5661SOL    HW217883   5.951   5.832   4.337
 5662SOL     OW17884   1.562   3.692   4.512
 5662SOL    HW117885   1.519   3.620   4.457
 5662SOL    HW217886   1.655   3.665   4.537
 5663SOL     OW17887   2.443   3.724   0.397
 5663SOL    HW117888   2.479   3.809   0.435
 5663SOL    HW217889   2.474   3.647   0.453
 5664SOL     OW17890   6.374   6.660   1.832
 5664SOL    HW117891   6.306   6.694   1.896
 5664SOL    HW217892   6.392   6.731   1.763
 5665SOL     OW17893   1.925   0.774   5.713
 5665SOL    HW117894   1.869   0.715   5.656
 5665SOL    HW217895   1.955   0.853   5.659
 5666SOL     OW17896   5.136   6.342   6.737
 5666SOL    HW117897   5.206   6.270   6.733
 5666SOL    HW217898   5.101   6.360   6.645
 5667SOL     OW17899   5.336   4.461   3.215
 5667SOL    HW117900   5.411   4.499   3.269
 5667SOL    HW217901   5.357   4.367   3.189
 5668SOL     OW17902   6.243   2.222   6.869
 5668SOL    HW117903   6.271   2.311   6.834
 5668SOL    HW217904   6.322   2.160   6.869
 5669SOL     OW17905   0.091   2.106   4.993
 5669SOL    HW117906   0.111   2.021   5.042
 5669SOL    HW217907   0.153   2.115   4.916
 5670SOL     OW17908   1.479   2.999   2.127
 5670SOL    HW117909   1.421   2.954   2.195
 5670SOL    HW217910   1.477   2.946   2.042
 5671SOL     OW17911   1.249   0.719   5.688
 5671SOL    HW117912   1.220   0.812   5.666
 5671SOL    HW217913   1.239   0.661   5.607
 5672SOL     OW17914   4.080   4.463   5.879
 5672SOL    HW117915   4.082   4.456   5.780
 5672SOL    HW217916   4.031   4.547   5.906
 5673SOL     OW17917   1.929   6.628   1.460
 5673SOL    HW117918   1.901   6.676   1.543
 5673SOL    HW217919   2.028   6.637   1.447
 5674SOL     OW17920   0.591   2.651   0.893
 5674SOL    HW117921   0.611   2.675   0.988
 5674SOL    HW217922   0.657   2.583   0.861
 5675SOL     OW17923   4.305   1.027   5.555
 5675SOL    HW117924   4.395   1.069   5.547
 5675SOL    HW217925   4.277   1.026   5.651
 5676SOL     OW17926   2.171   6.412   2.549
 5676SOL    HW117927   2.196   6.498   2.504
 5676SOL    HW217928   2.079   6.386   2.521
 5677SOL     OW17929   6.554   0.256   2.785
 5677SOL    HW117930   6.476   0.269   2.723
 5677SOL    HW217931   6.588   0.162   2.776
 5678SOL     OW17932   1.358   5.255   2.570
 5678SOL    HW117933   1.263   5.278   2.550
 5678SOL    HW217934   1.367   5.232   2.667
 5679SOL     OW17935   3.921   5.940   5.460
 5679SOL    HW117936   3.855   5.965   5.530
 5679SOL    HW217937   3.894   5.981   5.373
 5680SOL     OW17938   1.799   6.953   6.427
 5680SOL    HW117939   1.728   6.959   6.496
 5680SOL    HW217940   1.835   0.029   6.409
 5681SOL     OW17941   3.247   3.410   0.312
 5681SOL    HW117942   3.279   3.433   0.404
 5681SOL    HW217943   3.257   3.489   0.252
 5682SOL     OW17944   2.123   3.774   4.759
 5682SOL    HW117945   2.114   3.831   4.677
 5682SOL    HW217946   2.062   3.809   4.830
 5683SOL     OW17947   3.871   3.564   5.244
 5683SOL    HW117948   3.968   3.563   5.267
 5683SOL    HW217949   3.841   3.472   5.220
 5684SOL     OW17950   3.289   3.881   3.069
 5684SOL    HW117951   3.263   3.880   3.166
 5684SOL    HW217952   3.348   3.959   3.051
 5685SOL     OW17953   0.197   6.933   1.595
 5685SOL    HW117954   0.150   6.912   1.681
 5685SOL    HW217955   0.144   6.896   1.519
 5686SOL     OW17956   3.408   4.567   6.257
 5686SOL    HW117957   3.332   4.604   6.204
 5686SOL    HW217958   3.494   4.600   6.218
 5687SOL     OW17959   4.452   6.172   6.535
 5687SOL    HW117960   4.385   6.245   6.524
 5687SOL    HW217961   4.535   6.209   6.577
 5688SOL     OW17962   5.261   1.796   2.544
 5688SOL    HW117963   5.265   1.827   2.449
 5688SOL    HW217964   5.341   1.741   2.565
 5689SOL     OW17965   3.923   3.102   5.071
 5689SOL    HW117966   4.012   3.136   5.100
 5689SOL    HW217967   3.908   3.011   5.110
 5690SOL     OW17968   3.535   0.607   2.992
 5690SOL    HW117969   3.573   0.522   3.029
 5690SOL    HW217970   3.435   0.605   2.999
 5691SOL     OW17971   3.504   0.630   4.366
 5691SOL    HW117972   3.421   0.683   4.383
 5691SOL    HW217973   3.551   0.613   4.453
 5692SOL     OW17974   6.068   3.058   0.455
 5692SOL    HW117975   6.001   3.057   0.380
 5692SOL    HW217976   6.159   3.078   0.418
 5693SOL     OW17977   5.357   3.294   1.839
 5693SOL    HW117978   5.303   3.364   1.792
 5693SOL    HW217979   5.323   3.203   1.814
 5694SOL     OW17980   1.835   2.082   5.055
 5694SOL    HW117981   1.931   2.107   5.048
 5694SOL    HW217982   1.780   2.149   5.004
 5695SOL     OW17983   1.892   3.751   3.479
 5695SOL    HW117984   1.846   3.671   3.518
 5695SOL    HW217985   1.979   3.766   3.525
 5696SOL     OW17986   3.517   1.279   6.694
 5696SOL    HW117987   3.444   1.312   6.754
 5696SOL    HW217988   3.584   1.228   6.748
 5697SOL     OW17989   6.890   4.022   0.377
 5697SOL    HW117990   6.985   4.050   0.389
 5697SOL    HW217991   6.880   3.975   0.289
 5698SOL     OW17992   1.536   4.331   3.777
 5698SOL    HW117993   1.632   4.334   3.748
 5698SOL    HW217994   1.513   4.416   3.825
 5699SOL     OW17995   1.026   2.255   5.017
 5699SOL    HW117996   1.108   2.201   5.035
 5699SOL    HW217997   1.003   2.249   4.919
 5700SOL     OW17998   1.250   5.055   4.403
 5700SOL    HW117999   1.244   5.095   4.312
 5700SOL    HW218000   1.342   5.071   4.440
 5701SOL     OW18001   4.890   2.498   2.581
 5701SOL    HW118002   4.924   2.457   2.497
 5701SOL    HW218003   4.832   2.576   2.558
 5702SOL     OW18004   3.768   0.408   6.985
 5702SOL    HW118005   3.800   0.447   6.899
 5702SOL    HW218006   3.827   0.332   7.012
 5703SOL     OW18007   5.160   4.238   2.856
 5703SOL    HW118008   5.157   4.328   2.813
 5703SOL    HW218009   5.141   4.246   2.954
 5704SOL     OW18010   5.482   4.035   3.288
 5704SOL    HW118011   5.581   4.043   3.299
 5704SOL    HW218012   5.436   4.085   3.362
 5705SOL     OW18013   6.768   0.782   3.804
 5705SOL    HW118014   6.824   0.758   3.725
 5705SOL    HW218015   6.820   0.767   3.888
 5706SOL     OW18016   2.369   1.160   6.340
 5706SOL    HW118017   2.366   1.199   6.432
 5706SOL    HW218018   2.419   1.074   6.342
 5707SOL     OW18019   3.920   1.025   0.689
 5707SOL    HW118020   3.890   1.025   0.593
 5707SOL    HW218021   3.891   1.110   0.733
 5708SOL     OW18022   0.884   6.852   0.581
 5708SOL    HW118023   0.903   6.765   0.534
 5708SOL    HW218024   0.959   6.872   0.644
 5709SOL     OW18025   0.696   2.463   0.741
 5709SOL    HW118026   0.776   2.409   0.717
 5709SOL    HW218027   0.641   2.480   0.659
 5710SOL     OW18028   3.599   4.795   6.738
 5710SOL    HW118029   3.564   4.834   6.653
 5710SOL    HW218030   3.523   4.751   6.788
 5711SOL     OW18031   4.974   1.744   4.839
 5711SOL    HW118032   5.060   1.794   4.835
 5711SOL    HW218033   4.907   1.796   4.892
 5712SOL     OW18034   5.606   6.902   6.231
 5712SOL    HW118035   5.600   6.979   6.169
 5712SOL    HW218036   5.520   6.893   6.282
 5713SOL     OW18037   0.215   3.611   2.601
 5713SOL    HW118038   0.185   3.528   2.554
 5713SOL    HW218039   0.296   3.648   2.554
 5714SOL     OW18040   2.199   0.753   0.762
 5714SOL    HW118041   2.266   0.746   0.689
 5714SOL    HW218042   2.133   0.678   0.754
 5715SOL     OW18043   0.342   6.086   3.549
 5715SOL    HW118044   0.306   6.175   3.521
 5715SOL    HW218045   0.414   6.057   3.485
 5716SOL     OW18046   1.972   2.167   5.352
 5716SOL    HW118047   1.946   2.230   5.279
 5716SOL    HW218048   1.894   2.107   5.373
 5717SOL     OW18049   0.785   3.515   6.015
 5717SOL    HW118050   0.716   3.529   6.086
 5717SOL    HW218051   0.762   3.435   5.961
 5718SOL     OW18052   3.457   6.031   5.753
 5718SOL    HW118053   3.534   5.981   5.714
 5718SOL    HW218054   3.427   6.103   5.690
 5719SOL     OW18055   2.491   1.017   6.894
 5719SOL    HW118056   2.497   1.050   6.988
 5719SOL    HW218057   2.579   0.980   6.865
 5720SOL     OW18058   2.292   5.955   3.863
 5720SOL    HW118059   2.302   6.041   3.815
 5720SOL    HW218060   2.382   5.915   3.881
 5721SOL     OW18061   6.498   5.096   6.454
 5721SOL    HW118062   6.484   5.184   6.409
 5721SOL    HW218063   6.596   5.077   6.459
 5722SOL     OW18064   5.233   1.133   4.610
 5722SOL    HW118065   5.268   1.224   4.589
 5722SOL    HW218066   5.277   1.066   4.551
 5723SOL     OW18067   0.083   4.698   1.174
 5723SOL    HW118068   0.106   4.665   1.082
 5723SOL    HW218069   0.017   4.773   1.167
 5724SOL     OW18070   4.894   3.025   6.023
 5724SOL    HW118071   4.855   2.933   6.036
 5724SOL    HW218072   4.885   3.077   6.108
 5725SOL     OW18073   6.093   6.543   5.405
 5725SOL    HW118074   6.130   6.612   5.342
 5725SOL    HW218075   6.154   6.533   5.483
 5726SOL     OW18076   3.602   5.160   5.571
 5726SOL    HW118077   3.618   5.080   5.628
 5726SOL    HW218078   3.689   5.202   5.546
 5727SOL     OW18079   5.734   2.225   3.962
 5727SOL    HW118080   5.699   2.235   3.869
 5727SOL    HW218081   5.822   2.273   3.969
 5728SOL     OW18082   3.674   1.035   5.018
 5728SOL    HW118083   3.713   0.975   5.088
 5728SOL    HW218084   3.599   1.087   5.057
 5729SOL     OW18085   2.571   2.407   4.154
 5729SOL    HW118086   2.593   2.389   4.058
 5729SOL    HW218087   2.651   2.390   4.211
 5730SOL     OW18088   4.179   4.674   0.359
 5730SOL    HW118089   4.177   4.684   0.260
 5730SOL    HW218090   4.268   4.702   0.394
 5731SOL     OW18091   4.685   1.093   5.327
 5731SOL    HW118092   4.677   1.162   5.255
 5731SOL    HW218093   4.621   1.114   5.401
 5732SOL     OW18094   6.562   3.958   4.099
 5732SOL    HW118095   6.495   3.905   4.152
 5732SOL    HW218096   6.520   3.989   4.013
 5733SOL     OW18097   1.986   6.950   1.425
 5733SOL    HW118098   2.049   6.876   1.446
 5733SOL    HW218099   1.904   6.913   1.381
 5734SOL     OW18100   1.925   0.316   5.650
 5734SOL    HW118101   1.954   0.266   5.568
 5734SOL    HW218102   1.995   0.309   5.720
 5735SOL     OW18103   5.217   1.208   0.753
 5735SOL    HW118104   5.179   1.129   0.706
 5735SOL    HW218105   5.265   1.266   0.687
 5736SOL     OW18106   4.805   3.483   6.663
 5736SOL    HW118107   4.875   3.489   6.592
 5736SOL    HW218108   4.827   3.407   6.724
 5737SOL     OW18109   5.095   5.994   2.474
 5737SOL    HW118110   5.062   6.032   2.560
 5737SOL    HW218111   5.193   6.008   2.466
 5738SOL     OW18112   3.354   1.556   1.115
 5738SOL    HW118113   3.317   1.639   1.156
 5738SOL    HW218114   3.446   1.540   1.149
 5739SOL     OW18115   2.346   1.210   5.586
 5739SOL    HW118116   2.332   1.301   5.546
 5739SOL    HW218117   2.291   1.200   5.668
 5740SOL     OW18118   4.864   3.110   2.860
 5740SOL    HW118119   4.864   3.084   2.956
 5740SOL    HW218120   4.930   3.184   2.845
 5741SOL     OW18121   1.575   3.473   3.697
 5741SOL    HW118122   1.497   3.530   3.722
 5741SOL    HW218123   1.580   3.466   3.597
 5742SOL     OW18124   6.053   5.031   2.371
 5742SOL    HW118125   6.141   5.023   2.417
 5742SOL    HW218126   6.064   5.081   2.285
 5743SOL     OW18127   3.901   6.509   6.556
 5743SOL    HW118128   3.892   6.423   6.505
 5743SOL    HW218129   3.887   6.492   6.653
 5744SOL     OW18130   5.203   5.402   3.217
 5744SOL    HW118131   5.169   5.390   3.310
 5744SOL    HW218132   5.167   5.488   3.180
 5745SOL     OW18133   1.013   3.836   2.512
 5745SOL    HW118134   1.055   3.924   2.492
 5745SOL    HW218135   1.013   3.779   2.430
 5746SOL     OW18136   5.496   0.787   3.436
 5746SOL    HW118137   5.461   0.775   3.529
 5746SOL    HW218138   5.596   0.785   3.438
 5747SOL     OW18139   1.934   6.868   2.017
 5747SOL    HW118140   1.857   6.895   1.959
 5747SOL    HW218141   1.920   6.775   2.051
 5748SOL     OW18142   6.357   6.808   0.067
 5748SOL    HW118143   6.397   6.813   0.158
 5748SOL    HW218144   6.259   6.791   0.075
 5749SOL     OW18145   2.104   6.397   6.512
 5749SOL    HW118146   2.182   6.442   6.468
 5749SOL    HW218147   2.020   6.419   6.462
 5750SOL     OW18148   6.266   2.457   4.041
 5750SOL    HW118149   6.317   2.407   3.971
 5750SOL    HW218150   6.320   2.460   4.125
 5751SOL     OW18151   0.336   3.743   3.909
 5751SOL    HW118152   0.365   3.679   3.838
 5751SOL    HW218153   0.355   3.704   3.999
 5752SOL     OW18154   5.676   1.594   6.494
 5752SOL    HW118155   5.740   1.519   6.482
 5752SOL    HW218156   5.625   1.581   6.579
 5753SOL     OW18157   3.421   3.234   4.120
 5753SOL    HW118158   3.355   3.261   4.190
 5753SOL    HW218159   3.427   3.134   4.117
 5754SOL     OW18160   6.091   6.812   0.993
 5754SOL    HW118161   6.136   6.755   0.923
 5754SOL    HW218162   6.031   6.878   0.948
 5755SOL     OW18163   0.326   3.689   6.503
 5755SOL    HW118164   0.370   3.641   6.428
 5755SOL    HW218165   0.394   3.715   6.571
 5756SOL     OW18166   6.294   6.318   1.882
 5756SOL    HW118167   6.277   6.234   1.935
 5756SOL    HW218168   6.236   6.391   1.917
 5757SOL     OW18169   1.302   1.708   3.829
 5757SOL    HW118170   1.265   1.797   3.801
 5757SOL    HW218171   1.371   1.678   3.762
 5758SOL     OW18172   6.272   6.786   2.928
 5758SOL    HW118173   6.234   6.867   2.972
 5758SOL    HW218174   6.201   6.743   2.872
 5759SOL     OW18175   2.006   6.201   2.922
 5759SOL    HW118176   1.979   6.298   2.920
 5759SOL    HW218177   2.074   6.187   2.994
 5760SOL     OW18178   0.276   1.974   0.391
 5760SOL    HW118179   0.327   2.055   0.419
 5760SOL    HW218180   0.340   1.896   0.384
 5761SOL     OW18181   6.355   0.078   5.183
 5761SOL    HW118182   6.436   0.131   5.160
 5761SOL    HW218183   6.358   0.052   5.279
 5762SOL     OW18184   1.026   5.829   5.493
 5762SOL    HW118185   1.110   5.843   5.439
 5762SOL    HW218186   0.995   5.918   5.527
 5763SOL     OW18187   4.988   0.793   0.027
 5763SOL    HW118188   4.940   0.725   6.988
 5763SOL    HW218189   4.949   0.796   0.119
 5764SOL     OW18190   3.583   6.229   4.316
 5764SOL    HW118191   3.504   6.285   4.295
 5764SOL    HW218192   3.560   6.132   4.307
 5765SOL     OW18193   0.085   6.382   2.475
 5765SOL    HW118194   0.127   6.470   2.450
 5765SOL    HW218195   7.001   6.391   2.472
 5766SOL     OW18196   0.748   0.976   4.976
 5766SOL    HW118197   0.829   0.972   5.034
 5766SOL    HW218198   0.759   0.911   4.900
 5767SOL     OW18199   6.184   6.611   0.310
 5767SOL    HW118200   6.132   6.626   0.225
 5767SOL    HW218201   6.245   6.533   0.298
 5768SOL     OW18202   0.870   0.592   4.950
 5768SOL    HW118203   0.962   0.630   4.941
 5768SOL    HW218204   0.876   0.493   4.959
 5769SOL     OW18205   1.337   2.685   5.865
 5769SOL    HW118206   1.283   2.646   5.791
 5769SOL    HW218207   1.413   2.738   5.827
 5770SOL     OW18208   1.401   3.982   2.515
 5770SOL    HW118209   1.334   3.950   2.582
 5770SOL    HW218210   1.447   3.904   2.474
 5771SOL     OW18211   2.700   6.094   3.211
 5771SOL    HW118212   2.791   6.124   3.238
 5771SOL    HW218213   2.677   6.134   3.122
 5772SOL     OW18214   2.625   0.730   2.989
 5772SOL    HW118215   2.651   0.659   2.924
 5772SOL    HW218216   2.643   0.698   3.083
 5773SOL     OW18217   5.808   0.392   4.311
 5773SOL    HW118218   5.834   0.486   4.333
 5773SOL    HW218219   5.878   0.350   4.253
 5774SOL     OW18220   1.242   5.677   3.744
 5774SOL    HW118221   1.323   5.700   3.798
 5774SOL    HW218222   1.249   5.718   3.653
 5775SOL     OW18223   5.344   4.609   2.470
 5775SOL    HW118224   5.291   4.656   2.400
 5775SOL    HW218225   5.329   4.653   2.559
 5776SOL     OW18226   3.686   0.949   3.856
 5776SOL    HW118227   3.777   0.927   3.820
 5776SOL    HW218228   3.633   0.997   3.785
 5777SOL     OW18229   0.732   0.491   1.934
 5777SOL    HW118230   0.663   0.531   1.994
 5777SOL    HW218231   0.687   0.438   1.862
 5778SOL     OW18232   0.217   1.090   0.168
 5778SOL    HW118233   0.302   1.111   0.217
 5778SOL    HW218234   0.230   1.106   0.071
 5779SOL     OW18235   5.477   1.515   0.408
 5779SOL    HW118236   5.460   1.608   0.375
 5779SOL    HW218237   5.573   1.491   0.390
 5780SOL     OW18238   5.432   5.105   4.729
 5780SOL    HW118239   5.335   5.108   4.704
 5780SOL    HW218240   5.461   5.195   4.760
 5781SOL     OW18241   1.312   6.255   5.706
 5781SOL    HW118242   1.372   6.285   5.780
 5781SOL    HW218243   1.240   6.322   5.692
 5782SOL     OW18244   6.150   0.430   1.143
 5782SOL    HW118245   6.135   0.468   1.234
 5782SOL    HW218246   6.186   0.337   1.151
 5783SOL     OW18247   2.580   2.402   6.521
 5783SOL    HW118248   2.509   2.473   6.514
 5783SOL    HW218249   2.586   2.354   6.433
 5784SOL     OW18250   6.509   6.719   0.551
 5784SOL    HW118251   6.508   6.775   0.468
 5784SOL    HW218252   6.571   6.758   0.618
 5785SOL     OW18253   1.616   1.900   1.851
 5785SOL    HW118254   1.576   1.984   1.888
 5785SOL    HW218255   1.707   1.887   1.891
 5786SOL     OW18256   6.543   5.503   2.035
 5786SOL    HW118257   6.471   5.572   2.041
 5786SOL    HW218258   6.529   5.447   1.954
 5787SOL     OW18259   1.710   2.855   6.251
 5787SOL    HW118260   1.758   2.852   6.163
 5787SOL    HW218261   1.697   2.762   6.285
 5788SOL     OW18262   3.136   0.541   3.362
 5788SOL    HW118263   3.233   0.562   3.379
 5788SOL    HW218264   3.124   0.442   3.364
 5789SOL     OW18265   3.188   4.640   6.149
 5789SOL    HW118266   3.175   4.675   6.056
 5789SOL    HW218267   3.108   4.660   6.204
 5790SOL     OW18268   1.475   3.719   4.117
 5790SOL    HW118269   1.536   3.750   4.190
 5790SOL    HW218270   1.484   3.621   4.105
 5791SOL     OW18271   1.559   0.982   3.488
 5791SOL    HW118272   1.470   1.021   3.466
 5791SOL    HW218273   1.587   0.918   3.416
 5792SOL     OW18274   0.438   2.684   3.102
 5792SOL    HW118275   0.531   2.671   3.138
 5792SOL    HW218276   0.372   2.656   3.172
 5793SOL     OW18277   6.161   1.034   5.187
 5793SOL    HW118278   6.213   1.104   5.234
 5793SOL    HW218279   6.209   1.006   5.104
 5794SOL     OW18280   6.939   3.855   6.592
 5794SOL    HW118281   6.992   3.907   6.525
 5794SOL    HW218282   6.841   3.865   6.572
 5795SOL     OW18283   6.667   4.889   6.628
 5795SOL    HW118284   6.657   4.892   6.728
 5795SOL    HW218285   6.642   4.799   6.594
 5796SOL     OW18286   2.783   2.232   0.778
 5796SOL    HW118287   2.873   2.275   0.786
 5796SOL    HW218288   2.752   2.201   0.867
 5797SOL     OW18289   3.164   3.107   5.336
 5797SOL    HW118290   3.229   3.183   5.339
 5797SOL    HW218291   3.213   3.020   5.348
 5798SOL     OW18292   6.500   4.922   4.264
 5798SOL    HW118293   6.598   4.925   4.282
 5798SOL    HW218294   6.476   4.996   4.201
 5799SOL     OW18295   5.639   0.368   4.024
 5799SOL    HW118296   5.646   0.268   4.027
 5799SOL    HW218297   5.656   0.399   3.930
 5800SOL     OW18298   5.782   6.286   6.806
 5800SOL    HW118299   5.775   6.209   6.869
 5800SOL    HW218300   5.863   6.276   6.749
 5801SOL     OW18301   1.465   1.568   1.985
 5801SOL    HW118302   1.552   1.579   2.032
 5801SOL    HW218303   1.404   1.644   2.009
 5802SOL     OW18304   0.234   2.238   4.509
 5802SOL    HW118305   0.177   2.245   4.428
 5802SOL    HW218306   0.198   2.297   4.581
 5803SOL     OW18307   1.488   5.121   1.148
 5803SOL    HW118308   1.414   5.177   1.187
 5803SOL    HW218309   1.575   5.167   1.163
 5804SOL     OW18310   0.508   2.900   6.132
 5804SOL    HW118311   0.501   2.910   6.033
 5804SOL    HW218312   0.441   2.833   6.164
 5805SOL     OW18313   5.221   3.401   6.773
 5805SOL    HW118314   5.197   3.384   6.678
 5805SOL    HW218315   5.318   3.381   6.788
 5806SOL     OW18316   6.346   6.819   6.426
 5806SOL    HW118317   6.290   6.810   6.344
 5806SOL    HW218318   6.303   6.883   6.489
 5807SOL     OW18319   2.938   3.937   1.503
 5807SOL    HW118320   2.915   3.877   1.427
 5807SOL    HW218321   2.861   3.998   1.521
 5808SOL     OW18322   6.258   2.100   3.378
 5808SOL    HW118323   6.269   2.069   3.473
 5808SOL    HW218324   6.199   2.180   3.376
 5809SOL     OW18325   0.407   2.510   3.779
 5809SOL    HW118326   0.474   2.552   3.840
 5809SOL    HW218327   0.440   2.516   3.685
 5810SOL     OW18328   2.857   2.145   2.680
 5810SOL    HW118329   2.951   2.181   2.681
 5810SOL    HW218330   2.827   2.132   2.585
 5811SOL     OW18331   2.647   0.342   1.926
 5811SOL    HW118332   2.617   0.303   2.013
 5811SOL    HW218333   2.578   0.324   1.856
 5812SOL     OW18334   4.475   0.403   4.623
 5812SOL    HW118335   4.558   0.455   4.603
 5812SOL    HW218336   4.454   0.344   4.545
 5813SOL     OW18337   1.885   1.880   5.219
 5813SOL    HW118338   1.844   1.947   5.157
 5813SOL    HW218339   1.834   1.878   5.305
 5814SOL     OW18340   0.466   5.201   1.310
 5814SOL    HW118341   0.455   5.117   1.362
 5814SOL    HW218342   0.538   5.189   1.242
 5815SOL     OW18343   4.233   6.767   4.529
 5815SOL    HW118344   4.222   6.820   4.613
 5815SOL    HW218345   4.329   6.743   4.517
 5816SOL     OW18346   5.400   6.430   0.282
 5816SOL    HW118347   5.414   6.377   0.366
 5816SOL    HW218348   5.488   6.442   0.235
 5817SOL     OW18349   6.193   2.806   6.424
 5817SOL    HW118350   6.261   2.878   6.438
 5817SOL    HW218351   6.126   2.837   6.356
 5818SOL     OW18352   6.641   6.896   5.088
 5818SOL    HW118353   6.639   6.894   4.988
 5818SOL    HW218354   6.574   6.830   5.123
 5819SOL     OW18355   6.155   0.139   1.181
 5819SOL    HW118356   6.195   0.052   1.209
 5819SOL    HW218357   6.182   0.159   1.087
 5820SOL     OW18358   5.285   4.874   1.778
 5820SOL    HW118359   5.280   4.833   1.869
 5820SOL    HW218360   5.340   4.815   1.719
 5821SOL     OW18361   2.981   6.993   2.547
 5821SOL    HW118362   2.894   0.012   2.511
 5821SOL    HW218363   3.037   0.053   2.578
 5822SOL     OW18364   0.398   0.812   2.514
 5822SOL    HW118365   0.425   0.845   2.604
 5822SOL    HW218366   0.470   0.754   2.476
 5823SOL     OW18367   1.763   2.665   3.986
 5823SOL    HW118368   1.705   2.586   3.965
 5823SOL    HW218369   1.820   2.644   4.065
 5824SOL     OW18370   5.074   0.044   3.833
 5824SOL    HW118371   4.984   0.085   3.819
 5824SOL    HW218372   5.065   6.974   3.884
 5825SOL     OW18373   3.461   1.482   1.499
 5825SOL    HW118374   3.506   1.571   1.505
 5825SOL    HW218375   3.364   1.492   1.522
 5826SOL     OW18376   0.412   6.713   3.762
 5826SOL    HW118377   0.389   6.787   3.698
 5826SOL    HW218378   0.329   6.680   3.806
 5827SOL     OW18379   1.631   4.936   5.544
 5827SOL    HW118380   1.699   4.990   5.594
 5827SOL    HW218381   1.598   4.988   5.466
 5828SOL     OW18382   5.908   2.244   1.235
 5828SOL    HW118383   5.940   2.154   1.265
 5828SOL    HW218384   5.902   2.247   1.136
 5829SOL     OW18385   2.147   1.656   1.312
 5829SOL    HW118386   2.071   1.708   1.273
 5829SOL    HW218387   2.111   1.572   1.353
 5830SOL     OW18388   1.643   0.896   5.564
 5830SOL    HW118389   1.643   0.985   5.610
 5830SOL    HW218390   1.610   0.826   5.626
 5831SOL     OW18391   5.718   5.279   2.768
 5831SOL    HW118392   5.722   5.264   2.669
 5831SOL    HW218393   5.753   5.370   2.790
 5832SOL     OW18394   3.575   3.450   4.773
 5832SOL    HW118395   3.602   3.354   4.779
 5832SOL    HW218396   3.581   3.481   4.678
 5833SOL     OW18397   3.006   3.124   4.775
 5833SOL    HW118398   3.008   3.138   4.676
 5833SOL    HW218399   2.933   3.061   4.799
 5834SOL     OW18400   6.158   1.007   6.944
 5834SOL    HW118401   6.177   0.990   6.847
 5834SOL    HW218402   6.167   1.105   6.962
 5835SOL     OW18403   5.414   2.927   4.276
 5835SOL    HW118404   5.323   2.964   4.295
 5835SOL    HW218405   5.471   2.999   4.236
 5836SOL     OW18406   3.270   0.031   3.628
 5836SOL    HW118407   3.307   6.976   3.567
 5836SOL    HW218408   3.330   0.041   3.708
 5837SOL     OW18409   4.177   3.933   6.282
 5837SOL    HW118410   4.238   4.003   6.319
 5837SOL    HW218411   4.231   3.867   6.229
 5838SOL     OW18412   0.493   1.124   5.952
 5838SOL    HW118413   0.589   1.105   5.968
 5838SOL    HW218414   0.466   1.085   5.864
 5839SOL     OW18415   0.018   2.277   2.563
 5839SOL    HW118416   6.963   2.339   2.597
 5839SOL    HW218417   7.004   2.239   2.475
 5840SOL     OW18418   3.532   5.661   0.663
 5840SOL    HW118419   3.514   5.705   0.751
 5840SOL    HW218420   3.531   5.562   0.675
 5841SOL     OW18421   6.085   2.324   3.344
 5841SOL    HW118422   6.075   2.421   3.368
 5841SOL    HW218423   6.050   2.309   3.252
 5842SOL     OW18424   3.718   2.101   1.229
 5842SOL    HW118425   3.692   2.115   1.134
 5842SOL    HW218426   3.763   2.183   1.264
 5843SOL     OW18427   0.487   2.511   1.263
 5843SOL    HW118428   0.569   2.540   1.212
 5843SOL    HW218429   0.469   2.415   1.243
 5844SOL     OW18430   1.517   6.485   6.326
 5844SOL    HW118431   1.527   6.394   6.365
 5844SOL    HW218432   1.577   6.495   6.246
 5845SOL     OW18433   1.724   2.925   4.830
 5845SOL    HW118434   1.791   2.882   4.890
 5845SOL    HW218435   1.765   3.006   4.788
 5846SOL     OW18436   0.350   4.043   6.927
 5846SOL    HW118437   0.349   4.066   6.830
 5846SOL    HW218438   0.294   3.962   6.943
 5847SOL     OW18439   1.362   2.683   4.227
 5847SOL    HW118440   1.422   2.761   4.212
 5847SOL    HW218441   1.370   2.651   4.322
 5848SOL     OW18442   0.676   4.608   3.507
 5848SOL    HW118443   0.645   4.654   3.423
 5848SOL    HW218444   0.770   4.636   3.527
 5849SOL     OW18445   2.797   6.954   5.969
 5849SOL    HW118446   2.789   0.021   5.913
 5849SOL    HW218447   2.783   6.977   6.065
 5850SOL     OW18448   0.873   4.264   3.007
 5850SOL    HW118449   0.800   4.202   3.035
 5850SOL    HW218450   0.928   4.289   3.088
 5851SOL     OW18451   6.313   3.101   1.984
 5851SOL    HW118452   6.354   3.025   1.933
 5851SOL    HW218453   6.265   3.065   2.064
 5852SOL     OW18454   3.743   6.135   3.096
 5852SOL    HW118455   3.656   6.164   3.135
 5852SOL    HW218456   3.802   6.214   3.083
 5853SOL     OW18457   4.851   4.082   5.346
 5853SOL    HW118458   4.793   4.087   5.265
 5853SOL    HW218459   4.942   4.118   5.324
 5854SOL     OW18460   0.845   1.497   6.653
 5854SOL    HW118461   0.885   1.577   6.698
 5854SOL    HW218462   0.810   1.434   6.722
 5855SOL     OW18463   1.537   1.543   4.616
 5855SOL    HW118464   1.564   1.490   4.696
 5855SOL    HW218465   1.462   1.496   4.569
 5856SOL     OW18466   1.179   5.802   3.484
 5856SOL    HW118467   1.264   5.850   3.465
 5856SOL    HW218468   1.102   5.865   3.471
 5857SOL     OW18469   0.246   2.317   5.080
 5857SOL    HW118470   0.302   2.346   5.002
 5857SOL    HW218471   0.194   2.235   5.056
 5858SOL     OW18472   2.780   6.887   3.859
 5858SOL    HW118473   2.848   6.897   3.787
 5858SOL    HW218474   2.712   6.819   3.832
 5859SOL     OW18475   6.064   5.371   1.879
 5859SOL    HW118476   5.979   5.403   1.837
 5859SOL    HW218477   6.049   5.281   1.920
 5860SOL     OW18478   6.764   4.136   0.722
 5860SOL    HW118479   6.764   4.223   0.772
 5860SOL    HW218480   6.709   4.145   0.639
 5861SOL     OW18481   6.090   1.297   3.882
 5861SOL    HW118482   6.111   1.317   3.787
 5861SOL    HW218483   6.109   1.378   3.938
 5862SOL     OW18484   5.352   4.983   3.696
 5862SOL    HW118485   5.270   5.018   3.743
 5862SOL    HW218486   5.388   4.905   3.748
 5863SOL     OW18487   2.243   1.542   0.337
 5863SOL    HW118488   2.243   1.516   0.241
 5863SOL    HW218489   2.337   1.541   0.372
 5864SOL     OW18490   4.883   4.983   0.842
 5864SOL    HW118491   4.823   5.017   0.914
 5864SOL    HW218492   4.829   4.961   0.761
 5865SOL     OW18493   4.230   0.927   3.092
 5865SOL    HW118494   4.296   0.888   3.156
 5865SOL    HW218495   4.249   0.894   3.000
 5866SOL     OW18496   3.353   1.652   6.715
 5866SOL    HW118497   3.436   1.701   6.738
 5866SOL    HW218498   3.283   1.670   6.785
 5867SOL     OW18499   6.468   2.910   1.833
 5867SOL    HW118500   6.439   2.929   1.739
 5867SOL    HW218501   6.539   2.975   1.860
 5868SOL     OW18502   0.335   6.424   5.210
 5868SOL    HW118503   0.278   6.357   5.163
 5868SOL    HW218504   0.315   6.421   5.308
 5869SOL     OW18505   2.654   4.721   4.043
 5869SOL    HW118506   2.564   4.746   4.080
 5869SOL    HW218507   2.720   4.719   4.118
 5870SOL     OW18508   5.297   5.680   4.077
 5870SOL    HW118509   5.280   5.708   4.172
 5870SOL    HW218510   5.232   5.726   4.016
 5871SOL     OW18511   3.145   4.275   0.685
 5871SOL    HW118512   3.236   4.273   0.728
 5871SOL    HW218513   3.078   4.233   0.746
 5872SOL     OW18514   4.272   5.721   4.098
 5872SOL    HW118515   4.369   5.718   4.121
 5872SOL    HW218516   4.220   5.668   4.165
 5873SOL     OW18517   1.828   2.557   0.384
 5873SOL    HW118518   1.828   2.642   0.331
 5873SOL    HW218519   1.897   2.562   0.456
 5874SOL     OW18520   0.761   4.525   6.482
 5874SOL    HW118521   0.753   4.431   6.450
 5874SOL    HW218522   0.779   4.585   6.404
 5875SOL     OW18523   3.939   1.826   1.068
 5875SOL    HW118524   3.852   1.864   1.035
 5875SOL    HW218525   3.991   1.897   1.115
 5876SOL     OW18526   4.476   3.666   5.893
 5876SOL    HW118527   4.413   3.684   5.817
 5876SOL    HW218528   4.468   3.570   5.921
 5877SOL     OW18529   5.164   0.295   2.698
 5877SOL    HW118530   5.072   0.322   2.728
 5877SOL    HW218531   5.212   0.376   2.663
 5878SOL     OW18532   5.065   3.307   2.922
 5878SOL    HW118533   5.057   3.404   2.946
 5878SOL    HW218534   5.141   3.267   2.973
 5879SOL     OW18535   3.064   4.844   5.073
 5879SOL    HW118536   3.099   4.912   5.010
 5879SOL    HW218537   2.995   4.787   5.027
 5880SOL     OW18538   5.818   2.521   0.057
 5880SOL    HW118539   5.792   2.546   0.150
 5880SOL    HW218540   5.876   2.592   0.018
 5881SOL     OW18541   1.044   5.974   2.717
 5881SOL    HW118542   0.967   6.023   2.757
 5881SOL    HW218543   1.098   6.037   2.661
 5882SOL     OW18544   1.656   5.525   5.181
 5882SOL    HW118545   1.606   5.499   5.098
 5882SOL    HW218546   1.607   5.491   5.261
 5883SOL     OW18547   0.301   5.704   0.229
 5883SOL    HW118548   0.330   5.690   0.134
 5883SOL    HW218549   0.222   5.765   0.232
 5884SOL     OW18550   0.306   1.442   2.381
 5884SOL    HW118551   0.297   1.351   2.422
 5884SOL    HW218552   0.289   1.512   2.450
 5885SOL     OW18553   6.978   5.616   1.609
 5885SOL    HW118554   6.948   5.709   1.587
 5885SOL    HW218555   6.906   5.551   1.586
 5886SOL     OW18556   1.853   4.767   3.195
 5886SOL    HW118557   1.917   4.841   3.211
 5886SOL    HW218558   1.778   4.800   3.137
 5887SOL     OW18559   2.530   3.962   0.852
 5887SOL    HW118560   2.575   4.052   0.857
 5887SOL    HW218561   2.468   3.952   0.930
 5888SOL     OW18562   2.991   6.007   1.834
 5888SOL    HW118563   3.087   6.029   1.854
 5888SOL    HW218564   2.982   5.985   1.736
 5889SOL     OW18565   5.001   1.651   1.866
 5889SOL    HW118566   4.977   1.554   1.867
 5889SOL    HW218567   5.026   1.678   1.773
 5890SOL     OW18568   2.587   4.548   3.166
 5890SOL    HW118569   2.524   4.474   3.188
 5890SOL    HW218570   2.610   4.544   3.069
 5891SOL     OW18571   2.487   2.789   6.727
 5891SOL    HW118572   2.533   2.842   6.655
 5891SOL    HW218573   2.451   2.704   6.687
 5892SOL     OW18574   0.303   2.495   0.890
 5892SOL    HW118575   0.383   2.540   0.850
 5892SOL    HW218576   0.302   2.510   0.989
 5893SOL     OW18577   0.484   5.949   1.448
 5893SOL    HW118578   0.508   5.933   1.353
 5893SOL    HW218579   0.389   5.924   1.464
 5894SOL     OW18580   2.283   4.842   6.066
 5894SOL    HW118581   2.260   4.865   6.161
 5894SOL    HW218582   2.372   4.881   6.043
 5895SOL     OW18583   5.793   2.804   3.760
 5895SOL    HW118584   5.695   2.817   3.778
 5895SOL    HW218585   5.804   2.750   3.676
 5896SOL     OW18586   5.515   2.483   1.138
 5896SOL    HW118587   5.469   2.425   1.206
 5896SOL    HW218588   5.532   2.429   1.055
 5897SOL     OW18589   3.710   3.144   0.355
 5897SOL    HW118590   3.672   3.228   0.317
 5897SOL    HW218591   3.665   3.124   0.443
 5898SOL     OW18592   3.528   0.637   6.737
 5898SOL    HW118593   3.573   0.631   6.648
 5898SOL    HW218594   3.438   0.594   6.732
 5899SOL     OW18595   0.214   0.251   6.941
 5899SOL    HW118596   0.212   0.151   6.931
 5899SOL    HW218597   0.132   0.290   6.898
 5900SOL     OW18598   5.511   6.460   2.887
 5900SOL    HW118599   5.532   6.551   2.852
 5900SOL    HW218600   5.587   6.398   2.869
 5901SOL     OW18601   1.375   0.784   4.982
 5901SOL    HW118602   1.385   0.820   4.890
 5901SOL    HW218603   1.464   0.785   5.028
 5902SOL     OW18604   3.970   3.785   5.928
 5902SOL    HW118605   4.063   3.820   5.924
 5902SOL    HW218606   3.926   3.814   6.013
 5903SOL     OW18607   5.863   1.484   5.249
 5903SOL    HW118608   5.812   1.399   5.240
 5903SOL    HW218609   5.953   1.474   5.207
 5904SOL     OW18610   0.034   4.960   1.878
 5904SOL    HW118611   0.085   5.046   1.867
 5904SOL    HW218612   6.977   4.957   1.810
 5905SOL     OW18613   6.166   2.171   5.045
 5905SOL    HW118614   6.132   2.125   5.127
 5905SOL    HW218615   6.266   2.170   5.045
 5906SOL     OW18616   4.193   0.572   4.611
 5906SOL    HW118617   4.145   0.579   4.699
 5906SOL    HW218618   4.283   0.531   4.626
 5907SOL     OW18619   0.534   3.666   5.798
 5907SOL    HW118620   0.560   3.742   5.738
 5907SOL    HW218621   0.614   3.608   5.815
 5908SOL     OW18622   4.420   3.579   6.620
 5908SOL    HW118623   4.463   3.667   6.601
 5908SOL    HW218624   4.488   3.514   6.653
 5909SOL     OW18625   6.221   4.746   3.541
 5909SOL    HW118626   6.122   4.741   3.554
 5909SOL    HW218627   6.248   4.842   3.535
 5910SOL     OW18628   2.926   4.243   1.467
 5910SOL    HW118629   3.000   4.175   1.472
 5910SOL    HW218630   2.957   4.329   1.507
 5911SOL     OW18631   6.164   0.609   5.627
 5911SOL    HW118632   6.245   0.552   5.617
 5911SOL    HW218633   6.084   0.559   5.592
 5912SOL     OW18634   0.612   3.571   6.227
 5912SOL    HW118635   0.541   3.503   6.215
 5912SOL    HW218636   0.662   3.552   6.312
 5913SOL     OW18637   1.768   2.755   4.589
 5913SOL    HW118638   1.783   2.811   4.671
 5913SOL    HW218639   1.856   2.725   4.553
 5914SOL     OW18640   1.297   5.563   0.444
 5914SOL    HW118641   1.200   5.544   0.425
 5914SOL    HW218642   1.327   5.638   0.385
 5915SOL     OW18643   5.708   3.986   4.473
 5915SOL    HW118644   5.689   4.083   4.488
 5915SOL    HW218645   5.657   3.953   4.394
 5916SOL     OW18646   2.983   1.026   6.439
 5916SOL    HW118647   3.074   1.045   6.400
 5916SOL    HW218648   2.913   1.042   6.369
 5917SOL     OW18649   3.568   3.999   2.174
 5917SOL    HW118650   3.654   3.992   2.123
 5917SOL    HW218651   3.579   4.065   2.248
 5918SOL     OW18652   3.043   1.877   3.976
 5918SOL    HW118653   3.110   1.947   3.951
 5918SOL    HW218654   3.087   1.809   4.036
 5919SOL     OW18655   1.568   2.178   6.876
 5919SOL    HW118656   1.589   2.096   6.931
 5919SOL    HW218657   1.627   2.253   6.905
 5920SOL     OW18658   2.268   4.936   6.672
 5920SOL    HW118659   2.180   4.920   6.716
 5920SOL    HW218660   2.341   4.908   6.734
 5921SOL     OW18661   3.851   6.048   4.661
 5921SOL    HW118662   3.853   6.131   4.717
 5921SOL    HW218663   3.839   6.073   4.565
 5922SOL     OW18664   6.782   5.581   2.431
 5922SOL    HW118665   6.764   5.539   2.342
 5922SOL    HW218666   6.878   5.567   2.455
 5923SOL     OW18667   0.818   0.657   3.198
 5923SOL    HW118668   0.877   0.584   3.166
 5923SOL    HW218669   0.726   0.621   3.213
 5924SOL     OW18670   5.545   1.961   4.611
 5924SOL    HW118671   5.533   2.015   4.694
 5924SOL    HW218672   5.638   1.925   4.607
 5925SOL     OW18673   6.673   5.887   0.461
 5925SOL    HW118674   6.765   5.850   0.448
 5925SOL    HW218675   6.676   5.967   0.520
 5926SOL     OW18676   2.928   6.672   1.677
 5926SOL    HW118677   2.994   6.606   1.715
 5926SOL    HW218678   2.885   6.723   1.751
 5927SOL     OW18679   2.331   4.911   1.187
 5927SOL    HW118680   2.361   4.973   1.259
 5927SOL    HW218681   2.356   4.949   1.098
 5928SOL     OW18682   6.769   6.095   1.273
 5928SOL    HW118683   6.843   6.109   1.207
 5928SOL    HW218684   6.766   6.172   1.337
 5929SOL     OW18685   0.124   6.932   5.870
 5929SOL    HW118686   0.212   6.934   5.917
 5929SOL    HW218687   0.113   6.843   5.824
 5930SOL     OW18688   6.152   1.491   5.206
 5930SOL    HW118689   6.160   1.589   5.185
 5930SOL    HW218690   6.124   1.442   5.123
 5931SOL     OW18691   5.497   5.102   0.701
 5931SOL    HW118692   5.417   5.089   0.758
 5931SOL    HW218693   5.580   5.082   0.754
 5932SOL     OW18694   2.277   0.034   0.401
 5932SOL    HW118695   2.347   0.028   0.329
 5932SOL    HW218696   2.194   0.074   0.364
 5933SOL     OW18697   5.947   2.341   3.054
 5933SOL    HW118698   5.986   2.432   3.067
 5933SOL    HW218699   6.014   2.281   3.010
 5934SOL     OW18700   4.145   3.302   2.058
 5934SOL    HW118701   4.087   3.260   2.128
 5934SOL    HW218702   4.232   3.254   2.053
 5935SOL     OW18703   3.810   3.038   2.893
 5935SOL    HW118704   3.751   3.114   2.919
 5935SOL    HW218705   3.809   2.969   2.965
 5936SOL     OW18706   6.708   6.325   6.597
 5936SOL    HW118707   6.674   6.292   6.509
 5936SOL    HW218708   6.631   6.355   6.653
 5937SOL     OW18709   0.903   4.447   0.182
 5937SOL    HW118710   0.859   4.537   0.178
 5937SOL    HW218711   0.918   4.422   0.277
 5938SOL     OW18712   2.479   4.899   0.470
 5938SOL    HW118713   2.418   4.970   0.506
 5938SOL    HW218714   2.572   4.933   0.466
 5939SOL     OW18715   1.294   0.788   2.313
 5939SOL    HW118716   1.317   0.800   2.217
 5939SOL    HW218717   1.306   0.693   2.339
 5940SOL     OW18718   3.845   4.886   3.132
 5940SOL    HW118719   3.889   4.812   3.183
 5940SOL    HW218720   3.760   4.911   3.178
 5941SOL     OW18721   6.003   2.450   3.625
 5941SOL    HW118722   6.061   2.527   3.651
 5941SOL    HW218723   5.907   2.475   3.637
 5942SOL     OW18724   6.897   1.141   4.837
 5942SOL    HW118725   6.868   1.207   4.907
 5942SOL    HW218726   6.914   1.189   4.751
 5943SOL     OW18727   1.764   5.315   1.025
 5943SOL    HW118728   1.683   5.369   1.048
 5943SOL    HW218729   1.787   5.330   0.929
 5944SOL     OW18730   5.213   2.557   2.580
 5944SOL    HW118731   5.164   2.582   2.664
 5944SOL    HW218732   5.194   2.625   2.509
 5945SOL     OW18733   6.590   5.672   6.292
 5945SOL    HW118734   6.627   5.579   6.284
 5945SOL    HW218735   6.498   5.676   6.255
 5946SOL     OW18736   3.872   2.436   5.473
 5946SOL    HW118737   3.870   2.420   5.572
 5946SOL    HW218738   3.927   2.517   5.453
 5947SOL     OW18739   4.868   3.737   2.767
 5947SOL    HW118740   4.832   3.813   2.713
 5947SOL    HW218741   4.807   3.658   2.758
 5948SOL     OW18742   2.619   5.385   3.102
 5948SOL    HW118743   2.599   5.350   3.194
 5948SOL    HW218744   2.715   5.370   3.081
 5949SOL     OW18745   4.723   4.199   3.017
 5949SOL    HW118746   4.804   4.240   3.059
 5949SOL    HW218747   4.650   4.268   3.012
 5950SOL     OW18748   6.186   2.071   4.484
 5950SOL    HW118749   6.191   2.017   4.568
 5950SOL    HW218750   6.254   2.145   4.489
 5951SOL     OW18751   2.148   0.758   3.798
 5951SOL    HW118752   2.091   0.783   3.719
 5951SOL    HW218753   2.170   0.661   3.794
 5952SOL     OW18754   0.401   6.343   4.190
 5952SOL    HW118755   0.411   6.441   4.171
 5952SOL    HW218756   0.311   6.325   4.229
 5953SOL     OW18757   0.255   3.189   6.183
 5953SOL    HW118758   0.174   3.215   6.130
 5953SOL    HW218759   0.236   3.106   6.235
 5954SOL     OW18760   1.376   4.683   6.295
 5954SOL    HW118761   1.341   4.598   6.334
 5954SOL    HW218762   1.462   4.665   6.247
 5955SOL     OW18763   4.075   5.529   2.746
 5955SOL    HW118764   4.024   5.612   2.724
 5955SOL    HW218765   4.028   5.450   2.706
 5956SOL     OW18766   0.271   2.110   0.035
 5956SOL    HW118767   0.261   2.046   6.974
 5956SOL    HW218768   0.215   2.077   0.111
 5957SOL     OW18769   4.374   6.664   5.675
 5957SOL    HW118770   4.471   6.683   5.659
 5957SOL    HW218771   4.357   6.566   5.663
 5958SOL     OW18772   1.067   5.297   2.457
 5958SOL    HW118773   1.067   5.198   2.471
 5958SOL    HW218774   1.061   5.317   2.360
 5959SOL     OW18775   1.694   0.910   6.179
 5959SOL    HW118776   1.635   0.931   6.101
 5959SOL    HW218777   1.712   0.994   6.231
 5960SOL     OW18778   3.692   6.026   5.231
 5960SOL    HW118779   3.678   6.013   5.133
 5960SOL    HW218780   3.645   6.109   5.260
 5961SOL     OW18781   2.609   1.172   5.559
 5961SOL    HW118782   2.511   1.190   5.559
 5961SOL    HW218783   2.635   1.127   5.644
 5962SOL     OW18784   5.421   4.044   2.372
 5962SOL    HW118785   5.505   3.996   2.347
 5962SOL    HW218786   5.377   4.080   2.290
 5963SOL     OW18787   4.235   4.443   1.774
 5963SOL    HW118788   4.296   4.483   1.705
 5963SOL    HW218789   4.279   4.362   1.813
 5964SOL     OW18790   1.404   3.396   5.535
 5964SOL    HW118791   1.410   3.375   5.437
 5964SOL    HW218792   1.438   3.488   5.552
 5965SOL     OW18793   2.164   1.727   4.213
 5965SOL    HW118794   2.068   1.736   4.186
 5965SOL    HW218795   2.209   1.816   4.205
 5966SOL     OW18796   1.750   6.148   4.284
 5966SOL    HW118797   1.813   6.144   4.206
 5966SOL    HW218798   1.802   6.154   4.369
 5967SOL     OW18799   4.716   5.584   1.098
 5967SOL    HW118800   4.659   5.572   1.179
 5967SOL    HW218801   4.773   5.503   1.084
 5968SOL     OW18802   1.339   1.918   4.539
 5968SOL    HW118803   1.394   1.863   4.476
 5968SOL    HW218804   1.364   2.014   4.530
 5969SOL     OW18805   0.285   1.877   2.982
 5969SOL    HW118806   0.281   1.977   2.985
 5969SOL    HW218807   0.205   1.842   2.934
 5970SOL     OW18808   2.183   3.817   3.578
 5970SOL    HW118809   2.217   3.838   3.486
 5970SOL    HW218810   2.179   3.901   3.632
 5971SOL     OW18811   3.064   5.673   3.371
 5971SOL    HW118812   3.089   5.597   3.312
 5971SOL    HW218813   3.033   5.750   3.315
 5972SOL     OW18814   5.769   0.210   1.746
 5972SOL    HW118815   5.700   0.156   1.793
 5972SOL    HW218816   5.756   0.307   1.769
 5973SOL     OW18817   2.429   4.762   3.248
 5973SOL    HW118818   2.464   4.845   3.203
 5973SOL    HW218819   2.493   4.687   3.234
 5974SOL     OW18820   0.962   4.153   6.614
 5974SOL    HW118821   0.964   4.098   6.697
 5974SOL    HW218822   0.916   4.102   6.541
 5975SOL     OW18823   2.133   2.262   6.399
 5975SOL    HW118824   2.099   2.226   6.486
 5975SOL    HW218825   2.059   2.309   6.352
 5976SOL     OW18826   3.514   3.539   4.507
 5976SOL    HW118827   3.442   3.580   4.450
 5976SOL    HW218828   3.597   3.527   4.453
 5977SOL     OW18829   0.433   3.513   2.820
 5977SOL    HW118830   0.335   3.514   2.838
 5977SOL    HW218831   0.483   3.521   2.906
 5978SOL     OW18832   5.087   5.399   1.733
 5978SOL    HW118833   5.001   5.395   1.785
 5978SOL    HW218834   5.092   5.321   1.672
 5979SOL     OW18835   0.840   1.118   1.551
 5979SOL    HW118836   0.872   1.173   1.628
 5979SOL    HW218837   0.758   1.068   1.577
 5980SOL     OW18838   6.061   2.770   5.365
 5980SOL    HW118839   6.039   2.691   5.422
 5980SOL    HW218840   6.102   2.842   5.421
 5981SOL     OW18841   3.439   1.953   0.447
 5981SOL    HW118842   3.461   1.897   0.367
 5981SOL    HW218843   3.354   2.002   0.431
 5982SOL     OW18844   6.353   3.004   0.041
 5982SOL    HW118845   6.279   3.069   0.025
 5982SOL    HW218846   6.438   3.040   0.004
 5983SOL     OW18847   0.638   0.237   4.721
 5983SOL    HW118848   0.705   0.287   4.666
 5983SOL    HW218849   0.681   0.208   4.807
 5984SOL     OW18850   0.784   0.239   6.183
 5984SOL    HW118851   0.782   0.339   6.179
 5984SOL    HW218852   0.803   0.202   6.092
 5985SOL     OW18853   5.769   3.182   3.926
 5985SOL    HW118854   5.673   3.168   3.900
 5985SOL    HW218855   5.782   3.157   4.022
 5986SOL     OW18856   3.219   3.564   2.669
 5986SOL    HW118857   3.130   3.604   2.647
 5986SOL    HW218858   3.289   3.601   2.608
 5987SOL     OW18859   4.398   0.534   5.422
 5987SOL    HW118860   4.406   0.560   5.326
 5987SOL    HW218861   4.350   0.607   5.472
 5988SOL     OW18862   4.119   6.883   6.030
 5988SOL    HW118863   4.058   6.959   6.012
 5988SOL    HW218864   4.129   6.828   5.947
 5989SOL     OW18865   3.220   1.837   6.539
 5989SOL    HW118866   3.258   1.754   6.578
 5989SOL    HW218867   3.287   1.879   6.477
 5990SOL     OW18868   3.493   5.313   2.876
 5990SOL    HW118869   3.589   5.313   2.851
 5990SOL    HW218870   3.484   5.307   2.975
 5991SOL     OW18871   3.427   4.931   3.434
 5991SOL    HW118872   3.407   5.018   3.481
 5991SOL    HW218873   3.429   4.857   3.501
 5992SOL     OW18874   4.122   1.865   4.229
 5992SOL    HW118875   4.173   1.866   4.143
 5992SOL    HW218876   4.028   1.837   4.211
 5993SOL     OW18877   2.328   5.089   3.863
 5993SOL    HW118878   2.330   5.141   3.949
 5993SOL    HW218879   2.343   4.992   3.883
 5994SOL     OW18880   6.106   2.705   0.272
 5994SOL    HW118881   6.197   2.745   0.284
 5994SOL    HW218882   6.040   2.754   0.329
 5995SOL     OW18883   0.478   3.682   1.999
 5995SOL    HW118884   0.396   3.648   2.044
 5995SOL    HW218885   0.488   3.636   1.911
 5996SOL     OW18886   1.524   6.021   5.907
 5996SOL    HW118887   1.570   5.932   5.907
 5996SOL    HW218888   1.539   6.065   5.818
 5997SOL     OW18889   0.645   0.658   1.404
 5997SOL    HW118890   0.677   0.753   1.406
 5997SOL    HW218891   0.721   0.597   1.384
 5998SOL     OW18892   5.336   2.983   3.138
 5998SOL    HW118893   5.324   3.077   3.107
 5998SOL    HW218894   5.363   2.926   3.060
 5999SOL     OW18895   2.259   2.659   2.752
 5999SOL    HW118896   2.168   2.683   2.787
 5999SOL    HW218897   2.285   2.724   2.681
 6000SOL     OW18898   4.722   1.035   3.390
 6000SOL    HW118899   4.643   0.977   3.371
 6000SOL    HW218900   4.700   1.099   3.464
 6001SOL     OW18901   6.308   1.237   0.268
 6001SOL    HW118902   6.227   1.245   0.326
 6001SOL    HW218903   6.316   1.143   0.234
 6002SOL     OW18904   2.198   0.205   2.488
 6002SOL    HW118905   2.099   0.199   2.507
 6002SOL    HW218906   2.212   0.250   2.400
 6003SOL     OW18907   4.745   4.323   3.930
 6003SOL    HW118908   4.796   4.314   3.844
 6003SOL    HW218909   4.808   4.342   4.005
 6004SOL     OW18910   0.322   3.359   1.628
 6004SOL    HW118911   0.403   3.309   1.658
 6004SOL    HW218912   0.316   3.446   1.677
 6005SOL     OW18913   1.712   5.999   2.548
 6005SOL    HW118914   1.698   5.906   2.514
 6005SOL    HW218915   1.767   5.996   2.632
 6006SOL     OW18916   2.379   5.571   6.773
 6006SOL    HW118917   2.430   5.624   6.706
 6006SOL    HW218918   2.422   5.581   6.863
 6007SOL     OW18919   5.607   3.498   4.556
 6007SOL    HW118920   5.516   3.520   4.591
 6007SOL    HW218921   5.676   3.530   4.620
 6008SOL     OW18922   4.796   3.979   1.668
 6008SOL    HW118923   4.813   4.053   1.602
 6008SOL    HW218924   4.700   3.950   1.662
 6009SOL     OW18925   4.434   1.502   4.923
 6009SOL    HW118926   4.458   1.407   4.944
 6009SOL    HW218927   4.353   1.503   4.864
 6010SOL     OW18928   1.956   4.502   3.216
 6010SOL    HW118929   1.919   4.595   3.221
 6010SOL    HW218930   2.050   4.505   3.184
 6011SOL     OW18931   6.402   1.988   1.950
 6011SOL    HW118932   6.308   1.978   1.918
 6011SOL    HW218933   6.406   1.968   2.048
 6012SOL     OW18934   0.866   3.043   1.281
 6012SOL    HW118935   0.768   3.023   1.273
 6012SOL    HW218936   0.902   3.067   1.191
 6013SOL     OW18937   5.532   0.478   2.438
 6013SOL    HW118938   5.562   0.455   2.345
 6013SOL    HW218939   5.566   0.569   2.463
 6014SOL     OW18940   6.168   0.819   0.966
 6014SOL    HW118941   6.072   0.809   0.939
 6014SOL    HW218942   6.213   0.729   0.963
 6015SOL     OW18943   5.923   0.068   4.436
 6015SOL    HW118944   5.922   0.027   4.345
 6015SOL    HW218945   5.977   0.152   4.434
 6016SOL     OW18946   1.430   0.397   5.633
 6016SOL    HW118947   1.500   0.420   5.701
 6016SOL    HW218948   1.381   0.479   5.606
 6017SOL     OW18949   6.860   3.685   2.553
 6017SOL    HW118950   6.850   3.587   2.537
 6017SOL    HW218951   6.953   3.713   2.530
 6018SOL     OW18952   3.337   5.239   1.310
 6018SOL    HW118953   3.256   5.197   1.351
 6018SOL    HW218954   3.414   5.176   1.317
 6019SOL     OW18955   6.212   6.443   3.260
 6019SOL    HW118956   6.269   6.428   3.180
 6019SOL    HW218957   6.269   6.441   3.342
 6020SOL     OW18958   1.960   6.476   2.885
 6020SOL    HW118959   1.875   6.461   2.935
 6020SOL    HW218960   1.946   6.546   2.814
 6021SOL     OW18961   2.940   0.721   3.435
 6021SOL    HW118962   3.009   0.658   3.401
 6021SOL    HW218963   2.849   0.679   3.427
 6022SOL     OW18964   3.764   0.976   5.488
 6022SOL    HW118965   3.694   1.032   5.532
 6022SOL    HW218966   3.841   0.964   5.551
 6023SOL     OW18967   0.400   1.950   2.319
 6023SOL    HW118968   0.422   1.876   2.256
 6023SOL    HW218969   0.379   2.033   2.267
 6024SOL     OW18970   6.073   5.928   2.891
 6024SOL    HW118971   5.985   5.882   2.902
 6024SOL    HW218972   6.102   5.965   2.980
 6025SOL     OW18973   4.480   2.231   2.577
 6025SOL    HW118974   4.515   2.139   2.591
 6025SOL    HW218975   4.385   2.226   2.544
 6026SOL     OW18976   0.859   4.472   5.782
 6026SOL    HW118977   0.782   4.409   5.766
 6026SOL    HW218978   0.901   4.496   5.694
 6027SOL     OW18979   4.256   4.088   0.442
 6027SOL    HW118980   4.325   4.018   0.460
 6027SOL    HW218981   4.254   4.108   0.344
 6028SOL     OW18982   0.506   4.266   6.745
 6028SOL    HW118983   0.590   4.311   6.774
 6028SOL    HW218984   0.520   4.221   6.657
 6029SOL     OW18985   1.236   5.369   1.476
 6029SOL    HW118986   1.295   5.415   1.543
 6029SOL    HW218987   1.152   5.422   1.463
 6030SOL     OW18988   1.889   6.605   2.063
 6030SOL    HW118989   1.940   6.560   2.136
 6030SOL    HW218990   1.866   6.537   1.993
 6031SOL     OW18991   4.838   0.755   3.951
 6031SOL    HW118992   4.854   0.835   4.009
 6031SOL    HW218993   4.919   0.697   3.951
 6032SOL     OW18994   1.129   2.509   2.592
 6032SOL    HW118995   1.204   2.449   2.564
 6032SOL    HW218996   1.117   2.501   2.691
 6033SOL     OW18997   0.218   6.709   4.277
 6033SOL    HW118998   0.167   6.656   4.209
 6033SOL    HW218999   0.177   6.696   4.367
 6034SOL     OW19000   2.309   4.514   4.792
 6034SOL    HW119001   2.321   4.445   4.863
 6034SOL    HW219002   2.272   4.472   4.710
 6035SOL     OW19003   4.709   6.960   3.851
 6035SOL    HW119004   4.657   6.970   3.937
 6035SOL    HW219005   4.683   0.018   3.789
 6036SOL     OW19006   5.973   0.539   4.753
 6036SOL    HW119007   5.963   0.466   4.820
 6036SOL    HW219008   5.889   0.593   4.750
 6037SOL     OW19009   0.495   5.835   4.664
 6037SOL    HW119010   0.591   5.824   4.687
 6037SOL    HW219011   0.457   5.748   4.634
 6038SOL     OW19012   0.098   4.268   6.802
 6038SOL    HW119013   0.117   4.183   6.752
 6038SOL    HW219014   0.067   4.246   6.894
 6039SOL     OW19015   3.538   3.407   3.949
 6039SOL    HW119016   3.470   3.399   3.877
 6039SOL    HW219017   3.503   3.367   4.033
 6040SOL     OW19018   1.202   0.761   0.772
 6040SOL    HW119019   1.286   0.797   0.731
 6040SOL    HW219020   1.155   0.834   0.822
 6041SOL     OW19021   0.889   3.071   0.201
 6041SOL    HW119022   0.891   3.137   0.276
 6041SOL    HW219023   0.978   3.073   0.154
 6042SOL     OW19024   5.123   5.460   4.747
 6042SOL    HW119025   5.057   5.534   4.763
 6042SOL    HW219026   5.087   5.375   4.786
 6043SOL     OW19027   0.111   4.290   3.877
 6043SOL    HW119028   0.072   4.375   3.842
 6043SOL    HW219029   0.210   4.301   3.888
 6044SOL     OW19030   1.398   0.508   1.271
 6044SOL    HW119031   1.482   0.524   1.323
 6044SOL    HW219032   1.402   0.557   1.184
 6045SOL     OW19033   6.512   4.623   6.887
 6045SOL    HW119034   6.424   4.656   6.854
 6045SOL    HW219035   6.502   4.589   6.981
 6046SOL     OW19036   1.434   3.629   6.837
 6046SOL    HW119037   1.397   3.537   6.850
 6046SOL    HW219038   1.362   3.688   6.801
 6047SOL     OW19039   1.177   5.544   4.874
 6047SOL    HW119040   1.128   5.555   4.788
 6047SOL    HW219041   1.142   5.464   4.922
 6048SOL     OW19042   4.734   5.830   4.207
 6048SOL    HW119043   4.634   5.838   4.200
 6048SOL    HW219044   4.774   5.921   4.212
 6049SOL     OW19045   6.719   5.434   6.917
 6049SOL    HW119046   6.737   5.339   6.894
 6049SOL    HW219047   6.763   5.456   7.005
 6050SOL     OW19048   5.943   4.474   5.379
 6050SOL    HW119049   5.976   4.452   5.287
 6050SOL    HW219050   5.947   4.393   5.436
 6051SOL     OW19051   3.223   2.055   3.764
 6051SOL    HW119052   3.149   2.089   3.706
 6051SOL    HW219053   3.216   2.096   3.855
 6052SOL     OW19054   0.238   1.972   6.813
 6052SOL    HW119055   0.295   1.988   6.733
 6052SOL    HW219056   0.200   1.880   6.809
 6053SOL     OW19057   1.203   0.208   6.224
 6053SOL    HW119058   1.243   0.294   6.193
 6053SOL    HW219059   1.208   0.141   6.150
 6054SOL     OW19060   0.757   4.286   6.084
 6054SOL    HW119061   0.772   4.227   6.005
 6054SOL    HW219062   0.837   4.344   6.098
 6055SOL     OW19063   5.328   0.097   2.765
 6055SOL    HW119064   5.269   0.174   2.739
 6055SOL    HW219065   5.304   0.066   2.856
 6056SOL     OW19066   5.537   3.181   6.199
 6056SOL    HW119067   5.452   3.214   6.243
 6056SOL    HW219068   5.516   3.144   6.109
 6057SOL     OW19069   4.089   0.689   6.338
 6057SOL    HW119070   4.152   0.767   6.342
 6057SOL    HW219071   3.996   0.721   6.358
 6058SOL     OW19072   5.110   1.909   5.150
 6058SOL    HW119073   5.176   1.884   5.080
 6058SOL    HW219074   5.138   1.995   5.193
 6059SOL     OW19075   0.112   6.347   6.828
 6059SOL    HW119076   0.184   6.310   6.888
 6059SOL    HW219077   0.150   6.365   6.738
 6060SOL     OW19078   3.203   5.814   6.418
 6060SOL    HW119079   3.222   5.849   6.510
 6060SOL    HW219080   3.271   5.850   6.354
 6061SOL     OW19081   1.709   1.639   0.155
 6061SOL    HW119082   1.626   1.582   0.156
 6061SOL    HW219083   1.759   1.623   0.070
 6062SOL     OW19084   1.410   0.143   3.936
 6062SOL    HW119085   1.447   0.236   3.939
 6062SOL    HW219086   1.416   0.108   3.843
 6063SOL     OW19087   6.054   5.877   6.897
 6063SOL    HW119088   6.053   5.889   6.797
 6063SOL    HW219089   6.144   5.902   6.932
 6064SOL     OW19090   1.072   5.022   2.451
 6064SOL    HW119091   1.095   4.946   2.512
 6064SOL    HW219092   0.988   5.002   2.402
 6065SOL     OW19093   5.328   6.680   1.811
 6065SOL    HW119094   5.233   6.708   1.821
 6065SOL    HW219095   5.388   6.752   1.846
 6066SOL     OW19096   4.039   1.958   5.809
 6066SOL    HW119097   4.022   1.982   5.904
 6066SOL    HW219098   4.094   1.875   5.804
 6067SOL     OW19099   4.750   2.231   6.596
 6067SOL    HW119100   4.838   2.236   6.548
 6067SOL    HW219101   4.723   2.323   6.626
 6068SOL     OW19102   5.188   0.607   5.601
 6068SOL    HW119103   5.140   0.545   5.538
 6068SOL    HW219104   5.122   0.664   5.649
 6069SOL     OW19105   6.605   5.211   3.593
 6069SOL    HW119106   6.575   5.193   3.499
 6069SOL    HW219107   6.635   5.125   3.635
 6070SOL     OW19108   5.058   3.775   0.786
 6070SOL    HW119109   4.959   3.782   0.774
 6070SOL    HW219110   5.081   3.690   0.833
 6071SOL     OW19111   5.055   6.748   5.416
 6071SOL    HW119112   5.097   6.771   5.328
 6071SOL    HW219113   5.002   6.826   5.448
 6072SOL     OW19114   6.097   1.899   1.577
 6072SOL    HW119115   6.192   1.889   1.548
 6072SOL    HW219116   6.040   1.922   1.498
 6073SOL     OW19117   6.156   0.612   1.396
 6073SOL    HW119118   6.066   0.653   1.411
 6073SOL    HW219119   6.214   0.675   1.346
 6074SOL     OW19120   0.827   0.469   6.008
 6074SOL    HW119121   0.870   0.458   5.919
 6074SOL    HW219122   0.752   0.536   6.001
 6075SOL     OW19123   5.417   3.715   5.858
 6075SOL    HW119124   5.365   3.675   5.934
 6075SOL    HW219125   5.479   3.647   5.820
 6076SOL     OW19126   2.696   0.663   4.012
 6076SOL    HW119127   2.626   0.671   3.941
 6076SOL    HW219128   2.652   0.667   4.102
 6077SOL     OW19129   4.886   5.002   3.115
 6077SOL    HW119130   4.972   5.051   3.126
 6077SOL    HW219131   4.893   4.912   3.158
 6078SOL     OW19132   1.795   4.426   4.255
 6078SOL    HW119133   1.837   4.371   4.182
 6078SOL    HW219134   1.865   4.451   4.321
 6079SOL     OW19135   3.284   1.968   1.123
 6079SOL    HW119136   3.224   1.992   1.047
 6079SOL    HW219137   3.267   2.029   1.200
 6080SOL     OW19138   5.754   3.341   3.534
 6080SOL    HW119139   5.769   3.439   3.523
 6080SOL    HW219140   5.662   3.326   3.570
 6081SOL     OW19141   0.583   4.460   1.719
 6081SOL    HW119142   0.611   4.471   1.815
 6081SOL    HW219143   0.579   4.363   1.697
 6082SOL     OW19144   4.297   1.879   5.201
 6082SOL    HW119145   4.203   1.846   5.195
 6082SOL    HW219146   4.330   1.905   5.110
 6083SOL     OW19147   1.968   6.513   6.863
 6083SOL    HW119148   2.066   6.505   6.846
 6083SOL    HW219149   1.952   6.533   6.960
 6084SOL     OW19150   6.976   5.567   6.008
 6084SOL    HW119151   6.998   5.664   6.014
 6084SOL    HW219152   6.902   5.554   5.941
 6085SOL     OW19153   5.152   5.078   1.681
 6085SOL    HW119154   5.063   5.076   1.727
 6085SOL    HW219155   5.211   5.007   1.720
 6086SOL     OW19156   3.126   1.714   2.584
 6086SOL    HW119157   3.086   1.805   2.571
 6086SOL    HW219158   3.215   1.710   2.538
 6087SOL     OW19159   3.799   0.685   0.374
 6087SOL    HW119160   3.853   0.660   0.455
 6087SOL    HW219161   3.852   0.747   0.317
 6088SOL     OW19162   0.056   0.719   5.045
 6088SOL    HW119163   0.051   0.744   5.142
 6088SOL    HW219164   6.985   0.680   5.016
 6089SOL     OW19165   6.632   3.916   1.268
 6089SOL    HW119166   6.691   3.896   1.346
 6089SOL    HW219167   6.540   3.882   1.286
 6090SOL     OW19168   6.817   5.828   4.504
 6090SOL    HW119169   6.886   5.836   4.432
 6090SOL    HW219170   6.736   5.783   4.467
 6091SOL     OW19171   6.649   2.408   1.786
 6091SOL    HW119172   6.591   2.366   1.855
 6091SOL    HW219173   6.722   2.345   1.760
 6092SOL     OW19174   1.104   3.625   0.966
 6092SOL    HW119175   1.177   3.559   0.952
 6092SOL    HW219176   1.043   3.626   0.886
 6093SOL     OW19177   0.983   5.025   0.660
 6093SOL    HW119178   0.885   5.031   0.641
 6093SOL    HW219179   0.998   5.023   0.759
 6094SOL     OW19180   0.293   1.324   1.014
 6094SOL    HW119181   0.310   1.423   1.018
 6094SOL    HW219182   0.311   1.283   1.103
 6095SOL     OW19183   6.544   4.087   5.210
 6095SOL    HW119184   6.488   4.018   5.164
 6095SOL    HW219185   6.573   4.053   5.299
 6096SOL     OW19186   5.459   1.651   2.663
 6096SOL    HW119187   5.440   1.703   2.746
 6096SOL    HW219188   5.540   1.595   2.676
 6097SOL     OW19189   3.362   1.942   2.671
 6097SOL    HW119190   3.396   1.848   2.667
 6097SOL    HW219191   3.376   1.978   2.763
 6098SOL     OW19192   0.608   0.719   6.561
 6098SOL    HW119193   0.536   0.781   6.592
 6098SOL    HW219194   0.592   0.628   6.597
 6099SOL     OW19195   5.811   4.145   4.779
 6099SOL    HW119196   5.896   4.159   4.729
 6099SOL    HW219197   5.774   4.054   4.759
 6100SOL     OW19198   0.046   2.755   0.753
 6100SOL    HW119199   0.085   2.794   0.837
 6100SOL    HW219200   0.051   2.655   0.757
 6101SOL     OW19201   6.409   6.477   3.458
 6101SOL    HW119202   6.464   6.556   3.484
 6101SOL    HW219203   6.387   6.423   3.539
 6102SOL     OW19204   3.254   6.635   4.837
 6102SOL    HW119205   3.250   6.641   4.936
 6102SOL    HW219206   3.190   6.566   4.805
 6103SOL     OW19207   5.547   1.862   5.244
 6103SOL    HW119208   5.579   1.780   5.291
 6103SOL    HW219209   5.529   1.840   5.148
 6104SOL     OW19210   1.802   2.694   0.835
 6104SOL    HW119211   1.799   2.622   0.904
 6104SOL    HW219212   1.750   2.665   0.755
 6105SOL     OW19213   3.163   4.864   4.403
 6105SOL    HW119214   3.119   4.867   4.493
 6105SOL    HW219215   3.263   4.865   4.415
 6106SOL     OW19216   2.163   5.024   4.203
 6106SOL    HW119217   2.211   4.977   4.276
 6106SOL    HW219218   2.079   4.975   4.181
 6107SOL     OW19219   2.237   5.148   5.908
 6107SOL    HW119220   2.140   5.139   5.887
 6107SOL    HW219221   2.285   5.064   5.882
 6108SOL     OW19222   5.283   1.884   4.942
 6108SOL    HW119223   5.273   1.928   4.852
 6108SOL    HW219224   5.378   1.860   4.957
 6109SOL     OW19225   6.798   4.105   1.570
 6109SOL    HW119226   6.868   4.157   1.618
 6109SOL    HW219227   6.810   4.008   1.588
 6110SOL     OW19228   3.495   2.130   3.347
 6110SOL    HW119229   3.589   2.152   3.371
 6110SOL    HW219230   3.441   2.119   3.430
 6111SOL     OW19231   0.379   4.316   3.788
 6111SOL    HW119232   0.433   4.250   3.736
 6111SOL    HW219233   0.320   4.368   3.726
 6112SOL     OW19234   1.362   1.654   1.353
 6112SOL    HW119235   1.324   1.651   1.446
 6112SOL    HW219236   1.462   1.656   1.359
 6113SOL     OW19237   1.479   4.745   5.290
 6113SOL    HW119238   1.460   4.661   5.238
 6113SOL    HW219239   1.507   4.721   5.383
 6114SOL     OW19240   3.869   4.407   1.007
 6114SOL    HW119241   3.783   4.358   0.992
 6114SOL    HW219242   3.918   4.368   1.085
 6115SOL     OW19243   0.097   5.037   2.296
 6115SOL    HW119244   0.120   5.134   2.290
 6115SOL    HW219245   0.101   5.007   2.391
 6116SOL     OW19246   3.802   2.304   1.403
 6116SOL    HW119247   3.878   2.251   1.440
 6116SOL    HW219248   3.831   2.399   1.388
 6117SOL     OW19249   5.535   5.848   4.075
 6117SOL    HW119250   5.464   5.915   4.055
 6117SOL    HW219251   5.531   5.774   4.008
 6118SOL     OW19252   6.747   7.007   3.071
 6118SOL    HW119253   6.824   0.027   3.019
 6118SOL    HW219254   6.729   6.912   3.044
 6119SOL     OW19255   5.923   5.362   4.320
 6119SOL    HW119256   5.889   5.452   4.347
 6119SOL    HW219257   5.853   5.293   4.338
 6120SOL     OW19258   2.336   1.595   3.393
 6120SOL    HW119259   2.265   1.652   3.433
 6120SOL    HW219260   2.326   1.595   3.293
 6121SOL     OW19261   0.119   2.068   3.805
 6121SOL    HW119262   0.156   2.020   3.726
 6121SOL    HW219263   0.179   2.054   3.884
 6122SOL     OW19264   3.953   5.884   4.009
 6122SOL    HW119265   4.006   5.859   3.928
 6122SOL    HW219266   3.968   5.981   4.030
 6123SOL     OW19267   5.714   1.620   2.788
 6123SOL    HW119268   5.710   1.595   2.885
 6123SOL    HW219269   5.649   1.693   2.770
 6124SOL     OW19270   2.974   0.389   5.015
 6124SOL    HW119271   2.910   0.408   5.090
 6124SOL    HW219272   3.058   0.349   5.051
 6125SOL     OW19273   1.120   4.341   2.320
 6125SOL    HW119274   1.116   4.437   2.294
 6125SOL    HW219275   1.143   4.334   2.418
 6126SOL     OW19276   3.587   6.355   3.076
 6126SOL    HW119277   3.631   6.432   3.122
 6126SOL    HW219278   3.493   6.346   3.107
 6127SOL     OW19279   2.023   5.452   1.526
 6127SOL    HW119280   2.083   5.377   1.554
 6127SOL    HW219281   2.011   5.451   1.427
 6128SOL     OW19282   5.268   4.166   1.244
 6128SOL    HW119283   5.333   4.131   1.177
 6128SOL    HW219284   5.306   4.247   1.289
 6129SOL     OW19285   6.305   3.621   3.894
 6129SOL    HW119286   6.319   3.716   3.922
 6129SOL    HW219287   6.207   3.601   3.894
 6130SOL     OW19288   5.318   3.603   2.892
 6130SOL    HW119289   5.365   3.544   2.826
 6130SOL    HW219290   5.328   3.698   2.865
 6131SOL     OW19291   6.714   0.711   5.397
 6131SOL    HW119292   6.715   0.622   5.441
 6131SOL    HW219293   6.638   0.765   5.433
 6132SOL     OW19294   0.122   2.444   0.526
 6132SOL    HW119295   0.089   2.512   0.461
 6132SOL    HW219296   0.135   2.356   0.480
 6133SOL     OW19297   1.428   5.085   0.213
 6133SOL    HW119298   1.397   5.035   0.132
 6133SOL    HW219299   1.425   5.184   0.194
 6134SOL     OW19300   5.006   3.785   6.588
 6134SOL    HW119301   5.016   3.703   6.532
 6134SOL    HW219302   5.096   3.816   6.618
 6135SOL     OW19303   5.844   6.837   2.575
 6135SOL    HW119304   5.865   6.850   2.478
 6135SOL    HW219305   5.798   6.917   2.611
 6136SOL     OW19306   1.332   1.702   2.533
 6136SOL    HW119307   1.307   1.719   2.437
 6136SOL    HW219308   1.425   1.664   2.537
 6137SOL     OW19309   3.795   6.774   6.479
 6137SOL    HW119310   3.788   6.786   6.380
 6137SOL    HW219311   3.799   6.677   6.501
 6138SOL     OW19312   4.811   0.653   3.333
 6138SOL    HW119313   4.843   0.663   3.239
 6138SOL    HW219314   4.714   0.680   3.338
 6139SOL     OW19315   2.686   6.246   3.841
 6139SOL    HW119316   2.706   6.343   3.825
 6139SOL    HW219317   2.634   6.237   3.926
 6140SOL     OW19318   2.365   5.362   1.297
 6140SOL    HW119319   2.438   5.416   1.257
 6140SOL    HW219320   2.334   5.405   1.382
 6141SOL     OW19321   0.780   5.670   5.144
 6141SOL    HW119322   0.871   5.634   5.123
 6141SOL    HW219323   0.789   5.753   5.200
 6142SOL     OW19324   6.969   3.681   3.853
 6142SOL    HW119325   6.888   3.734   3.875
 6142SOL    HW219326   6.966   3.593   3.901
 6143SOL     OW19327   5.986   5.452   6.463
 6143SOL    HW119328   5.942   5.362   6.462
 6143SOL    HW219329   5.932   5.515   6.518
 6144SOL     OW19330   0.233   5.702   4.301
 6144SOL    HW119331   0.330   5.702   4.275
 6144SOL    HW219332   0.220   5.763   4.379
 6145SOL     OW19333   6.047   5.030   3.591
 6145SOL    HW119334   5.991   4.973   3.530
 6145SOL    HW219335   6.142   5.025   3.563
 6146SOL     OW19336   6.097   2.189   3.649
 6146SOL    HW119337   6.052   2.274   3.622
 6146SOL    HW219338   6.055   2.112   3.602
 6147SOL     OW19339   1.096   3.733   3.807
 6147SOL    HW119340   1.063   3.795   3.736
 6147SOL    HW219341   1.070   3.769   3.897
 6148SOL     OW19342   5.827   6.138   3.089
 6148SOL    HW119343   5.898   6.206   3.071
 6148SOL    HW219344   5.863   6.066   3.148
 6149SOL     OW19345   0.980   5.681   4.427
 6149SOL    HW119346   0.881   5.687   4.422
 6149SOL    HW219347   1.006   5.617   4.500
 6150SOL     OW19348   4.407   6.852   6.501
 6150SOL    HW119349   4.327   6.909   6.522
 6150SOL    HW219350   4.420   6.850   6.402
 6151SOL     OW19351   4.604   0.215   5.043
 6151SOL    HW119352   4.698   0.184   5.029
 6151SOL    HW219353   4.583   0.288   4.979
 6152SOL     OW19354   6.420   4.106   5.911
 6152SOL    HW119355   6.476   4.025   5.925
 6152SOL    HW219356   6.418   4.129   5.814
 6153SOL     OW19357   3.751   5.512   5.537
 6153SOL    HW119358   3.743   5.519   5.637
 6153SOL    HW219359   3.792   5.424   5.513
 6154SOL     OW19360   5.291   3.252   3.083
 6154SOL    HW119361   5.299   3.331   3.144
 6154SOL    HW219362   5.346   3.267   3.001
 6155SOL     OW19363   2.562   4.585   4.654
 6155SOL    HW119364   2.494   4.550   4.718
 6155SOL    HW219365   2.541   4.552   4.562
 6156SOL     OW19366   5.580   0.564   4.475
 6156SOL    HW119367   5.487   0.589   4.504
 6156SOL    HW219368   5.574   0.502   4.397
 6157SOL     OW19369   1.006   1.531   4.661
 6157SOL    HW119370   0.937   1.494   4.599
 6157SOL    HW219371   1.057   1.603   4.615
 6158SOL     OW19372   5.148   0.091   6.974
 6158SOL    HW119373   5.156   0.119   0.053
 6158SOL    HW219374   5.225   0.033   6.949
 6159SOL     OW19375   5.168   3.631   6.068
 6159SOL    HW119376   5.163   3.698   6.142
 6159SOL    HW219377   5.141   3.541   6.103
 6160SOL     OW19378   6.469   5.532   6.863
 6160SOL    HW119379   6.567   5.512   6.870
 6160SOL    HW219380   6.430   5.541   6.955
 6161SOL     OW19381   5.542   0.108   6.079
 6161SOL    HW119382   5.546   0.189   6.020
 6161SOL    HW219383   5.448   0.075   6.084
 6162SOL     OW19384   5.993   5.126   3.911
 6162SOL    HW119385   5.910   5.180   3.899
 6162SOL    HW219386   6.043   5.160   3.991
 6163SOL     OW19387   6.556   3.607   2.939
 6163SOL    HW119388   6.498   3.541   2.988
 6163SOL    HW219389   6.596   3.671   3.004
 6164SOL     OW19390   4.682   3.039   1.339
 6164SOL    HW119391   4.772   3.055   1.380
 6164SOL    HW219392   4.628   2.980   1.399
 6165SOL     OW19393   4.086   0.295   0.983
 6165SOL    HW119394   4.162   0.231   0.973
 6165SOL    HW219395   4.043   0.281   1.073
 6166SOL     OW19396   3.217   0.344   0.121
 6166SOL    HW119397   3.219   0.444   0.116
 6166SOL    HW219398   3.186   0.316   0.211
 6167SOL     OW19399   6.878   5.172   3.372
 6167SOL    HW119400   6.816   5.124   3.310
 6167SOL    HW219401   6.914   5.109   3.440
 6168SOL     OW19402   0.180   2.641   1.496
 6168SOL    HW119403   0.198   2.729   1.540
 6168SOL    HW219404   0.220   2.568   1.552
 6169SOL     OW19405   1.258   4.150   1.121
 6169SOL    HW119406   1.195   4.090   1.073
 6169SOL    HW219407   1.261   4.240   1.076
 6170SOL     OW19408   6.716   2.079   3.175
 6170SOL    HW119409   6.763   2.121   3.253
 6170SOL    HW219410   6.633   2.033   3.207
 6171SOL     OW19411   5.671   1.911   6.490
 6171SOL    HW119412   5.666   1.816   6.460
 6171SOL    HW219413   5.767   1.939   6.499
 6172SOL     OW19414   0.595   4.830   3.830
 6172SOL    HW119415   0.550   4.747   3.864
 6172SOL    HW219416   0.535   4.875   3.764
 6173SOL     OW19417   5.208   5.994   3.005
 6173SOL    HW119418   5.229   5.964   3.098
 6173SOL    HW219419   5.179   6.090   3.007
 6174SOL     OW19420   6.821   2.262   3.424
 6174SOL    HW119421   6.853   2.252   3.518
 6174SOL    HW219422   6.767   2.346   3.416
 6175SOL     OW19423   4.187   2.437   6.658
 6175SOL    HW119424   4.246   2.400   6.586
 6175SOL    HW219425   4.094   2.448   6.623
 6176SOL     OW19426   2.869   4.846   6.029
 6176SOL    HW119427   2.868   4.861   5.931
 6176SOL    HW219428   2.933   4.909   6.073
 6177SOL     OW19429   5.892   5.587   1.626
 6177SOL    HW119430   5.865   5.667   1.680
 6177SOL    HW219431   5.810   5.543   1.590
 6178SOL     OW19432   4.334   4.837   2.055
 6178SOL    HW119433   4.403   4.813   2.123
 6178SOL    HW219434   4.325   4.762   1.989
 6179SOL     OW19435   4.590   5.293   5.004
 6179SOL    HW119436   4.681   5.282   4.964
 6179SOL    HW219437   4.592   5.368   5.071
 6180SOL     OW19438   2.261   3.816   0.035
 6180SOL    HW119439   2.323   3.895   0.035
 6180SOL    HW219440   2.177   3.841   0.083
 6181SOL     OW19441   0.055   6.237   0.338
 6181SOL    HW119442   0.113   6.286   0.403
 6181SOL    HW219443   0.100   6.235   0.248
 6182SOL     OW19444   3.181   2.790   6.283
 6182SOL    HW119445   3.175   2.782   6.183
 6182SOL    HW219446   3.207   2.884   6.307
 6183SOL     OW19447   0.226   0.376   0.401
 6183SOL    HW119448   0.273   0.325   0.472
 6183SOL    HW219449   0.169   0.447   0.442
 6184SOL     OW19450   3.633   6.511   5.446
 6184SOL    HW119451   3.594   6.470   5.363
 6184SOL    HW219452   3.728   6.536   5.429
 6185SOL     OW19453   3.333   2.921   3.920
 6185SOL    HW119454   3.356   2.880   3.832
 6185SOL    HW219455   3.403   2.897   3.988
 6186SOL     OW19456   1.035   1.573   2.551
 6186SOL    HW119457   1.132   1.587   2.567
 6186SOL    HW219458   0.995   1.658   2.515
 6187SOL     OW19459   3.819   1.651   5.855
 6187SOL    HW119460   3.771   1.564   5.842
 6187SOL    HW219461   3.849   1.659   5.950
 6188SOL     OW19462   1.747   1.444   5.830
 6188SOL    HW119463   1.809   1.518   5.860
 6188SOL    HW219464   1.653   1.475   5.839
 6189SOL     OW19465   6.579   5.690   0.637
 6189SOL    HW119466   6.671   5.658   0.658
 6189SOL    HW219467   6.585   5.763   0.569
 6190SOL     OW19468   0.766   2.837   3.847
 6190SOL    HW119469   0.737   2.928   3.877
 6190SOL    HW219470   0.811   2.790   3.924
 6191SOL     OW19471   3.226   4.496   0.161
 6191SOL    HW119472   3.287   4.470   0.235
 6191SOL    HW219473   3.135   4.518   0.198
 6192SOL     OW19474   2.939   2.043   1.461
 6192SOL    HW119475   2.903   2.121   1.512
 6192SOL    HW219476   2.888   1.960   1.486
 6193SOL     OW19477   4.731   5.641   6.776
 6193SOL    HW119478   4.796   5.703   6.732
 6193SOL    HW219479   4.652   5.627   6.717
 6194SOL     OW19480   5.435   0.123   5.736
 6194SOL    HW119481   5.499   0.177   5.790
 6194SOL    HW219482   5.474   0.107   5.645
 6195SOL     OW19483   4.746   5.620   5.839
 6195SOL    HW119484   4.812   5.582   5.904
 6195SOL    HW219485   4.672   5.665   5.889
 6196SOL     OW19486   7.002   3.620   3.433
 6196SOL    HW119487   0.038   3.535   3.438
 6196SOL    HW219488   6.923   3.607   3.372
 6197SOL     OW19489   0.610   5.600   0.574
 6197SOL    HW119490   0.662   5.518   0.597
 6197SOL    HW219491   0.625   5.669   0.645
 6198SOL     OW19492   6.456   1.682   6.164
 6198SOL    HW119493   6.404   1.671   6.079
 6198SOL    HW219494   6.423   1.763   6.213
 6199SOL     OW19495   2.675   6.837   6.546
 6199SOL    HW119496   2.612   6.913   6.527
 6199SOL    HW219497   2.768   6.873   6.550
 6200SOL     OW19498   1.661   0.006   0.076
 6200SOL    HW119499   1.717   6.942   0.057
 6200SOL    HW219500   1.567   6.993   0.097
 6201SOL     OW19501   0.436   4.609   4.006
 6201SOL    HW119502   0.479   4.528   4.047
 6201SOL    HW219503   0.431   4.598   3.907
 6202SOL     OW19504   5.836   0.630   1.584
 6202SOL    HW119505   5.756   0.637   1.524
 6202SOL    HW219506   5.891   0.713   1.577
 6203SOL     OW19507   0.281   1.267   2.028
 6203SOL    HW119508   0.341   1.295   2.103
 6203SOL    HW219509   0.209   1.336   2.015
 6204SOL     OW19510   1.274   6.108   4.717
 6204SOL    HW119511   1.241   6.098   4.623
 6204SOL    HW219512   1.224   6.181   4.763
 6205SOL     OW19513   6.751   4.006   3.459
 6205SOL    HW119514   6.825   4.044   3.515
 6205SOL    HW219515   6.772   4.019   3.362
 6206SOL     OW19516   5.233   1.992   3.533
 6206SOL    HW119517   5.252   1.922   3.465
 6206SOL    HW219518   5.173   1.955   3.605
 6207SOL     OW19519   1.507   5.695   3.633
 6207SOL    HW119520   1.496   5.622   3.565
 6207SOL    HW219521   1.569   5.765   3.596
 6208SOL     OW19522   3.836   4.146   6.527
 6208SOL    HW119523   3.794   4.228   6.566
 6208SOL    HW219524   3.922   4.126   6.574
 6209SOL     OW19525   3.494   1.031   2.691
 6209SOL    HW119526   3.485   1.104   2.623
 6209SOL    HW219527   3.405   1.014   2.734
 6210SOL     OW19528   5.601   0.667   4.130
 6210SOL    HW119529   5.562   0.657   4.038
 6210SOL    HW219530   5.571   0.591   4.187
 6211SOL     OW19531   5.112   2.768   4.870
 6211SOL    HW119532   5.051   2.848   4.874
 6211SOL    HW219533   5.201   2.793   4.907
 6212SOL     OW19534   5.362   3.613   4.651
 6212SOL    HW119535   5.280   3.666   4.672
 6212SOL    HW219536   5.422   3.611   4.731
 6213SOL     OW19537   5.007   5.736   0.437
 6213SOL    HW119538   4.925   5.769   0.484
 6213SOL    HW219539   5.059   5.675   0.497
 6214SOL     OW19540   6.641   6.608   6.302
 6214SOL    HW119541   6.583   6.526   6.306
 6214SOL    HW219542   6.606   6.677   6.364
 6215SOL     OW19543   5.622   2.520   5.042
 6215SOL    HW119544   5.649   2.542   5.136
 6215SOL    HW219545   5.624   2.421   5.029
 6216SOL     OW19546   5.026   2.422   5.629
 6216SOL    HW119547   5.009   2.500   5.568
 6216SOL    HW219548   4.990   2.443   5.720
 6217SOL     OW19549   7.000   4.435   2.121
 6217SOL    HW119550   0.007   4.384   2.204
 6217SOL    HW219551   0.067   4.454   2.069
 6218SOL     OW19552   4.761   6.578   1.397
 6218SOL    HW119553   4.746   6.638   1.318
 6218SOL    HW219554   4.679   6.576   1.454
 6219SOL     OW19555   2.339   0.742   0.508
 6219SOL    HW119556   2.430   0.702   0.499
 6219SOL    HW219557   2.271   0.677   0.474
 6220SOL     OW19558   3.252   0.711   2.441
 6220SOL    HW119559   3.288   0.709   2.535
 6220SOL    HW219560   3.264   0.621   2.400
 6221SOL     OW19561   4.502   4.777   5.386
 6221SOL    HW119562   4.419   4.754   5.335
 6221SOL    HW219563   4.554   4.693   5.405
 6222SOL     OW19564   6.550   0.927   1.981
 6222SOL    HW119565   6.533   1.002   1.917
 6222SOL    HW219566   6.639   0.940   2.024
 6223SOL     OW19567   6.708   5.064   3.990
 6223SOL    HW119568   6.621   5.087   4.033
 6223SOL    HW219569   6.781   5.067   4.059
 6224SOL     OW19570   3.959   6.979   0.140
 6224SOL    HW119571   3.939   6.993   0.237
 6224SOL    HW219572   4.004   6.891   0.127
 6225SOL     OW19573   5.107   6.054   6.767
 6225SOL    HW119574   5.177   6.014   6.825
 6225SOL    HW219575   5.032   6.089   6.823
 6226SOL     OW19576   1.089   1.279   4.396
 6226SOL    HW119577   1.049   1.225   4.323
 6226SOL    HW219578   1.110   1.371   4.363
 6227SOL     OW19579   2.164   4.243   6.083
 6227SOL    HW119580   2.154   4.272   6.179
 6227SOL    HW219581   2.203   4.318   6.030
 6228SOL     OW19582   0.272   2.873   4.183
 6228SOL    HW119583   0.197   2.937   4.164
 6228SOL    HW219584   0.235   2.792   4.229
 6229SOL     OW19585   0.324   4.406   5.203
 6229SOL    HW119586   0.249   4.471   5.211
 6229SOL    HW219587   0.291   4.322   5.160
 6230SOL     OW19588   0.922   0.792   1.047
 6230SOL    HW119589   0.977   0.853   0.988
 6230SOL    HW219590   0.951   0.698   1.033
 6231SOL     OW19591   2.279   5.536   5.791
 6231SOL    HW119592   2.291   5.568   5.885
 6231SOL    HW219593   2.328   5.597   5.729
 6232SOL     OW19594   4.072   0.548   6.614
 6232SOL    HW119595   4.080   0.449   6.603
 6232SOL    HW219596   4.051   0.590   6.525
 6233SOL     OW19597   6.751   4.320   0.911
 6233SOL    HW119598   6.753   4.414   0.945
 6233SOL    HW219599   6.674   4.271   0.952
 6234SOL     OW19600   4.496   5.264   3.135
 6234SOL    HW119601   4.405   5.240   3.100
 6234SOL    HW219602   4.565   5.233   3.070
 6235SOL     OW19603   0.025   0.825   1.715
 6235SOL    HW119604   0.000   0.867   1.802
 6235SOL    HW219605   7.014   0.729   1.715
 6236SOL     OW19606   6.907   5.862   1.515
 6236SOL    HW119607   6.976   5.934   1.518
 6236SOL    HW219608   6.827   5.895   1.464
 6237SOL     OW19609   4.152   1.442   2.669
 6237SOL    HW119610   4.120   1.347   2.669
 6237SOL    HW219611   4.162   1.474   2.764
 6238SOL     OW19612   2.228   0.117   4.000
 6238SOL    HW119613   2.231   0.155   4.093
 6238SOL    HW219614   2.171   0.035   4.000
 6239SOL     OW19615   3.913   1.495   4.235
 6239SOL    HW119616   3.911   1.540   4.325
 6239SOL    HW219617   3.932   1.564   4.165
 6240SOL     OW19618   3.860   3.499   3.704
 6240SOL    HW119619   3.945   3.547   3.683
 6240SOL    HW219620   3.866   3.461   3.797
 6241SOL     OW19621   4.141   6.960   3.504
 6241SOL    HW119622   4.084   0.026   3.517
 6241SOL    HW219623   4.116   6.890   3.571
 6242SOL     OW19624   3.345   2.155   4.478
 6242SOL    HW119625   3.378   2.155   4.572
 6242SOL    HW219626   3.304   2.244   4.457
 6243SOL     OW19627   3.240   0.903   0.153
 6243SOL    HW119628   3.293   0.938   0.076
 6243SOL    HW219629   3.259   0.958   0.234
 6244SOL     OW19630   4.781   2.314   1.807
 6244SOL    HW119631   4.828   2.255   1.742
 6244SOL    HW219632   4.815   2.408   1.798
 6245SOL     OW19633   0.002   4.684   1.834
 6245SOL    HW119634   6.928   4.640   1.831
 6245SOL    HW219635   7.007   4.777   1.869
 6246SOL     OW19636   0.620   5.788   4.926
 6246SOL    HW119637   0.636   5.734   5.009
 6246SOL    HW219638   0.689   5.766   4.857
 6247SOL     OW19639   5.754   5.260   2.502
 6247SOL    HW119640   5.688   5.314   2.450
 6247SOL    HW219641   5.754   5.165   2.470
 6248SOL     OW19642   4.579   2.878   6.247
 6248SOL    HW119643   4.566   2.803   6.182
 6248SOL    HW219644   4.607   2.960   6.198
 6249SOL     OW19645   5.637   2.562   3.244
 6249SOL    HW119646   5.577   2.642   3.239
 6249SOL    HW219647   5.617   2.501   3.167
 6250SOL     OW19648   5.498   6.810   5.506
 6250SOL    HW119649   5.473   6.892   5.456
 6250SOL    HW219650   5.522   6.737   5.442
 6251SOL     OW19651   2.646   1.023   4.025
 6251SOL    HW119652   2.726   0.993   3.973
 6251SOL    HW219653   2.675   1.054   4.116
 6252SOL     OW19654   3.105   5.173   0.409
 6252SOL    HW119655   3.043   5.138   0.338
 6252SOL    HW219656   3.100   5.114   0.489
 6253SOL     OW19657   4.941   5.903   3.196
 6253SOL    HW119658   4.926   5.961   3.276
 6253SOL    HW219659   5.038   5.880   3.188
 6254SOL     OW19660   7.011   6.892   2.234
 6254SOL    HW119661   0.073   6.931   2.283
 6254SOL    HW219662   6.957   6.965   2.193
 6255SOL     OW19663   2.055   1.004   0.699
 6255SOL    HW119664   2.107   0.919   0.706
 6255SOL    HW219665   1.959   0.986   0.720
 6256SOL     OW19666   6.747   4.489   2.318
 6256SOL    HW119667   6.841   4.494   2.286
 6256SOL    HW219668   6.715   4.581   2.341
 6257SOL     OW19669   4.060   3.929   0.708
 6257SOL    HW119670   3.960   3.930   0.704
 6257SOL    HW219671   4.093   4.021   0.729
 6258SOL     OW19672   3.836   4.918   4.464
 6258SOL    HW119673   3.788   4.856   4.527
 6258SOL    HW219674   3.928   4.935   4.498
 6259SOL     OW19675   4.838   0.364   4.415
 6259SOL    HW119676   4.769   0.293   4.411
 6259SOL    HW219677   4.902   0.352   4.339
 6260SOL     OW19678   3.581   2.264   6.960
 6260SOL    HW119679   3.543   2.176   6.931
 6260SOL    HW219680   3.659   2.250   0.004
 6261SOL     OW19681   4.190   6.473   1.246
 6261SOL    HW119682   4.220   6.490   1.340
 6261SOL    HW219683   4.106   6.524   1.229
 6262SOL     OW19684   6.093   1.288   3.391
 6262SOL    HW119685   6.078   1.191   3.372
 6262SOL    HW219686   6.039   1.344   3.328
 6263SOL     OW19687   6.292   6.274   6.103
 6263SOL    HW119688   6.232   6.304   6.029
 6263SOL    HW219689   6.320   6.353   6.157
 6264SOL     OW19690   1.212   6.310   1.113
 6264SOL    HW119691   1.204   6.230   1.054
 6264SOL    HW219692   1.180   6.288   1.205
 6265SOL     OW19693   4.048   6.438   6.977
 6265SOL    HW119694   4.055   6.537   6.972
 6265SOL    HW219695   4.123   6.396   6.925
 6266SOL     OW19696   2.709   5.368   3.418
 6266SOL    HW119697   2.772   5.305   3.464
 6266SOL    HW219698   2.738   5.463   3.436
 6267SOL     OW19699   0.675   6.345   4.277
 6267SOL    HW119700   0.721   6.393   4.203
 6267SOL    HW219701   0.579   6.329   4.253
 6268SOL     OW19702   2.982   1.263   1.775
 6268SOL    HW119703   2.889   1.227   1.762
 6268SOL    HW219704   2.978   1.362   1.783
 6269SOL     OW19705   6.961   6.052   0.533
 6269SOL    HW119706   6.880   6.090   0.579
 6269SOL    HW219707   6.995   6.118   0.466
 6270SOL     OW19708   1.921   6.149   0.981
 6270SOL    HW119709   1.900   6.190   0.892
 6270SOL    HW219710   2.020   6.140   0.991
 6271SOL     OW19711   7.009   3.540   6.216
 6271SOL    HW119712   0.036   3.547   6.126
 6271SOL    HW219713   6.978   3.630   6.246
 6272SOL     OW19714   0.138   0.991   0.565
 6272SOL    HW119715   0.059   1.049   0.542
 6272SOL    HW219716   0.214   1.015   0.505
 6273SOL     OW19717   0.558   6.020   3.077
 6273SOL    HW119718   0.464   5.987   3.080
 6273SOL    HW219719   0.598   6.015   3.169
 6274SOL     OW19720   3.335   5.875   4.086
 6274SOL    HW119721   3.320   5.844   3.992
 6274SOL    HW219722   3.297   5.808   4.149
 6275SOL     OW19723   2.966   5.412   1.522
 6275SOL    HW119724   2.964   5.406   1.423
 6275SOL    HW219725   2.923   5.330   1.561
 6276SOL     OW19726   1.493   4.555   1.951
 6276SOL    HW119727   1.456   4.647   1.966
 6276SOL    HW219728   1.486   4.502   2.035
 6277SOL     OW19729   5.238   2.366   1.185
 6277SOL    HW119730   5.215   2.360   1.088
 6277SOL    HW219731   5.227   2.461   1.215
 6278SOL     OW19732   3.431   2.850   0.132
 6278SOL    HW119733   3.510   2.827   0.189
 6278SOL    HW219734   3.424   2.784   0.057
 6279SOL     OW19735   1.270   6.726   2.290
 6279SOL    HW119736   1.197   6.657   2.286
 6279SOL    HW219737   1.308   6.740   2.199
 6280SOL     OW19738   4.834   1.013   6.831
 6280SOL    HW119739   4.775   0.999   6.909
 6280SOL    HW219740   4.929   0.994   6.856
 6281SOL     OW19741   5.823   3.838   5.981
 6281SOL    HW119742   5.771   3.921   6.003
 6281SOL    HW219743   5.918   3.850   6.011
 6282SOL     OW19744   0.375   4.000   5.862
 6282SOL    HW119745   0.432   3.973   5.784
 6282SOL    HW219746   0.428   3.992   5.946
 6283SOL     OW19747   2.234   0.158   4.268
 6283SOL    HW119748   2.145   0.114   4.268
 6283SOL    HW219749   2.254   0.193   4.360
 6284SOL     OW19750   1.647   3.837   6.434
 6284SOL    HW119751   1.582   3.791   6.494
 6284SOL    HW219752   1.740   3.826   6.470
 6285SOL     OW19753   1.511   4.397   3.403
 6285SOL    HW119754   1.466   4.309   3.386
 6285SOL    HW219755   1.445   4.461   3.441
 6286SOL     OW19756   1.080   3.120   6.769
 6286SOL    HW119757   0.991   3.077   6.754
 6286SOL    HW219758   1.152   3.055   6.747
 6287SOL     OW19759   4.337   5.239   5.367
 6287SOL    HW119760   4.271   5.245   5.442
 6287SOL    HW219761   4.406   5.169   5.389
 6288SOL     OW19762   3.429   4.153   5.573
 6288SOL    HW119763   3.460   4.134   5.480
 6288SOL    HW219764   3.457   4.246   5.599
 6289SOL     OW19765   2.384   4.832   5.398
 6289SOL    HW119766   2.416   4.914   5.446
 6289SOL    HW219767   2.402   4.752   5.455
 6290SOL     OW19768   6.681   0.274   3.014
 6290SOL    HW119769   6.612   0.282   2.943
 6290SOL    HW219770   6.684   0.179   3.047
 6291SOL     OW19771   3.022   3.224   2.268
 6291SOL    HW119772   3.061   3.133   2.284
 6291SOL    HW219773   3.075   3.291   2.320
 6292SOL     OW19774   1.067   4.050   4.905
 6292SOL    HW119775   1.060   4.149   4.912
 6292SOL    HW219776   1.151   4.026   4.856
 6293SOL     OW19777   2.655   1.068   0.520
 6293SOL    HW119778   2.557   1.086   0.522
 6293SOL    HW219779   2.676   1.005   0.445
 6294SOL     OW19780   1.834   0.482   2.101
 6294SOL    HW119781   1.853   0.426   2.182
 6294SOL    HW219782   1.781   0.562   2.129
 6295SOL     OW19783   4.457   2.094   5.688
 6295SOL    HW119784   4.381   2.096   5.624
 6295SOL    HW219785   4.457   2.178   5.744
 6296SOL     OW19786   6.738   2.125   0.270
 6296SOL    HW119787   6.717   2.041   0.320
 6296SOL    HW219788   6.698   2.203   0.318
 6297SOL     OW19789   6.996   1.298   4.593
 6297SOL    HW119790   6.918   1.361   4.582
 6297SOL    HW219791   0.065   1.347   4.571
 6298SOL     OW19792   6.556   0.696   6.529
 6298SOL    HW119793   6.584   0.600   6.534
 6298SOL    HW219794   6.540   0.731   6.621
 6299SOL     OW19795   3.339   1.566   3.768
 6299SOL    HW119796   3.359   1.478   3.724
 6299SOL    HW219797   3.388   1.571   3.855
 6300SOL     OW19798   2.781   2.313   1.478
 6300SOL    HW119799   2.858   2.374   1.459
 6300SOL    HW219800   2.741   2.283   1.391
 6301SOL     OW19801   3.964   6.620   1.188
 6301SOL    HW119802   4.018   6.656   1.113
 6301SOL    HW219803   3.869   6.607   1.158
 6302SOL     OW19804   1.616   3.645   0.278
 6302SOL    HW119805   1.623   3.684   0.186
 6302SOL    HW219806   1.679   3.693   0.339
 6303SOL     OW19807   6.674   4.643   4.972
 6303SOL    HW119808   6.704   4.687   5.057
 6303SOL    HW219809   6.629   4.556   4.993
 6304SOL     OW19810   2.147   2.233   4.351
 6304SOL    HW119811   2.086   2.202   4.278
 6304SOL    HW219812   2.188   2.154   4.396
 6305SOL     OW19813   1.183   5.813   5.009
 6305SOL    HW119814   1.174   5.722   4.967
 6305SOL    HW219815   1.197   5.804   5.107
 6306SOL     OW19816   0.842   4.111   4.206
 6306SOL    HW119817   0.771   4.164   4.159
 6306SOL    HW219818   0.886   4.169   4.275
 6307SOL     OW19819   2.887   3.450   3.176
 6307SOL    HW119820   2.906   3.500   3.092
 6307SOL    HW219821   2.789   3.429   3.180
 6308SOL     OW19822   0.823   1.211   1.295
 6308SOL    HW119823   0.725   1.227   1.305
 6308SOL    HW219824   0.859   1.167   1.377
 6309SOL     OW19825   1.844   6.068   5.237
 6309SOL    HW119826   1.775   6.053   5.307
 6309SOL    HW219827   1.923   6.008   5.253
 6310SOL     OW19828   0.945   6.629   3.206
 6310SOL    HW119829   0.846   6.620   3.216
 6310SOL    HW219830   0.991   6.572   3.274
 6311SOL     OW19831   6.071   1.434   6.355
 6311SOL    HW119832   6.141   1.364   6.348
 6311SOL    HW219833   6.075   1.493   6.274
 6312SOL     OW19834   3.766   5.596   1.380
 6312SOL    HW119835   3.815   5.654   1.315
 6312SOL    HW219836   3.749   5.507   1.338
 6313SOL     OW19837   5.579   4.471   2.558
 6313SOL    HW119838   5.643   4.546   2.543
 6313SOL    HW219839   5.485   4.505   2.557
 6314SOL     OW19840   1.975   6.598   3.152
 6314SOL    HW119841   2.047   6.661   3.179
 6314SOL    HW219842   1.994   6.564   3.059
 6315SOL     OW19843   2.122   2.628   3.182
 6315SOL    HW119844   2.112   2.633   3.282
 6315SOL    HW219845   2.040   2.665   3.138
 6316SOL     OW19846   4.695   0.554   4.611
 6316SOL    HW119847   4.724   0.495   4.536
 6316SOL    HW219848   4.729   0.647   4.595
 6317SOL     OW19849   4.893   3.902   3.268
 6317SOL    HW119850   4.853   3.904   3.176
 6317SOL    HW219851   4.962   3.974   3.275
 6318SOL     OW19852   5.610   0.117   0.098
 6318SOL    HW119853   5.625   0.107   7.015
 6318SOL    HW219854   5.520   0.082   0.122
 6319SOL     OW19855   4.671   2.736   4.208
 6319SOL    HW119856   4.600   2.665   4.210
 6319SOL    HW219857   4.693   2.765   4.301
 6320SOL     OW19858   6.133   2.138   6.246
 6320SOL    HW119859   6.184   2.195   6.311
 6320SOL    HW219860   6.095   2.196   6.174
 6321SOL     OW19861   1.043   4.054   0.368
 6321SOL    HW119862   0.960   4.104   0.393
 6321SOL    HW219863   1.029   4.010   0.279
 6322SOL     OW19864   2.235   1.602   2.837
 6322SOL    HW119865   2.254   1.670   2.765
 6322SOL    HW219866   2.301   1.528   2.830
 6323SOL     OW19867   2.174   6.085   0.990
 6323SOL    HW119868   2.213   6.080   1.082
 6323SOL    HW219869   2.138   5.995   0.965
 6324SOL     OW19870   5.069   3.989   1.156
 6324SOL    HW119871   5.000   4.014   1.087
 6324SOL    HW219872   5.108   4.073   1.194
 6325SOL     OW19873   1.214   3.385   4.168
 6325SOL    HW119874   1.218   3.286   4.164
 6325SOL    HW219875   1.307   3.422   4.169
 6326SOL     OW19876   4.845   5.244   4.938
 6326SOL    HW119877   4.849   5.344   4.934
 6326SOL    HW219878   4.875   5.213   5.028
 6327SOL     OW19879   0.928   0.996   2.759
 6327SOL    HW119880   0.937   0.906   2.716
 6327SOL    HW219881   0.831   1.020   2.766
 6328SOL     OW19882   4.160   3.431   4.704
 6328SOL    HW119883   4.064   3.405   4.715
 6328SOL    HW219884   4.212   3.351   4.673
 6329SOL     OW19885   0.045   3.084   4.845
 6329SOL    HW119886   0.054   2.985   4.860
 6329SOL    HW219887   0.008   3.127   4.927
 6330SOL     OW19888   4.521   1.993   3.192
 6330SOL    HW119889   4.533   1.910   3.247
 6330SOL    HW219890   4.573   2.067   3.233
 6331SOL     OW19891   1.796   3.503   3.476
 6331SOL    HW119892   1.814   3.484   3.379
 6331SOL    HW219893   1.825   3.424   3.531
 6332SOL     OW19894   4.566   2.374   0.334
 6332SOL    HW119895   4.597   2.420   0.250
 6332SOL    HW219896   4.618   2.289   0.346
 6333SOL     OW19897   6.019   1.086   0.188
 6333SOL    HW119898   6.065   1.145   0.255
 6333SOL    HW219899   6.007   1.135   0.102
 6334SOL     OW19900   2.176   1.135   1.515
 6334SOL    HW119901   2.182   1.146   1.614
 6334SOL    HW219902   2.245   1.192   1.470
 6335SOL     OW19903   5.687   2.580   5.287
 6335SOL    HW119904   5.660   2.555   5.380
 6335SOL    HW219905   5.713   2.676   5.285
 6336SOL     OW19906   0.741   5.472   6.095
 6336SOL    HW119907   0.671   5.535   6.062
 6336SOL    HW219908   0.763   5.405   6.025
 6337SOL     OW19909   6.005   0.362   5.594
 6337SOL    HW119910   5.908   0.363   5.614
 6337SOL    HW219911   6.020   0.319   5.504
 6338SOL     OW19912   0.884   0.730   2.664
 6338SOL    HW119913   0.798   0.693   2.628
 6338SOL    HW219914   0.957   0.716   2.598
 6339SOL     OW19915   6.739   3.738   3.512
 6339SOL    HW119916   6.725   3.836   3.495
 6339SOL    HW219917   6.826   3.725   3.560
 6340SOL     OW19918   2.286   5.454   6.374
 6340SOL    HW119919   2.271   5.375   6.434
 6340SOL    HW219920   2.255   5.432   6.282
 6341SOL     OW19921   0.835   4.394   2.686
 6341SOL    HW119922   0.864   4.315   2.633
 6341SOL    HW219923   0.869   4.478   2.642
 6342SOL     OW19924   2.301   0.016   1.381
 6342SOL    HW119925   2.395   7.016   1.408
 6342SOL    HW219926   2.246   6.951   1.399
 6343SOL     OW19927   1.593   5.066   6.851
 6343SOL    HW119928   1.536   5.100   6.776
 6343SOL    HW219929   1.548   4.988   6.895
 6344SOL     OW19930   1.579   1.321   4.329
 6344SOL    HW119931   1.508   1.365   4.384
 6344SOL    HW219932   1.537   1.285   4.245
 6345SOL     OW19933   0.510   3.204   3.322
 6345SOL    HW119934   0.510   3.225   3.420
 6345SOL    HW219935   0.593   3.152   3.300
 6346SOL     OW19936   0.783   4.261   3.788
 6346SOL    HW119937   0.716   4.246   3.860
 6346SOL    HW219938   0.832   4.176   3.769
 6347SOL     OW19939   1.958   2.044   2.763
 6347SOL    HW119940   2.042   1.997   2.792
 6347SOL    HW219941   1.938   2.020   2.668
 6348SOL     OW19942   1.561   2.917   0.107
 6348SOL    HW119943   1.463   2.903   0.096
 6348SOL    HW219944   1.611   2.871   0.034
 6349SOL     OW19945   6.320   1.478   0.919
 6349SOL    HW119946   6.368   1.412   0.976
 6349SOL    HW219947   6.227   1.446   0.902
 6350SOL     OW19948   0.447   6.932   1.316
 6350SOL    HW119949   0.473   6.852   1.261
 6350SOL    HW219950   0.457   6.910   1.413
 6351SOL     OW19951   6.176   2.574   2.121
 6351SOL    HW119952   6.134   2.583   2.211
 6351SOL    HW219953   6.239   2.650   2.106
 6352SOL     OW19954   4.026   0.840   4.844
 6352SOL    HW119955   4.035   0.741   4.841
 6352SOL    HW219956   4.008   0.869   4.938
 6353SOL     OW19957   4.063   5.961   5.846
 6353SOL    HW119958   3.973   6.003   5.844
 6353SOL    HW219959   4.133   6.032   5.856
 6354SOL     OW19960   5.742   4.666   2.478
 6354SOL    HW119961   5.841   4.654   2.477
 6354SOL    HW219962   5.702   4.626   2.396
 6355SOL     OW19963   4.835   6.087   6.806
 6355SOL    HW119964   4.803   6.086   6.900
 6355SOL    HW219965   4.836   5.993   6.770
 6356SOL     OW19966   0.546   6.750   6.147
 6356SOL    HW119967   0.601   6.746   6.063
 6356SOL    HW219968   0.605   6.776   6.223
 6357SOL     OW19969   4.932   1.713   2.721
 6357SOL    HW119970   4.988   1.687   2.643
 6357SOL    HW219971   4.835   1.698   2.699
 6358SOL     OW19972   1.435   1.338   4.829
 6358SOL    HW119973   1.474   1.250   4.800
 6358SOL    HW219974   1.345   1.349   4.787
 6359SOL     OW19975   6.371   4.483   0.679
 6359SOL    HW119976   6.376   4.561   0.616
 6359SOL    HW219977   6.398   4.512   0.770
 6360SOL     OW19978   2.754   2.845   0.624
 6360SOL    HW119979   2.719   2.870   0.715
 6360SOL    HW219980   2.723   2.753   0.600
 6361SOL     OW19981   0.103   2.692   2.534
 6361SOL    HW119982   0.195   2.692   2.573
 6361SOL    HW219983   0.046   2.759   2.581
 6362SOL     OW19984   2.247   5.566   0.502
 6362SOL    HW119985   2.327   5.601   0.454
 6362SOL    HW219986   2.255   5.467   0.513
 6363SOL     OW19987   1.094   2.665   1.641
 6363SOL    HW119988   1.150   2.747   1.646
 6363SOL    HW219989   1.048   2.650   1.728
 6364SOL     OW19990   2.621   1.775   4.416
 6364SOL    HW119991   2.706   1.828   4.415
 6364SOL    HW219992   2.560   1.809   4.344
 6365SOL     OW19993   6.442   6.786   2.335
 6365SOL    HW119994   6.505   6.800   2.258
 6365SOL    HW219995   6.442   6.867   2.394
 6366SOL     OW19996   5.450   1.247   4.934
 6366SOL    HW119997   5.382   1.314   4.905
 6366SOL    HW219998   5.516   1.232   4.860
 6367SOL     OW19999   1.489   3.091   4.755
 6367SOL    HW120000   1.521   3.058   4.666
 6367SOL    HW220001   1.489   3.016   4.821
 6368SOL     OW20002   5.188   3.163   5.285
 6368SOL    HW120003   5.217   3.254   5.314
 6368SOL    HW220004   5.181   3.161   5.185
 6369SOL     OW20005   3.284   4.670   0.567
 6369SOL    HW120006   3.347   4.673   0.644
 6369SOL    HW220007   3.309   4.595   0.505
 6370SOL     OW20008   6.385   3.567   4.896
 6370SOL    HW120009   6.327   3.619   4.834
 6370SOL    HW220010   6.466   3.620   4.919
 6371SOL     OW20011   6.256   4.600   1.127
 6371SOL    HW120012   6.275   4.604   1.225
 6371SOL    HW220013   6.215   4.512   1.105
 6372SOL     OW20014   6.193   1.433   1.362
 6372SOL    HW120015   6.276   1.420   1.416
 6372SOL    HW220016   6.209   1.504   1.293
 6373SOL     OW20017   5.558   1.761   1.359
 6373SOL    HW120018   5.617   1.759   1.278
 6373SOL    HW220019   5.466   1.789   1.332
 6374SOL     OW20020   3.607   3.041   6.348
 6374SOL    HW120021   3.614   2.984   6.266
 6374SOL    HW220022   3.654   3.128   6.332
 6375SOL     OW20023   5.685   0.980   1.954
 6375SOL    HW120024   5.635   1.047   1.899
 6375SOL    HW220025   5.627   0.900   1.970
 6376SOL     OW20026   3.055   6.734   0.192
 6376SOL    HW120027   3.050   6.669   0.268
 6376SOL    HW220028   3.135   6.715   0.136
 6377SOL     OW20029   6.976   1.010   0.173
 6377SOL    HW120030   0.058   1.031   0.179
 6377SOL    HW220031   6.960   0.917   0.206
 6378SOL     OW20032   5.739   4.100   3.322
 6378SOL    HW120033   5.815   4.066   3.378
 6378SOL    HW220034   5.776   4.153   3.246
 6379SOL     OW20035   2.647   5.202   6.661
 6379SOL    HW120036   2.702   5.120   6.672
 6379SOL    HW220037   2.645   5.253   6.748
 6380SOL     OW20038   2.164   2.899   4.354
 6380SOL    HW120039   2.074   2.911   4.314
 6380SOL    HW220040   2.179   2.969   4.424
 6381SOL     OW20041   3.172   4.672   0.941
 6381SOL    HW120042   3.242   4.668   1.012
 6381SOL    HW220043   3.122   4.585   0.940
 6382SOL     OW20044   1.595   1.082   0.802
 6382SOL    HW120045   1.612   1.100   0.898
 6382SOL    HW220046   1.604   1.167   0.749
 6383SOL     OW20047   2.702   1.690   2.540
 6383SOL    HW120048   2.722   1.609   2.595
 6383SOL    HW220049   2.745   1.680   2.450
 6384SOL     OW20050   0.211   1.595   2.174
 6384SOL    HW120051   0.167   1.543   2.101
 6384SOL    HW220052   0.255   1.533   2.238
 6385SOL     OW20053   0.293   4.000   1.326
 6385SOL    HW120054   0.199   3.973   1.347
 6385SOL    HW220055   0.305   4.005   1.227
 6386SOL     OW20056   2.927   4.216   0.258
 6386SOL    HW120057   2.928   4.307   0.215
 6386SOL    HW220058   2.834   4.197   0.290
 6387SOL     OW20059   6.389   1.235   5.564
 6387SOL    HW120060   6.326   1.224   5.488
 6387SOL    HW220061   6.483   1.215   5.534
 6388SOL     OW20062   6.229   5.009   1.999
 6388SOL    HW120063   6.240   5.012   1.900
 6388SOL    HW220064   6.207   5.100   2.033
 6389SOL     OW20065   6.500   6.641   0.867
 6389SOL    HW120066   6.592   6.658   0.831
 6389SOL    HW220067   6.507   6.611   0.962
 6390SOL     OW20068   4.770   6.290   0.202
 6390SOL    HW120069   4.746   6.357   0.132
 6390SOL    HW220070   4.711   6.304   0.282
 6391SOL     OW20071   1.054   2.064   5.243
 6391SOL    HW120072   1.022   2.140   5.187
 6391SOL    HW220073   1.043   1.978   5.192
 6392SOL     OW20074   4.672   6.474   3.603
 6392SOL    HW120075   4.597   6.429   3.555
 6392SOL    HW220076   4.645   6.567   3.630
 6393SOL     OW20077   2.399   4.870   6.915
 6393SOL    HW120078   2.416   4.780   6.955
 6393SOL    HW220079   2.483   4.923   6.914
 6394SOL     OW20080   1.446   5.758   2.039
 6394SOL    HW120081   1.444   5.658   2.046
 6394SOL    HW220082   1.533   5.792   2.072
 6395SOL     OW20083   1.140   4.042   5.229
 6395SOL    HW120084   1.178   3.994   5.150
 6395SOL    HW220085   1.185   4.132   5.238
 6396SOL     OW20086   0.974   3.158   4.495
 6396SOL    HW120087   0.982   3.229   4.565
 6396SOL    HW220088   1.066   3.128   4.469
 6397SOL     OW20089   0.043   3.640   4.807
 6397SOL    HW120090   0.035   3.558   4.865
 6397SOL    HW220091   0.099   3.618   4.727
 6398SOL     OW20092   0.820   0.153   2.976
 6398SOL    HW120093   0.850   0.118   2.887
 6398SOL    HW220094   0.785   0.246   2.965
 6399SOL     OW20095   2.736   6.942   6.978
 6399SOL    HW120096   2.779   7.004   6.913
 6399SOL    HW220097   2.637   6.942   6.963
 6400SOL     OW20098   0.771   6.116   2.926
 6400SOL    HW120099   0.690   6.059   2.942
 6400SOL    HW220100   0.760   6.167   2.841
 6401SOL     OW20101   4.139   4.802   1.584
 6401SOL    HW120102   4.079   4.875   1.551
 6401SOL    HW220103   4.085   4.719   1.601
 6402SOL     OW20104   3.347   3.500   5.904
 6402SOL    HW120105   3.316   3.496   5.809
 6402SOL    HW220106   3.420   3.433   5.919
 6403SOL     OW20107   3.867   5.270   5.575
 6403SOL    HW120108   3.953   5.232   5.541
 6403SOL    HW220109   3.872   5.279   5.675
 6404SOL     OW20110   5.152   6.062   5.953
 6404SOL    HW120111   5.109   5.976   5.925
 6404SOL    HW220112   5.251   6.051   5.954
 6405SOL     OW20113   4.520   0.709   3.340
 6405SOL    HW120114   4.445   0.659   3.297
 6405SOL    HW220115   4.510   0.807   3.321
 6406SOL     OW20116   0.321   3.377   2.022
 6406SOL    HW120117   0.353   3.431   2.100
 6406SOL    HW220118   0.288   3.438   1.950
 6407SOL     OW20119   0.429   0.236   2.494
 6407SOL    HW120120   0.501   0.169   2.477
 6407SOL    HW220121   0.339   0.194   2.479
 6408SOL     OW20122   6.876   1.199   1.859
 6408SOL    HW120123   6.884   1.292   1.896
 6408SOL    HW220124   6.931   1.192   1.776
 6409SOL     OW20125   6.235   4.313   3.932
 6409SOL    HW120126   6.243   4.287   4.028
 6409SOL    HW220127   6.180   4.397   3.925
 6410SOL     OW20128   1.441   0.597   6.740
 6410SOL    HW120129   1.423   0.688   6.775
 6410SOL    HW220130   1.539   0.586   6.722
 6411SOL     OW20131   1.214   2.377   4.181
 6411SOL    HW120132   1.209   2.471   4.217
 6411SOL    HW220133   1.305   2.359   4.146
 6412SOL     OW20134   4.162   0.388   6.975
 6412SOL    HW120135   4.163   0.487   6.959
 6412SOL    HW220136   4.219   0.342   6.906
 6413SOL     OW20137   4.411   5.822   3.241
 6413SOL    HW120138   4.470   5.848   3.317
 6413SOL    HW220139   4.349   5.749   3.271
 6414SOL     OW20140   3.634   0.489   0.430
 6414SOL    HW120141   3.694   0.568   0.416
 6414SOL    HW220142   3.679   0.407   0.394
 6415SOL     OW20143   6.919   1.956   3.494
 6415SOL    HW120144   6.835   1.971   3.442
 6415SOL    HW220145   6.996   1.999   3.445
 6416SOL     OW20146   2.873   4.393   0.042
 6416SOL    HW120147   2.776   4.375   0.029
 6416SOL    HW220148   2.885   4.475   0.097
 6417SOL     OW20149   4.681   3.436   6.232
 6417SOL    HW120150   4.603   3.437   6.170
 6417SOL    HW220151   4.694   3.527   6.272
 6418SOL     OW20152   5.102   5.406   0.406
 6418SOL    HW120153   5.037   5.426   0.334
 6418SOL    HW220154   5.187   5.457   0.390
 6419SOL     OW20155   1.327   6.796   6.251
 6419SOL    HW120156   1.423   6.819   6.267
 6419SOL    HW220157   1.318   6.751   6.163
 6420SOL     OW20158   2.046   5.011   3.248
 6420SOL    HW120159   2.071   5.066   3.327
 6420SOL    HW220160   2.093   4.923   3.253
 6421SOL     OW20161   4.918   6.635   1.750
 6421SOL    HW120162   4.945   6.545   1.784
 6421SOL    HW220163   4.963   6.706   1.804
 6422SOL     OW20164   1.107   1.273   5.152
 6422SOL    HW120165   1.193   1.323   5.147
 6422SOL    HW220166   1.031   1.337   5.151
 6423SOL     OW20167   1.251   3.812   4.270
 6423SOL    HW120168   1.323   3.783   4.207
 6423SOL    HW220169   1.252   3.912   4.279
 6424SOL     OW20170   6.564   4.195   5.668
 6424SOL    HW120171   6.626   4.268   5.698
 6424SOL    HW220172   6.613   4.131   5.610
 6425SOL     OW20173   1.014   0.102   5.167
 6425SOL    HW120174   1.080   0.028   5.154
 6425SOL    HW220175   1.036   0.152   5.251
 6426SOL     OW20176   3.491   5.116   3.620
 6426SOL    HW120177   3.576   5.162   3.645
 6426SOL    HW220178   3.474   5.041   3.684
 6427SOL     OW20179   3.253   3.517   3.127
 6427SOL    HW120180   3.295   3.543   3.039
 6427SOL    HW220181   3.257   3.418   3.138
 6428SOL     OW20182   6.348   2.834   0.252
 6428SOL    HW120183   6.393   2.874   0.331
 6428SOL    HW220184   6.339   2.902   0.179
 6429SOL     OW20185   2.856   1.754   4.714
 6429SOL    HW120186   2.777   1.775   4.771
 6429SOL    HW220187   2.853   1.657   4.689
 6430SOL     OW20188   6.508   1.715   4.783
 6430SOL    HW120189   6.415   1.752   4.772
 6430SOL    HW220190   6.574   1.790   4.785
 6431SOL     OW20191   3.222   4.912   3.259
 6431SOL    HW120192   3.297   4.893   3.323
 6431SOL    HW220193   3.158   4.976   3.301
 6432SOL     OW20194   4.547   3.354   6.888
 6432SOL    HW120195   4.507   3.263   6.899
 6432SOL    HW220196   4.625   3.349   6.826
 6433SOL     OW20197   3.971   5.199   6.290
 6433SOL    HW120198   3.996   5.292   6.263
 6433SOL    HW220199   3.945   5.199   6.387
 6434SOL     OW20200   6.468   4.925   6.028
 6434SOL    HW120201   6.529   4.846   6.014
 6434SOL    HW220202   6.382   4.908   5.981
 6435SOL     OW20203   4.631   1.298   0.973
 6435SOL    HW120204   4.613   1.243   0.891
 6435SOL    HW220205   4.546   1.311   1.024
 6436SOL     OW20206   0.991   1.917   4.219
 6436SOL    HW120207   1.056   1.841   4.211
 6436SOL    HW220208   1.013   1.971   4.299
 6437SOL     OW20209   1.395   2.865   6.488
 6437SOL    HW120210   1.489   2.881   6.520
 6437SOL    HW220211   1.391   2.877   6.389
 6438SOL     OW20212   0.502   5.831   1.023
 6438SOL    HW120213   0.490   5.776   1.105
 6438SOL    HW220214   0.447   5.793   0.948
 6439SOL     OW20215   4.224   6.449   2.885
 6439SOL    HW120216   4.162   6.373   2.905
 6439SOL    HW220217   4.170   6.528   2.854
 6440SOL     OW20218   2.280   2.309   5.635
 6440SOL    HW120219   2.318   2.336   5.547
 6440SOL    HW220220   2.230   2.223   5.624
 6441SOL     OW20221   1.551   1.947   1.207
 6441SOL    HW120222   1.540   1.931   1.109
 6441SOL    HW220223   1.549   1.860   1.256
 6442SOL     OW20224   3.016   1.670   4.386
 6442SOL    HW120225   3.108   1.696   4.415
 6442SOL    HW220226   2.953   1.745   4.404
 6443SOL     OW20227   2.786   2.226   5.837
 6443SOL    HW120228   2.781   2.126   5.839
 6443SOL    HW220229   2.860   2.254   5.776
 6444SOL     OW20230   0.029   4.249   5.593
 6444SOL    HW120231   0.119   4.230   5.555
 6444SOL    HW220232   6.974   4.223   5.527
 6445SOL     OW20233   3.485   3.105   3.708
 6445SOL    HW120234   3.409   3.041   3.692
 6445SOL    HW220235   3.448   3.191   3.744
 6446SOL     OW20236   1.643   0.275   1.576
 6446SOL    HW120237   1.623   0.248   1.670
 6446SOL    HW220238   1.646   0.195   1.518
 6447SOL     OW20239   6.668   3.824   1.527
 6447SOL    HW120240   6.574   3.838   1.560
 6447SOL    HW220241   6.730   3.822   1.605
 6448SOL     OW20242   4.079   4.395   1.491
 6448SOL    HW120243   4.108   4.302   1.509
 6448SOL    HW220244   4.004   4.395   1.426
 6449SOL     OW20245   4.399   5.656   0.237
 6449SOL    HW120246   4.383   5.626   0.332
 6449SOL    HW220247   4.350   5.742   0.221
 6450SOL     OW20248   4.515   3.337   0.723
 6450SOL    HW120249   4.524   3.271   0.798
 6450SOL    HW220250   4.428   3.324   0.676
 6451SOL     OW20251   4.468   2.914   1.181
 6451SOL    HW120252   4.517   2.979   1.240
 6451SOL    HW220253   4.428   2.842   1.237
 6452SOL     OW20254   4.418   2.052   4.686
 6452SOL    HW120255   4.452   2.144   4.705
 6452SOL    HW220256   4.495   1.992   4.665
 6453SOL     OW20257   2.883   0.989   3.184
 6453SOL    HW120258   2.941   0.907   3.179
 6453SOL    HW220259   2.790   0.962   3.207
 6454SOL     OW20260   5.003   3.627   5.681
 6454SOL    HW120261   5.030   3.532   5.700
 6454SOL    HW220262   5.054   3.661   5.602
 6455SOL     OW20263   0.278   2.739   5.371
 6455SOL    HW120264   0.342   2.681   5.321
 6455SOL    HW220265   0.329   2.795   5.438
 6456SOL     OW20266   6.160   2.117   3.016
 6456SOL    HW120267   6.107   2.100   3.098
 6456SOL    HW220268   6.230   2.046   3.006
 6457SOL     OW20269   1.392   5.938   3.417
 6457SOL    HW120270   1.445   5.967   3.497
 6457SOL    HW220271   1.394   6.010   3.348
 6458SOL     OW20272   1.206   0.396   5.131
 6458SOL    HW120273   1.255   0.314   5.102
 6458SOL    HW220274   1.185   0.389   5.228
 6459SOL     OW20275   0.704   3.451   3.294
 6459SOL    HW120276   0.792   3.432   3.250
 6459SOL    HW220277   0.639   3.378   3.274
 6460SOL     OW20278   1.612   5.404   5.766
 6460SOL    HW120279   1.677   5.416   5.841
 6460SOL    HW220280   1.519   5.413   5.801
 6461SOL     OW20281   0.475   0.023   2.315
 6461SOL    HW120282   0.426   0.092   2.263
 6461SOL    HW220283   0.415   6.961   2.333
 6462SOL     OW20284   2.391   4.423   5.380
 6462SOL    HW120285   2.403   4.329   5.348
 6462SOL    HW220286   2.296   4.451   5.368
 6463SOL     OW20287   4.773   3.184   1.673
 6463SOL    HW120288   4.711   3.125   1.724
 6463SOL    HW220289   4.819   3.131   1.601
 6464SOL     OW20290   0.938   3.532   3.478
 6464SOL    HW120291   0.896   3.442   3.490
 6464SOL    HW220292   1.030   3.531   3.517
 6465SOL     OW20293   2.424   1.382   2.879
 6465SOL    HW120294   2.509   1.416   2.921
 6465SOL    HW220295   2.378   1.320   2.942
 6466SOL     OW20296   6.307   5.761   6.392
 6466SOL    HW120297   6.372   5.708   6.446
 6466SOL    HW220298   6.234   5.701   6.359
 6467SOL     OW20299   2.841   3.311   5.737
 6467SOL    HW120300   2.879   3.386   5.792
 6467SOL    HW220301   2.905   3.287   5.664
 6468SOL     OW20302   0.948   0.890   0.557
 6468SOL    HW120303   1.000   0.843   0.486
 6468SOL    HW220304   0.985   0.982   0.570
 6469SOL     OW20305   2.683   0.971   0.803
 6469SOL    HW120306   2.678   1.000   0.707
 6469SOL    HW220307   2.591   0.970   0.842
 6470SOL     OW20308   5.740   0.933   6.704
 6470SOL    HW120309   5.756   0.870   6.627
 6470SOL    HW220310   5.753   0.884   6.790
 6471SOL     OW20311   1.059   6.273   5.362
 6471SOL    HW120312   1.046   6.246   5.267
 6471SOL    HW220313   1.073   6.372   5.368
 6472SOL     OW20314   0.607   6.364   1.302
 6472SOL    HW120315   0.639   6.413   1.383
 6472SOL    HW220316   0.683   6.352   1.238
 6473SOL     OW20317   2.964   1.802   3.711
 6473SOL    HW120318   2.883   1.847   3.673
 6473SOL    HW220319   2.980   1.834   3.804
 6474SOL     OW20320   3.750   0.017   4.420
 6474SOL    HW120321   3.759   6.939   4.387
 6474SOL    HW220322   3.790   0.080   4.353
 6475SOL     OW20323   5.163   5.877   3.588
 6475SOL    HW120324   5.185   5.794   3.640
 6475SOL    HW220325   5.068   5.873   3.558
 6476SOL     OW20326   5.304   3.981   5.423
 6476SOL    HW120327   5.351   3.988   5.336
 6476SOL    HW220328   5.312   4.068   5.473
 6477SOL     OW20329   1.289   6.563   1.004
 6477SOL    HW120330   1.348   6.602   1.075
 6477SOL    HW220331   1.246   6.480   1.038
 6478SOL     OW20332   1.849   5.957   6.704
 6478SOL    HW120333   1.885   5.904   6.627
 6478SOL    HW220334   1.904   5.940   6.785
 6479SOL     OW20335   4.512   5.567   4.163
 6479SOL    HW120336   4.573   5.630   4.212
 6479SOL    HW220337   4.495   5.487   4.220
 6480SOL     OW20338   3.213   1.221   5.012
 6480SOL    HW120339   3.165   1.306   5.032
 6480SOL    HW220340   3.221   1.210   4.913
 6481SOL     OW20341   4.060   3.354   1.792
 6481SOL    HW120342   4.087   3.327   1.884
 6481SOL    HW220343   4.041   3.453   1.790
 6482SOL     OW20344   5.235   2.919   3.702
 6482SOL    HW120345   5.201   2.994   3.645
 6482SOL    HW220346   5.331   2.901   3.679
 6483SOL     OW20347   1.796   6.254   5.477
 6483SOL    HW120348   1.830   6.299   5.394
 6483SOL    HW220349   1.860   6.183   5.505
 6484SOL     OW20350   3.742   0.338   3.323
 6484SOL    HW120351   3.779   0.431   3.320
 6484SOL    HW220352   3.679   0.325   3.246
 6485SOL     OW20353   1.800   5.133   4.778
 6485SOL    HW120354   1.859   5.052   4.769
 6485SOL    HW220355   1.791   5.156   4.875
 6486SOL     OW20356   7.002   4.285   2.354
 6486SOL    HW120357   0.050   4.222   2.398
 6486SOL    HW220358   6.969   4.351   2.421
 6487SOL     OW20359   6.356   5.329   4.242
 6487SOL    HW120360   6.351   5.426   4.265
 6487SOL    HW220361   6.328   5.274   4.321
 6488SOL     OW20362   3.064   5.073   3.416
 6488SOL    HW120363   3.064   5.032   3.507
 6488SOL    HW220364   3.037   5.169   3.423
 6489SOL     OW20365   6.180   3.417   5.738
 6489SOL    HW120366   6.246   3.342   5.737
 6489SOL    HW220367   6.134   3.419   5.827
 6490SOL     OW20368   1.943   3.535   6.915
 6490SOL    HW120369   1.857   3.501   6.877
 6490SOL    HW220370   1.930   3.628   6.949
 6491SOL     OW20371   1.345   0.509   2.363
 6491SOL    HW120372   1.372   0.498   2.458
 6491SOL    HW220373   1.262   0.457   2.346
 6492SOL     OW20374   3.990   3.113   3.214
 6492SOL    HW120375   4.059   3.165   3.263
 6492SOL    HW220376   4.001   3.127   3.115
 6493SOL     OW20377   1.476   5.053   4.154
 6493SOL    HW120378   1.474   4.976   4.218
 6493SOL    HW220379   1.383   5.074   4.125
 6494SOL     OW20380   6.675   0.981   1.593
 6494SOL    HW120381   6.640   1.059   1.646
 6494SOL    HW220382   6.619   0.901   1.613
 6495SOL     OW20383   5.940   6.562   2.574
 6495SOL    HW120384   5.895   6.474   2.558
 6495SOL    HW220385   5.873   6.636   2.570
 6496SOL     OW20386   2.610   2.855   1.365
 6496SOL    HW120387   2.644   2.770   1.406
 6496SOL    HW220388   2.619   2.929   1.432
 6497SOL     OW20389   0.046   2.493   0.791
 6497SOL    HW120390   0.035   2.452   0.701
 6497SOL    HW220391   0.142   2.491   0.818
 6498SOL     OW20392   2.501   4.851   4.567
 6498SOL    HW120393   2.526   4.761   4.604
 6498SOL    HW220394   2.506   4.919   4.640
 6499SOL     OW20395   5.500   2.529   2.797
 6499SOL    HW120396   5.545   2.590   2.731
 6499SOL    HW220397   5.455   2.454   2.747
 6500SOL     OW20398   1.798   3.882   2.628
 6500SOL    HW120399   1.804   3.792   2.583
 6500SOL    HW220400   1.758   3.948   2.566
 6501SOL     OW20401   6.919   1.393   2.549
 6501SOL    HW120402   6.844   1.452   2.579
 6501SOL    HW220403   6.892   1.297   2.556
 6502SOL     OW20404   1.063   2.959   2.693
 6502SOL    HW120405   1.021   2.942   2.604
 6502SOL    HW220406   1.059   3.057   2.714
 6503SOL     OW20407   0.433   2.311   5.276
 6503SOL    HW120408   0.360   2.305   5.208
 6503SOL    HW220409   0.495   2.386   5.253
 6504SOL     OW20410   3.875   5.829   6.410
 6504SOL    HW120411   3.780   5.828   6.441
 6504SOL    HW220412   3.883   5.773   6.327
 6505SOL     OW20413   0.426   6.888   6.911
 6505SOL    HW120414   0.472   6.840   6.835
 6505SOL    HW220415   0.480   6.969   6.936
 6506SOL     OW20416   0.334   4.501   1.837
 6506SOL    HW120417   0.265   4.481   1.768
 6506SOL    HW220418   0.421   4.459   1.811
 6507SOL     OW20419   5.243   5.640   0.604
 6507SOL    HW120420   5.156   5.601   0.634
 6507SOL    HW220421   5.303   5.651   0.683
 6508SOL     OW20422   0.124   0.745   4.095
 6508SOL    HW120423   0.128   0.772   4.191
 6508SOL    HW220424   0.166   0.817   4.039
 6509SOL     OW20425   2.537   1.528   7.014
 6509SOL    HW120426   2.457   1.511   0.056
 6509SOL    HW220427   2.520   1.608   6.956
 6510SOL     OW20428   3.626   5.111   4.077
 6510SOL    HW120429   3.533   5.085   4.052
 6510SOL    HW220430   3.635   5.110   4.177
 6511SOL     OW20431   3.660   2.964   6.971
 6511SOL    HW120432   3.597   2.906   0.006
 6511SOL    HW220433   3.727   2.906   6.923
 6512SOL     OW20434   4.993   1.331   1.963
 6512SOL    HW120435   5.060   1.297   1.897
 6512SOL    HW220436   4.967   1.256   2.024
 6513SOL     OW20437   3.436   4.961   2.082
 6513SOL    HW120438   3.504   4.889   2.068
 6513SOL    HW220439   3.444   5.028   2.008
 6514SOL     OW20440   5.011   5.833   5.909
 6514SOL    HW120441   5.001   5.783   5.823
 6514SOL    HW220442   4.930   5.890   5.925
 6515SOL     OW20443   0.826   4.944   2.349
 6515SOL    HW120444   0.794   4.859   2.391
 6515SOL    HW220445   0.749   4.991   2.305
 6516SOL     OW20446   5.788   1.029   3.490
 6516SOL    HW120447   5.885   1.015   3.507
 6516SOL    HW220448   5.740   1.036   3.577
 6517SOL     OW20449   6.599   4.379   0.560
 6517SOL    HW120450   6.531   4.440   0.601
 6517SOL    HW220451   6.568   4.285   0.567
 6518SOL     OW20452   1.029   1.610   1.915
 6518SOL    HW120453   1.012   1.572   1.824
 6518SOL    HW220454   1.032   1.536   1.982
 6519SOL     OW20455   1.470   1.860   4.018
 6519SOL    HW120456   1.464   1.946   3.967
 6519SOL    HW220457   1.436   1.785   3.962
 6520SOL     OW20458   5.758   6.517   6.933
 6520SOL    HW120459   5.854   6.525   6.958
 6520SOL    HW220460   5.743   6.431   6.884
 6521SOL     OW20461   1.563   4.609   4.602
 6521SOL    HW120462   1.496   4.535   4.601
 6521SOL    HW220463   1.647   4.578   4.646
 6522SOL     OW20464   2.476   2.842   5.322
 6522SOL    HW120465   2.422   2.864   5.402
 6522SOL    HW220466   2.471   2.918   5.256
 6523SOL     OW20467   5.123   6.701   0.471
 6523SOL    HW120468   5.096   6.609   0.499
 6523SOL    HW220469   5.212   6.722   0.510
 6524SOL     OW20470   3.391   2.440   1.210
 6524SOL    HW120471   3.458   2.432   1.284
 6524SOL    HW220472   3.428   2.496   1.136
 6525SOL     OW20473   2.415   4.866   3.529
 6525SOL    HW120474   2.437   4.848   3.433
 6525SOL    HW220475   2.443   4.788   3.585
 6526SOL     OW20476   6.388   6.494   0.592
 6526SOL    HW120477   6.437   6.574   0.558
 6526SOL    HW220478   6.341   6.448   0.517
 6527SOL     OW20479   5.406   2.158   0.490
 6527SOL    HW120480   5.456   2.220   0.550
 6527SOL    HW220481   5.380   2.206   0.406
 6528SOL     OW20482   4.547   0.039   0.266
 6528SOL    HW120483   4.486   0.118   0.260
 6528SOL    HW220484   4.580   0.016   0.174
 6529SOL     OW20485   4.087   6.662   1.863
 6529SOL    HW120486   4.049   6.645   1.954
 6529SOL    HW220487   4.165   6.724   1.871
 6530SOL     OW20488   0.066   2.225   4.258
 6530SOL    HW120489   0.122   2.240   4.176
 6530SOL    HW220490   6.995   2.274   4.249
 6531SOL     OW20491   3.032   3.862   3.946
 6531SOL    HW120492   3.024   3.840   3.849
 6531SOL    HW220493   2.965   3.808   3.998
 6532SOL     OW20494   1.145   5.968   0.127
 6532SOL    HW120495   1.144   6.001   0.221
 6532SOL    HW220496   1.227   6.001   0.080
 6533SOL     OW20497   5.285   4.761   1.100
 6533SOL    HW120498   5.356   4.830   1.086
 6533SOL    HW220499   5.223   4.761   1.021
 6534SOL     OW20500   6.495   3.305   4.131
 6534SOL    HW120501   6.407   3.259   4.124
 6534SOL    HW220502   6.538   3.309   4.040
 6535SOL     OW20503   5.483   3.730   0.089
 6535SOL    HW120504   5.542   3.649   0.090
 6535SOL    HW220505   5.398   3.709   0.040
 6536SOL     OW20506   6.994   5.132   5.304
 6536SOL    HW120507   0.045   5.141   5.377
 6536SOL    HW220508   6.994   5.214   5.247
 6537SOL     OW20509   6.704   5.415   4.570
 6537SOL    HW120510   6.656   5.497   4.602
 6537SOL    HW220511   6.723   5.424   4.472
 6538SOL     OW20512   1.463   3.497   3.392
 6538SOL    HW120513   1.502   3.587   3.374
 6538SOL    HW220514   1.422   3.462   3.308
 6539SOL     OW20515   5.567   6.620   5.321
 6539SOL    HW120516   5.657   6.579   5.333
 6539SOL    HW220517   5.518   6.570   5.249
 6540SOL     OW20518   0.891   2.202   5.462
 6540SOL    HW120519   0.791   2.209   5.457
 6540SOL    HW220520   0.923   2.132   5.398
 6541SOL     OW20521   3.746   1.408   5.211
 6541SOL    HW120522   3.819   1.467   5.244
 6541SOL    HW220523   3.660   1.460   5.208
 6542SOL     OW20524   2.002   4.815   2.258
 6542SOL    HW120525   1.906   4.824   2.287
 6542SOL    HW220526   2.017   4.874   2.178
 6543SOL     OW20527   3.861   1.779   4.134
 6543SOL    HW120528   3.788   1.817   4.191
 6543SOL    HW220529   3.821   1.732   4.055
 6544SOL     OW20530   1.230   0.798   1.462
 6544SOL    HW120531   1.149   0.848   1.433
 6544SOL    HW220532   1.307   0.823   1.403
 6545SOL     OW20533   6.074   5.029   1.075
 6545SOL    HW120534   6.127   5.088   1.014
 6545SOL    HW220535   6.001   5.082   1.118
 6546SOL     OW20536   4.249   5.502   4.574
 6546SOL    HW120537   4.228   5.416   4.619
 6546SOL    HW220538   4.266   5.573   4.642
 6547SOL     OW20539   0.527   6.844   5.243
 6547SOL    HW120540   0.598   6.881   5.304
 6547SOL    HW220541   0.542   6.747   5.229
 6548SOL     OW20542   1.217   1.495   5.708
 6548SOL    HW120543   1.247   1.430   5.638
 6548SOL    HW220544   1.209   1.586   5.667
 6549SOL     OW20545   3.030   1.525   3.049
 6549SOL    HW120546   2.968   1.494   3.121
 6549SOL    HW220547   3.124   1.499   3.072
 6550SOL     OW20548   5.707   6.713   2.048
 6550SOL    HW120549   5.789   6.767   2.029
 6550SOL    HW220550   5.711   6.626   1.999
 6551SOL     OW20551   2.702   5.193   1.246
 6551SOL    HW120552   2.651   5.175   1.330
 6551SOL    HW220553   2.718   5.292   1.238
 6552SOL     OW20554   2.400   3.611   0.135
 6552SOL    HW120555   2.419   3.656   0.223
 6552SOL    HW220556   2.339   3.668   0.081
 6553SOL     OW20557   0.242   1.409   3.577
 6553SOL    HW120558   0.172   1.426   3.508
 6553SOL    HW220559   0.286   1.496   3.602
 6554SOL     OW20560   1.930   1.768   4.051
 6554SOL    HW120561   1.882   1.852   4.026
 6554SOL    HW220562   1.911   1.697   3.982
 6555SOL     OW20563   2.113   3.738   2.073
 6555SOL    HW120564   2.151   3.645   2.067
 6555SOL    HW220565   2.187   3.802   2.094
 6556SOL     OW20566   4.854   3.156   3.442
 6556SOL    HW120567   4.874   3.254   3.444
 6556SOL    HW220568   4.798   3.135   3.361
 6557SOL     OW20569   1.959   6.733   2.447
 6557SOL    HW120570   2.042   6.744   2.392
 6557SOL    HW220571   1.932   6.636   2.447
 6558SOL     OW20572   5.686   5.280   1.024
 6558SOL    HW120573   5.675   5.379   1.033
 6558SOL    HW220574   5.596   5.236   1.025
 6559SOL     OW20575   0.133   1.706   5.985
 6559SOL    HW120576   0.127   1.625   6.042
 6559SOL    HW220577   0.173   1.781   6.038
 6560SOL     OW20578   6.690   4.735   6.041
 6560SOL    HW120579   6.763   4.777   5.987
 6560SOL    HW220580   6.712   4.743   6.138
 6561SOL     OW20581   2.861   5.415   6.978
 6561SOL    HW120582   2.871   5.341   6.911
 6561SOL    HW220583   2.938   5.412   0.026
 6562SOL     OW20584   4.690   2.586   1.001
 6562SOL    HW120585   4.673   2.621   0.909
 6562SOL    HW220586   4.676   2.487   1.001
 6563SOL     OW20587   6.034   5.062   5.598
 6563SOL    HW120588   6.079   4.975   5.574
 6563SOL    HW220589   6.079   5.101   5.679
 6564SOL     OW20590   5.435   4.070   1.651
 6564SOL    HW120591   5.460   4.023   1.735
 6564SOL    HW220592   5.369   4.015   1.599
 6565SOL     OW20593   5.260   5.555   1.883
 6565SOL    HW120594   5.346   5.509   1.906
 6565SOL    HW220595   5.199   5.491   1.837
 6566SOL     OW20596   5.530   5.309   3.933
 6566SOL    HW120597   5.570   5.244   3.998
 6566SOL    HW220598   5.532   5.269   3.841
 6567SOL     OW20599   2.999   0.697   2.504
 6567SOL    HW120600   3.086   0.703   2.454
 6567SOL    HW220601   2.939   0.772   2.475
 6568SOL     OW20602   5.152   1.529   0.475
 6568SOL    HW120603   5.245   1.550   0.444
 6568SOL    HW220604   5.148   1.535   0.575
 6569SOL     OW20605   1.466   3.926   3.249
 6569SOL    HW120606   1.428   3.990   3.315
 6569SOL    HW220607   1.522   3.858   3.297
 6570SOL     OW20608   4.362   0.192   2.825
 6570SOL    HW120609   4.309   0.114   2.859
 6570SOL    HW220610   4.393   0.247   2.902
 6571SOL     OW20611   2.578   6.469   3.021
 6571SOL    HW120612   2.569   6.429   3.112
 6571SOL    HW220613   2.571   6.396   2.952
 6572SOL     OW20614   1.313   6.431   3.681
 6572SOL    HW120615   1.220   6.408   3.711
 6572SOL    HW220616   1.308   6.483   3.596
 6573SOL     OW20617   0.954   2.537   3.665
 6573SOL    HW120618   0.879   2.590   3.626
 6573SOL    HW220619   1.009   2.597   3.724
 6574SOL     OW20620   1.172   5.116   1.408
 6574SOL    HW120621   1.211   5.205   1.433
 6574SOL    HW220622   1.241   5.045   1.422
 6575SOL     OW20623   6.640   1.202   4.097
 6575SOL    HW120624   6.703   1.264   4.144
 6575SOL    HW220625   6.557   1.191   4.150
 6576SOL     OW20626   4.075   0.402   2.326
 6576SOL    HW120627   4.171   0.413   2.350
 6576SOL    HW220628   4.040   0.317   2.366
 6577SOL     OW20629   3.070   1.059   5.506
 6577SOL    HW120630   3.058   1.086   5.411
 6577SOL    HW220631   3.006   0.985   5.528
 6578SOL     OW20632   0.648   5.829   0.160
 6578SOL    HW120633   0.556   5.864   0.178
 6578SOL    HW220634   0.648   5.729   0.170
 6579SOL     OW20635   1.830   1.857   3.407
 6579SOL    HW120636   1.924   1.827   3.395
 6579SOL    HW220637   1.825   1.925   3.481
 6580SOL     OW20638   3.407   2.657   6.970
 6580SOL    HW120639   3.338   2.704   6.915
 6580SOL    HW220640   3.484   2.630   6.912
 6581SOL     OW20641   0.357   2.505   2.116
 6581SOL    HW120642   0.264   2.489   2.151
 6581SOL    HW220643   0.406   2.566   2.178
 6582SOL     OW20644   4.011   6.846   3.080
 6582SOL    HW120645   4.071   6.795   3.141
 6582SOL    HW220646   3.941   6.894   3.133
 6583SOL     OW20647   2.587   3.985   1.276
 6583SOL    HW120648   2.511   4.017   1.333
 6583SOL    HW220649   2.621   3.898   1.310
 6584SOL     OW20650   4.638   3.233   5.866
 6584SOL    HW120651   4.644   3.181   5.780
 6584SOL    HW220652   4.623   3.330   5.845
 6585SOL     OW20653   5.092   6.830   1.864
 6585SOL    HW120654   5.161   6.895   1.834
 6585SOL    HW220655   5.028   6.876   1.926
 6586SOL     OW20656   6.705   1.860   0.124
 6586SOL    HW120657   6.726   1.953   0.154
 6586SOL    HW220658   6.763   1.796   0.174
 6587SOL     OW20659   2.453   4.593   5.623
 6587SOL    HW120660   2.457   4.536   5.541
 6587SOL    HW220661   2.359   4.619   5.641
 6588SOL     OW20662   0.917   2.383   0.596
 6588SOL    HW120663   0.882   2.290   0.597
 6588SOL    HW220664   0.992   2.391   0.662
 6589SOL     OW20665   5.734   0.087   1.055
 6589SOL    HW120666   5.684   0.032   0.988
 6589SOL    HW220667   5.695   0.071   1.146
 6590SOL     OW20668   1.239   6.604   4.410
 6590SOL    HW120669   1.219   6.556   4.324
 6590SOL    HW220670   1.309   6.554   4.460
 6591SOL     OW20671   6.437   3.414   3.538
 6591SOL    HW120672   6.346   3.410   3.497
 6591SOL    HW220673   6.506   3.426   3.467
 6592SOL     OW20674   0.162   0.785   4.355
 6592SOL    HW120675   0.113   0.853   4.409
 6592SOL    HW220676   0.243   0.755   4.404
 6593SOL     OW20677   1.046   0.817   3.175
 6593SOL    HW120678   0.961   0.775   3.206
 6593SOL    HW220679   1.066   0.786   3.082
 6594SOL     OW20680   5.069   0.202   6.466
 6594SOL    HW120681   5.013   0.284   6.474
 6594SOL    HW220682   5.094   0.169   6.557
 6595SOL     OW20683   1.032   0.734   5.359
 6595SOL    HW120684   0.963   0.663   5.347
 6595SOL    HW220685   1.112   0.713   5.304
 6596SOL     OW20686   5.326   0.655   2.917
 6596SOL    HW120687   5.265   0.652   2.996
 6596SOL    HW220688   5.299   0.585   2.851
 6597SOL     OW20689   1.312   5.303   1.207
 6597SOL    HW120690   1.309   5.350   1.295
 6597SOL    HW220691   1.251   5.349   1.143
 6598SOL     OW20692   1.528   5.174   1.555
 6598SOL    HW120693   1.560   5.158   1.648
 6598SOL    HW220694   1.443   5.123   1.539
 6599SOL     OW20695   0.423   6.248   6.294
 6599SOL    HW120696   0.343   6.197   6.262
 6599SOL    HW220697   0.439   6.226   6.391
 6600SOL     OW20698   4.761   6.926   4.484
 6600SOL    HW120699   4.740   0.005   4.458
 6600SOL    HW220700   4.731   6.864   4.411
 6601SOL     OW20701   0.761   2.738   2.954
 6601SOL    HW120702   0.857   2.764   2.966
 6601SOL    HW220703   0.724   2.706   3.041
 6602SOL     OW20704   5.955   6.352   0.428
 6602SOL    HW120705   5.982   6.429   0.486
 6602SOL    HW220706   6.033   6.291   0.416
 6603SOL     OW20707   0.001   4.630   2.473
 6603SOL    HW120708   0.036   4.680   2.393
 6603SOL    HW220709   6.939   4.679   2.512
 6604SOL     OW20710   1.858   5.119   2.257
 6604SOL    HW120711   1.853   5.212   2.220
 6604SOL    HW220712   1.908   5.060   2.193
 6605SOL     OW20713   0.030   5.766   1.213
 6605SOL    HW120714   6.955   5.796   1.185
 6605SOL    HW220715   0.035   5.667   1.210
 6606SOL     OW20716   1.426   4.872   2.763
 6606SOL    HW120717   1.438   4.931   2.842
 6606SOL    HW220718   1.459   4.780   2.785
 6607SOL     OW20719   6.871   3.146   4.454
 6607SOL    HW120720   6.788   3.154   4.398
 6607SOL    HW220721   6.877   3.223   4.516
 6608SOL     OW20722   1.836   0.987   5.356
 6608SOL    HW120723   1.798   1.005   5.265
 6608SOL    HW220724   1.761   0.984   5.423
 6609SOL     OW20725   2.704   1.904   0.164
 6609SOL    HW120726   2.662   1.871   0.248
 6609SOL    HW220727   2.670   1.995   0.143
 6610SOL     OW20728   3.477   6.023   1.044
 6610SOL    HW120729   3.387   6.066   1.054
 6610SOL    HW220730   3.503   6.021   0.947
 6611SOL     OW20731   3.227   1.690   4.944
 6611SOL    HW120732   3.174   1.623   4.996
 6611SOL    HW220733   3.171   1.727   4.871
 6612SOL     OW20734   6.484   0.613   0.223
 6612SOL    HW120735   6.492   0.513   0.230
 6612SOL    HW220736   6.451   0.650   0.310
 6613SOL     OW20737   4.496   0.168   1.107
 6613SOL    HW120738   4.473   0.118   1.191
 6613SOL    HW220739   4.595   0.176   1.099
 6614SOL     OW20740   4.351   4.649   0.704
 6614SOL    HW120741   4.368   4.552   0.687
 6614SOL    HW220742   4.258   4.660   0.740
 6615SOL     OW20743   3.380   5.831   5.936
 6615SOL    HW120744   3.391   5.742   5.891
 6615SOL    HW220745   3.403   5.904   5.871
 6616SOL     OW20746   4.169   2.191   6.165
 6616SOL    HW120747   4.231   2.174   6.241
 6616SOL    HW220748   4.125   2.280   6.177
 6617SOL     OW20749   3.506   1.703   4.286
 6617SOL    HW120750   3.410   1.732   4.280
 6617SOL    HW220751   3.561   1.777   4.325
 6618SOL     OW20752   6.652   2.849   3.556
 6618SOL    HW120753   6.611   2.808   3.474
 6618SOL    HW220754   6.745   2.813   3.567
 6619SOL     OW20755   4.227   4.786   4.061
 6619SOL    HW120756   4.275   4.873   4.061
 6619SOL    HW220757   4.262   4.729   3.986
 6620SOL     OW20758   1.041   2.755   3.422
 6620SOL    HW120759   1.068   2.662   3.446
 6620SOL    HW220760   1.022   2.806   3.506
 6621SOL     OW20761   3.374   3.594   3.365
 6621SOL    HW120762   3.311   3.583   3.288
 6621SOL    HW220763   3.403   3.689   3.372
 6622SOL     OW20764   0.071   4.756   2.237
 6622SOL    HW120765   0.069   4.856   2.228
 6622SOL    HW220766   6.999   4.718   2.210
 6623SOL     OW20767   3.827   3.369   3.925
 6623SOL    HW120768   3.730   3.348   3.922
 6623SOL    HW220769   3.863   3.345   4.016
 6624SOL     OW20770   2.399   2.223   2.517
 6624SOL    HW120771   2.413   2.311   2.472
 6624SOL    HW220772   2.357   2.237   2.607
 6625SOL     OW20773   0.816   4.800   5.502
 6625SOL    HW120774   0.914   4.795   5.525
 6625SOL    HW220775   0.762   4.788   5.584
 6626SOL     OW20776   3.578   5.818   5.355
 6626SOL    HW120777   3.628   5.900   5.325
 6626SOL    HW220778   3.606   5.795   5.448
 6627SOL     OW20779   2.887   6.843   4.766
 6627SOL    HW120780   2.954   6.888   4.825
 6627SOL    HW220781   2.841   6.911   4.709
 6628SOL     OW20782   3.873   6.575   3.184
 6628SOL    HW120783   3.939   6.643   3.218
 6628SOL    HW220784   3.837   6.522   3.260
 6629SOL     OW20785   4.705   6.031   5.450
 6629SOL    HW120786   4.701   5.964   5.525
 6629SOL    HW220787   4.797   6.071   5.446
 6630SOL     OW20788   2.068   7.006   0.610
 6630SOL    HW120789   2.164   0.015   0.627
 6630SOL    HW220790   2.044   0.014   0.516
 6631SOL     OW20791   1.471   1.804   6.480
 6631SOL    HW120792   1.453   1.713   6.517
 6631SOL    HW220793   1.473   1.801   6.380
 6632SOL     OW20794   1.301   0.475   6.115
 6632SOL    HW120795   1.317   0.498   6.211
 6632SOL    HW220796   1.317   0.555   6.057
 6633SOL     OW20797   4.754   6.465   6.110
 6633SOL    HW120798   4.714   6.436   6.024
 6633SOL    HW220799   4.685   6.458   6.183
 6634SOL     OW20800   2.916   2.107   4.082
 6634SOL    HW120801   2.933   2.014   4.049
 6634SOL    HW220802   2.856   2.155   4.017
 6635SOL     OW20803   4.903   5.397   6.033
 6635SOL    HW120804   4.996   5.418   6.065
 6635SOL    HW220805   4.855   5.345   6.103
 6636SOL     OW20806   4.397   1.674   1.192
 6636SOL    HW120807   4.389   1.630   1.281
 6636SOL    HW220808   4.335   1.630   1.127
 6637SOL     OW20809   0.331   3.118   6.727
 6637SOL    HW120810   0.260   3.130   6.797
 6637SOL    HW220811   0.414   3.165   6.756
 6638SOL     OW20812   3.083   3.884   4.330
 6638SOL    HW120813   3.133   3.838   4.403
 6638SOL    HW220814   3.113   3.979   4.324
 6639SOL     OW20815   4.921   3.098   1.453
 6639SOL    HW120816   4.977   3.180   1.442
 6639SOL    HW220817   4.976   3.026   1.495
 6640SOL     OW20818   0.748   3.581   4.422
 6640SOL    HW120819   0.845   3.582   4.399
 6640SOL    HW220820   0.695   3.568   4.338
 6641SOL     OW20821   5.325   2.283   6.712
 6641SOL    HW120822   5.254   2.346   6.678
 6641SOL    HW220823   5.305   2.191   6.679
 6642SOL     OW20824   1.098   4.993   6.180
 6642SOL    HW120825   1.182   5.037   6.211
 6642SOL    HW220826   1.020   5.051   6.202
 6643SOL     OW20827   4.798   5.718   6.106
 6643SOL    HW120828   4.726   5.716   6.176
 6643SOL    HW220829   4.816   5.813   6.079
 6644SOL     OW20830   1.596   6.663   3.068
 6644SOL    HW120831   1.506   6.707   3.064
 6644SOL    HW220832   1.662   6.726   3.110
 6645SOL     OW20833   4.718   2.597   5.254
 6645SOL    HW120834   4.761   2.530   5.194
 6645SOL    HW220835   4.754   2.587   5.347
 6646SOL     OW20836   4.733   0.059   5.818
 6646SOL    HW120837   4.681   7.011   5.875
 6646SOL    HW220838   4.682   0.076   5.733
 6647SOL     OW20839   3.967   4.900   0.736
 6647SOL    HW120840   3.944   4.996   0.718
 6647SOL    HW220841   3.883   4.848   0.750
 6648SOL     OW20842   3.393   5.585   5.139
 6648SOL    HW120843   3.425   5.540   5.222
 6648SOL    HW220844   3.461   5.652   5.110
 6649SOL     OW20845   5.544   2.934   5.236
 6649SOL    HW120846   5.644   2.934   5.238
 6649SOL    HW220847   5.511   3.020   5.198
 6650SOL     OW20848   2.950   0.715   4.998
 6650SOL    HW120849   2.919   0.745   5.089
 6650SOL    HW220850   3.049   0.725   4.992
 6651SOL     OW20851   6.600   0.874   3.497
 6651SOL    HW120852   6.573   0.948   3.558
 6651SOL    HW220853   6.604   0.788   3.548
 6652SOL     OW20854   0.070   5.564   6.823
 6652SOL    HW120855   0.040   5.487   6.767
 6652SOL    HW220856   0.085   5.533   6.917
 6653SOL     OW20857   5.627   3.845   6.735
 6653SOL    HW120858   5.646   3.762   6.683
 6653SOL    HW220859   5.654   3.925   6.681
 6654SOL     OW20860   6.860   1.718   3.258
 6654SOL    HW120861   6.880   1.712   3.161
 6654SOL    HW220862   6.869   1.813   3.289
 6655SOL     OW20863   0.184   5.596   1.418
 6655SOL    HW120864   0.149   5.683   1.452
 6655SOL    HW220865   0.122   5.560   1.348
 6656SOL     OW20866   5.299   0.755   2.096
 6656SOL    HW120867   5.366   0.811   2.048
 6656SOL    HW220868   5.295   0.782   2.193
 6657SOL     OW20869   4.619   1.907   4.359
 6657SOL    HW120870   4.533   1.871   4.324
 6657SOL    HW220871   4.629   1.881   4.455
 6658SOL     OW20872   6.167   5.941   4.489
 6658SOL    HW120873   6.267   5.943   4.499
 6658SOL    HW220874   6.125   5.964   4.576
 6659SOL     OW20875   0.854   6.660   0.954
 6659SOL    HW120876   0.816   6.633   0.866
 6659SOL    HW220877   0.943   6.702   0.941
 6660SOL     OW20878   1.059   0.490   4.031
 6660SOL    HW120879   1.092   0.413   4.087
 6660SOL    HW220880   1.035   0.566   4.091
 6661SOL     OW20881   3.566   6.467   3.653
 6661SOL    HW120882   3.629   6.405   3.606
 6661SOL    HW220883   3.503   6.413   3.710
 6662SOL     OW20884   3.658   6.991   1.911
 6662SOL    HW120885   3.687   0.061   1.952
 6662SOL    HW220886   3.559   6.981   1.921
 6663SOL     OW20887   1.677   3.840   5.375
 6663SOL    HW120888   1.602   3.898   5.408
 6663SOL    HW220889   1.759   3.897   5.363
 6664SOL     OW20890   3.160   0.220   1.896
 6664SOL    HW120891   3.144   0.208   1.798
 6664SOL    HW220892   3.087   0.277   1.935
 6665SOL     OW20893   2.604   0.273   6.865
 6665SOL    HW120894   2.685   0.217   6.850
 6665SOL    HW220895   2.629   0.356   6.915
 6666SOL     OW20896   2.825   6.398   5.867
 6666SOL    HW120897   2.739   6.349   5.884
 6666SOL    HW220898   2.809   6.470   5.799
 6667SOL     OW20899   2.068   5.920   6.947
 6667SOL    HW120900   2.167   5.933   6.936
 6667SOL    HW220901   2.024   6.010   6.957
 6668SOL     OW20902   0.451   3.745   6.070
 6668SOL    HW120903   0.489   3.732   5.978
 6668SOL    HW220904   0.505   3.692   6.135
 6669SOL     OW20905   0.744   3.134   3.892
 6669SOL    HW120906   0.666   3.196   3.886
 6669SOL    HW220907   0.799   3.157   3.972
 6670SOL     OW20908   2.319   4.083   0.698
 6670SOL    HW120909   2.400   4.039   0.737
 6670SOL    HW220910   2.314   4.177   0.730
 6671SOL     OW20911   4.743   5.203   0.503
 6671SOL    HW120912   4.813   5.247   0.558
 6671SOL    HW220913   4.706   5.125   0.553
 6672SOL     OW20914   2.235   2.648   1.063
 6672SOL    HW120915   2.189   2.733   1.090
 6672SOL    HW220916   2.200   2.573   1.118
 6673SOL     OW20917   5.933   3.652   4.690
 6673SOL    HW120918   5.974   3.674   4.778
 6673SOL    HW220919   5.964   3.562   4.660
 6674SOL     OW20920   6.555   0.934   0.304
 6674SOL    HW120921   6.475   0.961   0.250
 6674SOL    HW220922   6.611   0.871   0.250
 6675SOL     OW20923   4.918   1.559   0.331
 6675SOL    HW120924   4.944   1.513   0.246
 6675SOL    HW220925   4.991   1.550   0.398
 6676SOL     OW20926   1.129   3.374   5.481
 6676SOL    HW120927   1.212   3.387   5.534
 6676SOL    HW220928   1.074   3.458   5.484
 6677SOL     OW20929   0.418   2.321   6.967
 6677SOL    HW120930   0.382   2.265   0.026
 6677SOL    HW220931   0.402   2.275   6.880
 6678SOL     OW20932   3.277   3.917   6.522
 6678SOL    HW120933   3.290   3.843   6.456
 6678SOL    HW220934   3.190   3.905   6.569
 6679SOL     OW20935   1.519   0.396   3.957
 6679SOL    HW120936   1.603   0.419   3.908
 6679SOL    HW220937   1.532   0.411   4.055
 6680SOL     OW20938   6.350   5.708   2.037
 6680SOL    HW120939   6.319   5.769   2.109
 6680SOL    HW220940   6.294   5.625   2.036
 6681SOL     OW20941   3.430   5.737   0.912
 6681SOL    HW120942   3.336   5.707   0.925
 6681SOL    HW220943   3.488   5.697   0.983
 6682SOL     OW20944   2.237   4.924   6.404
 6682SOL    HW120945   2.196   4.834   6.391
 6682SOL    HW220946   2.265   4.935   6.500
 6683SOL     OW20947   0.095   6.330   6.493
 6683SOL    HW120948   0.091   6.322   6.393
 6683SOL    HW220949   0.107   6.426   6.517
 6684SOL     OW20950   3.026   6.837   6.050
 6684SOL    HW120951   2.970   6.899   5.995
 6684SOL    HW220952   2.968   6.769   6.095
 6685SOL     OW20953   3.603   2.908   0.883
 6685SOL    HW120954   3.607   2.964   0.965
 6685SOL    HW220955   3.509   2.902   0.850
 6686SOL     OW20956   4.416   4.164   5.308
 6686SOL    HW120957   4.317   4.174   5.313
 6686SOL    HW220958   4.443   4.077   5.350
 6687SOL     OW20959   6.852   2.621   0.951
 6687SOL    HW120960   6.945   2.607   0.916
 6687SOL    HW220961   6.793   2.546   0.920
 6688SOL     OW20962   5.877   5.200   0.295
 6688SOL    HW120963   5.793   5.148   0.309
 6688SOL    HW220964   5.855   5.292   0.263
 6689SOL     OW20965   3.411   4.851   6.198
 6689SOL    HW120966   3.447   4.865   6.290
 6689SOL    HW220967   3.331   4.909   6.183
 6690SOL     OW20968   1.150   0.327   0.041
 6690SOL    HW120969   1.203   0.351   6.975
 6690SOL    HW220970   1.147   0.227   0.049
 6691SOL     OW20971   2.284   1.639   1.720
 6691SOL    HW120972   2.338   1.640   1.635
 6691SOL    HW220973   2.213   1.570   1.713
 6692SOL     OW20974   3.970   6.601   2.127
 6692SOL    HW120975   3.986   6.597   2.225
 6692SOL    HW220976   3.901   6.671   2.107
 6693SOL     OW20977   2.518   1.119   6.004
 6693SOL    HW120978   2.475   1.132   5.915
 6693SOL    HW220979   2.544   1.208   6.042
 6694SOL     OW20980   4.415   4.170   1.624
 6694SOL    HW120981   4.411   4.181   1.723
 6694SOL    HW220982   4.419   4.260   1.581
 6695SOL     OW20983   3.138   2.397   0.101
 6695SOL    HW120984   3.154   2.368   0.007
 6695SOL    HW220985   3.223   2.435   0.139
 6696SOL     OW20986   3.465   2.993   5.247
 6696SOL    HW120987   3.425   3.075   5.205
 6696SOL    HW220988   3.394   2.923   5.255
 6697SOL     OW20989   5.246   1.367   2.734
 6697SOL    HW120990   5.191   1.285   2.745
 6697SOL    HW220991   5.334   1.342   2.691
 6698SOL     OW20992   2.949   3.615   1.555
 6698SOL    HW120993   2.926   3.535   1.611
 6698SOL    HW220994   2.905   3.696   1.593
 6699SOL     OW20995   1.698   3.497   6.815
 6699SOL    HW120996   1.625   3.430   6.823
 6699SOL    HW220997   1.710   3.523   6.719
 6700SOL     OW20998   5.081   0.222   1.493
 6700SOL    HW120999   5.064   0.286   1.568
 6700SOL    HW221000   5.169   0.243   1.450
 6701SOL     OW21001   5.927   6.827   1.867
 6701SOL    HW121002   5.895   6.738   1.836
 6701SOL    HW221003   5.944   6.886   1.788
 6702SOL     OW21004   4.992   2.593   0.687
 6702SOL    HW121005   5.050   2.597   0.606
 6702SOL    HW221006   4.897   2.577   0.659
 6703SOL     OW21007   0.231   1.528   0.527
 6703SOL    HW121008   0.300   1.456   0.537
 6703SOL    HW221009   0.196   1.528   0.433
 6704SOL     OW21010   2.628   6.259   6.030
 6704SOL    HW121011   2.685   6.242   6.111
 6704SOL    HW221012   2.604   6.172   5.988
 6705SOL     OW21013   0.628   4.186   2.351
 6705SOL    HW121014   0.612   4.209   2.255
 6705SOL    HW221015   0.724   4.203   2.374
 6706SOL     OW21016   0.308   6.138   0.892
 6706SOL    HW121017   0.249   6.124   0.813
 6706SOL    HW221018   0.343   6.232   0.891
 6707SOL     OW21019   5.176   0.877   2.740
 6707SOL    HW121020   5.269   0.854   2.769
 6707SOL    HW221021   5.178   0.957   2.680
 6708SOL     OW21022   0.679   3.508   1.065
 6708SOL    HW121023   0.611   3.458   1.117
 6708SOL    HW221024   0.688   3.468   0.974
 6709SOL     OW21025   1.994   4.197   2.112
 6709SOL    HW121026   1.915   4.248   2.077
 6709SOL    HW221027   1.966   4.103   2.132
 6710SOL     OW21028   4.488   1.895   1.691
 6710SOL    HW121029   4.390   1.903   1.677
 6710SOL    HW221030   4.519   1.970   1.751
 6711SOL     OW21031   4.536   5.573   6.198
 6711SOL    HW121032   4.503   5.587   6.105
 6711SOL    HW221033   4.508   5.651   6.255
 6712SOL     OW21034   5.582   3.729   1.010
 6712SOL    HW121035   5.553   3.823   1.026
 6712SOL    HW221036   5.551   3.699   0.920
 6713SOL     OW21037   1.845   4.686   3.959
 6713SOL    HW121038   1.894   4.757   3.907
 6713SOL    HW221039   1.893   4.599   3.950
 6714SOL     OW21040   6.345   1.300   2.425
 6714SOL    HW121041   6.265   1.266   2.376
 6714SOL    HW221042   6.325   1.304   2.523
 6715SOL     OW21043   1.431   6.976   5.751
 6715SOL    HW121044   1.398   0.051   5.778
 6715SOL    HW221045   1.478   6.933   5.828
 6716SOL     OW21046   1.297   4.313   1.888
 6716SOL    HW121047   1.324   4.224   1.926
 6716SOL    HW221048   1.375   4.375   1.888
 6717SOL     OW21049   6.096   2.492   5.440
 6717SOL    HW121050   6.185   2.524   5.407
 6717SOL    HW221051   6.102   2.395   5.465
 6718SOL     OW21052   4.488   2.346   0.930
 6718SOL    HW121053   4.438   2.432   0.941
 6718SOL    HW221054   4.519   2.337   0.836
 6719SOL     OW21055   1.365   1.053   0.433
 6719SOL    HW121056   1.286   1.020   0.381
 6719SOL    HW221057   1.439   1.076   0.370
 6720SOL     OW21058   1.809   1.687   4.487
 6720SOL    HW121059   1.719   1.702   4.528
 6720SOL    HW221060   1.799   1.629   4.407
 6721SOL     OW21061   6.112   6.887   0.405
 6721SOL    HW121062   6.024   6.885   0.357
 6721SOL    HW221063   6.162   6.803   0.384
 6722SOL     OW21064   6.293   4.514   1.442
 6722SOL    HW121065   6.338   4.428   1.416
 6722SOL    HW221066   6.237   4.500   1.523
 6723SOL     OW21067   1.755   3.358   4.369
 6723SOL    HW121068   1.848   3.390   4.352
 6723SOL    HW221069   1.728   3.382   4.462
 6724SOL     OW21070   2.048   3.208   5.301
 6724SOL    HW121071   1.999   3.162   5.375
 6724SOL    HW221072   2.085   3.295   5.335
 6725SOL     OW21073   4.655   2.698   3.399
 6725SOL    HW121074   4.632   2.779   3.453
 6725SOL    HW221075   4.698   2.630   3.458
 6726SOL     OW21076   6.721   1.470   0.380
 6726SOL    HW121077   6.725   1.377   0.345
 6726SOL    HW221078   6.698   1.468   0.478
 6727SOL     OW21079   0.914   5.632   5.646
 6727SOL    HW121080   0.973   5.640   5.727
 6727SOL    HW221081   0.947   5.695   5.575
 6728SOL     OW21082   3.822   1.872   5.049
 6728SOL    HW121083   3.775   1.938   4.991
 6728SOL    HW221084   3.769   1.855   5.131
 6729SOL     OW21085   4.365   0.915   2.809
 6729SOL    HW121086   4.325   0.999   2.772
 6729SOL    HW221087   4.463   0.927   2.819
 6730SOL     OW21088   0.707   1.914   1.649
 6730SOL    HW121089   0.687   1.823   1.613
 6730SOL    HW221090   0.664   1.925   1.739
 6731SOL     OW21091   3.932   0.071   5.984
 6731SOL    HW121092   3.836   0.056   6.008
 6731SOL    HW221093   3.950   0.169   5.976
 6732SOL     OW21094   6.052   5.282   5.910
 6732SOL    HW121095   6.114   5.319   5.841
 6732SOL    HW221096   5.958   5.307   5.887
 6733SOL     OW21097   5.308   4.982   5.280
 6733SOL    HW121098   5.279   5.034   5.199
 6733SOL    HW221099   5.228   4.958   5.335
 6734SOL     OW21100   5.566   2.288   5.628
 6734SOL    HW121101   5.495   2.229   5.589
 6734SOL    HW221102   5.655   2.247   5.611
 6735SOL     OW21103   5.794   2.766   4.446
 6735SOL    HW121104   5.714   2.804   4.492
 6735SOL    HW221105   5.768   2.683   4.397
 6736SOL     OW21106   3.771   3.602   0.747
 6736SOL    HW121107   3.756   3.517   0.698
 6736SOL    HW221108   3.852   3.594   0.805
 6737SOL     OW21109   6.071   3.366   1.163
 6737SOL    HW121110   6.145   3.299   1.158
 6737SOL    HW221111   6.007   3.339   1.236
 6738SOL     OW21112   2.252   6.804   4.068
 6738SOL    HW121113   2.264   6.845   3.977
 6738SOL    HW221114   2.342   6.791   4.111
 6739SOL     OW21115   0.395   0.373   5.858
 6739SOL    HW121116   0.400   0.330   5.768
 6739SOL    HW221117   0.372   0.470   5.848
 6740SOL     OW21118   0.796   6.649   1.865
 6740SOL    HW121119   0.712   6.703   1.862
 6740SOL    HW221120   0.849   6.674   1.947
 6741SOL     OW21121   3.237   2.143   0.420
 6741SOL    HW121122   3.236   2.217   0.487
 6741SOL    HW221123   3.160   2.155   0.357
 6742SOL     OW21124   6.517   4.999   2.321
 6742SOL    HW121125   6.477   5.083   2.284
 6742SOL    HW221126   6.470   4.974   2.405
 6743SOL     OW21127   3.786   3.864   6.465
 6743SOL    HW121128   3.798   3.962   6.476
 6743SOL    HW221129   3.719   3.830   6.531
 6744SOL     OW21130   6.789   6.146   5.900
 6744SOL    HW121131   6.873   6.178   5.943
 6744SOL    HW221132   6.796   6.158   5.801
 6745SOL     OW21133   5.574   3.086   5.590
 6745SOL    HW121134   5.642   3.023   5.554
 6745SOL    HW221135   5.483   3.062   5.555
 6746SOL     OW21136   1.200   1.966   2.972
 6746SOL    HW121137   1.148   2.011   3.045
 6746SOL    HW221138   1.224   2.034   2.902
 6747SOL     OW21139   1.347   6.135   5.468
 6747SOL    HW121140   1.304   6.182   5.391
 6747SOL    HW221141   1.343   6.193   5.549
 6748SOL     OW21142   1.519   2.274   4.645
 6748SOL    HW121143   1.477   2.364   4.654
 6748SOL    HW221144   1.512   2.244   4.550
 6749SOL     OW21145   3.916   4.888   2.538
 6749SOL    HW121146   3.847   4.874   2.609
 6749SOL    HW221147   3.892   4.969   2.484
 6750SOL     OW21148   4.060   0.525   5.796
 6750SOL    HW121149   4.132   0.477   5.746
 6750SOL    HW221150   4.095   0.551   5.886
 6751SOL     OW21151   4.019   0.996   4.483
 6751SOL    HW121152   4.086   0.986   4.557
 6751SOL    HW221153   3.932   1.025   4.522
 6752SOL     OW21154   2.185   4.815   3.376
 6752SOL    HW121155   2.211   4.878   3.450
 6752SOL    HW221156   2.268   4.778   3.335
 6753SOL     OW21157   3.477   4.150   0.465
 6753SOL    HW121158   3.473   4.162   0.366
 6753SOL    HW221159   3.399   4.097   0.496
 6754SOL     OW21160   5.893   0.776   0.413
 6754SOL    HW121161   5.894   0.692   0.467
 6754SOL    HW221162   5.986   0.798   0.385
 6755SOL     OW21163   4.233   5.625   5.490
 6755SOL    HW121164   4.145   5.596   5.451
 6755SOL    HW221165   4.303   5.558   5.468
 6756SOL     OW21166   4.315   3.178   6.111
 6756SOL    HW121167   4.239   3.184   6.175
 6756SOL    HW221168   4.282   3.145   6.023
 6757SOL     OW21169   4.073   6.926   2.022
 6757SOL    HW121170   4.004   6.867   2.063
 6757SOL    HW221171   4.161   6.878   2.020
 6758SOL     OW21172   4.843   3.060   3.154
 6758SOL    HW121173   4.780   2.989   3.124
 6758SOL    HW221174   4.919   3.017   3.204
 6759SOL     OW21175   1.342   2.761   2.217
 6759SOL    HW121176   1.415   2.702   2.253
 6759SOL    HW221177   1.257   2.743   2.268
 6760SOL     OW21178   5.353   2.038   6.198
 6760SOL    HW121179   5.332   1.953   6.150
 6760SOL    HW221180   5.340   2.115   6.135
 6761SOL     OW21181   2.617   0.401   4.801
 6761SOL    HW121182   2.687   0.330   4.811
 6761SOL    HW221183   2.661   0.489   4.785
 6762SOL     OW21184   5.535   4.962   4.493
 6762SOL    HW121185   5.488   4.987   4.409
 6762SOL    HW221186   5.497   5.013   4.570
 6763SOL     OW21187   5.750   5.928   3.619
 6763SOL    HW121188   5.722   5.849   3.674
 6763SOL    HW221189   5.784   5.896   3.530
 6764SOL     OW21190   0.952   4.639   1.896
 6764SOL    HW121191   0.985   4.708   1.832
 6764SOL    HW221192   0.922   4.558   1.845
 6765SOL     OW21193   6.826   4.124   3.214
 6765SOL    HW121194   6.817   4.224   3.208
 6765SOL    HW221195   6.922   4.099   3.207
 6766SOL     OW21196   6.035   6.960   1.637
 6766SOL    HW121197   5.991   0.021   1.590
 6766SOL    HW221198   6.041   6.883   1.573
 6767SOL     OW21199   3.378   0.179   1.336
 6767SOL    HW121200   3.389   0.243   1.412
 6767SOL    HW221201   3.418   0.219   1.253
 6768SOL     OW21202   1.588   6.967   6.617
 6768SOL    HW121203   1.569   0.036   6.666
 6768SOL    HW221204   1.630   6.901   6.679
 6769SOL     OW21205   5.153   2.801   1.058
 6769SOL    HW121206   5.136   2.853   0.974
 6769SOL    HW221207   5.088   2.829   1.128
 6770SOL     OW21208   0.393   1.547   1.673
 6770SOL    HW121209   0.395   1.447   1.680
 6770SOL    HW221210   0.303   1.581   1.698
 6771SOL     OW21211   4.626   1.261   3.547
 6771SOL    HW121212   4.618   1.250   3.646
 6771SOL    HW221213   4.717   1.297   3.524
 6772SOL     OW21214   3.434   1.507   4.895
 6772SOL    HW121215   3.439   1.422   4.843
 6772SOL    HW221216   3.343   1.548   4.883
 6773SOL     OW21217   0.132   3.759   1.657
 6773SOL    HW121218   0.153   3.726   1.565
 6773SOL    HW221219   0.192   3.836   1.679
 6774SOL     OW21220   1.340   2.110   6.214
 6774SOL    HW121221   1.418   2.142   6.268
 6774SOL    HW221222   1.336   2.010   6.219
 6775SOL     OW21223   0.487   3.453   0.626
 6775SOL    HW121224   0.487   3.508   0.709
 6775SOL    HW221225   0.509   3.358   0.648
 6776SOL     OW21226   6.285   6.151   6.719
 6776SOL    HW121227   6.307   6.085   6.647
 6776SOL    HW221228   6.365   6.208   6.737
 6777SOL     OW21229   4.216   4.703   0.096
 6777SOL    HW121230   4.214   4.799   0.070
 6777SOL    HW221231   4.180   4.647   0.020
 6778SOL     OW21232   5.796   5.733   3.454
 6778SOL    HW121233   5.894   5.753   3.467
 6778SOL    HW221234   5.769   5.658   3.513
 6779SOL     OW21235   5.579   3.334   6.572
 6779SOL    HW121236   5.497   3.317   6.518
 6779SOL    HW221237   5.658   3.296   6.524
 6780SOL     OW21238   0.968   3.315   1.391
 6780SOL    HW121239   0.930   3.233   1.350
 6780SOL    HW221240   1.068   3.313   1.386
 6781SOL     OW21241   5.173   4.929   5.642
 6781SOL    HW121242   5.235   4.929   5.721
 6781SOL    HW221243   5.081   4.907   5.673
 6782SOL     OW21244   6.108   1.707   3.330
 6782SOL    HW121245   6.106   1.623   3.277
 6782SOL    HW221246   6.018   1.722   3.372
 6783SOL     OW21247   1.218   6.049   6.498
 6783SOL    HW121248   1.153   6.002   6.557
 6783SOL    HW221249   1.275   5.982   6.450
 6784SOL     OW21250   3.976   3.483   0.151
 6784SOL    HW121251   3.921   3.443   0.077
 6784SOL    HW221252   4.005   3.575   0.126
 6785SOL     OW21253   5.786   5.429   2.094
 6785SOL    HW121254   5.722   5.356   2.071
 6785SOL    HW221255   5.859   5.392   2.151
 6786SOL     OW21256   1.520   3.450   5.285
 6786SOL    HW121257   1.553   3.525   5.343
 6786SOL    HW221258   1.528   3.476   5.189
 6787SOL     OW21259   0.941   3.893   1.474
 6787SOL    HW121260   1.025   3.929   1.434
 6787SOL    HW221261   0.932   3.924   1.569
 6788SOL     OW21262   2.836   3.763   1.300
 6788SOL    HW121263   2.826   3.664   1.295
 6788SOL    HW221264   2.862   3.799   1.211
 6789SOL     OW21265   1.554   4.543   3.162
 6789SOL    HW121266   1.558   4.481   3.241
 6789SOL    HW221267   1.629   4.522   3.100
 6790SOL     OW21268   1.288   2.952   0.662
 6790SOL    HW121269   1.272   2.891   0.740
 6790SOL    HW221270   1.225   3.030   0.668
 6791SOL     OW21271   3.715   4.105   6.106
 6791SOL    HW121272   3.720   4.135   6.010
 6791SOL    HW221273   3.627   4.132   6.144
 6792SOL     OW21274   0.161   4.957   0.800
 6792SOL    HW121275   0.158   5.003   0.889
 6792SOL    HW221276   0.075   4.970   0.753
 6793SOL     OW21277   5.258   1.032   0.957
 6793SOL    HW121278   5.243   1.102   0.887
 6793SOL    HW221279   5.356   1.026   0.978
 6794SOL     OW21280   3.584   1.725   4.766
 6794SOL    HW121281   3.547   1.644   4.812
 6794SOL    HW221282   3.509   1.780   4.729
 6795SOL     OW21283   3.558   5.738   6.977
 6795SOL    HW121284   3.596   5.678   6.907
 6795SOL    HW221285   3.621   5.815   6.993
 6796SOL     OW21286   4.374   2.004   2.237
 6796SOL    HW121287   4.345   1.939   2.307
 6796SOL    HW221288   4.329   2.092   2.252
 6797SOL     OW21289   6.435   2.409   2.372
 6797SOL    HW121290   6.473   2.501   2.367
 6797SOL    HW221291   6.416   2.376   2.279
 6798SOL     OW21292   6.451   0.033   2.482
 6798SOL    HW121293   6.524   0.059   2.419
 6798SOL    HW221294   6.490   0.018   2.573
 6799SOL     OW21295   5.594   6.040   2.016
 6799SOL    HW121296   5.499   6.014   2.030
 6799SOL    HW221297   5.620   6.110   2.083
 6800SOL     OW21298   3.467   4.192   6.165
 6800SOL    HW121299   3.373   4.204   6.133
 6800SOL    HW221300   3.466   4.153   6.257
 6801SOL     OW21301   0.952   3.317   3.190
 6801SOL    HW121302   1.002   3.343   3.107
 6801SOL    HW221303   1.016   3.313   3.267
 6802SOL     OW21304   2.975   4.831   2.683
 6802SOL    HW121305   2.913   4.790   2.750
 6802SOL    HW221306   2.927   4.841   2.596
 6803SOL     OW21307   4.115   2.061   0.861
 6803SOL    HW121308   4.127   2.147   0.811
 6803SOL    HW221309   4.195   2.044   0.918
 6804SOL     OW21310   1.163   6.144   3.610
 6804SOL    HW121311   1.140   6.128   3.513
 6804SOL    HW221312   1.250   6.099   3.631
 6805SOL     OW21313   5.582   1.250   5.601
 6805SOL    HW121314   5.590   1.156   5.569
 6805SOL    HW221315   5.523   1.253   5.682
 6806SOL     OW21316   5.042   6.280   4.950
 6806SOL    HW121317   5.141   6.267   4.954
 6806SOL    HW221318   5.008   6.245   4.863
 6807SOL     OW21319   3.759   3.445   6.986
 6807SOL    HW121320   3.698   3.372   6.955
 6807SOL    HW221321   3.704   3.525   7.012
 6808SOL     OW21322   2.044   4.053   4.286
 6808SOL    HW121323   2.098   4.128   4.247
 6808SOL    HW221324   1.956   4.049   4.240
 6809SOL     OW21325   1.637   3.710   0.018
 6809SOL    HW121326   1.602   3.660   6.955
 6809SOL    HW221327   1.667   3.801   7.004
 6810SOL     OW21328   5.831   1.166   3.823
 6810SOL    HW121329   5.912   1.221   3.842
 6810SOL    HW221330   5.856   1.069   3.820
 6811SOL     OW21331   5.291   5.902   1.989
 6811SOL    HW121332   5.318   5.849   1.910
 6811SOL    HW221333   5.195   5.882   2.012
 6812SOL     OW21334   3.648   2.888   2.700
 6812SOL    HW121335   3.674   2.888   2.604
 6812SOL    HW221336   3.729   2.872   2.756
 6813SOL     OW21337   5.276   3.798   1.064
 6813SOL    HW121338   5.219   3.874   1.096
 6813SOL    HW221339   5.287   3.804   0.965
 6814SOL     OW21340   2.241   2.614   0.466
 6814SOL    HW121341   2.156   2.606   0.519
 6814SOL    HW221342   2.318   2.583   0.522
 6815SOL     OW21343   1.507   0.632   0.504
 6815SOL    HW121344   1.505   0.556   0.569
 6815SOL    HW221345   1.486   0.717   0.551
 6816SOL     OW21346   5.025   4.712   1.611
 6816SOL    HW121347   4.964   4.637   1.586
 6816SOL    HW221348   5.083   4.735   1.533
 6817SOL     OW21349   0.954   2.839   5.962
 6817SOL    HW121350   0.939   2.741   5.974
 6817SOL    HW221351   0.999   2.855   5.875
 6818SOL     OW21352   3.970   5.284   1.333
 6818SOL    HW121353   4.028   5.363   1.350
 6818SOL    HW221354   4.025   5.200   1.341
 6819SOL     OW21355   2.182   1.887   3.733
 6819SOL    HW121356   2.276   1.867   3.706
 6819SOL    HW221357   2.166   1.851   3.825
 6820SOL     OW21358   1.730   5.158   4.521
 6820SOL    HW121359   1.813   5.181   4.470
 6820SOL    HW221360   1.748   5.168   4.619
 6821SOL     OW21361   2.115   3.089   3.859
 6821SOL    HW121362   2.095   3.005   3.909
 6821SOL    HW221363   2.160   3.154   3.920
 6822SOL     OW21364   5.059   1.596   5.970
 6822SOL    HW121365   5.150   1.586   5.932
 6822SOL    HW221366   5.019   1.683   5.940
 6823SOL     OW21367   4.091   3.587   2.081
 6823SOL    HW121368   4.046   3.561   2.166
 6823SOL    HW221369   4.165   3.522   2.062
 6824SOL     OW21370   0.753   5.360   5.006
 6824SOL    HW121371   0.715   5.267   5.006
 6824SOL    HW221372   0.685   5.423   5.044
 6825SOL     OW21373   5.597   0.023   4.260
 6825SOL    HW121374   5.631   0.047   4.169
 6825SOL    HW221375   5.621   0.096   4.324
 6826SOL     OW21376   1.210   3.083   3.201
 6826SOL    HW121377   1.244   3.118   3.288
 6826SOL    HW221378   1.279   3.098   3.130
 6827SOL     OW21379   4.536   5.056   5.386
 6827SOL    HW121380   4.631   5.076   5.411
 6827SOL    HW221381   4.517   4.959   5.400
 6828SOL     OW21382   2.379   1.731   0.996
 6828SOL    HW121383   2.311   1.778   0.940
 6828SOL    HW221384   2.341   1.645   1.031
 6829SOL     OW21385   5.899   4.874   3.381
 6829SOL    HW121386   5.828   4.941   3.360
 6829SOL    HW221387   5.887   4.793   3.324
 6830SOL     OW21388   5.281   1.697   3.639
 6830SOL    HW121389   5.321   1.605   3.638
 6830SOL    HW221390   5.304   1.743   3.553
 6831SOL     OW21391   0.254   1.758   5.715
 6831SOL    HW121392   0.214   1.714   5.635
 6831SOL    HW221393   0.210   1.723   5.798
 6832SOL     OW21394   3.263   4.615   1.191
 6832SOL    HW121395   3.258   4.602   1.290
 6832SOL    HW221396   3.309   4.537   1.149
 6833SOL     OW21397   4.259   5.955   0.461
 6833SOL    HW121398   4.309   5.960   0.375
 6833SOL    HW221399   4.222   6.045   0.484
 6834SOL     OW21400   2.741   5.010   2.837
 6834SOL    HW121401   2.755   5.064   2.920
 6834SOL    HW221402   2.734   5.071   2.758
 6835SOL     OW21403   3.770   0.178   4.664
 6835SOL    HW121404   3.752   0.117   4.587
 6835SOL    HW221405   3.860   0.221   4.652
 6836SOL     OW21406   4.163   5.932   0.034
 6836SOL    HW121407   4.213   5.896   6.971
 6836SOL    HW221408   4.091   5.868   0.060
 6837SOL     OW21409   0.682   3.271   3.048
 6837SOL    HW121410   0.747   3.262   3.123
 6837SOL    HW221411   0.661   3.180   3.012
 6838SOL     OW21412   2.845   1.719   1.115
 6838SOL    HW121413   2.774   1.740   1.182
 6838SOL    HW221414   2.913   1.792   1.114
 6839SOL     OW21415   3.609   0.899   1.705
 6839SOL    HW121416   3.641   0.898   1.799
 6839SOL    HW221417   3.512   0.874   1.703
 6840SOL     OW21418   1.055   1.250   6.050
 6840SOL    HW121419   1.080   1.215   5.960
 6840SOL    HW221420   1.027   1.174   6.109
 6841SOL     OW21421   0.464   3.216   5.653
 6841SOL    HW121422   0.460   3.191   5.750
 6841SOL    HW221423   0.523   3.151   5.605
 6842SOL     OW21424   2.817   4.839   2.446
 6842SOL    HW121425   2.738   4.810   2.499
 6842SOL    HW221426   2.809   4.804   2.352
 6843SOL     OW21427   4.374   0.323   1.431
 6843SOL    HW121428   4.441   0.392   1.456
 6843SOL    HW221429   4.296   0.366   1.386
 6844SOL     OW21430   5.726   0.238   5.262
 6844SOL    HW121431   5.789   0.236   5.184
 6844SOL    HW221432   5.719   0.332   5.296
 6845SOL     OW21433   5.777   1.836   2.497
 6845SOL    HW121434   5.874   1.825   2.472
 6845SOL    HW221435   5.769   1.846   2.596
 6846SOL     OW21436   1.936   3.455   0.251
 6846SOL    HW121437   1.934   3.356   0.263
 6846SOL    HW221438   1.872   3.481   0.178
 6847SOL     OW21439   6.837   2.392   4.204
 6847SOL    HW121440   6.828   2.489   4.183
 6847SOL    HW221441   6.786   2.339   4.135
 6848SOL     OW21442   6.707   4.723   3.972
 6848SOL    HW121443   6.656   4.640   3.948
 6848SOL    HW221444   6.775   4.700   4.042
 6849SOL     OW21445   2.729   4.271   5.368
 6849SOL    HW121446   2.675   4.194   5.333
 6849SOL    HW221447   2.821   4.267   5.329
 6850SOL     OW21448   5.250   0.283   4.228
 6850SOL    HW121449   5.238   0.213   4.299
 6850SOL    HW221450   5.255   0.240   4.138
 6851SOL     OW21451   1.712   4.325   3.098
 6851SOL    HW121452   1.793   4.343   3.153
 6851SOL    HW221453   1.691   4.228   3.099
 6852SOL     OW21454   4.256   3.463   0.320
 6852SOL    HW121455   4.327   3.524   0.354
 6852SOL    HW221456   4.200   3.511   0.252
 6853SOL     OW21457   4.054   4.972   6.154
 6853SOL    HW121458   4.009   5.047   6.202
 6853SOL    HW221459   3.997   4.890   6.159
 6854SOL     OW21460   5.062   6.020   5.648
 6854SOL    HW121461   5.038   5.925   5.669
 6854SOL    HW221462   5.161   6.031   5.654
 6855SOL     OW21463   3.518   5.346   3.155
 6855SOL    HW121464   3.489   5.441   3.171
 6855SOL    HW221465   3.604   5.329   3.204
 6856SOL     OW21466   6.493   2.495   0.822
 6856SOL    HW121467   6.475   2.587   0.858
 6856SOL    HW221468   6.440   2.481   0.739
 6857SOL     OW21469   1.640   4.787   5.874
 6857SOL    HW121470   1.554   4.745   5.845
 6857SOL    HW221471   1.625   4.839   5.958
 6858SOL     OW21472   1.072   3.519   1.638
 6858SOL    HW121473   1.156   3.472   1.610
 6858SOL    HW221474   1.022   3.549   1.557
 6859SOL     OW21475   2.565   1.948   0.950
 6859SOL    HW121476   2.500   1.873   0.947
 6859SOL    HW221477   2.642   1.929   0.889
 6860SOL     OW21478   0.456   6.600   0.213
 6860SOL    HW121479   0.542   6.604   0.163
 6860SOL    HW221480   0.381   6.632   0.155
 6861SOL     OW21481   6.619   3.121   6.956
 6861SOL    HW121482   6.592   3.217   6.967
 6861SOL    HW221483   6.710   3.108   6.995
 6862SOL     OW21484   0.485   4.119   3.572
 6862SOL    HW121485   0.562   4.172   3.536
 6862SOL    HW221486   0.517   4.054   3.640
 6863SOL     OW21487   5.281   1.145   5.533
 6863SOL    HW121488   5.186   1.172   5.517
 6863SOL    HW221489   5.321   1.203   5.604
 6864SOL     OW21490   2.083   3.669   6.470
 6864SOL    HW121491   2.001   3.671   6.527
 6864SOL    HW221492   2.158   3.627   6.521
 6865SOL     OW21493   1.808   0.385   3.857
 6865SOL    HW121494   1.752   0.347   3.783
 6865SOL    HW221495   1.850   0.470   3.827
 6866SOL     OW21496   2.035   4.999   6.980
 6866SOL    HW121497   1.944   5.030   7.006
 6866SOL    HW221498   2.093   5.078   6.961
 6867SOL     OW21499   2.039   2.621   6.104
 6867SOL    HW121500   2.098   2.689   6.149
 6867SOL    HW221501   2.077   2.599   6.014
 6868SOL     OW21502   3.645   5.003   3.288
 6868SOL    HW121503   3.581   4.971   3.358
 6868SOL    HW221504   3.602   4.994   3.198
 6869SOL     OW21505   1.364   0.870   5.419
 6869SOL    HW121506   1.327   0.808   5.350
 6869SOL    HW221507   1.464   0.869   5.414
 6870SOL     OW21508   5.370   2.920   6.805
 6870SOL    HW121509   5.390   2.827   6.776
 6870SOL    HW221510   5.279   2.923   6.846
 6871SOL     OW21511   6.322   2.429   2.643
 6871SOL    HW121512   6.387   2.448   2.717
 6871SOL    HW221513   6.372   2.405   2.560
 6872SOL     OW21514   1.864   4.705   0.765
 6872SOL    HW121515   1.777   4.710   0.814
 6872SOL    HW221516   1.939   4.706   0.831
 6873SOL     OW21517   0.440   3.953   2.638
 6873SOL    HW121518   0.481   3.902   2.562
 6873SOL    HW221519   0.436   3.896   2.719
 6874SOL     OW21520   4.177   5.776   1.774
 6874SOL    HW121521   4.120   5.714   1.720
 6874SOL    HW221522   4.214   5.728   1.854
 6875SOL     OW21523   2.853   1.099   6.669
 6875SOL    HW121524   2.792   1.173   6.640
 6875SOL    HW221525   2.898   1.059   6.589
 6876SOL     OW21526   5.817   5.113   3.261
 6876SOL    HW121527   5.766   5.147   3.183
 6876SOL    HW221528   5.887   5.049   3.230
 6877SOL     OW21529   0.552   4.432   1.358
 6877SOL    HW121530   0.645   4.466   1.343
 6877SOL    HW221531   0.495   4.505   1.396
 6878SOL     OW21532   1.965   0.581   4.121
 6878SOL    HW121533   2.014   0.522   4.057
 6878SOL    HW221534   1.922   0.655   4.070
 6879SOL     OW21535   1.072   1.412   1.385
 6879SOL    HW121536   1.096   1.419   1.482
 6879SOL    HW221537   1.110   1.328   1.348
 6880SOL     OW21538   2.196   6.374   0.716
 6880SOL    HW121539   2.162   6.289   0.675
 6880SOL    HW221540   2.206   6.444   0.646
 6881SOL     OW21541   6.939   3.736   0.496
 6881SOL    HW121542   6.978   3.700   0.581
 6881SOL    HW221543   6.887   3.819   0.516
 6882SOL     OW21544   2.823   6.892   0.222
 6882SOL    HW121545   2.784   6.936   0.141
 6882SOL    HW221546   2.902   6.838   0.196
 6883SOL     OW21547   4.720   6.917   1.371
 6883SOL    HW121548   4.653   6.990   1.361
 6883SOL    HW221549   4.718   6.858   1.289
 6884SOL     OW21550   1.479   5.049   2.993
 6884SOL    HW121551   1.423   4.981   3.040
 6884SOL    HW221552   1.563   5.006   2.960
 6885SOL     OW21553   5.769   4.884   4.612
 6885SOL    HW121554   5.711   4.910   4.535
 6885SOL    HW221555   5.723   4.812   4.665
 6886SOL     OW21556   5.330   4.277   0.592
 6886SOL    HW121557   5.377   4.199   0.631
 6886SOL    HW221558   5.297   4.254   0.501
 6887SOL     OW21559   5.509   6.620   5.859
 6887SOL    HW121560   5.519   6.716   5.885
 6887SOL    HW221561   5.418   6.604   5.822
 6888SOL     OW21562   6.347   4.500   0.286
 6888SOL    HW121563   6.359   4.417   0.341
 6888SOL    HW221564   6.260   4.543   0.309
 6889SOL     OW21565   0.157   2.474   5.644
 6889SOL    HW121566   0.193   2.493   5.553
 6889SOL    HW221567   0.192   2.542   5.709
 6890SOL     OW21568   4.802   4.928   4.417
 6890SOL    HW121569   4.815   4.846   4.362
 6890SOL    HW221570   4.722   4.979   4.384
 6891SOL     OW21571   1.846   2.001   0.721
 6891SOL    HW121572   1.901   2.065   0.667
 6891SOL    HW221573   1.816   2.047   0.805
 6892SOL     OW21574   1.763   0.971   4.842
 6892SOL    HW121575   1.777   0.992   4.939
 6892SOL    HW221576   1.845   0.995   4.790
 6893SOL     OW21577   5.897   3.256   0.246
 6893SOL    HW121578   5.849   3.221   0.166
 6893SOL    HW221579   5.903   3.355   0.241
 6894SOL     OW21580   5.470   5.245   0.080
 6894SOL    HW121581   5.430   5.337   0.074
 6894SOL    HW221582   5.417   5.190   0.145
 6895SOL     OW21583   1.278   5.407   2.219
 6895SOL    HW121584   1.307   5.414   2.315
 6895SOL    HW221585   1.229   5.491   2.194
 6896SOL     OW21586   5.534   0.837   6.283
 6896SOL    HW121587   5.472   0.841   6.205
 6896SOL    HW221588   5.603   0.767   6.267
 6897SOL     OW21589   4.499   2.357   4.980
 6897SOL    HW121590   4.575   2.380   5.040
 6897SOL    HW221591   4.426   2.424   4.992
 6898SOL     OW21592   1.739   6.900   1.280
 6898SOL    HW121593   1.747   6.860   1.189
 6898SOL    HW221594   1.682   6.982   1.275
 6899SOL     OW21595   5.279   5.219   2.255
 6899SOL    HW121596   5.340   5.297   2.268
 6899SOL    HW221597   5.289   5.184   2.162
 6900SOL     OW21598   0.310   4.233   4.772
 6900SOL    HW121599   0.377   4.161   4.755
 6900SOL    HW221600   0.349   4.322   4.747
 6901SOL     OW21601   5.065   4.696   6.186
 6901SOL    HW121602   5.050   4.760   6.260
 6901SOL    HW221603   4.987   4.634   6.178
 6902SOL     OW21604   0.382   6.070   5.675
 6902SOL    HW121605   0.310   6.123   5.721
 6902SOL    HW221606   0.358   6.059   5.578
 6903SOL     OW21607   1.652   6.488   5.289
 6903SOL    HW121608   1.610   6.577   5.271
 6903SOL    HW221609   1.724   6.471   5.221
 6904SOL     OW21610   0.976   0.732   6.181
 6904SOL    HW121611   0.885   0.764   6.157
 6904SOL    HW221612   1.029   0.714   6.098
 6905SOL     OW21613   4.328   6.057   5.632
 6905SOL    HW121614   4.368   6.140   5.594
 6905SOL    HW221615   4.296   5.998   5.558
 6906SOL     OW21616   3.242   1.633   3.333
 6906SOL    HW121617   3.213   1.651   3.427
 6906SOL    HW221618   3.214   1.542   3.306
 6907SOL     OW21619   5.903   2.919   0.157
 6907SOL    HW121620   5.876   3.002   0.108
 6907SOL    HW221621   5.942   2.854   0.092
 6908SOL     OW21622   3.994   6.136   0.605
 6908SOL    HW121623   3.984   6.041   0.575
 6908SOL    HW221624   3.997   6.140   0.705
 6909SOL     OW21625   5.767   4.072   2.224
 6909SOL    HW121626   5.760   4.161   2.269
 6909SOL    HW221627   5.812   4.083   2.136
 6910SOL     OW21628   1.830   2.583   1.983
 6910SOL    HW121629   1.766   2.535   2.042
 6910SOL    HW221630   1.904   2.521   1.956
 6911SOL     OW21631   2.743   6.757   5.087
 6911SOL    HW121632   2.706   6.676   5.042
 6911SOL    HW221633   2.702   6.839   5.046
 6912SOL     OW21634   3.273   4.194   6.554
 6912SOL    HW121635   3.363   4.228   6.579
 6912SOL    HW221636   3.279   4.097   6.532
 6913SOL     OW21637   4.104   5.658   6.067
 6913SOL    HW121638   4.129   5.665   5.970
 6913SOL    HW221639   4.147   5.732   6.118
 6914SOL     OW21640   0.466   2.492   2.617
 6914SOL    HW121641   0.418   2.436   2.548
 6914SOL    HW221642   0.550   2.446   2.644
 6915SOL     OW21643   0.122   3.044   4.415
 6915SOL    HW121644   0.028   3.070   4.432
 6915SOL    HW221645   0.147   3.070   4.321
 6916SOL     OW21646   4.687   6.363   5.866
 6916SOL    HW121647   4.659   6.369   5.770
 6916SOL    HW221648   4.772   6.310   5.872
 6917SOL     OW21649   3.940   6.240   2.243
 6917SOL    HW121650   3.927   6.197   2.332
 6917SOL    HW221651   3.873   6.204   2.178
 6918SOL     OW21652   1.940   3.711   0.399
 6918SOL    HW121653   1.957   3.614   0.379
 6918SOL    HW221654   1.998   3.768   0.341
 6919SOL     OW21655   6.103   6.155   3.333
 6919SOL    HW121656   6.044   6.077   3.313
 6919SOL    HW221657   6.058   6.239   3.304
 6920SOL     OW21658   0.477   2.579   5.284
 6920SOL    HW121659   0.531   2.619   5.209
 6920SOL    HW221660   0.537   2.560   5.362
 6921SOL     OW21661   3.252   0.428   4.586
 6921SOL    HW121662   3.207   0.464   4.668
 6921SOL    HW221663   3.244   0.328   4.585
 6922SOL     OW21664   3.171   4.843   6.599
 6922SOL    HW121665   3.143   4.937   6.578
 6922SOL    HW221666   3.146   4.783   6.522
 6923SOL     OW21667   4.940   6.806   3.195
 6923SOL    HW121668   4.949   6.708   3.216
 6923SOL    HW221669   4.854   6.840   3.234
 6924SOL     OW21670   2.834   4.860   1.857
 6924SOL    HW121671   2.845   4.847   1.758
 6924SOL    HW221672   2.809   4.774   1.900
 6925SOL     OW21673   6.617   6.281   4.374
 6925SOL    HW121674   6.565   6.293   4.458
 6925SOL    HW221675   6.612   6.365   4.319
 6926SOL     OW21676   2.768   2.554   0.527
 6926SOL    HW121677   2.748   2.478   0.465
 6926SOL    HW221678   2.857   2.539   0.570
 6927SOL     OW21679   3.397   6.997   6.011
 6927SOL    HW121680   3.320   0.043   6.023
 6927SOL    HW221681   3.386   6.945   5.927
 6928SOL     OW21682   4.422   6.013   0.694
 6928SOL    HW121683   4.334   6.004   0.742
 6928SOL    HW221684   4.417   5.964   0.607
 6929SOL     OW21685   4.522   5.172   2.706
 6929SOL    HW121686   4.611   5.216   2.700
 6929SOL    HW221687   4.457   5.233   2.753
 6930SOL     OW21688   1.075   6.304   1.683
 6930SOL    HW121689   1.132   6.297   1.765
 6930SOL    HW221690   0.986   6.263   1.702
 6931SOL     OW21691   3.333   3.102   0.928
 6931SOL    HW121692   3.343   3.019   0.984
 6931SOL    HW221693   3.237   3.129   0.925
 6932SOL     OW21694   4.127   0.759   6.780
 6932SOL    HW121695   4.123   0.676   6.725
 6932SOL    HW221696   4.034   0.790   6.801
 6933SOL     OW21697   3.864   6.146   5.814
 6933SOL    HW121698   3.808   6.150   5.732
 6933SOL    HW221699   3.809   6.174   5.893
 6934SOL     OW21700   4.779   4.995   0.287
 6934SOL    HW121701   4.785   5.060   0.363
 6934SOL    HW221702   4.710   5.026   0.221
 6935SOL     OW21703   4.162   5.423   2.394
 6935SOL    HW121704   4.064   5.410   2.374
 6935SOL    HW221705   4.212   5.432   2.308
 6936SOL     OW21706   0.921   1.912   6.746
 6936SOL    HW121707   0.832   1.948   6.718
 6936SOL    HW221708   0.984   1.915   6.669
 6937SOL     OW21709   5.604   4.805   0.714
 6937SOL    HW121710   5.683   4.866   0.703
 6937SOL    HW221711   5.623   4.717   0.672
 6938SOL     OW21712   3.157   0.212   5.214
 6938SOL    HW121713   3.094   0.136   5.230
 6938SOL    HW221714   3.238   0.179   5.166
 6939SOL     OW21715   5.593   2.908   3.499
 6939SOL    HW121716   5.567   2.869   3.411
 6939SOL    HW221717   5.543   2.863   3.573
 6940SOL     OW21718   1.828   6.422   1.868
 6940SOL    HW121719   1.902   6.363   1.837
 6940SOL    HW221720   1.753   6.419   1.802
 6941SOL     OW21721   3.493   3.062   2.442
 6941SOL    HW121722   3.586   3.027   2.443
 6941SOL    HW221723   3.471   3.101   2.532
 6942SOL     OW21724   6.891   4.753   2.912
 6942SOL    HW121725   6.807   4.705   2.939
 6942SOL    HW221726   6.934   4.792   2.993
 6943SOL     OW21727   3.208   5.278   5.394
 6943SOL    HW121728   3.275   5.316   5.457
 6943SOL    HW221729   3.127   5.337   5.392
 6944SOL     OW21730   0.894   4.934   5.058
 6944SOL    HW121731   0.839   4.882   5.123
 6944SOL    HW221732   0.932   4.871   4.989
 6945SOL     OW21733   4.282   1.407   0.679
 6945SOL    HW121734   4.203   1.446   0.632
 6945SOL    HW221735   4.363   1.414   0.621
 6946SOL     OW21736   5.134   5.755   2.876
 6946SOL    HW121737   5.208   5.689   2.871
 6946SOL    HW221738   5.169   5.844   2.905
 6947SOL     OW21739   6.144   3.963   5.146
 6947SOL    HW121740   6.192   3.911   5.216
 6947SOL    HW221741   6.199   4.043   5.121
 6948SOL     OW21742   0.131   4.861   6.668
 6948SOL    HW121743   0.184   4.781   6.695
 6948SOL    HW221744   0.158   4.940   6.724
 6949SOL     OW21745   2.356   1.335   3.247
 6949SOL    HW121746   2.453   1.336   3.220
 6949SOL    HW221747   2.342   1.399   3.322
 6950SOL     OW21748   2.138   1.276   4.239
 6950SOL    HW121749   2.082   1.313   4.164
 6950SOL    HW221750   2.086   1.205   4.287
 6951SOL     OW21751   1.263   4.001   6.988
 6951SOL    HW121752   1.267   4.096   0.005
 6951SOL    HW221753   1.317   3.943   0.033
 6952SOL     OW21754   4.366   4.903   3.342
 6952SOL    HW121755   4.315   4.988   3.358
 6952SOL    HW221756   4.463   4.923   3.333
 6953SOL     OW21757   0.305   0.887   1.783
 6953SOL    HW121758   0.222   0.875   1.728
 6953SOL    HW221759   0.286   0.952   1.857
 6954SOL     OW21760   6.503   5.177   6.088
 6954SOL    HW121761   6.423   5.193   6.145
 6954SOL    HW221762   6.501   5.083   6.053
 6955SOL     OW21763   4.238   5.929   2.512
 6955SOL    HW121764   4.298   5.969   2.581
 6955SOL    HW221765   4.274   5.949   2.421
 6956SOL     OW21766   5.891   5.158   1.972
 6956SOL    HW121767   5.833   5.218   1.917
 6956SOL    HW221768   5.908   5.073   1.923
 6957SOL     OW21769   5.826   4.208   5.190
 6957SOL    HW121770   5.883   4.271   5.137
 6957SOL    HW221771   5.880   4.169   5.265
 6958SOL     OW21772   3.331   3.598   1.793
 6958SOL    HW121773   3.334   3.625   1.889
 6958SOL    HW221774   3.409   3.537   1.773
 6959SOL     OW21775   1.207   3.553   2.406
 6959SOL    HW121776   1.144   3.589   2.337
 6959SOL    HW221777   1.205   3.610   2.488
 6960SOL     OW21778   5.387   4.725   1.557
 6960SOL    HW121779   5.461   4.718   1.491
 6960SOL    HW221780   5.343   4.636   1.567
 6961SOL     OW21781   5.262   2.171   4.803
 6961SOL    HW121782   5.298   2.237   4.737
 6961SOL    HW221783   5.226   2.219   4.882
 6962SOL     OW21784   2.437   6.178   0.834
 6962SOL    HW121785   2.351   6.208   0.793
 6962SOL    HW221786   2.512   6.235   0.799
 6963SOL     OW21787   0.665   6.544   0.023
 6963SOL    HW121788   0.588   6.582   6.987
 6963SOL    HW221789   0.726   6.494   6.977
 6964SOL     OW21790   2.177   1.190   4.844
 6964SOL    HW121791   2.129   1.224   4.763
 6964SOL    HW221792   2.247   1.124   4.816
 6965SOL     OW21793   1.726   1.287   7.011
 6965SOL    HW121794   1.822   1.291   0.024
 6965SOL    HW221795   1.722   1.274   6.912
 6966SOL     OW21796   1.639   6.423   0.993
 6966SOL    HW121797   1.735   6.421   1.020
 6966SOL    HW221798   1.622   6.504   0.936
 6967SOL     OW21799   3.796   0.033   6.539
 6967SOL    HW121800   3.714   0.065   6.492
 6967SOL    HW221801   3.819   6.957   6.507
 6968SOL     OW21802   3.864   0.403   2.110
 6968SOL    HW121803   3.927   0.410   2.187
 6968SOL    HW221804   3.847   0.494   2.073
 6969SOL     OW21805   1.453   3.372   2.647
 6969SOL    HW121806   1.483   3.352   2.740
 6969SOL    HW221807   1.511   3.443   2.608
 6970SOL     OW21808   3.662   5.780   5.617
 6970SOL    HW121809   3.702   5.796   5.707
 6970SOL    HW221810   3.713   5.707   5.571
 6971SOL     OW21811   6.905   3.915   0.128
 6971SOL    HW121812   6.936   3.942   0.037
 6971SOL    HW221813   6.856   3.828   0.123
 6972SOL     OW21814   5.669   4.007   1.852
 6972SOL    HW121815   5.710   4.003   1.943
 6972SOL    HW221816   5.609   3.928   1.838
 6973SOL     OW21817   1.287   1.519   3.260
 6973SOL    HW121818   1.343   1.602   3.255
 6973SOL    HW221819   1.297   1.467   3.175
 6974SOL     OW21820   4.146   3.436   3.042
 6974SOL    HW121821   4.231   3.388   3.062
 6974SOL    HW221822   4.079   3.370   3.007
 6975SOL     OW21823   3.089   5.285   4.792
 6975SOL    HW121824   3.153   5.319   4.861
 6975SOL    HW221825   3.069   5.359   4.726
 6976SOL     OW21826   4.773   5.116   6.178
 6976SOL    HW121827   4.748   5.205   6.217
 6976SOL    HW221828   4.872   5.111   6.165
 6977SOL     OW21829   4.114   4.720   2.277
 6977SOL    HW121830   4.104   4.632   2.230
 6977SOL    HW221831   4.097   4.795   2.213
 6978SOL     OW21832   1.175   3.756   1.249
 6978SOL    HW121833   1.169   3.837   1.307
 6978SOL    HW221834   1.109   3.764   1.174
 6979SOL     OW21835   1.315   3.936   2.778
 6979SOL    HW121836   1.271   3.879   2.848
 6979SOL    HW221837   1.389   3.989   2.819
 6980SOL     OW21838   2.209   4.552   3.145
 6980SOL    HW121839   2.215   4.618   3.071
 6980SOL    HW221840   2.297   4.546   3.192
 6981SOL     OW21841   4.104   2.285   6.871
 6981SOL    HW121842   4.146   2.346   6.939
 6981SOL    HW221843   4.128   2.316   6.779
 6982SOL     OW21844   6.409   0.033   1.999
 6982SOL    HW121845   6.468   0.100   1.955
 6982SOL    HW221846   6.357   6.999   1.929
 6983SOL     OW21847   0.118   0.470   3.941
 6983SOL    HW121848   0.211   0.486   3.907
 6983SOL    HW221849   0.091   0.545   4.002
 6984SOL     OW21850   1.998   4.356   3.433
 6984SOL    HW121851   1.995   4.416   3.354
 6984SOL    HW221852   1.905   4.331   3.460
 6985SOL     OW21853   5.377   3.509   0.999
 6985SOL    HW121854   5.442   3.465   0.937
 6985SOL    HW221855   5.292   3.527   0.951
 6986SOL     OW21856   3.622   5.726   5.040
 6986SOL    HW121857   3.661   5.699   4.952
 6986SOL    HW221858   3.688   5.707   5.112
 6987SOL     OW21859   6.817   1.177   6.889
 6987SOL    HW121860   6.748   1.155   6.958
 6987SOL    HW221861   6.774   1.224   6.812
 6988SOL     OW21862   1.887   0.405   6.105
 6988SOL    HW121863   1.922   0.444   6.020
 6988SOL    HW221864   1.963   0.390   6.169
 6989SOL     OW21865   0.771   3.405   2.235
 6989SOL    HW121866   0.742   3.410   2.139
 6989SOL    HW221867   0.870   3.391   2.238
 6990SOL     OW21868   3.786   4.353   6.719
 6990SOL    HW121869   3.862   4.414   6.697
 6990SOL    HW221870   3.787   4.333   6.817
 6991SOL     OW21871   5.185   4.372   3.484
 6991SOL    HW121872   5.103   4.374   3.541
 6991SOL    HW221873   5.190   4.457   3.430
 6992SOL     OW21874   1.780   5.439   5.986
 6992SOL    HW121875   1.690   5.395   5.992
 6992SOL    HW221876   1.787   5.510   6.056
 6993SOL     OW21877   4.363   2.245   1.728
 6993SOL    HW121878   4.349   2.317   1.795
 6993SOL    HW221879   4.324   2.273   1.640
 6994SOL     OW21880   2.622   1.133   2.875
 6994SOL    HW121881   2.587   1.044   2.846
 6994SOL    HW221882   2.573   1.206   2.828
 6995SOL     OW21883   6.851   4.896   0.853
 6995SOL    HW121884   6.903   4.849   0.782
 6995SOL    HW221885   6.754   4.875   0.843
 6996SOL     OW21886   0.640   1.634   6.540
 6996SOL    HW121887   0.637   1.612   6.443
 6996SOL    HW221888   0.696   1.567   6.589
 6997SOL     OW21889   5.727   5.963   5.926
 6997SOL    HW121890   5.663   5.932   5.997
 6997SOL    HW221891   5.769   6.048   5.955
 6998SOL     OW21892   0.551   1.008   6.965
 6998SOL    HW121893   0.515   1.101   6.972
 6998SOL    HW221894   0.624   1.005   6.897
 6999SOL     OW21895   0.483   2.716   0.133
 6999SOL    HW121896   0.458   2.705   0.230
 6999SOL    HW221897   0.401   2.738   0.080
 7000SOL     OW21898   0.603   4.786   3.293
 7000SOL    HW121899   0.508   4.792   3.263
 7000SOL    HW221900   0.637   4.878   3.316
 7001SOL     OW21901   0.810   1.434   4.478
 7001SOL    HW121902   0.741   1.496   4.440
 7001SOL    HW221903   0.783   1.339   4.459
 7002SOL     OW21904   1.176   4.326   2.653
 7002SOL    HW121905   1.121   4.409   2.640
 7002SOL    HW221906   1.144   4.277   2.734
 7003SOL     OW21907   0.548   5.339   6.248
 7003SOL    HW121908   0.600   5.293   6.176
 7003SOL    HW221909   0.605   5.349   6.329
 7004SOL     OW21910   1.136   0.892   6.573
 7004SOL    HW121911   1.187   0.971   6.608
 7004SOL    HW221912   1.161   0.811   6.626
 7005SOL     OW21913   1.936   5.292   0.048
 7005SOL    HW121914   1.996   5.274   6.986
 7005SOL    HW221915   1.861   5.226   0.048
 7006SOL     OW21916   0.773   0.552   3.791
 7006SOL    HW121917   0.792   0.601   3.706
 7006SOL    HW221918   0.702   0.484   3.775
 7007SOL     OW21919   1.978   0.143   6.573
 7007SOL    HW121920   1.940   0.071   6.632
 7007SOL    HW221921   1.908   0.213   6.558
 7008SOL     OW21922   5.297   3.153   2.218
 7008SOL    HW121923   5.290   3.124   2.122
 7008SOL    HW221924   5.393   3.157   2.245
 7009SOL     OW21925   5.278   5.661   2.542
 7009SOL    HW121926   5.325   5.736   2.497
 7009SOL    HW221927   5.207   5.697   2.603
 7010SOL     OW21928   5.243   3.397   2.483
 7010SOL    HW121929   5.185   3.353   2.415
 7010SOL    HW221930   5.202   3.484   2.510
 7011SOL     OW21931   1.915   6.083   6.436
 7011SOL    HW121932   1.984   6.131   6.490
 7011SOL    HW221933   1.867   6.148   6.377
 7012SOL     OW21934   0.093   4.189   0.343
 7012SOL    HW121935   0.117   4.221   0.434
 7012SOL    HW221936   0.116   4.259   0.275
 7013SOL     OW21937   2.874   2.499   0.185
 7013SOL    HW121938   2.816   2.437   0.238
 7013SOL    HW221939   2.968   2.466   0.186
 7014SOL     OW21940   6.660   3.366   0.603
 7014SOL    HW121941   6.713   3.321   0.676
 7014SOL    HW221942   6.563   3.365   0.628
 7015SOL     OW21943   5.816   6.282   1.512
 7015SOL    HW121944   5.886   6.305   1.579
 7015SOL    HW221945   5.830   6.335   1.429
 7016SOL     OW21946   3.577   5.251   0.892
 7016SOL    HW121947   3.496   5.236   0.949
 7016SOL    HW221948   3.650   5.293   0.948
 7017SOL     OW21949   6.139   4.521   6.378
 7017SOL    HW121950   6.117   4.465   6.457
 7017SOL    HW221951   6.235   4.508   6.354
 7018SOL     OW21952   5.927   2.989   4.487
 7018SOL    HW121953   5.869   2.916   4.450
 7018SOL    HW221954   5.873   3.046   4.549
 7019SOL     OW21955   3.454   5.701   2.421
 7019SOL    HW121956   3.416   5.670   2.334
 7019SOL    HW221957   3.476   5.622   2.478
 7020SOL     OW21958   0.060   1.341   0.672
 7020SOL    HW121959   0.142   1.306   0.718
 7020SOL    HW221960   0.073   1.438   0.651
 7021SOL     OW21961   0.705   2.259   4.799
 7021SOL    HW121962   0.802   2.261   4.773
 7021SOL    HW221963   0.697   2.257   4.898
 7022SOL     OW21964   2.080   3.969   0.756
 7022SOL    HW121965   2.166   4.019   0.756
 7022SOL    HW221966   2.021   4.005   0.829
 7023SOL     OW21967   0.075   1.779   1.246
 7023SOL    HW121968   0.075   1.732   1.158
 7023SOL    HW221969   0.047   1.874   1.232
 7024SOL     OW21970   3.653   4.134   5.817
 7024SOL    HW121971   3.609   4.215   5.777
 7024SOL    HW221972   3.737   4.114   5.767
 7025SOL     OW21973   2.811   0.784   0.991
 7025SOL    HW121974   2.856   0.816   1.074
 7025SOL    HW221975   2.769   0.861   0.944
 7026SOL     OW21976   2.637   2.266   1.266
 7026SOL    HW121977   2.559   2.324   1.244
 7026SOL    HW221978   2.686   2.243   1.182
 7027SOL     OW21979   2.899   4.596   1.009
 7027SOL    HW121980   2.922   4.649   1.091
 7027SOL    HW221981   2.815   4.544   1.025
 7028SOL     OW21982   3.338   0.330   2.918
 7028SOL    HW121983   3.376   0.411   2.873
 7028SOL    HW221984   3.278   0.359   2.993
 7029SOL     OW21985   3.354   4.066   3.673
 7029SOL    HW121986   3.257   4.077   3.656
 7029SOL    HW221987   3.372   3.973   3.706
 7030SOL     OW21988   6.283   6.473   4.877
 7030SOL    HW121989   6.379   6.497   4.894
 7030SOL    HW221990   6.235   6.463   4.964
 7031SOL     OW21991   5.863   5.452   0.228
 7031SOL    HW121992   5.835   5.534   0.176
 7031SOL    HW221993   5.915   5.480   0.308
 7032SOL     OW21994   3.895   4.870   4.204
 7032SOL    HW121995   3.969   4.804   4.195
 7032SOL    HW221996   3.862   4.870   4.299
 7033SOL     OW21997   2.168   1.837   5.331
 7033SOL    HW121998   2.071   1.857   5.316
 7033SOL    HW221999   2.192   1.860   5.425
 7034SOL     OW22000   6.732   2.229   2.117
 7034SOL    HW122001   6.770   2.319   2.097
 7034SOL    HW222002   6.643   2.219   2.074
 7035SOL     OW22003   2.845   2.425   1.058
 7035SOL    HW122004   2.914   2.406   1.128
 7035SOL    HW222005   2.838   2.346   0.997
 7036SOL     OW22006   6.823   1.797   1.825
 7036SOL    HW122007   6.896   1.865   1.830
 7036SOL    HW222008   6.767   1.801   1.908
 7037SOL     OW22009   1.265   0.883   6.029
 7037SOL    HW122010   1.302   0.865   6.120
 7037SOL    HW222011   1.185   0.824   6.014
 7038SOL     OW22012   0.558   4.651   0.198
 7038SOL    HW122013   0.535   4.634   0.102
 7038SOL    HW222014   0.556   4.565   0.248
 7039SOL     OW22015   6.976   7.011   1.360
 7039SOL    HW122016   6.964   0.072   1.423
 7039SOL    HW222017   6.934   6.929   1.399
 7040SOL     OW22018   4.882   2.959   4.630
 7040SOL    HW122019   4.942   2.894   4.582
 7040SOL    HW222020   4.900   2.955   4.728
 7041SOL     OW22021   0.864   0.022   3.586
 7041SOL    HW122022   0.952   7.013   3.547
 7041SOL    HW222023   0.831   0.106   3.545
 7042SOL     OW22024   5.259   5.713   5.384
 7042SOL    HW122025   5.265   5.730   5.285
 7042SOL    HW222026   5.352   5.708   5.422
 7043SOL     OW22027   2.117   5.802   0.168
 7043SOL    HW122028   2.088   5.849   0.085
 7043SOL    HW222029   2.168   5.866   0.226
 7044SOL     OW22030   3.816   6.297   4.808
 7044SOL    HW122031   3.812   6.227   4.879
 7044SOL    HW222032   3.881   6.368   4.834
 7045SOL     OW22033   5.332   6.380   1.872
 7045SOL    HW122034   5.269   6.367   1.949
 7045SOL    HW222035   5.333   6.476   1.845
 7046SOL     OW22036   2.783   1.030   2.613
 7046SOL    HW122037   2.781   0.981   2.525
 7046SOL    HW222038   2.750   1.124   2.599
 7047SOL     OW22039   1.664   6.952   0.750
 7047SOL    HW122040   1.601   6.993   0.816
 7047SOL    HW222041   1.612   6.905   0.679
 7048SOL     OW22042   0.496   5.670   4.185
 7048SOL    HW122043   0.555   5.606   4.135
 7048SOL    HW222044   0.501   5.760   4.142
 7049SOL     OW22045   3.167   1.436   4.775
 7049SOL    HW122046   3.098   1.471   4.712
 7049SOL    HW222047   3.138   1.453   4.870
 7050SOL     OW22048   4.089   4.690   0.840
 7050SOL    HW122049   4.075   4.782   0.803
 7050SOL    HW222050   4.001   4.654   0.873
 7051SOL     OW22051   1.874   1.247   1.893
 7051SOL    HW122052   1.856   1.314   1.966
 7051SOL    HW222053   1.825   1.275   1.811
 7052SOL     OW22054   4.910   2.508   2.873
 7052SOL    HW122055   4.902   2.497   2.774
 7052SOL    HW222056   4.829   2.555   2.908
 7053SOL     OW22057   0.954   4.407   3.558
 7053SOL    HW122058   0.855   4.421   3.557
 7053SOL    HW222059   0.975   4.315   3.525
 7054SOL     OW22060   5.339   0.233   0.578
 7054SOL    HW122061   5.290   0.169   0.519
 7054SOL    HW222062   5.295   0.323   0.573
 7055SOL     OW22063   1.932   0.195   0.091
 7055SOL    HW122064   1.978   0.255   0.026
 7055SOL    HW222065   1.833   0.207   0.083
 7056SOL     OW22066   6.798   5.597   1.036
 7056SOL    HW122067   6.790   5.688   1.078
 7056SOL    HW222068   6.788   5.606   0.937
 7057SOL     OW22069   3.074   5.532   4.677
 7057SOL    HW122070   3.143   5.552   4.746
 7057SOL    HW222071   3.000   5.600   4.682
 7058SOL     OW22072   5.898   2.333   5.814
 7058SOL    HW122073   5.970   2.391   5.851
 7058SOL    HW222074   5.809   2.370   5.841
 7059SOL     OW22075   1.364   0.998   4.786
 7059SOL    HW122076   1.282   1.001   4.729
 7059SOL    HW222077   1.440   1.043   4.738
 7060SOL     OW22078   3.051   2.272   1.737
 7060SOL    HW122079   3.100   2.337   1.679
 7060SOL    HW222080   2.973   2.317   1.781
 7061SOL     OW22081   1.729   0.597   1.048
 7061SOL    HW122082   1.822   0.585   1.083
 7061SOL    HW222083   1.732   0.607   0.949
 7062SOL     OW22084   3.424   0.820   5.126
 7062SOL    HW122085   3.400   0.881   5.201
 7062SOL    HW222086   3.511   0.776   5.145
 7063SOL     OW22087   0.410   1.109   1.563
 7063SOL    HW122088   0.336   1.052   1.527
 7063SOL    HW222089   0.376   1.164   1.639
 7064SOL     OW22090   3.030   1.452   5.324
 7064SOL    HW122091   2.941   1.417   5.354
 7064SOL    HW222092   3.036   1.549   5.347
 7065SOL     OW22093   3.253   6.952   4.251
 7065SOL    HW122094   3.159   6.937   4.279
 7065SOL    HW222095   3.314   6.896   4.308
 7066SOL     OW22096   3.861   0.757   0.983
 7066SOL    HW122097   3.882   0.836   0.924
 7066SOL    HW222098   3.931   0.687   0.969
 7067SOL     OW22099   2.626   4.081   6.515
 7067SOL    HW122100   2.562   4.013   6.550
 7067SOL    HW222101   2.576   4.159   6.479
 7068SOL     OW22102   4.789   4.655   2.768
 7068SOL    HW122103   4.850   4.723   2.809
 7068SOL    HW222104   4.719   4.703   2.715
 7069SOL     OW22105   4.296   1.069   4.946
 7069SOL    HW122106   4.240   1.112   4.876
 7069SOL    HW222107   4.348   0.994   4.906
 7070SOL     OW22108   6.952   1.191   5.672
 7070SOL    HW122109   0.003   1.124   5.704
 7070SOL    HW222110   6.974   1.281   5.709
 7071SOL     OW22111   4.523   5.559   6.587
 7071SOL    HW122112   4.436   5.529   6.626
 7071SOL    HW222113   4.505   5.622   6.512
 7072SOL     OW22114   1.090   3.729   6.448
 7072SOL    HW122115   1.116   3.633   6.438
 7072SOL    HW222116   1.036   3.741   6.532
 7073SOL     OW22117   4.170   1.373   4.214
 7073SOL    HW122118   4.198   1.331   4.127
 7073SOL    HW222119   4.079   1.412   4.204
 7074SOL     OW22120   5.961   3.594   2.286
 7074SOL    HW122121   6.027   3.578   2.360
 7074SOL    HW222122   5.869   3.601   2.325
 7075SOL     OW22123   2.024   5.021   2.509
 7075SOL    HW122124   2.060   4.929   2.494
 7075SOL    HW222125   1.947   5.038   2.447
 7076SOL     OW22126   6.342   2.707   0.943
 7076SOL    HW122127   6.267   2.730   0.881
 7076SOL    HW222128   6.305   2.685   1.034
 7077SOL     OW22129   3.897   5.641   1.618
 7077SOL    HW122130   3.850   5.559   1.587
 7077SOL    HW222131   3.836   5.720   1.607
 7078SOL     OW22132   6.987   2.053   6.859
 7078SOL    HW122133   0.067   2.037   6.834
 7078SOL    HW222134   6.983   2.084   6.954
 7079SOL     OW22135   2.663   5.516   5.595
 7079SOL    HW122136   2.648   5.487   5.689
 7079SOL    HW222137   2.614   5.456   5.532
 7080SOL     OW22138   3.927   1.717   6.111
 7080SOL    HW122139   4.009   1.668   6.140
 7080SOL    HW222140   3.945   1.815   6.108
 7081SOL     OW22141   2.710   5.973   0.217
 7081SOL    HW122142   2.728   6.021   0.131
 7081SOL    HW222143   2.675   6.038   0.285
 7082SOL     OW22144   1.533   4.770   2.491
 7082SOL    HW122145   1.464   4.724   2.436
 7082SOL    HW222146   1.489   4.832   2.556
 7083SOL     OW22147   5.491   3.422   2.655
 7083SOL    HW122148   5.446   3.500   2.610
 7083SOL    HW222149   5.485   3.342   2.596
 7084SOL     OW22150   1.419   5.653   0.144
 7084SOL    HW122151   1.416   5.553   0.149
 7084SOL    HW222152   1.354   5.685   0.075
 7085SOL     OW22153   6.910   3.725   2.220
 7085SOL    HW122154   6.942   3.770   2.303
 7085SOL    HW222155   6.925   3.785   2.141
 7086SOL     OW22156   4.226   1.027   3.822
 7086SOL    HW122157   4.302   1.011   3.884
 7086SOL    HW222158   4.258   1.019   3.727
 7087SOL     OW22159   5.410   2.790   3.305
 7087SOL    HW122160   5.341   2.717   3.299
 7087SOL    HW222161   5.388   2.860   3.237
 7088SOL     OW22162   6.102   2.181   5.478
 7088SOL    HW122163   6.084   2.107   5.413
 7088SOL    HW222164   6.140   2.143   5.562
 7089SOL     OW22165   2.912   5.922   1.087
 7089SOL    HW122166   2.890   5.877   1.174
 7089SOL    HW222167   2.932   6.018   1.103
 7090SOL     OW22168   4.961   3.730   1.383
 7090SOL    HW122169   5.057   3.758   1.380
 7090SOL    HW222170   4.927   3.735   1.477
 7091SOL     OW22171   6.075   0.460   6.939
 7091SOL    HW122172   5.985   0.451   6.898
 7091SOL    HW222173   6.067   0.462   0.023
 7092SOL     OW22174   4.289   6.612   6.142
 7092SOL    HW122175   4.222   6.668   6.191
 7092SOL    HW222176   4.335   6.667   6.073
 7093SOL     OW22177   4.250   3.012   0.425
 7093SOL    HW122178   4.189   2.987   0.500
 7093SOL    HW222179   4.221   3.098   0.385
 7094SOL     OW22180   4.489   0.690   4.750
 7094SOL    HW122181   4.538   0.761   4.799
 7094SOL    HW222182   4.548   0.611   4.737
 7095SOL     OW22183   2.284   4.790   3.837
 7095SOL    HW122184   2.331   4.731   3.771
 7095SOL    HW222185   2.190   4.805   3.807
 7096SOL     OW22186   6.854   5.692   0.120
 7096SOL    HW122187   6.875   5.771   0.177
 7096SOL    HW222188   6.933   5.631   0.116
 7097SOL     OW22189   4.943   1.994   2.610
 7097SOL    HW122190   4.905   1.903   2.624
 7097SOL    HW222191   4.902   2.058   2.674
 7098SOL     OW22192   0.807   1.383   2.868
 7098SOL    HW122193   0.748   1.411   2.945
 7098SOL    HW222194   0.798   1.284   2.854
 7099SOL     OW22195   3.424   2.097   4.719
 7099SOL    HW122196   3.418   2.092   4.819
 7099SOL    HW222197   3.396   2.010   4.680
 7100SOL     OW22198   0.531   4.235   1.530
 7100SOL    HW122199   0.547   4.296   1.452
 7100SOL    HW222200   0.433   4.232   1.550
 7101SOL     OW22201   3.234   5.676   4.224
 7101SOL    HW122202   3.153   5.618   4.212
 7101SOL    HW222203   3.266   5.669   4.318
 7102SOL     OW22204   5.606   1.346   2.807
 7102SOL    HW122205   5.559   1.322   2.722
 7102SOL    HW222206   5.681   1.409   2.787
 7103SOL     OW22207   6.558   3.594   4.478
 7103SOL    HW122208   6.644   3.578   4.527
 7103SOL    HW222209   6.529   3.688   4.496
 7104SOL     OW22210   4.499   2.539   4.233
 7104SOL    HW122211   4.406   2.539   4.197
 7104SOL    HW222212   4.508   2.469   4.303
 7105SOL     OW22213   3.074   3.857   2.134
 7105SOL    HW122214   3.158   3.870   2.082
 7105SOL    HW222215   3.075   3.915   2.215
 7106SOL     OW22216   2.778   1.982   2.442
 7106SOL    HW122217   2.728   2.027   2.369
 7106SOL    HW222218   2.714   1.931   2.500
 7107SOL     OW22219   4.270   0.522   0.627
 7107SOL    HW122220   4.287   0.427   0.653
 7107SOL    HW222221   4.188   0.527   0.570
 7108SOL     OW22222   3.045   6.934   1.646
 7108SOL    HW122223   2.958   6.982   1.657
 7108SOL    HW222224   3.033   6.855   1.586
 7109SOL     OW22225   2.382   4.868   5.740
 7109SOL    HW122226   2.439   4.852   5.820
 7109SOL    HW222227   2.307   4.801   5.740
 7110SOL     OW22228   2.914   5.630   5.569
 7110SOL    HW122229   2.826   5.584   5.580
 7110SOL    HW222230   2.899   5.723   5.537
 7111SOL     OW22231   6.325   1.401   4.884
 7111SOL    HW122232   6.418   1.365   4.878
 7111SOL    HW222233   6.329   1.496   4.917
 7112SOL     OW22234   6.240   5.188   4.803
 7112SOL    HW122235   6.222   5.286   4.810
 7112SOL    HW222236   6.332   5.173   4.767
 7113SOL     OW22237   3.233   0.244   4.845
 7113SOL    HW122238   3.325   0.269   4.877
 7113SOL    HW222239   3.237   0.217   4.749
 7114SOL     OW22240   5.608   4.388   0.144
 7114SOL    HW122241   5.548   4.316   0.179
 7114SOL    HW222242   5.681   4.405   0.210
 7115SOL     OW22243   4.945   2.950   5.759
 7115SOL    HW122244   4.942   2.981   5.854
 7115SOL    HW222245   5.039   2.929   5.733
 7116SOL     OW22246   6.271   5.206   4.488
 7116SOL    HW122247   6.348   5.183   4.547
 7116SOL    HW222248   6.214   5.275   4.533
 7117SOL     OW22249   3.645   0.305   3.029
 7117SOL    HW122250   3.678   0.223   2.984
 7117SOL    HW222251   3.548   0.295   3.051
 7118SOL     OW22252   4.700   4.275   5.476
 7118SOL    HW122253   4.686   4.211   5.552
 7118SOL    HW222254   4.762   4.234   5.409
 7119SOL     OW22255   2.647   6.542   4.409
 7119SOL    HW122256   2.667   6.635   4.439
 7119SOL    HW222257   2.548   6.527   4.412
 7120SOL     OW22258   4.514   1.465   2.137
 7120SOL    HW122259   4.576   1.543   2.131
 7120SOL    HW222260   4.420   1.496   2.121
 7121SOL     OW22261   1.152   6.048   2.006
 7121SOL    HW122262   1.219   6.046   2.080
 7121SOL    HW222263   1.147   5.957   1.963
 7122SOL     OW22264   3.008   2.048   6.413
 7122SOL    HW122265   3.067   1.974   6.445
 7122SOL    HW222266   2.927   2.053   6.471
 7123SOL     OW22267   5.389   4.579   6.774
 7123SOL    HW122268   5.300   4.566   6.729
 7123SOL    HW222269   5.451   4.506   6.747
 7124SOL     OW22270   3.093   2.847   6.556
 7124SOL    HW122271   3.096   2.827   6.458
 7124SOL    HW222272   3.011   2.807   6.595
 7125SOL     OW22273   1.121   6.219   1.344
 7125SOL    HW122274   1.202   6.202   1.400
 7125SOL    HW222275   1.087   6.132   1.307
 7126SOL     OW22276   4.224   4.943   0.983
 7126SOL    HW122277   4.271   4.900   0.905
 7126SOL    HW222278   4.163   5.015   0.949
 7127SOL     OW22279   3.087   0.031   4.953
 7127SOL    HW122280   3.128   0.118   4.926
 7127SOL    HW222281   3.041   0.042   5.042
 7128SOL     OW22282   3.774   4.189   0.445
 7128SOL    HW122283   3.689   4.199   0.393
 7128SOL    HW222284   3.789   4.092   0.465
 7129SOL     OW22285   6.946   2.117   0.101
 7129SOL    HW122286   7.010   2.057   0.150
 7129SOL    HW222287   6.873   2.144   0.164
 7130SOL     OW22288   3.669   0.375   4.038
 7130SOL    HW122289   3.592   0.351   4.097
 7130SOL    HW222290   3.739   0.421   4.092
 7131SOL     OW22291   2.101   1.828   3.128
 7131SOL    HW122292   2.069   1.920   3.102
 7131SOL    HW222293   2.101   1.820   3.228
 7132SOL     OW22294   5.626   4.811   1.874
 7132SOL    HW122295   5.690   4.793   1.948
 7132SOL    HW222296   5.606   4.726   1.825
 7133SOL     OW22297   2.976   6.023   2.527
 7133SOL    HW122298   2.917   5.958   2.575
 7133SOL    HW222299   3.054   5.974   2.488
 7134SOL     OW22300   5.214   5.204   6.364
 7134SOL    HW122301   5.153   5.251   6.427
 7134SOL    HW222302   5.299   5.256   6.355
 7135SOL     OW22303   2.174   4.632   0.806
 7135SOL    HW122304   2.254   4.672   0.850
 7135SOL    HW222305   2.156   4.679   0.720
 7136SOL     OW22306   1.438   2.820   2.604
 7136SOL    HW122307   1.455   2.801   2.507
 7136SOL    HW222308   1.421   2.918   2.616
 7137SOL     OW22309   1.753   0.139   2.196
 7137SOL    HW122310   1.840   0.095   2.221
 7137SOL    HW222311   1.688   0.069   2.167
 7138SOL     OW22312   6.677   3.891   0.509
 7138SOL    HW122313   6.672   3.810   0.450
 7138SOL    HW222314   6.745   3.955   0.471
 7139SOL     OW22315   5.689   6.063   0.972
 7139SOL    HW122316   5.773   6.015   0.997
 7139SOL    HW222317   5.633   6.005   0.912
 7140SOL     OW22318   6.824   4.578   0.265
 7140SOL    HW122319   6.900   4.551   0.323
 7140SOL    HW222320   6.758   4.502   0.258
 7141SOL     OW22321   2.982   1.882   0.740
 7141SOL    HW122322   2.963   1.908   0.645
 7141SOL    HW222323   2.954   1.787   0.754
 7142SOL     OW22324   4.640   6.666   5.690
 7142SOL    HW122325   4.664   6.662   5.787
 7142SOL    HW222326   4.710   6.619   5.637
 7143SOL     OW22327   3.406   2.967   5.776
 7143SOL    HW122328   3.381   3.011   5.690
 7143SOL    HW222329   3.337   2.898   5.800
 7144SOL     OW22330   6.346   1.515   5.649
 7144SOL    HW122331   6.321   1.435   5.595
 7144SOL    HW222332   6.445   1.528   5.648
 7145SOL     OW22333   0.484   3.295   6.993
 7145SOL    HW122334   0.434   3.305   0.063
 7145SOL    HW222335   0.554   3.225   7.003
 7146SOL     OW22336   6.765   1.730   4.579
 7146SOL    HW122337   6.712   1.789   4.639
 7146SOL    HW222338   6.828   1.786   4.524
 7147SOL     OW22339   6.739   6.958   0.482
 7147SOL    HW122340   6.799   6.906   0.542
 7147SOL    HW222341   6.786   0.025   0.452
 7148SOL     OW22342   5.400   6.660   0.984
 7148SOL    HW122343   5.339   6.731   0.949
 7148SOL    HW222344   5.455   6.623   0.910
 7149SOL     OW22345   6.455   3.989   6.697
 7149SOL    HW122346   6.374   3.935   6.676
 7149SOL    HW222347   6.481   3.974   6.792
 7150SOL     OW22348   3.012   2.190   0.258
 7150SOL    HW122349   3.027   2.270   0.201
 7150SOL    HW222350   2.918   2.158   0.248
 7151SOL     OW22351   5.564   2.376   6.805
 7151SOL    HW122352   5.475   2.346   6.769
 7151SOL    HW222353   5.627   2.390   6.729
 7152SOL     OW22354   5.401   0.151   5.145
 7152SOL    HW122355   5.462   0.230   5.135
 7152SOL    HW222356   5.449   0.068   5.118
 7153SOL     OW22357   5.409   5.856   0.513
 7153SOL    HW122358   5.460   5.791   0.456
 7153SOL    HW222359   5.332   5.809   0.556
 7154SOL     OW22360   4.939   0.261   1.894
 7154SOL    HW122361   4.998   0.239   1.971
 7154SOL    HW222362   4.906   0.176   1.852
 7155SOL     OW22363   1.644   0.486   1.376
 7155SOL    HW122364   1.653   0.429   1.458
 7155SOL    HW222365   1.712   0.459   1.308
 7156SOL     OW22366   6.232   3.118   5.295
 7156SOL    HW122367   6.202   3.056   5.367
 7156SOL    HW222368   6.286   3.068   5.228
 7157SOL     OW22369   0.050   3.455   5.516
 7157SOL    HW122370   6.981   3.425   5.473
 7157SOL    HW222371   0.087   3.534   5.466
 7158SOL     OW22372   4.922   0.175   4.193
 7158SOL    HW122373   4.841   0.192   4.136
 7158SOL    HW222374   4.946   0.078   4.188
 7159SOL     OW22375   0.419   6.567   3.327
 7159SOL    HW122376   0.325   6.557   3.360
 7159SOL    HW222377   0.465   6.478   3.328
 7160SOL     OW22378   5.586   6.699   2.789
 7160SOL    HW122379   5.672   6.740   2.757
 7160SOL    HW222380   5.531   6.671   2.711
 7161SOL     OW22381   3.820   3.114   2.150
 7161SOL    HW122382   3.723   3.126   2.172
 7161SOL    HW222383   3.828   3.082   2.056
 7162SOL     OW22384   0.941   5.890   0.767
 7162SOL    HW122385   0.891   5.973   0.793
 7162SOL    HW222386   0.968   5.896   0.671
 7163SOL     OW22387   6.822   6.219   0.259
 7163SOL    HW122388   6.777   6.287   0.316
 7163SOL    HW222389   6.921   6.225   0.273
 7164SOL     OW22390   1.203   6.429   7.002
 7164SOL    HW122391   1.225   6.439   6.905
 7164SOL    HW222392   1.134   6.357   7.014
 7165SOL     OW22393   4.018   2.456   6.268
 7165SOL    HW122394   3.969   2.391   6.326
 7165SOL    HW222395   4.070   2.519   6.324
 7166SOL     OW22396   6.799   6.454   4.768
 7166SOL    HW122397   6.786   6.376   4.706
 7166SOL    HW222398   6.806   6.538   4.714
 7167SOL     OW22399   0.777   3.426   5.260
 7167SOL    HW122400   0.745   3.331   5.256
 7167SOL    HW222401   0.740   3.477   5.182
 7168SOL     OW22402   0.881   0.049   2.718
 7168SOL    HW122403   0.852   7.008   2.641
 7168SOL    HW222404   0.980   0.042   2.730
 7169SOL     OW22405   1.408   4.973   5.764
 7169SOL    HW122406   1.445   4.954   5.855
 7169SOL    HW222407   1.473   4.942   5.694
 7170SOL     OW22408   4.202   1.994   1.888
 7170SOL    HW122409   4.257   2.039   1.818
 7170SOL    HW222410   4.155   2.064   1.942
 7171SOL     OW22411   0.813   5.293   1.607
 7171SOL    HW122412   0.830   5.194   1.601
 7171SOL    HW222413   0.752   5.321   1.533
 7172SOL     OW22414   1.324   2.817   3.552
 7172SOL    HW122415   1.333   2.817   3.651
 7172SOL    HW222416   1.227   2.806   3.527
 7173SOL     OW22417   3.515   5.518   4.412
 7173SOL    HW122418   3.485   5.444   4.472
 7173SOL    HW222419   3.457   5.598   4.426
 7174SOL     OW22420   6.515   3.600   2.327
 7174SOL    HW122421   6.491   3.665   2.399
 7174SOL    HW222422   6.599   3.552   2.353
 7175SOL     OW22423   6.298   3.187   6.186
 7175SOL    HW122424   6.309   3.286   6.182
 7175SOL    HW222425   6.205   3.162   6.159
 7176SOL     OW22426   6.502   1.846   6.749
 7176SOL    HW122427   6.580   1.830   6.689
 7176SOL    HW222428   6.433   1.776   6.733
 7177SOL     OW22429   0.901   5.917   3.622
 7177SOL    HW122430   0.802   5.923   3.607
 7177SOL    HW222431   0.928   5.983   3.692
 7178SOL     OW22432   1.139   6.456   5.686
 7178SOL    HW122433   1.151   6.529   5.753
 7178SOL    HW222434   1.117   6.495   5.597
 7179SOL     OW22435   4.828   4.253   6.045
 7179SOL    HW122436   4.729   4.248   6.030
 7179SOL    HW222437   4.875   4.202   5.972
 7180SOL     OW22438   0.161   2.695   2.018
 7180SOL    HW122439   0.251   2.663   1.989
 7180SOL    HW222440   0.171   2.769   2.084
 7181SOL     OW22441   3.583   0.125   0.219
 7181SOL    HW122442   3.518   0.118   0.295
 7181SOL    HW222443   3.547   0.187   0.150
 7182SOL     OW22444   2.207   1.228   2.739
 7182SOL    HW122445   2.238   1.201   2.830
 7182SOL    HW222446   2.279   1.280   2.694
 7183SOL     OW22447   1.855   0.114   0.999
 7183SOL    HW122448   1.828   0.022   0.970
 7183SOL    HW222449   1.918   0.107   1.076
 7184SOL     OW22450   0.045   1.431   3.352
 7184SOL    HW122451   6.988   1.472   3.407
 7184SOL    HW222452   0.008   1.352   3.302
 7185SOL     OW22453   3.673   0.173   3.617
 7185SOL    HW122454   3.636   0.235   3.686
 7185SOL    HW222455   3.739   0.221   3.560
 7186SOL     OW22456   6.389   2.137   6.602
 7186SOL    HW122457   6.320   2.066   6.608
 7186SOL    HW222458   6.479   2.099   6.625
 7187SOL     OW22459   3.722   3.591   4.088
 7187SOL    HW122460   3.665   3.526   4.038
 7187SOL    HW222461   3.681   3.683   4.080
 7188SOL     OW22462   5.218   4.661   0.106
 7188SOL    HW122463   5.223   4.707   0.195
 7188SOL    HW222464   5.310   4.637   0.076
 7189SOL     OW22465   6.979   1.977   5.885
 7189SOL    HW122466   0.044   1.977   5.825
 7189SOL    HW222467   6.897   1.959   5.830
 7190SOL     OW22468   5.541   5.914   0.799
 7190SOL    HW122469   5.487   5.966   0.734
 7190SOL    HW222470   5.557   5.822   0.763
 7191SOL     OW22471   0.238   4.917   2.965
 7191SOL    HW122472   0.143   4.929   2.994
 7191SOL    HW222473   0.248   4.828   2.920
 7192SOL     OW22474   3.495   3.891   5.778
 7192SOL    HW122475   3.427   3.901   5.705
 7192SOL    HW222476   3.531   3.981   5.804
 7193SOL     OW22477   3.848   1.328   3.606
 7193SOL    HW122478   3.838   1.252   3.543
 7193SOL    HW222479   3.800   1.308   3.691
 7194SOL     OW22480   3.404   2.482   5.362
 7194SOL    HW122481   3.498   2.454   5.343
 7194SOL    HW222482   3.341   2.433   5.302
 7195SOL     OW22483   0.457   4.376   5.474
 7195SOL    HW122484   0.435   4.413   5.565
 7195SOL    HW222485   0.386   4.401   5.409
 7196SOL     OW22486   3.293   4.000   1.851
 7196SOL    HW122487   3.367   4.068   1.853
 7196SOL    HW222488   3.312   3.929   1.918
 7197SOL     OW22489   3.729   4.544   6.158
 7197SOL    HW122490   3.719   4.499   6.247
 7197SOL    HW222491   3.679   4.492   6.089
 7198SOL     OW22492   1.108   0.311   2.364
 7198SOL    HW122493   1.042   0.288   2.293
 7198SOL    HW222494   1.186   0.248   2.359
 7199SOL     OW22495   6.083   1.047   3.265
 7199SOL    HW122496   6.167   1.041   3.211
 7199SOL    HW222497   6.010   0.999   3.216
 7200SOL     OW22498   0.828   4.000   6.427
 7200SOL    HW122499   0.881   3.943   6.364
 7200SOL    HW222500   0.730   3.988   6.409
 7201SOL     OW22501   5.499   5.996   4.550
 7201SOL    HW122502   5.459   5.957   4.467
 7201SOL    HW222503   5.544   6.083   4.527
 7202SOL     OW22504   4.904   0.586   5.885
 7202SOL    HW122505   4.879   0.563   5.979
 7202SOL    HW222506   4.955   0.672   5.885
 7203SOL     OW22507   1.091   1.584   0.705
 7203SOL    HW122508   1.022   1.616   0.640
 7203SOL    HW222509   1.182   1.601   0.668
 7204SOL     OW22510   5.808   0.865   2.863
 7204SOL    HW122511   5.749   0.944   2.880
 7204SOL    HW222512   5.752   0.784   2.844
 7205SOL     OW22513   2.746   1.800   4.068
 7205SOL    HW122514   2.741   1.729   3.997
 7205SOL    HW222515   2.781   1.760   4.153
 7206SOL     OW22516   2.297   2.493   6.584
 7206SOL    HW122517   2.325   2.478   6.489
 7206SOL    HW222518   2.210   2.542   6.587
 7207SOL     OW22519   1.971   2.074   3.129
 7207SOL    HW122520   1.999   2.083   3.225
 7207SOL    HW222521   1.873   2.087   3.122
 7208SOL     OW22522   3.108   0.251   3.646
 7208SOL    HW122523   3.142   0.315   3.716
 7208SOL    HW222524   3.168   0.171   3.642
 7209SOL     OW22525   4.537   1.057   1.996
 7209SOL    HW122526   4.543   1.110   2.080
 7209SOL    HW222527   4.517   0.961   2.018
 7210SOL     OW22528   3.406   1.295   4.723
 7210SOL    HW122529   3.381   1.200   4.738
 7210SOL    HW222530   3.324   1.351   4.714
 7211SOL     OW22531   4.558   6.060   6.073
 7211SOL    HW122532   4.549   6.050   6.172
 7211SOL    HW222533   4.514   6.145   6.044
 7212SOL     OW22534   0.516   5.925   4.052
 7212SOL    HW122535   0.498   5.987   4.128
 7212SOL    HW222536   0.465   5.956   3.972
 7213SOL     OW22537   4.706   2.588   0.077
 7213SOL    HW122538   4.620   2.619   0.037
 7213SOL    HW222539   4.763   2.668   0.099
 7214SOL     OW22540   6.681   1.154   5.757
 7214SOL    HW122541   6.761   1.134   5.701
 7214SOL    HW222542   6.673   1.084   5.828
 7215SOL     OW22543   6.578   1.408   2.350
 7215SOL    HW122544   6.487   1.373   2.373
 7215SOL    HW222545   6.618   1.452   2.430
 7216SOL     OW22546   5.855   6.390   4.151
 7216SOL    HW122547   5.806   6.318   4.200
 7216SOL    HW222548   5.913   6.349   4.081
 7217SOL     OW22549   1.128   3.284   3.400
 7217SOL    HW122550   1.182   3.210   3.442
 7217SOL    HW222551   1.147   3.369   3.448
 7218SOL     OW22552   6.619   2.687   5.319
 7218SOL    HW122553   6.711   2.649   5.326
 7218SOL    HW222554   6.607   2.760   5.386
 7219SOL     OW22555   3.113   5.659   1.451
 7219SOL    HW122556   3.208   5.663   1.484
 7219SOL    HW222557   3.064   5.586   1.499
 7220SOL     OW22558   6.956   3.434   3.944
 7220SOL    HW122559   6.924   3.425   4.038
 7220SOL    HW222560   6.893   3.387   3.882
 7221SOL     OW22561   4.759   5.052   3.656
 7221SOL    HW122562   4.673   5.002   3.663
 7221SOL    HW222563   4.744   5.148   3.679
 7222SOL     OW22564   6.460   5.865   3.792
 7222SOL    HW122565   6.392   5.849   3.720
 7222SOL    HW222566   6.432   5.943   3.848
 7223SOL     OW22567   6.722   5.714   1.752
 7223SOL    HW122568   6.751   5.763   1.669
 7223SOL    HW222569   6.624   5.695   1.747
 7224SOL     OW22570   5.269   2.683   2.335
 7224SOL    HW122571   5.299   2.589   2.319
 7224SOL    HW222572   5.249   2.728   2.248
 7225SOL     OW22573   1.017   5.578   0.386
 7225SOL    HW122574   0.995   5.598   0.291
 7225SOL    HW222575   0.998   5.481   0.404
 7226SOL     OW22576   6.356   6.393   0.327
 7226SOL    HW122577   6.429   6.332   0.358
 7226SOL    HW222578   6.339   6.377   0.230
 7227SOL     OW22579   1.856   0.978   1.955
 7227SOL    HW122580   1.866   0.974   2.055
 7227SOL    HW222581   1.860   1.074   1.926
 7228SOL     OW22582   5.902   3.281   3.247
 7228SOL    HW122583   5.904   3.196   3.195
 7228SOL    HW222584   5.919   3.358   3.185
 7229SOL     OW22585   6.452   0.484   5.169
 7229SOL    HW122586   6.391   0.454   5.243
 7229SOL    HW222587   6.521   0.414   5.153
 7230SOL     OW22588   2.076   4.758   5.026
 7230SOL    HW122589   2.161   4.781   5.072
 7230SOL    HW222590   2.078   4.793   4.932
 7231SOL     OW22591   3.746   3.274   6.347
 7231SOL    HW122592   3.743   3.327   6.263
 7231SOL    HW222593   3.834   3.288   6.393
 7232SOL     OW22594   4.403   6.097   3.416
 7232SOL    HW122595   4.319   6.043   3.404
 7232SOL    HW222596   4.478   6.036   3.440
 7233SOL     OW22597   0.300   1.890   6.200
 7233SOL    HW122598   0.267   1.969   6.252
 7233SOL    HW222599   0.305   1.811   6.261
 7234SOL     OW22600   5.870   4.840   2.947
 7234SOL    HW122601   5.885   4.907   2.874
 7234SOL    HW222602   5.908   4.876   3.033
 7235SOL     OW22603   6.746   0.366   1.295
 7235SOL    HW122604   6.676   0.424   1.334
 7235SOL    HW222605   6.737   0.366   1.195
 7236SOL     OW22606   0.560   3.767   2.799
 7236SOL    HW122607   0.519   3.676   2.793
 7236SOL    HW222608   0.637   3.773   2.736
 7237SOL     OW22609   5.190   1.099   0.230
 7237SOL    HW122610   5.100   1.079   0.269
 7237SOL    HW222611   5.261   1.054   0.285
 7238SOL     OW22612   4.483   3.302   0.274
 7238SOL    HW122613   4.411   3.321   0.342
 7238SOL    HW222614   4.565   3.353   0.297
 7239SOL     OW22615   5.515   2.937   1.723
 7239SOL    HW122616   5.542   3.002   1.651
 7239SOL    HW222617   5.559   2.963   1.809
 7240SOL     OW22618   0.115   1.922   0.181
 7240SOL    HW122619   0.081   1.833   0.149
 7240SOL    HW222620   0.164   1.910   0.268
 7241SOL     OW22621   2.026   0.546   2.605
 7241SOL    HW122622   1.981   0.494   2.677
 7241SOL    HW222623   1.979   0.633   2.593
 7242SOL     OW22624   6.176   3.979   5.638
 7242SOL    HW122625   6.109   4.017   5.702
 7242SOL    HW222626   6.185   3.880   5.655
 7243SOL     OW22627   5.927   4.826   6.089
 7243SOL    HW122628   5.846   4.771   6.070
 7243SOL    HW222629   6.003   4.766   6.112
 7244SOL     OW22630   6.827   6.029   6.576
 7244SOL    HW122631   6.839   6.080   6.661
 7244SOL    HW222632   6.740   6.054   6.534
 7245SOL     OW22633   1.298   2.259   6.954
 7245SOL    HW122634   1.298   2.164   6.984
 7245SOL    HW222635   1.367   2.272   6.883
 7246SOL     OW22636   4.184   6.543   4.134
 7246SOL    HW122637   4.264   6.527   4.192
 7246SOL    HW222638   4.100   6.524   4.187
 7247SOL     OW22639   3.260   3.932   4.970
 7247SOL    HW122640   3.265   4.021   5.016
 7247SOL    HW222641   3.266   3.859   5.038
 7248SOL     OW22642   2.373   1.506   4.892
 7248SOL    HW122643   2.289   1.487   4.841
 7248SOL    HW222644   2.350   1.558   4.975
 7249SOL     OW22645   2.871   5.698   2.438
 7249SOL    HW122646   2.880   5.747   2.352
 7249SOL    HW222647   2.840   5.761   2.509
 7250SOL     OW22648   4.984   5.737   5.645
 7250SOL    HW122649   4.979   5.753   5.546
 7250SOL    HW222650   4.990   5.639   5.662
 7251SOL     OW22651   0.764   6.048   3.930
 7251SOL    HW122652   0.723   6.032   4.020
 7251SOL    HW222653   0.846   6.104   3.940
 7252SOL     OW22654   4.084   3.867   2.014
 7252SOL    HW122655   4.151   3.931   2.051
 7252SOL    HW222656   4.114   3.773   2.033
 7253SOL     OW22657   1.816   5.291   5.171
 7253SOL    HW122658   1.800   5.389   5.171
 7253SOL    HW222659   1.804   5.255   5.264
 7254SOL     OW22660   6.880   3.409   4.229
 7254SOL    HW122661   6.791   3.454   4.231
 7254SOL    HW222662   6.869   3.313   4.256
 7255SOL     OW22663   4.471   3.928   0.506
 7255SOL    HW122664   4.459   3.859   0.577
 7255SOL    HW222665   4.533   3.892   0.436
 7256SOL     OW22666   2.995   6.903   4.304
 7256SOL    HW122667   2.993   6.851   4.390
 7256SOL    HW222668   2.937   6.857   4.237
 7257SOL     OW22669   0.719   1.109   5.347
 7257SOL    HW122670   0.771   1.194   5.350
 7257SOL    HW222671   0.676   1.093   5.437
 7258SOL     OW22672   6.055   2.569   2.766
 7258SOL    HW122673   6.109   2.515   2.831
 7258SOL    HW222674   6.116   2.627   2.713
 7259SOL     OW22675   0.896   4.224   2.430
 7259SOL    HW122676   0.958   4.253   2.357
 7259SOL    HW222677   0.946   4.170   2.497
 7260SOL     OW22678   6.181   3.092   1.092
 7260SOL    HW122679   6.177   3.045   1.180
 7260SOL    HW222680   6.264   3.065   1.044
 7261SOL     OW22681   0.408   4.239   0.099
 7261SOL    HW122682   0.502   4.230   0.130
 7261SOL    HW222683   0.392   4.179   0.021
 7262SOL     OW22684   3.643   0.417   5.077
 7262SOL    HW122685   3.558   0.441   5.030
 7262SOL    HW222686   3.693   0.500   5.101
 7263SOL     OW22687   6.047   5.853   5.021
 7263SOL    HW122688   6.042   5.949   5.046
 7263SOL    HW222689   6.092   5.843   4.932
 7264SOL     OW22690   5.568   1.146   1.771
 7264SOL    HW122691   5.536   1.121   1.680
 7264SOL    HW222692   5.570   1.245   1.780
 7265SOL     OW22693   3.784   0.118   5.587
 7265SOL    HW122694   3.731   0.164   5.659
 7265SOL    HW222695   3.779   0.019   5.600
 7266SOL     OW22696   6.702   0.936   3.099
 7266SOL    HW122697   6.704   0.944   3.199
 7266SOL    HW222698   6.626   0.989   3.062
 7267SOL     OW22699   6.963   3.843   5.252
 7267SOL    HW122700   0.013   3.909   5.215
 7267SOL    HW222701   6.911   3.801   5.178
 7268SOL     OW22702   5.704   6.134   3.947
 7268SOL    HW122703   5.753   6.071   4.008
 7268SOL    HW222704   5.675   6.215   3.998
 7269SOL     OW22705   2.834   5.410   4.068
 7269SOL    HW122706   2.897   5.488   4.070
 7269SOL    HW222707   2.800   5.397   3.975
 7270SOL     OW22708   0.177   0.474   4.602
 7270SOL    HW122709   0.177   0.457   4.700
 7270SOL    HW222710   0.198   0.389   4.553
 7271SOL     OW22711   0.754   4.599   3.110
 7271SOL    HW122712   0.820   4.640   3.173
 7271SOL    HW222713   0.680   4.664   3.093
 7272SOL     OW22714   6.074   4.319   1.531
 7272SOL    HW122715   6.074   4.228   1.572
 7272SOL    HW222716   5.991   4.331   1.477
 7273SOL     OW22717   0.012   1.362   5.008
 7273SOL    HW122718   0.040   1.350   5.104
 7273SOL    HW222719   0.092   1.386   4.953
 7274SOL     OW22720   0.326   5.514   6.148
 7274SOL    HW122721   0.246   5.454   6.138
 7274SOL    HW222722   0.402   5.462   6.187
 7275SOL     OW22723   0.806   5.070   3.042
 7275SOL    HW122724   0.857   5.005   3.099
 7275SOL    HW222725   0.722   5.026   3.010
 7276SOL     OW22726   4.973   6.282   3.370
 7276SOL    HW122727   4.898   6.336   3.331
 7276SOL    HW222728   5.003   6.325   3.455
 7277SOL     OW22729   5.126   0.679   0.426
 7277SOL    HW122730   5.137   0.584   0.456
 7277SOL    HW222731   5.202   0.734   0.462
 7278SOL     OW22732   3.756   2.948   2.441
 7278SOL    HW122733   3.847   2.957   2.481
 7278SOL    HW222734   3.761   2.959   2.342
 7279SOL     OW22735   3.738   6.565   6.050
 7279SOL    HW122736   3.770   6.484   6.099
 7279SOL    HW222737   3.689   6.537   5.968
 7280SOL     OW22738   4.773   1.279   6.191
 7280SOL    HW122739   4.850   1.342   6.192
 7280SOL    HW222740   4.704   1.312   6.126
 7281SOL     OW22741   5.636   1.168   5.971
 7281SOL    HW122742   5.672   1.122   6.052
 7281SOL    HW222743   5.612   1.100   5.902
 7282SOL     OW22744   5.891   5.956   2.663
 7282SOL    HW122745   5.944   5.884   2.619
 7282SOL    HW222746   5.861   5.926   2.753
 7283SOL     OW22747   1.964   1.630   3.817
 7283SOL    HW122748   2.008   1.656   3.730
 7283SOL    HW222749   1.877   1.585   3.798
 7284SOL     OW22750   1.484   1.824   5.160
 7284SOL    HW122751   1.561   1.776   5.118
 7284SOL    HW222752   1.399   1.775   5.140
 7285SOL     OW22753   6.172   5.517   2.102
 7285SOL    HW122754   6.110   5.596   2.102
 7285SOL    HW222755   6.148   5.456   2.027
 7286SOL     OW22756   1.684   4.135   0.695
 7286SOL    HW122757   1.660   4.100   0.786
 7286SOL    HW222758   1.694   4.234   0.700
 7287SOL     OW22759   6.347   1.674   5.901
 7287SOL    HW122760   6.320   1.615   5.825
 7287SOL    HW222761   6.395   1.754   5.865
 7288SOL     OW22762   2.718   0.451   0.040
 7288SOL    HW122763   2.747   0.369   0.089
 7288SOL    HW222764   2.742   0.532   0.092
 7289SOL     OW22765   4.449   2.014   3.848
 7289SOL    HW122766   4.454   2.081   3.922
 7289SOL    HW222767   4.371   2.036   3.789
 7290SOL     OW22768   2.763   5.772   4.428
 7290SOL    HW122769   2.783   5.730   4.339
 7290SOL    HW222770   2.793   5.867   4.428
 7291SOL     OW22771   3.532   4.975   1.379
 7291SOL    HW122772   3.549   5.027   1.463
 7291SOL    HW222773   3.483   4.891   1.402
 7292SOL     OW22774   3.502   0.131   4.423
 7292SOL    HW122775   3.482   0.152   4.327
 7292SOL    HW222776   3.593   0.091   4.430
 7293SOL     OW22777   2.171   1.156   6.604
 7293SOL    HW122778   2.120   1.073   6.628
 7293SOL    HW222779   2.255   1.160   6.659
 7294SOL     OW22780   5.662   5.422   6.822
 7294SOL    HW122781   5.748   5.473   6.832
 7294SOL    HW222782   5.677   5.327   6.848
 7295SOL     OW22783   4.568   0.124   1.627
 7295SOL    HW122784   4.617   0.211   1.619
 7295SOL    HW222785   4.533   0.096   1.537
 7296SOL     OW22786   4.455   5.015   1.149
 7296SOL    HW122787   4.365   5.021   1.104
 7296SOL    HW222788   4.462   4.928   1.197
 7297SOL     OW22789   4.676   6.753   2.088
 7297SOL    HW122790   4.710   6.691   2.159
 7297SOL    HW222791   4.638   6.835   2.132
 7298SOL     OW22792   6.654   3.246   4.334
 7298SOL    HW122793   6.583   3.200   4.389
 7298SOL    HW222794   6.611   3.287   4.254
 7299SOL     OW22795   5.909   3.292   6.794
 7299SOL    HW122796   5.883   3.201   6.762
 7299SOL    HW222797   6.001   3.313   6.761
 7300SOL     OW22798   4.652   5.697   1.498
 7300SOL    HW122799   4.630   5.610   1.453
 7300SOL    HW222800   4.716   5.680   1.573
 7301SOL     OW22801   6.768   1.380   6.406
 7301SOL    HW122802   6.734   1.409   6.317
 7301SOL    HW222803   6.867   1.362   6.400
 7302SOL     OW22804   5.993   0.650   6.126
 7302SOL    HW122805   5.975   0.618   6.032
 7302SOL    HW222806   6.091   0.656   6.141
 7303SOL     OW22807   4.234   0.817   0.901
 7303SOL    HW122808   4.256   0.905   0.945
 7303SOL    HW222809   4.189   0.757   0.967
 7304SOL     OW22810   3.892   3.038   4.779
 7304SOL    HW122811   3.879   2.959   4.839
 7304SOL    HW222812   3.929   3.114   4.833
 7305SOL     OW22813   5.567   1.976   0.034
 7305SOL    HW122814   5.518   2.063   0.023
 7305SOL    HW222815   5.659   1.984   7.011
 7306SOL     OW22816   5.039   4.873   2.110
 7306SOL    HW122817   4.998   4.844   2.024
 7306SOL    HW222818   5.091   4.798   2.149
 7307SOL     OW22819   4.116   6.322   2.034
 7307SOL    HW122820   4.098   6.260   2.111
 7307SOL    HW222821   4.074   6.411   2.053
 7308SOL     OW22822   5.734   0.829   4.294
 7308SOL    HW122823   5.748   0.917   4.248
 7308SOL    HW222824   5.672   0.773   4.240
 7309SOL     OW22825   4.440   5.142   1.451
 7309SOL    HW122826   4.461   5.147   1.353
 7309SOL    HW222827   4.492   5.213   1.499
 7310SOL     OW22828   1.985   5.673   1.769
 7310SOL    HW122829   1.960   5.640   1.678
 7310SOL    HW222830   2.066   5.624   1.801
 7311SOL     OW22831   2.859   1.567   1.988
 7311SOL    HW122832   2.881   1.634   2.058
 7311SOL    HW222833   2.760   1.566   1.972
 7312SOL     OW22834   6.705   2.361   6.263
 7312SOL    HW122835   6.742   2.317   6.345
 7312SOL    HW222836   6.776   2.368   6.194
 7313SOL     OW22837   3.324   2.171   6.322
 7313SOL    HW122838   3.408   2.225   6.314
 7313SOL    HW222839   3.250   2.216   6.273
 7314SOL     OW22840   1.099   2.518   4.488
 7314SOL    HW122841   1.124   2.610   4.458
 7314SOL    HW222842   1.009   2.520   4.532
 7315SOL     OW22843   7.006   0.775   5.985
 7315SOL    HW122844   6.931   0.729   6.032
 7315SOL    HW222845   6.980   0.793   5.890
 7316SOL     OW22846   3.942   2.984   4.517
 7316SOL    HW122847   3.870   2.959   4.452
 7316SOL    HW222848   3.906   2.973   4.610
 7317SOL     OW22849   2.896   0.865   3.927
 7317SOL    HW122850   2.974   0.838   3.983
 7317SOL    HW222851   2.825   0.795   3.934
 7318SOL     OW22852   1.182   1.547   1.181
 7318SOL    HW122853   1.148   1.500   1.263
 7318SOL    HW222854   1.243   1.621   1.209
 7319SOL     OW22855   0.335   4.244   6.266
 7319SOL    HW122856   0.243   4.213   6.287
 7319SOL    HW222857   0.347   4.337   6.301
 7320SOL     OW22858   0.683   1.979   2.489
 7320SOL    HW122859   0.674   1.886   2.523
 7320SOL    HW222860   0.628   1.991   2.407
 7321SOL     OW22861   2.885   1.433   3.983
 7321SOL    HW122862   2.872   1.367   4.057
 7321SOL    HW222863   2.796   1.462   3.947
 7322SOL     OW22864   0.612   3.297   1.608
 7322SOL    HW122865   0.600   3.386   1.651
 7322SOL    HW222866   0.696   3.254   1.640
 7323SOL     OW22867   2.296   4.146   3.121
 7323SOL    HW122868   2.210   4.190   3.096
 7323SOL    HW222869   2.358   4.149   3.043
 7324SOL     OW22870   5.126   5.145   3.188
 7324SOL    HW122871   5.160   5.239   3.185
 7324SOL    HW222872   5.176   5.094   3.258
 7325SOL     OW22873   3.014   6.008   0.572
 7325SOL    HW122874   3.084   5.965   0.515
 7325SOL    HW222875   3.054   6.034   0.660
 7326SOL     OW22876   2.277   0.719   4.427
 7326SOL    HW122877   2.314   0.632   4.461
 7326SOL    HW222878   2.188   0.702   4.384
 7327SOL     OW22879   1.548   3.173   5.590
 7327SOL    HW122880   1.484   3.250   5.584
 7327SOL    HW222881   1.612   3.177   5.514
 7328SOL     OW22882   2.091   6.839   6.716
 7328SOL    HW122883   2.031   6.909   6.756
 7328SOL    HW222884   2.040   6.785   6.650
 7329SOL     OW22885   4.611   3.638   1.708
 7329SOL    HW122886   4.595   3.735   1.694
 7329SOL    HW222887   4.576   3.586   1.630
 7330SOL     OW22888   4.087   2.038   1.266
 7330SOL    HW122889   4.186   2.025   1.270
 7330SOL    HW222890   4.057   2.086   1.349
 7331SOL     OW22891   4.778   1.563   1.527
 7331SOL    HW122892   4.854   1.526   1.580
 7331SOL    HW222893   4.804   1.652   1.490
 7332SOL     OW22894   3.499   6.256   0.579
 7332SOL    HW122895   3.514   6.336   0.637
 7332SOL    HW222896   3.401   6.241   0.567
 7333SOL     OW22897   0.347   4.837   2.656
 7333SOL    HW122898   0.339   4.793   2.746
 7333SOL    HW222899   0.444   4.849   2.634
 7334SOL     OW22900   2.964   0.252   4.559
 7334SOL    HW122901   2.948   0.243   4.461
 7334SOL    HW222902   3.050   0.208   4.583
 7335SOL     OW22903   2.193   3.133   2.775
 7335SOL    HW122904   2.179   3.034   2.785
 7335SOL    HW222905   2.178   3.177   2.863
 7336SOL     OW22906   2.160   6.356   4.080
 7336SOL    HW122907   2.072   6.308   4.078
 7336SOL    HW222908   2.175   6.400   3.992
 7337SOL     OW22909   4.987   2.502   1.659
 7337SOL    HW122910   4.979   2.573   1.589
 7337SOL    HW222911   4.960   2.414   1.619
 7338SOL     OW22912   0.031   3.324   0.404
 7338SOL    HW122913   0.085   3.367   0.476
 7338SOL    HW222914   6.994   3.394   0.356
 7339SOL     OW22915   1.349   5.828   4.689
 7339SOL    HW122916   1.363   5.740   4.734
 7339SOL    HW222917   1.336   5.900   4.758
 7340SOL     OW22918   2.798   6.676   7.005
 7340SOL    HW122919   2.746   6.761   6.994
 7340SOL    HW222920   2.736   6.598   6.998
 7341SOL     OW22921   6.679   2.127   0.903
 7341SOL    HW122922   6.681   2.225   0.923
 7341SOL    HW222923   6.587   2.091   0.921
 7342SOL     OW22924   0.785   6.160   2.248
 7342SOL    HW122925   0.744   6.246   2.278
 7342SOL    HW222926   0.712   6.100   2.214
 7343SOL     OW22927   6.309   3.146   0.376
 7343SOL    HW122928   6.379   3.082   0.407
 7343SOL    HW222929   6.349   3.211   0.312
 7344SOL     OW22930   2.554   6.602   5.947
 7344SOL    HW122931   2.643   6.556   5.943
 7344SOL    HW222932   2.557   6.673   6.018
 7345SOL     OW22933   3.847   5.769   5.830
 7345SOL    HW122934   3.934   5.806   5.796
 7345SOL    HW222935   3.835   5.796   5.925
 7346SOL     OW22936   4.030   5.178   2.146
 7346SOL    HW122937   3.939   5.195   2.108
 7346SOL    HW222938   4.022   5.165   2.245
 7347SOL     OW22939   5.932   1.429   0.075
 7347SOL    HW122940   5.987   1.413   7.008
 7347SOL    HW222941   5.959   1.516   0.116
 7348SOL     OW22942   6.907   5.268   0.260
 7348SOL    HW122943   6.825   5.325   0.265
 7348SOL    HW222944   6.950   5.263   0.350
 7349SOL     OW22945   3.980   1.735   1.588
 7349SOL    HW122946   4.045   1.670   1.629
 7349SOL    HW222947   3.923   1.775   1.660
 7350SOL     OW22948   3.765   1.039   4.548
 7350SOL    HW122949   3.757   0.994   4.637
 7350SOL    HW222950   3.732   1.133   4.555
 7351SOL     OW22951   2.374   4.744   4.111
 7351SOL    HW122952   2.332   4.792   4.188
 7351SOL    HW222953   2.327   4.770   4.027
 7352SOL     OW22954   5.796   3.126   4.191
 7352SOL    HW122955   5.864   3.058   4.216
 7352SOL    HW222956   5.806   3.207   4.249
 7353SOL     OW22957   6.276   1.273   5.305
 7353SOL    HW122958   6.366   1.298   5.270
 7353SOL    HW222959   6.211   1.346   5.286
 7354SOL     OW22960   0.971   1.753   2.868
 7354SOL    HW122961   1.042   1.804   2.819
 7354SOL    HW222962   0.980   1.655   2.849
 7355SOL     OW22963   3.363   1.801   0.791
 7355SOL    HW122964   3.313   1.886   0.775
 7355SOL    HW222965   3.298   1.730   0.820
 7356SOL     OW22966   4.284   4.309   6.183
 7356SOL    HW122967   4.350   4.293   6.256
 7356SOL    HW222968   4.291   4.403   6.150
 7357SOL     OW22969   4.296   6.448   1.811
 7357SOL    HW122970   4.309   6.461   1.713
 7357SOL    HW222971   4.220   6.505   1.843
 7358SOL     OW22972   4.572   6.834   3.446
 7358SOL    HW122973   4.613   6.866   3.360
 7358SOL    HW222974   4.508   6.903   3.480
 7359SOL     OW22975   3.892   6.964   2.273
 7359SOL    HW122976   3.919   0.044   2.274
 7359SOL    HW222977   3.866   6.935   2.365
 7360SOL     OW22978   2.752   3.663   5.436
 7360SOL    HW122979   2.788   3.584   5.387
 7360SOL    HW222980   2.744   3.741   5.374
 7361SOL     OW22981   6.601   0.531   3.131
 7361SOL    HW122982   6.643   0.445   3.102
 7361SOL    HW222983   6.512   0.541   3.086
 7362SOL     OW22984   3.561   5.770   0.414
 7362SOL    HW122985   3.554   5.741   0.509
 7362SOL    HW222986   3.527   5.696   0.355
 7363SOL     OW22987   4.467   1.088   1.249
 7363SOL    HW122988   4.518   1.174   1.251
 7363SOL    HW222989   4.414   1.083   1.164
 7364SOL     OW22990   5.991   6.211   2.004
 7364SOL    HW122991   6.015   6.305   1.980
 7364SOL    HW222992   5.899   6.190   1.969
 7365SOL     OW22993   4.922   3.398   2.642
 7365SOL    HW122994   4.972   3.377   2.558
 7365SOL    HW222995   4.968   3.355   2.719
 7366SOL     OW22996   2.526   0.208   3.650
 7366SOL    HW122997   2.573   0.159   3.576
 7366SOL    HW222998   2.550   0.304   3.647
 7367SOL     OW22999   4.443   1.134   6.788
 7367SOL    HW123000   4.423   1.081   6.870
 7367SOL    HW223001   4.438   1.232   6.810
 7368SOL     OW23002   3.005   3.282   3.363
 7368SOL    HW123003   3.000   3.322   3.455
 7368SOL    HW223004   2.976   3.351   3.296
 7369SOL     OW23005   5.790   3.775   6.972
 7369SOL    HW123006   5.711   3.808   0.009
 7369SOL    HW223007   5.760   3.702   6.911
 7370SOL     OW23008   1.804   1.483   4.281
 7370SOL    HW123009   1.734   1.418   4.255
 7370SOL    HW223010   1.894   1.449   4.254
 7371SOL     OW23011   3.969   0.468   3.685
 7371SOL    HW123012   3.893   0.525   3.651
 7371SOL    HW223013   3.933   0.401   3.750
 7372SOL     OW23014   5.042   1.232   5.499
 7372SOL    HW123015   4.977   1.307   5.503
 7372SOL    HW223016   4.994   1.146   5.480
 7373SOL     OW23017   6.041   2.969   4.249
 7373SOL    HW123018   6.010   2.992   4.341
 7373SOL    HW223019   6.065   2.872   4.244
 7374SOL     OW23020   0.574   2.530   6.359
 7374SOL    HW123021   0.476   2.511   6.372
 7374SOL    HW223022   0.596   2.619   6.399
 7375SOL     OW23023   2.099   2.882   0.233
 7375SOL    HW123024   2.178   2.825   0.208
 7375SOL    HW223025   2.113   2.920   0.324
 7376SOL     OW23026   6.691   5.054   0.562
 7376SOL    HW123027   6.677   5.094   0.471
 7376SOL    HW223028   6.676   4.955   0.558
 7377SOL     OW23029   2.617   5.837   0.899
 7377SOL    HW123030   2.650   5.786   0.978
 7377SOL    HW223031   2.651   5.931   0.903
 7378SOL     OW23032   1.817   5.195   5.434
 7378SOL    HW123033   1.799   5.201   5.532
 7378SOL    HW223034   1.869   5.112   5.415
 7379SOL     OW23035   5.047   2.018   2.237
 7379SOL    HW123036   5.030   2.104   2.190
 7379SOL    HW223037   5.125   1.971   2.195
 7380SOL     OW23038   5.286   3.605   1.690
 7380SOL    HW123039   5.263   3.576   1.783
 7380SOL    HW223040   5.228   3.556   1.625
 7381SOL     OW23041   3.626   6.555   1.928
 7381SOL    HW123042   3.677   6.503   1.996
 7381SOL    HW223043   3.684   6.630   1.894
 7382SOL     OW23044   0.332   2.522   6.478
 7382SOL    HW123045   0.316   2.524   6.576
 7382SOL    HW223046   0.252   2.485   6.431
 7383SOL     OW23047   2.304   6.770   0.798
 7383SOL    HW123048   2.297   6.776   0.897
 7383SOL    HW223049   2.306   6.862   0.759
 7384SOL     OW23050   6.526   6.946   0.274
 7384SOL    HW123051   6.587   6.869   0.297
 7384SOL    HW223052   6.538   0.003   0.342
 7385SOL     OW23053   6.225   4.606   3.071
 7385SOL    HW123054   6.316   4.601   3.028
 7385SOL    HW223055   6.193   4.513   3.091
 7386SOL     OW23056   6.071   4.374   0.047
 7386SOL    HW123057   6.026   4.347   6.978
 7386SOL    HW223058   6.159   4.326   0.054
 7387SOL     OW23059   6.663   5.395   4.102
 7387SOL    HW123060   6.595   5.352   4.043
 7387SOL    HW223061   6.739   5.429   4.046
 7388SOL     OW23062   2.524   4.498   2.621
 7388SOL    HW123063   2.511   4.594   2.597
 7388SOL    HW223064   2.482   4.440   2.551
 7389SOL     OW23065   6.488   2.846   0.747
 7389SOL    HW123066   6.548   2.925   0.763
 7389SOL    HW223067   6.458   2.808   0.834
 7390SOL     OW23068   3.496   2.111   3.644
 7390SOL    HW123069   3.418   2.127   3.704
 7390SOL    HW223070   3.549   2.196   3.636
 7391SOL     OW23071   3.680   3.970   3.005
 7391SOL    HW123072   3.735   3.986   2.922
 7391SOL    HW223073   3.729   4.006   3.084
 7392SOL     OW23074   3.216   6.545   0.865
 7392SOL    HW123075   3.139   6.486   0.842
 7392SOL    HW223076   3.190   6.641   0.853
 7393SOL     OW23077   5.013   5.601   3.107
 7393SOL    HW123078   5.020   5.685   3.054
 7393SOL    HW223079   4.948   5.539   3.064
 7394SOL     OW23080   1.944   2.230   6.143
 7394SOL    HW123081   1.962   2.140   6.183
 7394SOL    HW223082   2.028   2.284   6.144
 7395SOL     OW23083   2.951   6.184   1.454
 7395SOL    HW123084   2.904   6.100   1.482
 7395SOL    HW223085   3.025   6.204   1.518
 7396SOL     OW23086   1.364   5.154   2.024
 7396SOL    HW123087   1.343   5.056   2.024
 7396SOL    HW223088   1.327   5.196   2.107
 7397SOL     OW23089   5.858   4.528   4.032
 7397SOL    HW123090   5.939   4.531   3.973
 7397SOL    HW223091   5.786   4.476   3.986
 7398SOL     OW23092   3.024   5.123   2.135
 7398SOL    HW123093   3.020   5.023   2.133
 7398SOL    HW223094   3.104   5.152   2.187
 7399SOL     OW23095   5.932   1.752   5.366
 7399SOL    HW123096   5.882   1.676   5.325
 7399SOL    HW223097   5.997   1.717   5.433
 7400SOL     OW23098   4.071   3.469   5.421
 7400SOL    HW123099   4.103   3.521   5.500
 7400SOL    HW223100   3.971   3.472   5.417
 7401SOL     OW23101   1.636   2.253   3.795
 7401SOL    HW123102   1.590   2.164   3.792
 7401SOL    HW223103   1.570   2.322   3.825
 7402SOL     OW23104   3.521   5.527   4.120
 7402SOL    HW123105   3.522   5.507   4.218
 7402SOL    HW223106   3.591   5.594   4.098
 7403SOL     OW23107   1.639   4.680   4.146
 7403SOL    HW123108   1.701   4.734   4.090
 7403SOL    HW223109   1.688   4.602   4.184
 7404SOL     OW23110   2.257   3.751   0.821
 7404SOL    HW123111   2.244   3.682   0.750
 7404SOL    HW223112   2.199   3.830   0.802
 7405SOL     OW23113   4.090   6.691   5.787
 7405SOL    HW123114   4.038   6.607   5.772
 7405SOL    HW223115   4.118   6.729   5.699
 7406SOL     OW23116   0.445   2.649   4.457
 7406SOL    HW123117   0.539   2.618   4.445
 7406SOL    HW223118   0.392   2.629   4.375
 7407SOL     OW23119   0.791   6.423   5.182
 7407SOL    HW123120   0.841   6.348   5.139
 7407SOL    HW223121   0.848   6.465   5.253
 7408SOL     OW23122   4.449   5.469   5.732
 7408SOL    HW123123   4.489   5.514   5.652
 7408SOL    HW223124   4.498   5.384   5.751
 7409SOL     OW23125   6.529   5.316   1.847
 7409SOL    HW123126   6.576   5.241   1.894
 7409SOL    HW223127   6.460   5.279   1.785
 7410SOL     OW23128   6.348   0.766   1.270
 7410SOL    HW123129   6.437   0.780   1.228
 7410SOL    HW223130   6.304   0.854   1.285
 7411SOL     OW23131   3.918   1.873   5.427
 7411SOL    HW123132   3.909   1.778   5.458
 7411SOL    HW223133   4.003   1.912   5.461
 7412SOL     OW23134   4.214   0.032   0.009
 7412SOL    HW123135   4.116   0.035   0.029
 7412SOL    HW223136   4.241   6.954   7.002
 7413SOL     OW23137   5.352   0.885   3.684
 7413SOL    HW123138   5.278   0.875   3.617
 7413SOL    HW223139   5.368   0.982   3.702
 7414SOL     OW23140   2.681   1.301   3.828
 7414SOL    HW123141   2.594   1.260   3.801
 7414SOL    HW223142   2.754   1.233   3.822
 7415SOL     OW23143   3.830   0.518   6.448
 7415SOL    HW123144   3.824   0.617   6.458
 7415SOL    HW223145   3.741   0.477   6.469
 7416SOL     OW23146   0.891   0.464   1.675
 7416SOL    HW123147   0.888   0.369   1.647
 7416SOL    HW223148   0.798   0.499   1.684
 7417SOL     OW23149   0.545   0.593   2.093
 7417SOL    HW123150   0.466   0.637   2.050
 7417SOL    HW223151   0.549   0.617   2.189
 7418SOL     OW23152   1.514   3.502   6.108
 7418SOL    HW123153   1.514   3.601   6.101
 7418SOL    HW223154   1.456   3.463   6.037
 7419SOL     OW23155   6.455   3.128   4.462
 7419SOL    HW123156   6.466   3.062   4.537
 7419SOL    HW223157   6.371   3.180   4.476
 7420SOL     OW23158   6.901   6.754   1.004
 7420SOL    HW123159   6.970   6.696   1.048
 7420SOL    HW223160   6.946   6.826   0.952
 7421SOL     OW23161   6.231   3.792   1.383
 7421SOL    HW123162   6.226   3.737   1.299
 7421SOL    HW223163   6.176   3.875   1.371
 7422SOL     OW23164   5.348   3.263   1.404
 7422SOL    HW123165   5.260   3.301   1.378
 7422SOL    HW223166   5.345   3.163   1.398
 7423SOL     OW23167   4.545   2.657   6.080
 7423SOL    HW123168   4.483   2.696   6.011
 7423SOL    HW223169   4.492   2.622   6.157
 7424SOL     OW23170   0.637   2.126   3.922
 7424SOL    HW123171   0.627   2.171   4.010
 7424SOL    HW223172   0.734   2.108   3.905
 7425SOL     OW23173   5.541   0.165   1.448
 7425SOL    HW123174   5.511   0.252   1.487
 7425SOL    HW223175   5.613   0.125   1.505
 7426SOL     OW23176   3.394   3.301   5.270
 7426SOL    HW123177   3.407   3.342   5.180
 7426SOL    HW223178   3.436   3.359   5.340
 7427SOL     OW23179   2.674   0.317   2.570
 7427SOL    HW123180   2.608   0.366   2.627
 7427SOL    HW223181   2.726   0.382   2.515
 7428SOL     OW23182   2.340   6.860   5.243
 7428SOL    HW123183   2.408   6.933   5.233
 7428SOL    HW223184   2.298   6.866   5.333
 7429SOL     OW23185   1.117   1.100   2.429
 7429SOL    HW123186   1.146   1.038   2.502
 7429SOL    HW223187   1.018   1.114   2.434
 7430SOL     OW23188   7.011   4.093   2.931
 7430SOL    HW123189   0.058   4.104   3.008
 7430SOL    HW223190   6.984   3.997   2.923
 7431SOL     OW23191   0.998   2.196   4.727
 7431SOL    HW123192   1.023   2.099   4.735
 7431SOL    HW223193   1.054   2.239   4.657
 7432SOL     OW23194   1.742   1.184   2.902
 7432SOL    HW123195   1.683   1.249   2.950
 7432SOL    HW223196   1.763   1.220   2.811
 7433SOL     OW23197   3.550   6.803   6.612
 7433SOL    HW123198   3.639   6.800   6.567
 7433SOL    HW223199   3.551   6.872   6.684
 7434SOL     OW23200   4.029   0.186   3.570
 7434SOL    HW123201   4.009   0.199   3.668
 7434SOL    HW223202   4.096   0.255   3.541
 7435SOL     OW23203   5.130   4.645   2.837
 7435SOL    HW123204   5.215   4.695   2.858
 7435SOL    HW223205   5.082   4.624   2.922
 7436SOL     OW23206   4.617   2.821   5.830
 7436SOL    HW123207   4.558   2.743   5.810
 7436SOL    HW223208   4.702   2.790   5.872
 7437SOL     OW23209   3.086   0.711   1.536
 7437SOL    HW123210   3.169   0.763   1.518
 7437SOL    HW223211   3.006   0.768   1.519
 7438SOL     OW23212   1.750   0.188   6.810
 7438SOL    HW123213   1.751   0.288   6.813
 7438SOL    HW223214   1.661   0.155   6.842
 7439SOL     OW23215   1.574   4.560   6.101
 7439SOL    HW123216   1.506   4.487   6.092
 7439SOL    HW223217   1.640   4.554   6.027
 7440SOL     OW23218   5.572   3.133   3.712
 7440SOL    HW123219   5.515   3.210   3.682
 7440SOL    HW223220   5.599   3.078   3.633
 7441SOL     OW23221   4.268   6.361   0.669
 7441SOL    HW123222   4.359   6.320   0.673
 7441SOL    HW223223   4.210   6.322   0.741
 7442SOL     OW23224   5.940   0.878   5.799
 7442SOL    HW123225   6.007   0.897   5.727
 7442SOL    HW223226   5.896   0.963   5.827
 7443SOL     OW23227   0.419   7.006   1.068
 7443SOL    HW123228   0.411   6.987   1.166
 7443SOL    HW223229   0.385   6.928   1.016
 7444SOL     OW23230   1.395   6.102   6.727
 7444SOL    HW123231   1.348   6.104   6.638
 7444SOL    HW223232   1.484   6.146   6.719
 7445SOL     OW23233   3.191   5.851   2.499
 7445SOL    HW123234   3.166   5.765   2.545
 7445SOL    HW223235   3.209   5.833   2.403
 7446SOL     OW23236   6.635   5.086   0.313
 7446SOL    HW123237   6.719   5.113   0.266
 7446SOL    HW223238   6.610   4.993   0.287
 7447SOL     OW23239   0.678   5.775   0.794
 7447SOL    HW123240   0.774   5.800   0.783
 7447SOL    HW223241   0.636   5.833   0.864
 7448SOL     OW23242   4.108   4.764   6.757
 7448SOL    HW123243   4.094   4.815   6.672
 7448SOL    HW223244   4.203   4.734   6.762
 7449SOL     OW23245   6.831   4.150   6.790
 7449SOL    HW123246   6.875   4.072   6.834
 7449SOL    HW223247   6.900   4.219   6.767
 7450SOL     OW23248   5.650   2.934   0.281
 7450SOL    HW123249   5.742   2.904   0.256
 7450SOL    HW223250   5.652   3.030   0.309
 7451SOL     OW23251   4.606   4.846   2.925
 7451SOL    HW123252   4.507   4.838   2.909
 7451SOL    HW223253   4.634   4.778   2.992
 7452SOL     OW23254   6.608   5.940   6.223
 7452SOL    HW123255   6.602   5.845   6.256
 7452SOL    HW223256   6.526   5.962   6.171
 7453SOL     OW23257   4.270   5.465   6.697
 7453SOL    HW123258   4.213   5.434   6.622
 7453SOL    HW223259   4.214   5.476   6.779
 7454SOL     OW23260   3.840   2.090   0.961
 7454SOL    HW123261   3.783   2.015   0.925
 7454SOL    HW223262   3.929   2.089   0.916
 7455SOL     OW23263   6.359   0.024   3.064
 7455SOL    HW123264   6.439   0.026   3.005
 7455SOL    HW223265   6.290   0.088   3.028
 7456SOL     OW23266   2.992   1.409   5.841
 7456SOL    HW123267   2.977   1.508   5.835
 7456SOL    HW223268   3.029   1.376   5.754
 7457SOL     OW23269   1.412   1.279   2.654
 7457SOL    HW123270   1.440   1.328   2.737
 7457SOL    HW223271   1.316   1.249   2.664
 7458SOL     OW23272   0.572   5.497   5.156
 7458SOL    HW123273   0.512   5.488   5.236
 7458SOL    HW223274   0.638   5.570   5.171
 7459SOL     OW23275   5.654   7.009   3.185
 7459SOL    HW123276   5.581   7.012   3.253
 7459SOL    HW223277   5.645   6.926   3.130
 7460SOL     OW23278   0.884   0.546   1.287
 7460SOL    HW123279   0.882   0.512   1.193
 7460SOL    HW223280   0.977   0.536   1.323
 7461SOL     OW23281   1.966   4.315   4.766
 7461SOL    HW123282   2.021   4.232   4.758
 7461SOL    HW223283   2.006   4.376   4.834
 7462SOL     OW23284   1.770   5.083   0.053
 7462SOL    HW123285   1.708   5.067   6.992
 7462SOL    HW223286   1.742   5.027   0.131
 7463SOL     OW23287   4.822   5.018   1.527
 7463SOL    HW123288   4.848   5.092   1.465
 7463SOL    HW223289   4.898   4.996   1.587
 7464SOL     OW23290   5.228   5.187   5.119
 7464SOL    HW123291   5.300   5.255   5.111
 7464SOL    HW223292   5.204   5.152   5.028
 7465SOL     OW23293   1.647   4.187   6.758
 7465SOL    HW123294   1.637   4.192   6.658
 7465SOL    HW223295   1.604   4.267   6.799
 7466SOL     OW23296   0.637   0.534   5.380
 7466SOL    HW123297   0.664   0.601   5.311
 7466SOL    HW223298   0.546   0.499   5.360
 7467SOL     OW23299   1.035   3.621   4.395
 7467SOL    HW123300   1.130   3.597   4.417
 7467SOL    HW223301   1.034   3.700   4.334
 7468SOL     OW23302   5.320   2.920   4.985
 7468SOL    HW123303   5.339   2.992   5.051
 7468SOL    HW223304   5.405   2.886   4.946
 7469SOL     OW23305   0.129   2.282   0.287
 7469SOL    HW123306   0.083   2.194   0.294
 7469SOL    HW223307   0.066   2.350   0.250
 7470SOL     OW23308   4.904   2.916   3.903
 7470SOL    HW123309   4.869   2.959   3.820
 7470SOL    HW223310   4.987   2.963   3.933
 7471SOL     OW23311   3.418   6.539   6.535
 7471SOL    HW123312   3.450   6.473   6.603
 7471SOL    HW223313   3.446   6.631   6.562
 7472SOL     OW23314   0.362   0.628   5.893
 7472SOL    HW123315   0.286   0.650   5.954
 7472SOL    HW223316   0.449   0.647   5.940
 7473SOL     OW23317   4.068   6.200   3.303
 7473SOL    HW123318   4.061   6.101   3.315
 7473SOL    HW223319   3.977   6.240   3.301
 7474SOL     OW23320   5.778   2.592   0.305
 7474SOL    HW123321   5.840   2.647   0.360
 7474SOL    HW223322   5.686   2.632   0.307
 7475SOL     OW23323   4.717   2.635   0.699
 7475SOL    HW123324   4.751   2.729   0.696
 7475SOL    HW223325   4.640   2.625   0.635
 7476SOL     OW23326   2.646   1.269   2.571
 7476SOL    HW123327   2.593   1.322   2.505
 7476SOL    HW223328   2.684   1.330   2.641
 7477SOL     OW23329   2.803   3.714   5.736
 7477SOL    HW123330   2.795   3.657   5.654
 7477SOL    HW223331   2.740   3.791   5.730
 7478SOL     OW23332   0.327   2.188   6.331
 7478SOL    HW123333   0.232   2.216   6.345
 7478SOL    HW223334   0.365   2.239   6.253
 7479SOL     OW23335   4.959   2.929   1.232
 7479SOL    HW123336   4.964   2.999   1.160
 7479SOL    HW223337   4.886   2.953   1.296
 7480SOL     OW23338   3.304   6.237   2.799
 7480SOL    HW123339   3.269   6.325   2.769
 7480SOL    HW223340   3.403   6.233   2.784
 7481SOL     OW23341   0.145   3.682   6.710
 7481SOL    HW123342   0.055   3.706   6.674
 7481SOL    HW223343   0.205   3.654   6.635
 7482SOL     OW23344   4.584   2.276   4.442
 7482SOL    HW123345   4.574   2.260   4.541
 7482SOL    HW223346   4.648   2.210   4.404
 7483SOL     OW23347   5.008   1.722   6.267
 7483SOL    HW123348   5.059   1.675   6.196
 7483SOL    HW223349   4.963   1.655   6.326
 7484SOL     OW23350   2.541   0.806   4.561
 7484SOL    HW123351   2.481   0.786   4.639
 7484SOL    HW223352   2.495   0.780   4.476
 7485SOL     OW23353   3.882   0.170   6.772
 7485SOL    HW123354   3.850   0.087   6.726
 7485SOL    HW223355   3.964   0.149   6.825
 7486SOL     OW23356   4.372   6.905   1.098
 7486SOL    HW123357   4.290   6.949   1.136
 7486SOL    HW223358   4.449   6.917   1.160
 7487SOL     OW23359   3.099   6.451   4.416
 7487SOL    HW123360   3.178   6.471   4.358
 7487SOL    HW223361   3.129   6.448   4.512
 7488SOL     OW23362   1.654   6.129   3.905
 7488SOL    HW123363   1.568   6.180   3.909
 7488SOL    HW223364   1.641   6.038   3.944
 7489SOL     OW23365   5.156   3.263   6.548
 7489SOL    HW123366   5.236   3.203   6.554
 7489SOL    HW223367   5.081   3.222   6.599
 7490SOL     OW23368   2.008   2.947   1.528
 7490SOL    HW123369   2.042   3.040   1.522
 7490SOL    HW223370   2.065   2.886   1.473
 7491SOL     OW23371   4.498   3.857   6.475
 7491SOL    HW123372   4.567   3.881   6.544
 7491SOL    HW223373   4.421   3.920   6.482
 7492SOL     OW23374   1.578   0.711   3.650
 7492SOL    HW123375   1.570   0.631   3.591
 7492SOL    HW223376   1.571   0.794   3.595
 7493SOL     OW23377   6.607   4.896   4.632
 7493SOL    HW123378   6.555   4.811   4.632
 7493SOL    HW223379   6.676   4.892   4.705
 7494SOL     OW23380   6.153   1.196   2.240
 7494SOL    HW123381   6.072   1.233   2.193
 7494SOL    HW223382   6.219   1.164   2.173
 7495SOL     OW23383   1.291   3.049   4.486
 7495SOL    HW123384   1.268   2.999   4.569
 7495SOL    HW223385   1.384   3.026   4.458
 7496SOL     OW23386   5.937   3.478   3.079
 7496SOL    HW123387   5.859   3.541   3.083
 7496SOL    HW223388   6.017   3.522   3.118
 7497SOL     OW23389   6.485   6.803   1.602
 7497SOL    HW123390   6.462   6.889   1.558
 7497SOL    HW223391   6.511   6.735   1.533
 7498SOL     OW23392   2.581   0.070   3.944
 7498SOL    HW123393   2.651   0.001   3.928
 7498SOL    HW223394   2.563   0.120   3.859
 7499SOL     OW23395   2.882   1.563   3.550
 7499SOL    HW123396   2.789   1.554   3.514
 7499SOL    HW223397   2.889   1.648   3.603
 7500SOL     OW23398   3.889   1.597   4.500
 7500SOL    HW123399   3.792   1.573   4.510
 7500SOL    HW223400   3.921   1.642   4.584
 7501SOL     OW23401   6.242   2.206   3.880
 7501SOL    HW123402   6.181   2.213   3.801
 7501SOL    HW223403   6.205   2.138   3.944
 7502SOL     OW23404   3.975   0.919   3.541
 7502SOL    HW123405   3.989   0.889   3.635
 7502SOL    HW223406   3.878   0.910   3.518
 7503SOL     OW23407   1.608   5.898   0.975
 7503SOL    HW123408   1.596   5.970   1.044
 7503SOL    HW223409   1.704   5.869   0.973
 7504SOL     OW23410   5.415   6.337   4.551
 7504SOL    HW123411   5.315   6.337   4.560
 7504SOL    HW223412   5.445   6.428   4.525
 7505SOL     OW23413   0.770   6.508   5.881
 7505SOL    HW123414   0.860   6.477   5.912
 7505SOL    HW223415   0.774   6.605   5.857
 7506SOL     OW23416   3.368   2.109   4.202
 7506SOL    HW123417   3.321   2.141   4.285
 7506SOL    HW223418   3.467   2.109   4.218
 7507SOL     OW23419   6.748   3.973   6.285
 7507SOL    HW123420   6.739   4.072   6.297
 7507SOL    HW223421   6.729   3.928   6.372
 7508SOL     OW23422   2.919   6.255   0.485
 7508SOL    HW123423   2.825   6.256   0.453
 7508SOL    HW223424   2.950   6.161   0.497
 7509SOL     OW23425   6.287   4.579   2.402
 7509SOL    HW123426   6.220   4.649   2.425
 7509SOL    HW223427   6.245   4.489   2.411
 7510SOL     OW23428   3.259   4.165   1.473
 7510SOL    HW123429   3.269   4.069   1.498
 7510SOL    HW223430   3.292   4.223   1.547
 7511SOL     OW23431   4.858   5.943   3.848
 7511SOL    HW123432   4.760   5.941   3.869
 7511SOL    HW223433   4.875   5.899   3.760
 7512SOL     OW23434   4.290   0.127   0.929
 7512SOL    HW123435   4.366   0.164   0.982
 7512SOL    HW223436   4.311   0.034   0.899
 7513SOL     OW23437   0.861   0.616   2.159
 7513SOL    HW123438   0.764   0.639   2.148
 7513SOL    HW223439   0.892   0.566   2.078
 7514SOL     OW23440   0.154   0.336   0.702
 7514SOL    HW123441   0.163   0.350   0.801
 7514SOL    HW223442   0.239   0.299   0.665
 7515SOL     OW23443   0.144   4.905   5.211
 7515SOL    HW123444   0.232   4.903   5.257
 7515SOL    HW223445   0.086   4.977   5.251
 7516SOL     OW23446   1.959   6.307   5.243
 7516SOL    HW123447   2.036   6.318   5.180
 7516SOL    HW223448   1.903   6.230   5.213
 7517SOL     OW23449   0.628   2.347   6.563
 7517SOL    HW123450   0.721   2.370   6.591
 7517SOL    HW223451   0.600   2.407   6.487
 7518SOL     OW23452   4.097   2.122   4.335
 7518SOL    HW123453   4.048   2.144   4.251
 7518SOL    HW223454   4.140   2.032   4.326
 7519SOL     OW23455   3.538   6.831   5.053
 7519SOL    HW123456   3.447   6.837   5.011
 7519SOL    HW223457   3.582   6.921   5.051
 7520SOL     OW23458   1.749   1.279   0.666
 7520SOL    HW123459   1.761   1.296   0.568
 7520SOL    HW223460   1.839   1.277   0.710
 7521SOL     OW23461   3.964   1.556   5.283
 7521SOL    HW123462   4.018   1.603   5.352
 7521SOL    HW223463   4.025   1.503   5.223
 7522SOL     OW23464   1.874   6.716   4.122
 7522SOL    HW123465   1.830   6.633   4.157
 7522SOL    HW223466   1.817   6.795   4.144
 7523SOL     OW23467   5.759   1.736   0.085
 7523SOL    HW123468   5.665   1.740   0.121
 7523SOL    HW223469   5.783   1.824   0.045
 7524SOL     OW23470   0.402   3.962   5.253
 7524SOL    HW123471   0.475   3.996   5.194
 7524SOL    HW223472   0.420   3.867   5.279
 7525SOL     OW23473   1.855   4.657   5.698
 7525SOL    HW123474   1.797   4.718   5.752
 7525SOL    HW223475   1.859   4.568   5.742
 7526SOL     OW23476   1.596   4.130   0.989
 7526SOL    HW123477   1.602   4.218   0.944
 7526SOL    HW223478   1.623   4.140   1.085
 7527SOL     OW23479   2.686   5.178   2.602
 7527SOL    HW123480   2.742   5.254   2.635
 7527SOL    HW223481   2.740   5.123   2.538
 7528SOL     OW23482   6.103   2.752   6.682
 7528SOL    HW123483   6.190   2.744   6.730
 7528SOL    HW223484   6.118   2.786   6.589
 7529SOL     OW23485   5.817   3.274   4.673
 7529SOL    HW123486   5.832   3.324   4.758
 7529SOL    HW223487   5.744   3.207   4.686
 7530SOL     OW23488   1.161   2.817   3.183
 7530SOL    HW123489   1.105   2.791   3.261
 7530SOL    HW223490   1.188   2.913   3.192
 7531SOL     OW23491   4.023   1.915   3.914
 7531SOL    HW123492   3.962   1.846   3.954
 7531SOL    HW223493   4.118   1.892   3.935
 7532SOL     OW23494   4.714   5.378   6.252
 7532SOL    HW123495   4.668   5.457   6.213
 7532SOL    HW223496   4.765   5.406   6.333
 7533SOL     OW23497   4.373   4.652   1.891
 7533SOL    HW123498   4.443   4.604   1.945
 7533SOL    HW223499   4.306   4.586   1.857
 7534SOL     OW23500   4.572   5.766   5.345
 7534SOL    HW123501   4.564   5.671   5.376
 7534SOL    HW223502   4.633   5.816   5.406
 7535SOL     OW23503   0.463   6.611   4.170
 7535SOL    HW123504   0.548   6.658   4.194
 7535SOL    HW223505   0.397   6.621   4.244
 7536SOL     OW23506   6.426   6.568   2.962
 7536SOL    HW123507   6.469   6.545   3.049
 7536SOL    HW223508   6.365   6.647   2.975
 7537SOL     OW23509   1.783   0.353   2.355
 7537SOL    HW123510   1.706   0.406   2.321
 7537SOL    HW223511   1.786   0.264   2.309
 7538SOL     OW23512   0.173   4.877   0.151
 7538SOL    HW123513   0.210   4.894   0.059
 7538SOL    HW223514   0.109   4.800   0.147
 7539SOL     OW23515   6.482   0.581   4.283
 7539SOL    HW123516   6.434   0.657   4.238
 7539SOL    HW223517   6.477   0.593   4.382
 7540SOL     OW23518   4.909   4.329   3.202
 7540SOL    HW123519   4.984   4.276   3.240
 7540SOL    HW223520   4.825   4.313   3.255
 7541SOL     OW23521   2.045   3.896   6.692
 7541SOL    HW123522   2.132   3.853   6.670
 7541SOL    HW223523   2.026   3.969   6.627
 7542SOL     OW23524   5.803   5.813   4.696
 7542SOL    HW123525   5.806   5.910   4.721
 7542SOL    HW223526   5.708   5.782   4.693
 7543SOL     OW23527   2.242   1.415   0.745
 7543SOL    HW123528   2.271   1.436   0.838
 7543SOL    HW223529   2.307   1.455   0.680
 7544SOL     OW23530   5.921   1.355   4.580
 7544SOL    HW123531   5.888   1.261   4.580
 7544SOL    HW223532   5.971   1.372   4.665
 7545SOL     OW23533   1.782   5.726   4.961
 7545SOL    HW123534   1.851   5.736   5.033
 7545SOL    HW223535   1.779   5.631   4.931
 7546SOL     OW23536   2.300   2.720   1.967
 7546SOL    HW123537   2.331   2.716   2.062
 7546SOL    HW223538   2.254   2.807   1.950
 7547SOL     OW23539   4.362   0.542   2.414
 7547SOL    HW123540   4.311   0.623   2.444
 7547SOL    HW223541   4.383   0.551   2.316
 7548SOL     OW23542   2.849   2.394   6.577
 7548SOL    HW123543   2.750   2.398   6.582
 7548SOL    HW223544   2.880   2.434   6.490
 7549SOL     OW23545   5.259   0.670   4.323
 7549SOL    HW123546   5.304   0.616   4.394
 7549SOL    HW223547   5.258   0.617   4.238
 7550SOL     OW23548   2.190   6.046   4.817
 7550SOL    HW123549   2.133   5.985   4.762
 7550SOL    HW223550   2.132   6.102   4.876
 7551SOL     OW23551   6.056   3.510   6.417
 7551SOL    HW123552   6.149   3.545   6.428
 7551SOL    HW223553   6.000   3.578   6.371
 7552SOL     OW23554   2.760   6.138   4.742
 7552SOL    HW123555   2.832   6.177   4.799
 7552SOL    HW223556   2.678   6.123   4.798
 7553SOL     OW23557   6.164   6.810   5.933
 7553SOL    HW123558   6.094   6.809   5.862
 7553SOL    HW223559   6.248   6.770   5.897
 7554SOL     OW23560   4.845   1.794   1.417
 7554SOL    HW123561   4.931   1.814   1.465
 7554SOL    HW223562   4.862   1.787   1.319
 7555SOL     OW23563   4.400   5.336   4.253
 7555SOL    HW123564   4.369   5.317   4.160
 7555SOL    HW223565   4.402   5.251   4.306
 7556SOL     OW23566   1.411   5.729   0.982
 7556SOL    HW123567   1.344   5.731   0.908
 7556SOL    HW223568   1.483   5.795   0.964
 7557SOL     OW23569   4.363   6.360   1.067
 7557SOL    HW123570   4.315   6.421   1.131
 7557SOL    HW223571   4.297   6.316   1.007
 7558SOL     OW23572   0.722   1.712   3.750
 7558SOL    HW123573   0.779   1.656   3.810
 7558SOL    HW223574   0.636   1.666   3.732
 7559SOL     OW23575   2.502   0.064   5.240
 7559SOL    HW123576   2.484   0.126   5.316
 7559SOL    HW223577   2.439   0.083   5.165
 7560SOL     OW23578   1.243   1.068   5.590
 7560SOL    HW123579   1.151   1.088   5.554
 7560SOL    HW223580   1.289   1.004   5.528
 7561SOL     OW23581   5.272   0.834   4.984
 7561SOL    HW123582   5.210   0.867   5.055
 7561SOL    HW223583   5.355   0.890   4.984
 7562SOL     OW23584   2.079   5.390   3.516
 7562SOL    HW123585   2.047   5.462   3.454
 7562SOL    HW223586   2.012   5.315   3.517
 7563SOL     OW23587   2.588   6.394   3.291
 7563SOL    HW123588   2.534   6.392   3.375
 7563SOL    HW223589   2.684   6.377   3.313
 7564SOL     OW23590   4.969   2.628   5.447
 7564SOL    HW123591   4.891   2.672   5.492
 7564SOL    HW223592   5.022   2.697   5.397
 7565SOL     OW23593   6.651   3.136   5.466
 7565SOL    HW123594   6.623   3.136   5.370
 7565SOL    HW223595   6.606   3.211   5.514
 7566SOL     OW23596   4.537   4.490   1.076
 7566SOL    HW123597   4.586   4.437   1.145
 7566SOL    HW223598   4.532   4.437   0.991
 7567SOL     OW23599   1.642   0.284   3.663
 7567SOL    HW123600   1.606   0.357   3.605
 7567SOL    HW223601   1.578   0.207   3.664
 7568SOL     OW23602   6.596   4.077   1.065
 7568SOL    HW123603   6.520   4.134   1.096
 7568SOL    HW223604   6.631   4.023   1.142
 7569SOL     OW23605   4.360   3.498   1.193
 7569SOL    HW123606   4.410   3.411   1.189
 7569SOL    HW223607   4.403   3.558   1.260
 7570SOL     OW23608   0.885   3.027   2.065
 7570SOL    HW123609   0.903   3.085   2.144
 7570SOL    HW223610   0.953   2.955   2.060
 7571SOL     OW23611   4.834   1.336   2.846
 7571SOL    HW123612   4.923   1.375   2.869
 7571SOL    HW223613   4.835   1.304   2.751
 7572SOL     OW23614   4.392   6.625   3.357
 7572SOL    HW123615   4.418   6.529   3.371
 7572SOL    HW223616   4.460   6.684   3.400
 7573SOL     OW23617   4.439   6.622   6.625
 7573SOL    HW123618   4.393   6.561   6.561
 7573SOL    HW223619   4.439   6.715   6.588
 7574SOL     OW23620   0.490   2.918   3.977
 7574SOL    HW123621   0.432   2.933   4.057
 7574SOL    HW223622   0.478   2.994   3.913
 7575SOL     OW23623   0.066   6.971   0.879
 7575SOL    HW123624   0.072   7.003   0.974
 7575SOL    HW223625   0.150   6.995   0.831
 7576SOL     OW23626   4.355   2.837   0.212
 7576SOL    HW123627   4.292   2.857   0.287
 7576SOL    HW223628   4.374   2.921   0.161
 7577SOL     OW23629   0.112   0.595   6.451
 7577SOL    HW123630   0.072   0.558   6.535
 7577SOL    HW223631   0.142   0.689   6.468
 7578SOL     OW23632   6.098   5.556   2.999
 7578SOL    HW123633   6.019   5.499   2.978
 7578SOL    HW223634   6.077   5.652   2.979
 7579SOL     OW23635   1.290   1.748   6.803
 7579SOL    HW123636   1.242   1.711   6.723
 7579SOL    HW223637   1.344   1.675   6.846
 7580SOL     OW23638   2.096   4.854   2.837
 7580SOL    HW123639   2.038   4.933   2.816
 7580SOL    HW223640   2.038   4.776   2.860
 7581SOL     OW23641   0.265   7.005   0.729
 7581SOL    HW123642   0.205   0.023   0.657
 7581SOL    HW223643   0.331   0.061   0.753
 7582SOL     OW23644   2.140   0.967   6.400
 7582SOL    HW123645   2.123   1.055   6.444
 7582SOL    HW223646   2.168   0.982   6.305
 7583SOL     OW23647   5.504   3.728   2.080
 7583SOL    HW123648   5.456   3.642   2.092
 7583SOL    HW223649   5.559   3.724   1.997
 7584SOL     OW23650   0.034   0.942   3.187
 7584SOL    HW123651   6.994   0.951   3.104
 7584SOL    HW223652   0.093   0.861   3.179
 7585SOL     OW23653   1.340   1.320   5.549
 7585SOL    HW123654   1.413   1.299   5.483
 7585SOL    HW223655   1.298   1.236   5.580
 7586SOL     OW23656   1.567   6.831   3.886
 7586SOL    HW123657   1.485   6.782   3.915
 7586SOL    HW223658   1.634   6.766   3.850
 7587SOL     OW23659   4.932   6.886   2.094
 7587SOL    HW123660   4.865   6.818   2.064
 7587SOL    HW223661   4.962   6.865   2.187
 7588SOL     OW23662   1.999   3.350   4.815
 7588SOL    HW123663   1.932   3.407   4.864
 7588SOL    HW223664   2.042   3.286   4.879
 7589SOL     OW23665   6.675   0.073   2.313
 7589SOL    HW123666   6.660   0.014   2.235
 7589SOL    HW223667   6.744   0.032   2.374
 7590SOL     OW23668   6.069   1.257   0.393
 7590SOL    HW123669   6.027   1.189   0.453
 7590SOL    HW223670   6.098   1.336   0.448
 7591SOL     OW23671   3.088   4.027   4.766
 7591SOL    HW123672   3.065   4.122   4.744
 7591SOL    HW223673   3.114   4.021   4.862
 7592SOL     OW23674   0.804   6.553   3.645
 7592SOL    HW123675   0.775   6.644   3.615
 7592SOL    HW223676   0.736   6.514   3.706
 7593SOL     OW23677   6.531   1.302   6.129
 7593SOL    HW123678   6.574   1.213   6.137
 7593SOL    HW223679   6.468   1.303   6.052
 7594SOL     OW23680   6.949   3.628   5.814
 7594SOL    HW123681   6.939   3.719   5.775
 7594SOL    HW223682   7.006   3.634   5.897
 7595SOL     OW23683   0.751   3.158   6.982
 7595SOL    HW123684   0.784   3.097   6.910
 7595SOL    HW223685   0.805   3.143   0.050
 7596SOL     OW23686   2.983   1.649   0.476
 7596SOL    HW123687   2.970   1.702   0.393
 7596SOL    HW223688   3.016   1.557   0.453
 7597SOL     OW23689   2.478   4.391   0.789
 7597SOL    HW123690   2.487   4.454   0.712
 7597SOL    HW223691   2.382   4.385   0.816
 7598SOL     OW23692   5.120   0.745   1.886
 7598SOL    HW123693   5.046   0.678   1.896
 7598SOL    HW223694   5.184   0.734   1.962
 7599SOL     OW23695   3.447   3.145   0.180
 7599SOL    HW123696   3.476   3.051   0.162
 7599SOL    HW223697   3.367   3.146   0.240
 7600SOL     OW23698   1.174   0.192   3.582
 7600SOL    HW123699   1.116   0.261   3.538
 7600SOL    HW223700   1.251   0.237   3.628
 7601SOL     OW23701   2.955   6.205   1.169
 7601SOL    HW123702   2.967   6.194   1.267
 7601SOL    HW223703   2.895   6.283   1.151
 7602SOL     OW23704   0.697   1.682   0.845
 7602SOL    HW123705   0.782   1.729   0.823
 7602SOL    HW223706   0.690   1.671   0.944
 7603SOL     OW23707   4.439   0.980   6.371
 7603SOL    HW123708   4.498   1.059   6.387
 7603SOL    HW223709   4.407   0.944   6.459
 7604SOL     OW23710   2.403   2.593   5.450
 7604SOL    HW123711   2.454   2.655   5.390
 7604SOL    HW223712   2.386   2.506   5.402
 7605SOL     OW23713   3.022   5.646   0.277
 7605SOL    HW123714   2.935   5.673   0.319
 7605SOL    HW223715   3.054   5.721   0.219
 7606SOL     OW23716   6.310   0.567   3.107
 7606SOL    HW123717   6.282   0.503   3.179
 7606SOL    HW223718   6.315   0.659   3.146
 7607SOL     OW23719   1.850   5.731   5.679
 7607SOL    HW123720   1.845   5.793   5.600
 7607SOL    HW223721   1.901   5.648   5.652
 7608SOL     OW23722   0.104   2.348   6.354
 7608SOL    HW123723   0.042   2.371   6.279
 7608SOL    HW223724   0.059   2.364   6.441
 7609SOL     OW23725   3.388   0.450   5.001
 7609SOL    HW123726   3.396   0.537   4.953
 7609SOL    HW223727   3.321   0.459   5.075
 7610SOL     OW23728   4.087   4.974   4.553
 7610SOL    HW123729   4.129   4.934   4.634
 7610SOL    HW223730   4.128   4.936   4.471
 7611SOL     OW23731   4.628   1.893   6.942
 7611SOL    HW123732   4.577   1.907   0.011
 7611SOL    HW223733   4.586   1.947   6.869
 7612SOL     OW23734   4.636   1.733   2.585
 7612SOL    HW123735   4.559   1.673   2.607
 7612SOL    HW223736   4.692   1.691   2.514
 7613SOL     OW23737   0.238   0.810   6.560
 7613SOL    HW123738   0.249   0.852   6.470
 7613SOL    HW223739   0.315   0.836   6.619
 7614SOL     OW23740   5.988   4.807   6.658
 7614SOL    HW123741   5.978   4.905   6.645
 7614SOL    HW223742   6.040   4.768   6.583
 7615SOL     OW23743   5.294   2.907   6.406
 7615SOL    HW123744   5.320   2.988   6.459
 7615SOL    HW223745   5.369   2.841   6.408
 7616SOL     OW23746   6.843   6.414   2.482
 7616SOL    HW123747   6.761   6.439   2.534
 7616SOL    HW223748   6.850   6.471   2.400
 7617SOL     OW23749   6.033   4.174   2.935
 7617SOL    HW123750   5.949   4.180   2.989
 7617SOL    HW223751   6.015   4.199   2.840
 7618SOL     OW23752   2.695   1.812   6.803
 7618SOL    HW123753   2.709   1.905   6.837
 7618SOL    HW223754   2.603   1.782   6.824
 7619SOL     OW23755   0.582   0.771   5.627
 7619SOL    HW123756   0.666   0.787   5.575
 7619SOL    HW223757   0.545   0.681   5.605
 7620SOL     OW23758   3.169   3.711   0.276
 7620SOL    HW123759   3.087   3.763   0.299
 7620SOL    HW223760   3.247   3.746   0.329
 7621SOL     OW23761   6.344   5.250   0.379
 7621SOL    HW123762   6.316   5.343   0.357
 7621SOL    HW223763   6.444   5.243   0.374
 7622SOL     OW23764   3.219   3.902   1.572
 7622SOL    HW123765   3.121   3.911   1.551
 7622SOL    HW223766   3.235   3.927   1.668
 7623SOL     OW23767   5.548   4.622   2.268
 7623SOL    HW123768   5.517   4.598   2.176
 7623SOL    HW223769   5.474   4.609   2.334
 7624SOL     OW23770   0.189   3.130   2.925
 7624SOL    HW123771   0.252   3.195   2.968
 7624SOL    HW223772   0.229   3.038   2.929
 7625SOL     OW23773   5.248   0.262   1.829
 7625SOL    HW123774   5.193   0.329   1.779
 7625SOL    HW223775   5.335   0.303   1.856
 7626SOL     OW23776   4.764   6.655   0.231
 7626SOL    HW123777   4.729   6.622   0.143
 7626SOL    HW223778   4.809   6.743   0.218
 7627SOL     OW23779   4.284   2.655   5.945
 7627SOL    HW123780   4.281   2.738   6.000
 7627SOL    HW223781   4.203   2.600   5.962
 7628SOL     OW23782   3.143   2.833   0.568
 7628SOL    HW123783   3.093   2.895   0.629
 7628SOL    HW223784   3.173   2.883   0.487
 7629SOL     OW23785   5.236   2.243   3.488
 7629SOL    HW123786   5.213   2.149   3.515
 7629SOL    HW223787   5.270   2.293   3.568
 7630SOL     OW23788   1.428   6.258   3.897
 7630SOL    HW123789   1.390   6.322   3.830
 7630SOL    HW223790   1.376   6.263   3.982
 7631SOL     OW23791   1.634   1.160   5.711
 7631SOL    HW123792   1.700   1.139   5.783
 7631SOL    HW223793   1.548   1.190   5.752
 7632SOL     OW23794   4.227   5.567   0.881
 7632SOL    HW123795   4.237   5.599   0.787
 7632SOL    HW223796   4.132   5.574   0.909
 7633SOL     OW23797   5.290   0.804   1.678
 7633SOL    HW123798   5.226   0.799   1.601
 7633SOL    HW223799   5.239   0.823   1.762
 7634SOL     OW23800   0.415   2.272   6.701
 7634SOL    HW123801   0.391   2.181   6.667
 7634SOL    HW223802   0.502   2.300   6.662
 7635SOL     OW23803   1.385   3.458   5.863
 7635SOL    HW123804   1.452   3.495   5.799
 7635SOL    HW223805   1.293   3.474   5.828
 7636SOL     OW23806   6.754   3.350   3.469
 7636SOL    HW123807   6.762   3.254   3.440
 7636SOL    HW223808   6.750   3.408   3.388
 7637SOL     OW23809   1.208   4.080   5.498
 7637SOL    HW123810   1.156   4.146   5.554
 7637SOL    HW223811   1.159   4.063   5.413
 7638SOL     OW23812   0.376   6.241   1.335
 7638SOL    HW123813   0.464   6.287   1.333
 7638SOL    HW223814   0.376   6.164   1.271
 7639SOL     OW23815   2.734   6.347   0.294
 7639SOL    HW123816   2.661   6.280   0.307
 7639SOL    HW223817   2.713   6.430   0.345
 7640SOL     OW23818   2.962   0.560   0.815
 7640SOL    HW123819   3.008   0.573   0.902
 7640SOL    HW223820   2.951   0.462   0.797
 7641SOL     OW23821   6.483   5.132   5.222
 7641SOL    HW123822   6.515   5.188   5.299
 7641SOL    HW223823   6.507   5.177   5.136
 7642SOL     OW23824   5.912   0.922   3.957
 7642SOL    HW123825   5.993   0.961   3.914
 7642SOL    HW223826   5.914   0.822   3.948
 7643SOL     OW23827   5.319   2.499   4.776
 7643SOL    HW123828   5.297   2.498   4.873
 7643SOL    HW223829   5.241   2.466   4.723
 7644SOL     OW23830   5.385   4.003   0.422
 7644SOL    HW123831   5.482   3.987   0.405
 7644SOL    HW223832   5.354   4.082   0.370
 7645SOL     OW23833   4.683   4.894   6.666
 7645SOL    HW123834   4.656   4.931   6.577
 7645SOL    HW223835   4.749   4.820   6.652
 7646SOL     OW23836   0.125   1.890   1.905
 7646SOL    HW123837   0.069   1.932   1.975
 7646SOL    HW223838   0.198   1.953   1.878
 7647SOL     OW23839   6.756   2.104   3.768
 7647SOL    HW123840   6.743   2.155   3.853
 7647SOL    HW223841   6.852   2.076   3.761
 7648SOL     OW23842   1.729   2.318   1.319
 7648SOL    HW123843   1.648   2.363   1.357
 7648SOL    HW223844   1.811   2.356   1.361
 7649SOL     OW23845   4.007   0.825   0.202
 7649SOL    HW123846   4.057   0.752   0.156
 7649SOL    HW223847   4.067   0.870   0.268
 7650SOL     OW23848   3.408   2.462   0.637
 7650SOL    HW123849   3.372   2.492   0.548
 7650SOL    HW223850   3.492   2.511   0.657
 7651SOL     OW23851   3.634   5.404   6.610
 7651SOL    HW123852   3.581   5.400   6.525
 7651SOL    HW223853   3.688   5.488   6.612
 7652SOL     OW23854   6.982   0.686   5.305
 7652SOL    HW123855   0.029   0.750   5.349
 7652SOL    HW223856   6.892   0.693   5.348
 7653SOL     OW23857   1.715   6.771   6.794
 7653SOL    HW123858   1.755   6.693   6.747
 7653SOL    HW223859   1.766   6.789   6.878
 7654SOL     OW23860   6.871   2.304   5.477
 7654SOL    HW123861   6.878   2.403   5.489
 7654SOL    HW223862   6.962   2.265   5.466
 7655SOL     OW23863   3.456   1.811   5.069
 7655SOL    HW123864   3.525   1.741   5.082
 7655SOL    HW223865   3.376   1.772   5.023
 7656SOL     OW23866   6.071   3.794   6.991
 7656SOL    HW123867   5.975   3.770   6.977
 7656SOL    HW223868   6.107   3.836   6.908
 7657SOL     OW23869   1.290   3.746   4.621
 7657SOL    HW123870   1.339   3.727   4.536
 7657SOL    HW223871   1.212   3.806   4.602
 7658SOL     OW23872   2.525   0.553   1.251
 7658SOL    HW123873   2.448   0.534   1.311
 7658SOL    HW223874   2.505   0.519   1.159
 7659SOL     OW23875   5.364   4.460   5.878
 7659SOL    HW123876   5.285   4.520   5.892
 7659SOL    HW223877   5.395   4.468   5.783
 7660SOL     OW23878   6.986   6.586   5.535
 7660SOL    HW123879   6.977   6.524   5.457
 7660SOL    HW223880   6.901   6.637   5.546
 7661SOL     OW23881   2.115   0.569   5.378
 7661SOL    HW123882   2.178   0.517   5.321
 7661SOL    HW223883   2.138   0.555   5.474
 7662SOL     OW23884   0.195   6.320   1.532
 7662SOL    HW123885   0.120   6.382   1.509
 7662SOL    HW223886   0.255   6.309   1.452
 7663SOL     OW23887   1.541   6.147   4.506
 7663SOL    HW123888   1.557   6.180   4.413
 7663SOL    HW223889   1.588   6.060   4.520
 7664SOL     OW23890   5.736   2.329   2.459
 7664SOL    HW123891   5.784   2.346   2.545
 7664SOL    HW223892   5.784   2.374   2.384
 7665SOL     OW23893   2.898   0.828   5.542
 7665SOL    HW123894   2.959   0.752   5.520
 7665SOL    HW223895   2.872   0.824   5.639
 7666SOL     OW23896   6.089   5.295   4.122
 7666SOL    HW123897   6.032   5.304   4.203
 7666SOL    HW223898   6.185   5.300   4.148
 7667SOL     OW23899   4.492   5.392   1.624
 7667SOL    HW123900   4.538   5.320   1.677
 7667SOL    HW223901   4.488   5.476   1.679
 7668SOL     OW23902   1.970   5.599   0.278
 7668SOL    HW123903   1.977   5.592   0.378
 7668SOL    HW223904   2.030   5.672   0.245
 7669SOL     OW23905   3.060   1.909   6.743
 7669SOL    HW123906   2.981   1.853   6.719
 7669SOL    HW223907   3.138   1.883   6.686
 7670SOL     OW23908   0.787   0.451   0.816
 7670SOL    HW123909   0.709   0.427   0.874
 7670SOL    HW223910   0.756   0.513   0.743
 7671SOL     OW23911   3.799   0.263   1.431
 7671SOL    HW123912   3.883   0.246   1.378
 7671SOL    HW223913   3.815   0.237   1.526
 7672SOL     OW23914   5.467   3.448   2.065
 7672SOL    HW123915   5.407   3.408   1.996
 7672SOL    HW223916   5.561   3.417   2.049
 7673SOL     OW23917   2.057   6.562   5.355
 7673SOL    HW123918   2.041   6.469   5.323
 7673SOL    HW223919   2.098   6.559   5.447
 7674SOL     OW23920   3.448   5.574   3.670
 7674SOL    HW123921   3.464   5.489   3.722
 7674SOL    HW223922   3.424   5.551   3.576
 7675SOL     OW23923   3.782   6.362   3.359
 7675SOL    HW123924   3.694   6.314   3.352
 7675SOL    HW223925   3.829   6.334   3.442
 7676SOL     OW23926   3.012   3.389   4.962
 7676SOL    HW123927   3.088   3.410   4.899
 7676SOL    HW223928   2.976   3.298   4.941
 7677SOL     OW23929   0.672   6.136   6.895
 7677SOL    HW123930   0.596   6.075   6.917
 7677SOL    HW223931   0.637   6.214   6.843
 7678SOL     OW23932   3.503   0.831   5.507
 7678SOL    HW123933   3.517   0.750   5.451
 7678SOL    HW223934   3.591   0.877   5.522
 7679SOL     OW23935   2.579   5.051   4.354
 7679SOL    HW123936   2.581   4.968   4.409
 7679SOL    HW223937   2.670   5.068   4.316
 7680SOL     OW23938   2.113   6.806   4.293
 7680SOL    HW123939   2.172   6.813   4.212
 7680SOL    HW223940   2.017   6.810   4.265
 7681SOL     OW23941   2.231   1.913   5.592
 7681SOL    HW123942   2.190   2.004   5.596
 7681SOL    HW223943   2.188   1.853   5.660
 7682SOL     OW23944   3.419   0.675   1.869
 7682SOL    HW123945   3.374   0.740   1.931
 7682SOL    HW223946   3.408   0.582   1.906
 7683SOL     OW23947   0.692   4.436   4.408
 7683SOL    HW123948   0.767   4.488   4.449
 7683SOL    HW223949   0.607   4.489   4.414
 7684SOL     OW23950   4.779   3.428   1.830
 7684SOL    HW123951   4.713   3.483   1.779
 7684SOL    HW223952   4.764   3.331   1.810
 7685SOL     OW23953   2.135   6.816   6.988
 7685SOL    HW123954   2.217   6.765   0.000
 7685SOL    HW223955   2.135   6.827   6.888
 7686SOL     OW23956   6.433   0.539   4.002
 7686SOL    HW123957   6.452   0.564   4.097
 7686SOL    HW223958   6.498   0.469   3.973
 7687SOL     OW23959   5.358   3.374   5.818
 7687SOL    HW123960   5.291   3.398   5.747
 7687SOL    HW223961   5.431   3.442   5.820
 7688SOL     OW23962   6.665   3.256   0.330
 7688SOL    HW123963   6.742   3.193   0.317
 7688SOL    HW223964   6.665   3.289   0.425
 7689SOL     OW23965   5.599   0.216   2.512
 7689SOL    HW123966   5.587   0.315   2.512
 7689SOL    HW223967   5.540   0.175   2.443
 7690SOL     OW23968   6.410   4.586   2.121
 7690SOL    HW123969   6.437   4.665   2.067
 7690SOL    HW223970   6.378   4.616   2.211
 7691SOL     OW23971   5.185   3.278   3.831
 7691SOL    HW123972   5.139   3.265   3.743
 7691SOL    HW223973   5.182   3.375   3.855
 7692SOL     OW23974   2.086   6.480   2.188
 7692SOL    HW123975   2.131   6.391   2.194
 7692SOL    HW223976   2.142   6.549   2.233
 7693SOL     OW23977   2.736   2.132   1.026
 7693SOL    HW123978   2.654   2.075   1.025
 7693SOL    HW223979   2.810   2.082   1.070
 7694SOL     OW23980   4.202   2.585   0.981
 7694SOL    HW123981   4.188   2.674   0.937
 7694SOL    HW223982   4.298   2.574   1.004
 7695SOL     OW23983   5.244   6.600   4.114
 7695SOL    HW123984   5.206   6.638   4.198
 7695SOL    HW223985   5.340   6.577   4.128
 7696SOL     OW23986   3.080   1.653   5.599
 7696SOL    HW123987   3.066   1.699   5.511
 7696SOL    HW223988   3.006   1.678   5.662
 7697SOL     OW23989   5.678   6.788   3.038
 7697SOL    HW123990   5.776   6.782   3.022
 7697SOL    HW223991   5.628   6.762   2.955
 7698SOL     OW23992   6.037   2.824   1.572
 7698SOL    HW123993   6.046   2.734   1.530
 7698SOL    HW223994   5.957   2.824   1.633
 7699SOL     OW23995   3.856   5.679   6.156
 7699SOL    HW123996   3.824   5.585   6.170
 7699SOL    HW223997   3.953   5.677   6.133
 7700SOL     OW23998   6.959   5.445   1.951
 7700SOL    HW123999   6.902   5.453   1.868
 7700SOL    HW224000   6.945   5.355   1.992
 7701SOL     OW24001   3.323   1.131   6.567
 7701SOL    HW124002   3.403   1.182   6.598
 7701SOL    HW224003   3.244   1.193   6.561
 7702SOL     OW24004   6.382   5.969   5.447
 7702SOL    HW124005   6.313   5.993   5.379
 7702SOL    HW224006   6.354   5.884   5.493
 7703SOL     OW24007   0.151   6.544   6.100
 7703SOL    HW124008   0.065   6.582   6.066
 7703SOL    HW224009   0.149   6.539   6.200
 7704SOL     OW24010   1.847   2.024   4.668
 7704SOL    HW124011   1.892   2.081   4.737
 7704SOL    HW224012   1.766   1.981   4.708
 7705SOL     OW24013   0.921   4.406   0.466
 7705SOL    HW124014   0.992   4.377   0.531
 7705SOL    HW224015   0.895   4.501   0.486
 7706SOL     OW24016   3.069   3.991   2.408
 7706SOL    HW124017   3.156   4.038   2.423
 7706SOL    HW224018   3.017   3.989   2.493
 7707SOL     OW24019   0.291   5.223   6.229
 7707SOL    HW124020   0.290   5.217   6.129
 7707SOL    HW224021   0.372   5.275   6.257
 7708SOL     OW24022   0.278   0.378   4.226
 7708SOL    HW124023   0.284   0.326   4.311
 7708SOL    HW224024   0.186   0.416   4.216
 7709SOL     OW24025   6.465   4.564   0.922
 7709SOL    HW124026   6.549   4.613   0.947
 7709SOL    HW224027   6.405   4.558   1.002
 7710SOL     OW24028   6.615   3.241   2.507
 7710SOL    HW124029   6.584   3.312   2.570
 7710SOL    HW224030   6.552   3.235   2.430
 7711SOL     OW24031   0.633   4.057   3.324
 7711SOL    HW124032   0.689   4.031   3.402
 7711SOL    HW224033   0.682   4.038   3.239
 7712SOL     OW24034   0.994   4.635   4.219
 7712SOL    HW124035   1.059   4.697   4.173
 7712SOL    HW224036   1.043   4.554   4.251
 7713SOL     OW24037   1.041   5.402   0.675
 7713SOL    HW124038   1.035   5.499   0.696
 7713SOL    HW224039   1.099   5.356   0.743
 7714SOL     OW24040   5.708   1.266   5.264
 7714SOL    HW124041   5.619   1.253   5.308
 7714SOL    HW224042   5.695   1.287   5.167
 7715SOL     OW24043   4.044   3.711   6.877
 7715SOL    HW124044   4.123   3.762   6.843
 7715SOL    HW224045   4.058   3.614   6.858
 7716SOL     OW24046   1.229   1.289   6.443
 7716SOL    HW124047   1.132   1.309   6.436
 7716SOL    HW224048   1.263   1.324   6.531
 7717SOL     OW24049   0.806   1.338   5.953
 7717SOL    HW124050   0.901   1.365   5.964
 7717SOL    HW224051   0.747   1.401   6.004
 7718SOL     OW24052   0.293   3.491   3.663
 7718SOL    HW124053   0.254   3.434   3.591
 7718SOL    HW224054   0.310   3.583   3.628
 7719SOL     OW24055   1.931   6.387   4.863
 7719SOL    HW124056   1.886   6.299   4.878
 7719SOL    HW224057   2.031   6.373   4.863
 7720SOL     OW24058   4.833   1.576   6.775
 7720SOL    HW124059   4.790   1.622   6.697
 7720SOL    HW224060   4.895   1.505   6.742
 7721SOL     OW24061   5.861   5.631   2.638
 7721SOL    HW124062   5.936   5.593   2.583
 7721SOL    HW224063   5.777   5.631   2.584
 7722SOL     OW24064   0.063   6.120   4.572
 7722SOL    HW124065   6.981   6.129   4.554
 7722SOL    HW224066   0.081   6.135   4.670
 7723SOL     OW24067   4.247   4.419   6.914
 7723SOL    HW124068   4.163   4.402   6.966
 7723SOL    HW224069   4.306   4.482   6.964
 7724SOL     OW24070   1.318   4.713   0.411
 7724SOL    HW124071   1.406   4.751   0.441
 7724SOL    HW224072   1.259   4.698   0.490
 7725SOL     OW24073   5.169   3.200   4.975
 7725SOL    HW124074   5.091   3.263   4.970
 7725SOL    HW224075   5.223   3.207   4.892
 7726SOL     OW24076   2.023   3.180   0.237
 7726SOL    HW124077   2.050   3.172   0.333
 7726SOL    HW224078   1.938   3.129   0.222
 7727SOL     OW24079   5.826   0.343   2.806
 7727SOL    HW124080   5.747   0.284   2.823
 7727SOL    HW224081   5.824   0.421   2.869
 7728SOL     OW24082   2.227   3.407   5.169
 7728SOL    HW124083   2.303   3.380   5.229
 7728SOL    HW224084   2.205   3.332   5.107
 7729SOL     OW24085   7.006   0.847   2.747
 7729SOL    HW124086   0.007   0.818   2.653
 7729SOL    HW224087   6.919   0.897   2.751
 7730SOL     OW24088   6.060   3.983   6.088
 7730SOL    HW124089   6.158   3.980   6.071
 7730SOL    HW224090   6.043   4.005   6.184
 7731SOL     OW24091   6.726   0.791   6.331
 7731SOL    HW124092   6.675   0.752   6.407
 7731SOL    HW224093   6.662   0.829   6.264
 7732SOL     OW24094   4.334   0.976   6.980
 7732SOL    HW124095   4.248   0.997   6.933
 7732SOL    HW224096   4.324   0.994   0.062
 7733SOL     OW24097   6.284   6.110   1.354
 7733SOL    HW124098   6.282   6.091   1.256
 7733SOL    HW224099   6.192   6.103   1.391
 7734SOL     OW24100   4.087   3.802   3.524
 7734SOL    HW124101   4.091   3.895   3.561
 7734SOL    HW224102   4.125   3.738   3.591
 7735SOL     OW24103   1.062   5.654   0.782
 7735SOL    HW124104   1.158   5.670   0.760
 7735SOL    HW224105   1.010   5.738   0.769
 7736SOL     OW24106   1.452   1.555   1.021
 7736SOL    HW124107   1.450   1.483   0.952
 7736SOL    HW224108   1.407   1.637   0.984
 7737SOL     OW24109   4.733   4.728   6.350
 7737SOL    HW124110   4.674   4.667   6.298
 7737SOL    HW224111   4.698   4.822   6.343
 7738SOL     OW24112   1.649   1.306   5.484
 7738SOL    HW124113   1.642   1.254   5.569
 7738SOL    HW224114   1.745   1.313   5.457
 7739SOL     OW24115   0.801   3.050   6.750
 7739SOL    HW124116   0.738   3.123   6.723
 7739SOL    HW224117   0.754   2.962   6.745
 7740SOL     OW24118   2.441   1.221   4.249
 7740SOL    HW124119   2.430   1.125   4.225
 7740SOL    HW224120   2.351   1.264   4.259
 7741SOL     OW24121   6.868   4.275   6.113
 7741SOL    HW124122   6.793   4.265   6.047
 7741SOL    HW224123   6.834   4.258   6.205
 7742SOL     OW24124   4.733   1.904   3.794
 7742SOL    HW124125   4.644   1.940   3.822
 7742SOL    HW224126   4.755   1.940   3.703
 7743SOL     OW24127   3.567   0.675   6.479
 7743SOL    HW124128   3.562   0.651   6.382
 7743SOL    HW224129   3.516   0.759   6.495
 7744SOL     OW24130   0.475   6.704   4.948
 7744SOL    HW124131   0.546   6.705   4.877
 7744SOL    HW224132   0.513   6.665   5.032
 7745SOL     OW24133   2.705   0.187   0.430
 7745SOL    HW124134   2.711   0.116   0.500
 7745SOL    HW224135   2.761   0.265   0.457
 7746SOL     OW24136   7.014   6.603   0.621
 7746SOL    HW124137   6.937   6.644   0.573
 7746SOL    HW224138   0.066   6.674   0.643
 7747SOL     OW24139   0.178   5.715   1.740
 7747SOL    HW124140   0.116   5.651   1.695
 7747SOL    HW224141   0.133   5.804   1.750
 7748SOL     OW24142   4.333   0.947   6.122
 7748SOL    HW124143   4.375   0.954   6.213
 7748SOL    HW224144   4.258   1.012   6.115
 7749SOL     OW24145   3.050   3.932   2.731
 7749SOL    HW124146   3.011   3.890   2.813
 7749SOL    HW224147   3.133   3.982   2.756
 7750SOL     OW24148   5.224   4.720   5.946
 7750SOL    HW124149   5.175   4.718   6.033
 7750SOL    HW224150   5.256   4.813   5.928
 7751SOL     OW24151   0.457   1.360   5.248
 7751SOL    HW124152   0.379   1.361   5.186
 7751SOL    HW224153   0.522   1.289   5.220
 7752SOL     OW24154   6.195   4.408   5.871
 7752SOL    HW124155   6.229   4.371   5.957
 7752SOL    HW224156   6.224   4.348   5.796
 7753SOL     OW24157   3.191   0.896   4.985
 7753SOL    HW124158   3.201   0.973   4.923
 7753SOL    HW224159   3.258   0.904   5.059
 7754SOL     OW24160   6.402   0.946   1.021
 7754SOL    HW124161   6.314   0.898   1.027
 7754SOL    HW224162   6.476   0.882   1.042
 7755SOL     OW24163   1.502   6.243   5.243
 7755SOL    HW124164   1.544   6.331   5.266
 7755SOL    HW224165   1.557   6.169   5.281
 7756SOL     OW24166   3.663   5.989   2.879
 7756SOL    HW124167   3.726   5.944   2.817
 7756SOL    HW224168   3.714   6.036   2.951
 7757SOL     OW24169   3.303   0.449   5.864
 7757SOL    HW124170   3.368   0.400   5.922
 7757SOL    HW224171   3.349   0.483   5.783
 7758SOL     OW24172   2.378   2.134   6.409
 7758SOL    HW124173   2.293   2.187   6.405
 7758SOL    HW224174   2.449   2.181   6.358
 7759SOL     OW24175   2.123   0.700   4.838
 7759SOL    HW124176   2.093   0.605   4.832
 7759SOL    HW224177   2.145   0.734   4.746
 7760SOL     OW24178   5.341   2.106   3.146
 7760SOL    HW124179   5.413   2.037   3.152
 7760SOL    HW224180   5.311   2.115   3.051
 7761SOL     OW24181   4.523   1.405   6.826
 7761SOL    HW124182   4.468   1.487   6.846
 7761SOL    HW224183   4.599   1.400   6.890
 7762SOL     OW24184   1.130   2.452   0.761
 7762SOL    HW124185   1.216   2.500   0.744
 7762SOL    HW224186   1.134   2.407   0.850
 7763SOL     OW24187   2.711   2.615   0.914
 7763SOL    HW124188   2.801   2.571   0.914
 7763SOL    HW224189   2.651   2.567   0.977
 7764SOL     OW24190   3.413   3.085   1.984
 7764SOL    HW124191   3.314   3.071   1.985
 7764SOL    HW224192   3.456   3.016   2.043
 7765SOL     OW24193   6.884   1.369   2.079
 7765SOL    HW124194   6.926   1.330   2.160
 7765SOL    HW224195   6.817   1.438   2.106
 7766SOL     OW24196   0.106   2.804   6.588
 7766SOL    HW124197   0.082   2.716   6.630
 7766SOL    HW224198   0.194   2.835   6.624
 7767SOL     OW24199   5.639   4.023   5.069
 7767SOL    HW124200   5.687   4.089   5.127
 7767SOL    HW224201   5.541   4.030   5.085
 7768SOL     OW24202   3.680   5.161   1.549
 7768SOL    HW124203   3.718   5.149   1.641
 7768SOL    HW224204   3.750   5.198   1.489
 7769SOL     OW24205   5.631   2.071   2.578
 7769SOL    HW124206   5.676   2.156   2.552
 7769SOL    HW224207   5.623   2.011   2.498
 7770SOL     OW24208   3.363   6.473   1.094
 7770SOL    HW124209   3.320   6.524   1.020
 7770SOL    HW224210   3.461   6.495   1.098
 7771SOL     OW24211   1.755   1.228   4.518
 7771SOL    HW124212   1.779   1.308   4.573
 7771SOL    HW224213   1.698   1.257   4.441
 7772SOL     OW24214   5.448   0.404   5.450
 7772SOL    HW124215   5.543   0.433   5.439
 7772SOL    HW224216   5.445   0.305   5.459
 7773SOL     OW24217   3.917   4.684   5.927
 7773SOL    HW124218   3.873   4.733   6.002
 7773SOL    HW224219   3.878   4.713   5.839
 7774SOL     OW24220   5.229   1.575   6.816
 7774SOL    HW124221   5.236   1.661   6.867
 7774SOL    HW224222   5.210   1.596   6.720
 7775SOL     OW24223   1.771   6.929   2.527
 7775SOL    HW124224   1.688   6.885   2.495
 7775SOL    HW224225   1.851   6.886   2.484
 7776SOL     OW24226   3.473   4.677   0.762
 7776SOL    HW124227   3.550   4.677   0.698
 7776SOL    HW224228   3.500   4.722   0.847
 7777SOL     OW24229   0.544   0.808   6.306
 7777SOL    HW124230   0.496   0.725   6.278
 7777SOL    HW224231   0.599   0.789   6.388
 7778SOL     OW24232   4.649   1.701   2.073
 7778SOL    HW124233   4.673   1.672   1.981
 7778SOL    HW224234   4.598   1.787   2.068
 7779SOL     OW24235   4.125   3.207   0.308
 7779SOL    HW124236   4.146   3.304   0.319
 7779SOL    HW224237   4.099   3.189   0.213
 7780SOL     OW24238   0.786   0.434   4.609
 7780SOL    HW124239   0.778   0.422   4.510
 7780SOL    HW224240   0.875   0.475   4.630
 7781SOL     OW24241   1.879   3.931   5.785
 7781SOL    HW124242   1.812   3.976   5.726
 7781SOL    HW224243   1.832   3.870   5.849
 7782SOL     OW24244   4.791   4.561   0.184
 7782SOL    HW124245   4.789   4.656   0.151
 7782SOL    HW224246   4.718   4.547   0.250
 7783SOL     OW24247   3.022   6.138   0.187
 7783SOL    HW124248   3.116   6.104   0.180
 7783SOL    HW224249   3.022   6.226   0.235
 7784SOL     OW24250   6.276   3.808   0.535
 7784SOL    HW124251   6.339   3.759   0.474
 7784SOL    HW224252   6.197   3.750   0.554
 7785SOL     OW24253   1.398   6.396   6.005
 7785SOL    HW124254   1.347   6.349   6.077
 7785SOL    HW224255   1.389   6.494   6.016
 7786SOL     OW24256   3.738   4.200   5.249
 7786SOL    HW124257   3.796   4.172   5.172
 7786SOL    HW224258   3.790   4.263   5.307
 7787SOL     OW24259   3.153   2.030   5.597
 7787SOL    HW124260   3.169   2.056   5.502
 7787SOL    HW224261   3.238   2.038   5.649
 7788SOL     OW24262   6.931   2.293   1.022
 7788SOL    HW124263   6.843   2.291   1.069
 7788SOL    HW224264   6.921   2.339   0.934
 7789SOL     OW24265   1.586   0.130   1.804
 7789SOL    HW124266   1.556   0.207   1.860
 7789SOL    HW224267   1.506   0.078   1.773
 7790SOL     OW24268   0.104   3.428   2.424
 7790SOL    HW124269   0.004   3.419   2.434
 7790SOL    HW224270   0.129   3.409   2.330
 7791SOL     OW24271   0.193   5.443   5.652
 7791SOL    HW124272   0.106   5.476   5.690
 7791SOL    HW224273   0.248   5.522   5.624
 7792SOL     OW24274   1.807   5.663   6.204
 7792SOL    HW124275   1.745   5.706   6.138
 7792SOL    HW224276   1.901   5.689   6.183
 7793SOL     OW24277   2.122   0.494   6.542
 7793SOL    HW124278   2.145   0.591   6.534
 7793SOL    HW224279   2.201   0.444   6.578
 7794SOL     OW24280   5.458   5.110   2.579
 7794SOL    HW124281   5.523   5.049   2.534
 7794SOL    HW224282   5.483   5.205   2.561
 7795SOL     OW24283   1.122   4.269   6.402
 7795SOL    HW124284   1.062   4.258   6.480
 7795SOL    HW224285   1.150   4.179   6.368
 7796SOL     OW24286   4.090   3.558   4.961
 7796SOL    HW124287   4.132   3.530   4.875
 7796SOL    HW224288   4.144   3.524   5.037
 7797SOL     OW24289   1.471   6.479   3.328
 7797SOL    HW124290   1.559   6.432   3.327
 7797SOL    HW224291   1.480   6.565   3.378
 7798SOL     OW24292   4.228   5.692   6.525
 7798SOL    HW124293   4.168   5.646   6.460
 7798SOL    HW224294   4.249   5.630   6.600
 7799SOL     OW24295   6.013   6.119   2.247
 7799SOL    HW124296   5.995   6.156   2.156
 7799SOL    HW224297   5.987   6.022   2.249
 7800SOL     OW24298   0.871   6.097   1.740
 7800SOL    HW124299   0.796   6.034   1.720
 7800SOL    HW224300   0.895   6.092   1.837
 7801SOL     OW24301   4.346   2.139   5.290
 7801SOL    HW124302   4.446   2.133   5.293
 7801SOL    HW224303   4.307   2.047   5.290
 7802SOL     OW24304   5.694   2.718   6.801
 7802SOL    HW124305   5.605   2.672   6.805
 7802SOL    HW224306   5.764   2.653   6.772
 7803SOL     OW24307   3.481   3.759   6.039
 7803SOL    HW124308   3.528   3.817   5.972
 7803SOL    HW224309   3.430   3.688   5.991
 7804SOL     OW24310   5.167   0.852   6.252
 7804SOL    HW124311   5.224   0.919   6.299
 7804SOL    HW224312   5.072   0.882   6.255
 7805SOL     OW24313   5.411   2.975   1.323
 7805SOL    HW124314   5.370   2.896   1.369
 7805SOL    HW224315   5.408   2.960   1.224
 7806SOL     OW24316   4.971   2.925   0.403
 7806SOL    HW124317   4.955   2.986   0.481
 7806SOL    HW224318   5.036   2.967   0.340
 7807SOL     OW24319   0.614   3.945   6.886
 7807SOL    HW124320   0.672   3.952   6.967
 7807SOL    HW224321   0.527   3.992   6.903
 7808SOL     OW24322   0.139   1.362   5.262
 7808SOL    HW124323   0.054   1.368   5.315
 7808SOL    HW224324   0.197   1.290   5.300
 7809SOL     OW24325   1.573   5.733   5.436
 7809SOL    HW124326   1.530   5.743   5.526
 7809SOL    HW224327   1.594   5.637   5.419
 7810SOL     OW24328   3.027   1.458   6.961
 7810SOL    HW124329   3.057   1.466   0.041
 7810SOL    HW224330   3.093   1.403   6.910
 7811SOL     OW24331   6.389   4.871   5.098
 7811SOL    HW124332   6.355   4.866   5.004
 7811SOL    HW224333   6.404   4.966   5.123
 7812SOL     OW24334   0.050   1.753   3.622
 7812SOL    HW124335   0.030   1.668   3.572
 7812SOL    HW224336   6.989   1.816   3.612
 7813SOL     OW24337   6.446   2.064   1.010
 7813SOL    HW124338   6.485   2.022   1.092
 7813SOL    HW224339   6.362   2.112   1.034
 7814SOL     OW24340   1.886   3.110   4.709
 7814SOL    HW124341   1.893   3.205   4.741
 7814SOL    HW224342   1.977   3.077   4.682
 7815SOL     OW24343   6.909   1.996   5.455
 7815SOL    HW124344   6.859   1.965   5.536
 7815SOL    HW224345   6.844   2.020   5.383
 7816SOL     OW24346   0.409   4.883   5.285
 7816SOL    HW124347   0.416   4.946   5.208
 7816SOL    HW224348   0.458   4.919   5.364
 7817SOL     OW24349   5.818   2.937   5.556
 7817SOL    HW124350   5.867   2.854   5.529
 7817SOL    HW224351   5.868   3.017   5.521
 7818SOL     OW24352   5.466   3.368   3.638
 7818SOL    HW124353   5.454   3.433   3.713
 7818SOL    HW224354   5.383   3.364   3.582
 7819SOL     OW24355   0.979   1.180   1.034
 7819SOL    HW124356   1.006   1.264   0.987
 7819SOL    HW224357   0.889   1.192   1.076
 7820SOL     OW24358   2.902   6.652   6.207
 7820SOL    HW124359   2.932   6.566   6.166
 7820SOL    HW224360   2.931   6.655   6.302
 7821SOL     OW24361   2.939   5.844   0.836
 7821SOL    HW124362   2.888   5.758   0.823
 7821SOL    HW224363   2.929   5.874   0.931
 7822SOL     OW24364   1.522   6.748   5.270
 7822SOL    HW124365   1.460   6.810   5.221
 7822SOL    HW224366   1.506   6.758   5.369
 7823SOL     OW24367   1.907   3.414   5.477
 7823SOL    HW124368   1.845   3.489   5.453
 7823SOL    HW224369   1.952   3.435   5.564
 7824SOL     OW24370   0.940   3.031   5.254
 7824SOL    HW124371   0.963   3.109   5.196
 7824SOL    HW224372   1.021   3.002   5.305
 7825SOL     OW24373   2.465   0.770   0.186
 7825SOL    HW124374   2.384   0.723   0.150
 7825SOL    HW224375   2.442   0.866   0.206
 7826SOL     OW24376   0.735   4.008   5.936
 7826SOL    HW124377   0.678   4.026   6.016
 7826SOL    HW224378   0.777   3.917   5.945
 7827SOL     OW24379   6.081   4.859   4.145
 7827SOL    HW124380   6.171   4.816   4.139
 7827SOL    HW224381   6.081   4.926   4.219
 7828SOL     OW24382   1.271   5.960   6.025
 7828SOL    HW124383   1.347   6.019   5.998
 7828SOL    HW224384   1.196   5.971   5.959
 7829SOL     OW24385   4.743   4.926   0.594
 7829SOL    HW124386   4.666   4.911   0.656
 7829SOL    HW224387   4.768   4.839   0.551
 7830SOL     OW24388   1.846   5.429   3.859
 7830SOL    HW124389   1.815   5.448   3.766
 7830SOL    HW224390   1.922   5.489   3.882
 7831SOL     OW24391   1.780   0.275   6.444
 7831SOL    HW124392   1.681   0.262   6.437
 7831SOL    HW224393   1.805   0.365   6.410
 7832SOL     OW24394   6.636   1.232   5.427
 7832SOL    HW124395   6.610   1.247   5.332
 7832SOL    HW224396   6.635   1.133   5.446
 7833SOL     OW24397   1.186   0.237   3.021
 7833SOL    HW124398   1.242   0.298   2.965
 7833SOL    HW224399   1.205   0.254   3.117
 7834SOL     OW24400   6.884   3.561   5.145
 7834SOL    HW124401   6.841   3.519   5.065
 7834SOL    HW224402   6.983   3.564   5.132
 7835SOL     OW24403   3.348   2.512   5.620
 7835SOL    HW124404   3.371   2.434   5.677
 7835SOL    HW224405   3.373   2.492   5.525
 7836SOL     OW24406   2.882   3.631   4.959
 7836SOL    HW124407   2.880   3.676   4.870
 7836SOL    HW224408   2.921   3.539   4.949
 7837SOL     OW24409   1.050   5.613   6.831
 7837SOL    HW124410   0.951   5.619   6.816
 7837SOL    HW224411   1.077   5.682   6.898
 7838SOL     OW24412   4.325   5.003   1.652
 7838SOL    HW124413   4.275   4.920   1.627
 7838SOL    HW224414   4.351   5.052   1.568
 7839SOL     OW24415   6.447   3.944   4.993
 7839SOL    HW124416   6.370   4.005   4.973
 7839SOL    HW224417   6.525   3.969   4.935
 7840SOL     OW24418   1.987   2.421   3.424
 7840SOL    HW124419   1.917   2.441   3.355
 7840SOL    HW224420   1.999   2.322   3.431
 7841SOL     OW24421   4.676   1.647   5.690
 7841SOL    HW124422   4.757   1.705   5.676
 7841SOL    HW224423   4.593   1.700   5.670
 7842SOL     OW24424   0.966   0.472   1.036
 7842SOL    HW124425   0.885   0.450   0.981
 7842SOL    HW224426   1.044   0.486   0.975
 7843SOL     OW24427   6.628   6.529   2.185
 7843SOL    HW124428   6.623   6.526   2.085
 7843SOL    HW224429   6.535   6.520   2.222
 7844SOL     OW24430   4.215   0.305   2.601
 7844SOL    HW124431   4.170   0.225   2.561
 7844SOL    HW224432   4.262   0.277   2.685
 7845SOL     OW24433   6.391   2.997   1.596
 7845SOL    HW124434   6.343   3.084   1.605
 7845SOL    HW224435   6.467   3.006   1.531
 7846SOL     OW24436   0.766   1.848   0.456
 7846SOL    HW124437   0.745   1.875   0.362
 7846SOL    HW224438   0.708   1.900   0.519
 7847SOL     OW24439   5.740   4.099   6.069
 7847SOL    HW124440   5.655   4.144   6.043
 7847SOL    HW224441   5.787   4.153   6.140
 7848SOL     OW24442   4.431   4.752   0.462
 7848SOL    HW124443   4.463   4.846   0.475
 7848SOL    HW224444   4.447   4.700   0.546
 7849SOL     OW24445   4.458   4.935   6.866
 7849SOL    HW124446   4.371   4.946   6.913
 7849SOL    HW224447   4.487   4.839   6.870
 7850SOL     OW24448   6.487   0.785   3.217
 7850SOL    HW124449   6.510   0.765   3.312
 7850SOL    HW224450   6.565   0.764   3.158
 7851SOL     OW24451   0.333   4.718   0.601
 7851SOL    HW124452   0.345   4.773   0.684
 7851SOL    HW224453   0.378   4.763   0.524
 7852SOL     OW24454   1.039   3.448   6.142
 7852SOL    HW124455   1.065   3.352   6.134
 7852SOL    HW224456   0.945   3.460   6.112
 7853SOL     OW24457   4.263   3.085   1.438
 7853SOL    HW124458   4.305   3.057   1.525
 7853SOL    HW224459   4.195   3.017   1.411
 7854SOL     OW24460   3.965   1.114   1.018
 7854SOL    HW124461   4.029   1.181   0.980
 7854SOL    HW224462   3.873   1.133   0.986
 7855SOL     OW24463   5.176   6.232   3.950
 7855SOL    HW124464   5.210   6.141   3.928
 7855SOL    HW224465   5.227   6.300   3.897
 7856SOL     OW24466   1.943   6.224   6.189
 7856SOL    HW124467   2.036   6.198   6.217
 7856SOL    HW224468   1.908   6.157   6.123
 7857SOL     OW24469   6.550   5.440   0.500
 7857SOL    HW124470   6.575   5.374   0.571
 7857SOL    HW224471   6.528   5.528   0.543
 7858SOL     OW24472   0.589   3.911   6.312
 7858SOL    HW124473   0.564   3.822   6.275
 7858SOL    HW224474   0.593   3.978   6.238
 7859SOL     OW24475   4.601   2.193   1.356
 7859SOL    HW124476   4.605   2.111   1.413
 7859SOL    HW224477   4.509   2.231   1.361
 7860SOL     OW24478   2.107   1.809   3.407
 7860SOL    HW124479   2.116   1.735   3.473
 7860SOL    HW224480   2.180   1.876   3.422
 7861SOL     OW24481   1.905   5.720   0.775
 7861SOL    HW124482   1.993   5.753   0.742
 7861SOL    HW224483   1.902   5.729   0.875
 7862SOL     OW24484   0.990   6.568   0.145
 7862SOL    HW124485   0.893   6.549   0.129
 7862SOL    HW224486   1.046   6.509   0.088
 7863SOL     OW24487   0.118   3.860   3.695
 7863SOL    HW124488   0.088   3.767   3.717
 7863SOL    HW224489   0.145   3.907   3.778
 7864SOL     OW24490   3.267   5.398   4.986
 7864SOL    HW124491   3.315   5.470   5.036
 7864SOL    HW224492   3.204   5.350   5.047
 7865SOL     OW24493   6.327   5.076   3.826
 7865SOL    HW124494   6.229   5.094   3.818
 7865SOL    HW224495   6.376   5.162   3.840
 7866SOL     OW24496   0.797   0.858   5.466
 7866SOL    HW124497   0.888   0.843   5.429
 7866SOL    HW224498   0.764   0.948   5.438
 7867SOL     OW24499   3.761   5.182   2.962
 7867SOL    HW124500   3.764   5.194   3.062
 7867SOL    HW224501   3.852   5.159   2.928
 7868SOL     OW24502   3.634   6.206   1.303
 7868SOL    HW124503   3.579   6.136   1.349
 7868SOL    HW224504   3.666   6.273   1.371
 7869SOL     OW24505   5.711   4.903   6.874
 7869SOL    HW124506   5.804   4.939   6.866
 7869SOL    HW224507   5.688   4.851   6.791
 7870SOL     OW24508   6.757   0.179   3.527
 7870SOL    HW124509   6.733   0.261   3.474
 7870SOL    HW224510   6.849   0.190   3.565
 7871SOL     OW24511   4.525   1.106   0.762
 7871SOL    HW124512   4.426   1.092   0.758
 7871SOL    HW224513   4.572   1.022   0.732
 7872SOL     OW24514   6.986   4.513   4.072
 7872SOL    HW124515   6.977   4.506   3.972
 7872SOL    HW224516   6.988   4.420   4.111
 7873SOL     OW24517   4.264   2.674   6.749
 7873SOL    HW124518   4.236   2.578   6.749
 7873SOL    HW224519   4.341   2.686   6.686
 7874SOL     OW24520   6.356   2.412   0.040
 7874SOL    HW124521   6.284   2.345   0.057
 7874SOL    HW224522   6.365   2.428   6.958
 7875SOL     OW24523   6.932   4.783   0.073
 7875SOL    HW124524   6.902   4.730   0.152
 7875SOL    HW224525   6.954   4.721   7.013
 7876SOL     OW24526   1.062   6.356   3.082
 7876SOL    HW124527   1.005   6.433   3.054
 7876SOL    HW224528   1.132   6.338   3.012
 7877SOL     OW24529   0.696   2.810   2.003
 7877SOL    HW124530   0.742   2.892   1.967
 7877SOL    HW224531   0.606   2.835   2.039
 7878SOL     OW24532   3.928   0.647   2.418
 7878SOL    HW124533   3.945   0.562   2.370
 7878SOL    HW224534   3.910   0.628   2.515
 7879SOL     OW24535   2.546   5.739   2.057
 7879SOL    HW124536   2.621   5.674   2.044
 7879SOL    HW224537   2.536   5.759   2.155
 7880SOL     OW24538   1.105   4.574   2.111
 7880SOL    HW124539   1.199   4.544   2.094
 7880SOL    HW224540   1.066   4.611   2.028
 7881SOL     OW24541   5.055   2.932   3.296
 7881SOL    HW124542   5.149   2.955   3.271
 7881SOL    HW224543   5.056   2.853   3.357
 7882SOL     OW24544   6.999   2.611   6.912
 7882SOL    HW124545   6.990   2.694   6.968
 7882SOL    HW224546   6.934   2.615   6.836
 7883SOL     OW24547   0.410   6.735   4.594
 7883SOL    HW124548   0.327   6.759   4.544
 7883SOL    HW224549   0.491   6.764   4.543
 7884SOL     OW24550   1.483   2.966   4.175
 7884SOL    HW124551   1.485   2.982   4.077
 7884SOL    HW224552   1.552   3.024   4.219
 7885SOL     OW24553   6.984   6.040   6.945
 7885SOL    HW124554   0.018   5.983   6.879
 7885SOL    HW224555   6.910   6.088   6.898
 7886SOL     OW24556   4.823   3.956   0.135
 7886SOL    HW124557   4.918   3.941   0.160
 7886SOL    HW224558   4.807   3.923   0.042
 7887SOL     OW24559   4.651   2.060   6.405
 7887SOL    HW124560   4.677   2.123   6.477
 7887SOL    HW224561   4.607   1.980   6.445
 7888SOL     OW24562   4.149   5.796   4.516
 7888SOL    HW124563   4.114   5.837   4.432
 7888SOL    HW224564   4.109   5.705   4.528
 7889SOL     OW24565   6.366   4.738   3.792
 7889SOL    HW124566   6.332   4.799   3.863
 7889SOL    HW224567   6.301   4.736   3.716
 7890SOL     OW24568   2.032   4.004   2.749
 7890SOL    HW124569   1.988   4.034   2.834
 7890SOL    HW224570   1.967   3.949   2.697
 7891SOL     OW24571   0.383   4.173   3.258
 7891SOL    HW124572   0.431   4.094   3.295
 7891SOL    HW224573   0.425   4.257   3.293
 7892SOL     OW24574   2.313   2.063   4.939
 7892SOL    HW124575   2.400   2.062   4.988
 7892SOL    HW224576   2.314   2.136   4.871
 7893SOL     OW24577   5.180   6.612   1.184
 7893SOL    HW124578   5.271   6.638   1.154
 7893SOL    HW224579   5.136   6.691   1.229
 7894SOL     OW24580   2.997   0.285   1.203
 7894SOL    HW124581   3.080   0.236   1.232
 7894SOL    HW224582   3.022   0.365   1.149
 7895SOL     OW24583   0.585   1.590   4.425
 7895SOL    HW124584   0.597   1.688   4.408
 7895SOL    HW224585   0.555   1.545   4.341
 7896SOL     OW24586   3.912   2.491   6.576
 7896SOL    HW124587   3.881   2.406   6.534
 7896SOL    HW224588   3.834   2.553   6.586
 7897SOL     OW24589   3.031   3.520   0.050
 7897SOL    HW124590   3.071   3.571   0.126
 7897SOL    HW224591   3.069   3.428   0.048
 7898SOL     OW24592   5.209   1.298   4.167
 7898SOL    HW124593   5.148   1.245   4.109
 7898SOL    HW224594   5.166   1.315   4.256
 7899SOL     OW24595   4.564   0.841   1.630
 7899SOL    HW124596   4.600   0.861   1.539
 7899SOL    HW224597   4.471   0.876   1.637
 7900SOL     OW24598   0.676   5.923   1.661
 7900SOL    HW124599   0.591   5.922   1.608
 7900SOL    HW224600   0.659   5.882   1.751
 7901SOL     OW24601   6.192   4.953   1.297
 7901SOL    HW124602   6.244   4.868   1.297
 7901SOL    HW224603   6.163   4.974   1.204
 7902SOL     OW24604   4.876   4.504   6.180
 7902SOL    HW124605   4.829   4.474   6.262
 7902SOL    HW224606   4.865   4.435   6.108
 7903SOL     OW24607   0.330   2.873   1.769
 7903SOL    HW124608   0.406   2.937   1.761
 7903SOL    HW224609   0.252   2.906   1.715
 7904SOL     OW24610   5.750   2.572   3.492
 7904SOL    HW124611   5.717   2.591   3.399
 7904SOL    HW224612   5.673   2.570   3.555
 7905SOL     OW24613   1.886   1.526   1.988
 7905SOL    HW124614   1.804   1.550   2.039
 7905SOL    HW224615   1.909   1.599   1.924
 7906SOL     OW24616   1.068   4.712   6.978
 7906SOL    HW124617   1.075   4.730   0.060
 7906SOL    HW224618   0.985   4.755   6.942
 7907SOL     OW24619   0.609   2.903   2.598
 7907SOL    HW124620   0.687   2.880   2.540
 7907SOL    HW224621   0.552   2.823   2.612
 7908SOL     OW24622   0.637   1.487   3.068
 7908SOL    HW124623   0.594   1.498   3.158
 7908SOL    HW224624   0.611   1.563   3.009
 7909SOL     OW24625   4.260   6.484   4.973
 7909SOL    HW124626   4.337   6.510   4.914
 7909SOL    HW224627   4.292   6.419   5.042
 7910SOL     OW24628   6.286   2.909   5.889
 7910SOL    HW124629   6.302   2.822   5.842
 7910SOL    HW224630   6.331   2.909   5.978
 7911SOL     OW24631   0.288   5.773   6.039
 7911SOL    HW124632   0.194   5.796   6.015
 7911SOL    HW224633   0.297   5.674   6.049
 7912SOL     OW24634   0.159   5.565   4.789
 7912SOL    HW124635   0.115   5.613   4.713
 7912SOL    HW224636   0.134   5.468   4.787
 7913SOL     OW24637   1.767   6.474   6.685
 7913SOL    HW124638   1.844   6.490   6.746
 7913SOL    HW224639   1.799   6.472   6.590
 7914SOL     OW24640   6.041   4.726   0.677
 7914SOL    HW124641   6.104   4.750   0.603
 7914SOL    HW224642   6.034   4.627   0.683
 7915SOL     OW24643   2.894   1.135   2.939
 7915SOL    HW124644   2.801   1.156   2.908
 7915SOL    HW224645   2.890   1.089   3.027
 7916SOL     OW24646   4.325   3.751   5.556
 7916SOL    HW124647   4.313   3.734   5.458
 7916SOL    HW224648   4.338   3.849   5.571
 7917SOL     OW24649   3.683   4.056   4.021
 7917SOL    HW124650   3.644   3.973   4.061
 7917SOL    HW224651   3.610   4.110   3.978
 7918SOL     OW24652   5.425   1.949   1.913
 7918SOL    HW124653   5.504   1.985   1.962
 7918SOL    HW224654   5.371   2.025   1.877
 7919SOL     OW24655   5.259   3.894   2.505
 7919SOL    HW124656   5.323   3.962   2.471
 7919SOL    HW224657   5.197   3.936   2.571
 7920SOL     OW24658   0.042   6.567   1.129
 7920SOL    HW124659   0.087   6.479   1.115
 7920SOL    HW224660   6.998   6.561   1.210
 7921SOL     OW24661   3.288   5.146   2.261
 7921SOL    HW124662   3.304   5.121   2.357
 7921SOL    HW224663   3.320   5.072   2.202
 7922SOL     OW24664   1.058   4.369   4.898
 7922SOL    HW124665   1.095   4.453   4.936
 7922SOL    HW224666   0.962   4.360   4.924
 7923SOL     OW24667   1.115   2.290   3.464
 7923SOL    HW124668   1.215   2.295   3.467
 7923SOL    HW224669   1.082   2.342   3.386
 7924SOL     OW24670   2.692   1.286   3.450
 7924SOL    HW124671   2.771   1.273   3.509
 7924SOL    HW224672   2.641   1.367   3.479
 7925SOL     OW24673   0.958   1.219   0.216
 7925SOL    HW124674   0.893   1.254   0.283
 7925SOL    HW224675   0.923   1.236   0.124
 7926SOL     OW24676   3.200   0.487   1.684
 7926SOL    HW124677   3.138   0.555   1.646
 7926SOL    HW224678   3.218   0.509   1.780
 7927SOL     OW24679   4.520   5.444   4.807
 7927SOL    HW124680   4.429   5.480   4.828
 7927SOL    HW224681   4.548   5.381   4.880
 7928SOL     OW24682   0.366   4.106   0.345
 7928SOL    HW124683   0.314   4.168   0.287
 7928SOL    HW224684   0.335   4.012   0.330
 7929SOL     OW24685   3.527   4.174   4.869
 7929SOL    HW124686   3.463   4.195   4.944
 7929SOL    HW224687   3.477   4.173   4.783
 7930SOL     OW24688   4.075   6.932   2.543
 7930SOL    HW124689   4.012   6.877   2.597
 7930SOL    HW224690   4.132   6.873   2.486
 7931SOL     OW24691   3.029   2.983   5.854
 7931SOL    HW124692   2.937   2.975   5.815
 7931SOL    HW224693   3.096   2.952   5.787
 7932SOL     OW24694   3.162   0.986   0.657
 7932SOL    HW124695   3.089   0.929   0.620
 7932SOL    HW224696   3.133   1.023   0.746
 7933SOL     OW24697   2.278   1.326   6.121
 7933SOL    HW124698   2.330   1.257   6.170
 7933SOL    HW224699   2.181   1.306   6.128
 7934SOL     OW24700   4.308   2.181   5.920
 7934SOL    HW124701   4.248   2.211   5.994
 7934SOL    HW224702   4.325   2.083   5.929
 7935SOL     OW24703   4.846   5.626   1.721
 7935SOL    HW124704   4.821   5.529   1.722
 7935SOL    HW224705   4.906   5.644   1.643
 7936SOL     OW24706   3.776   6.102   1.756
 7936SOL    HW124707   3.701   6.164   1.777
 7936SOL    HW224708   3.822   6.075   1.841
 7937SOL     OW24709   6.116   1.670   6.232
 7937SOL    HW124710   6.181   1.742   6.259
 7937SOL    HW224711   6.076   1.693   6.143
 7938SOL     OW24712   6.479   4.523   4.125
 7938SOL    HW124713   6.504   4.529   4.222
 7938SOL    HW224714   6.516   4.438   4.087
 7939SOL     OW24715   6.953   6.154   3.418
 7939SOL    HW124716   6.972   6.148   3.516
 7939SOL    HW224717   6.876   6.217   3.403
 7940SOL     OW24718   2.102   6.104   0.629
 7940SOL    HW124719   2.008   6.075   0.610
 7940SOL    HW224720   2.142   6.045   0.699
 7941SOL     OW24721   0.703   0.672   0.652
 7941SOL    HW124722   0.662   0.718   0.730
 7941SOL    HW224723   0.770   0.732   0.609
 7942SOL     OW24724   1.052   0.056   1.692
 7942SOL    HW124725   0.993   6.999   1.657
 7942SOL    HW224726   1.012   0.094   1.776
 7943SOL     OW24727   5.859   1.971   6.965
 7943SOL    HW124728   5.927   1.995   0.018
 7943SOL    HW224729   5.875   2.023   6.882
 7944SOL     OW24730   6.844   4.258   1.959
 7944SOL    HW124731   6.770   4.215   2.011
 7944SOL    HW224732   6.883   4.333   2.012
 7945SOL     OW24733   5.177   0.064   1.106
 7945SOL    HW124734   5.263   0.013   1.103
 7945SOL    HW224735   5.185   0.139   1.173
 7946SOL     OW24736   2.271   1.454   5.491
 7946SOL    HW124737   2.335   1.529   5.473
 7946SOL    HW224738   2.186   1.469   5.441
 7947SOL     OW24739   4.361   5.408   6.352
 7947SOL    HW124740   4.439   5.387   6.411
 7947SOL    HW224741   4.390   5.470   6.279
 7948SOL     OW24742   1.064   5.124   5.170
 7948SOL    HW124743   1.056   5.137   5.268
 7948SOL    HW224744   1.010   5.044   5.142
 7949SOL     OW24745   6.780   2.995   4.668
 7949SOL    HW124746   6.833   3.039   4.595
 7949SOL    HW224747   6.722   3.063   4.712
 7950SOL     OW24748   3.018   5.209   3.791
 7950SOL    HW124749   3.115   5.231   3.775
 7950SOL    HW224750   2.960   5.273   3.741
 7951SOL     OW24751   2.198   3.485   0.367
 7951SOL    HW124752   2.109   3.492   0.322
 7951SOL    HW224753   2.268   3.527   0.309
 7952SOL     OW24754   5.869   4.244   0.653
 7952SOL    HW124755   5.805   4.261   0.578
 7952SOL    HW224756   5.897   4.149   0.651
 7953SOL     OW24757   2.107   4.292   1.449
 7953SOL    HW124758   2.152   4.271   1.536
 7953SOL    HW224759   2.170   4.271   1.374
 7954SOL     OW24760   6.043   4.834   3.831
 7954SOL    HW124761   6.060   4.917   3.778
 7954SOL    HW224762   6.030   4.858   3.927
 7955SOL     OW24763   1.861   6.468   6.426
 7955SOL    HW124764   1.858   6.567   6.413
 7955SOL    HW224765   1.818   6.423   6.348
 7956SOL     OW24766   5.341   5.588   2.916
 7956SOL    HW124767   5.422   5.571   2.860
 7956SOL    HW224768   5.279   5.510   2.909
 7957SOL     OW24769   2.123   2.443   0.792
 7957SOL    HW124770   2.176   2.363   0.766
 7957SOL    HW224771   2.182   2.524   0.797
 7958SOL     OW24772   2.219   5.424   3.749
 7958SOL    HW124773   2.175   5.403   3.662
 7958SOL    HW224774   2.156   5.405   3.824
 7959SOL     OW24775   4.788   5.358   1.784
 7959SOL    HW124776   4.815   5.335   1.877
 7959SOL    HW224777   4.730   5.285   1.747
 7960SOL     OW24778   1.702   2.468   1.578
 7960SOL    HW124779   1.691   2.564   1.551
 7960SOL    HW224780   1.798   2.443   1.573
 7961SOL     OW24781   1.000   5.859   0.494
 7961SOL    HW124782   1.030   5.768   0.468
 7961SOL    HW224783   0.911   5.878   0.452
 7962SOL     OW24784   1.927   0.146   2.551
 7962SOL    HW124785   1.881   0.194   2.476
 7962SOL    HW224786   1.885   0.056   2.564
 7963SOL     OW24787   0.304   6.138   5.943
 7963SOL    HW124788   0.339   6.048   5.965
 7963SOL    HW224789   0.378   6.205   5.947
 7964SOL     OW24790   6.061   5.513   3.433
 7964SOL    HW124791   6.039   5.467   3.518
 7964SOL    HW224792   6.061   5.446   3.358
 7965SOL     OW24793   4.101   1.478   0.500
 7965SOL    HW124794   4.129   1.540   0.426
 7965SOL    HW224795   4.003   1.491   0.519
 7966SOL     OW24796   0.206   1.199   4.335
 7966SOL    HW124797   0.292   1.247   4.317
 7966SOL    HW224798   0.162   1.175   4.248
 7967SOL     OW24799   2.785   1.009   3.729
 7967SOL    HW124800   2.837   0.936   3.774
 7967SOL    HW224801   2.689   0.981   3.722
 7968SOL     OW24802   2.401   1.150   0.591
 7968SOL    HW124803   2.366   1.236   0.627
 7968SOL    HW224804   2.330   1.106   0.535
 7969SOL     OW24805   3.725   1.690   3.683
 7969SOL    HW124806   3.643   1.746   3.672
 7969SOL    HW224807   3.717   1.634   3.765
 7970SOL     OW24808   0.398   4.564   3.110
 7970SOL    HW124809   0.359   4.656   3.121
 7970SOL    HW224810   0.481   4.569   3.056
 7971SOL     OW24811   3.075   1.954   2.494
 7971SOL    HW124812   3.134   2.011   2.436
 7971SOL    HW224813   2.981   1.987   2.486
 7972SOL     OW24814   5.587   5.821   2.229
 7972SOL    HW124815   5.590   5.722   2.217
 7972SOL    HW224816   5.609   5.866   2.142
 7973SOL     OW24817   5.471   1.810   2.875
 7973SOL    HW124818   5.384   1.854   2.897
 7973SOL    HW224819   5.539   1.833   2.944
 7974SOL     OW24820   4.949   6.116   4.769
 7974SOL    HW124821   5.037   6.120   4.721
 7974SOL    HW224822   4.877   6.092   4.704
 7975SOL     OW24823   1.673   1.601   2.145
 7975SOL    HW124824   1.673   1.525   2.209
 7975SOL    HW224825   1.654   1.686   2.194
 7976SOL     OW24826   1.030   0.110   6.837
 7976SOL    HW124827   0.946   0.057   6.835
 7976SOL    HW224828   1.008   0.207   6.828
 7977SOL     OW24829   5.118   6.341   1.281
 7977SOL    HW124830   5.107   6.301   1.190
 7977SOL    HW224831   5.148   6.436   1.272
 7978SOL     OW24832   3.009   1.418   6.196
 7978SOL    HW124833   2.925   1.424   6.142
 7978SOL    HW224834   2.988   1.431   6.293
 7979SOL     OW24835   4.886   5.640   4.308
 7979SOL    HW124836   4.830   5.717   4.278
 7979SOL    HW224837   4.845   5.599   4.389
 7980SOL     OW24838   2.538   0.610   1.802
 7980SOL    HW124839   2.602   0.674   1.760
 7980SOL    HW224840   2.553   0.607   1.900
 7981SOL     OW24841   0.609   6.369   2.274
 7981SOL    HW124842   0.512   6.360   2.251
 7981SOL    HW224843   0.622   6.354   2.372
 7982SOL     OW24844   0.156   2.847   1.021
 7982SOL    HW124845   0.226   2.798   1.072
 7982SOL    HW224846   0.099   2.900   1.084
 7983SOL     OW24847   5.543   2.361   0.917
 7983SOL    HW124848   5.566   2.264   0.906
 7983SOL    HW224849   5.465   2.383   0.858
 7984SOL     OW24850   6.196   0.528   0.664
 7984SOL    HW124851   6.236   0.562   0.750
 7984SOL    HW224852   6.269   0.491   0.607
 7985SOL     OW24853   0.975   1.313   0.699
 7985SOL    HW124854   0.882   1.286   0.677
 7985SOL    HW224855   0.978   1.411   0.718
 7986SOL     OW24856   4.781   3.801   0.721
 7986SOL    HW124857   4.810   3.784   0.627
 7986SOL    HW224858   4.710   3.872   0.722
 7987SOL     OW24859   0.644   3.366   4.951
 7987SOL    HW124860   0.591   3.343   4.869
 7987SOL    HW224861   0.610   3.312   5.029
 7988SOL     OW24862   2.773   1.305   5.389
 7988SOL    HW124863   2.706   1.277   5.458
 7988SOL    HW224864   2.771   1.241   5.313
 7989SOL     OW24865   3.763   3.450   6.606
 7989SOL    HW124866   3.722   3.376   6.659
 7989SOL    HW224867   3.692   3.499   6.556
 7990SOL     OW24868   2.411   2.775   4.431
 7990SOL    HW124869   2.344   2.843   4.401
 7990SOL    HW224870   2.453   2.733   4.351
 7991SOL     OW24871   2.387   3.185   5.846
 7991SOL    HW124872   2.337   3.227   5.770
 7991SOL    HW224873   2.326   3.175   5.924
 7992SOL     OW24874   2.874   1.608   0.705
 7992SOL    HW124875   2.898   1.644   0.615
 7992SOL    HW224876   2.942   1.539   0.732
 7993SOL     OW24877   2.721   5.618   6.349
 7993SOL    HW124878   2.798   5.654   6.401
 7993SOL    HW224879   2.648   5.589   6.411
 7994SOL     OW24880   5.652   0.221   4.794
 7994SOL    HW124881   5.695   0.260   4.712
 7994SOL    HW224882   5.583   0.284   4.828
 7995SOL     OW24883   4.054   5.257   2.599
 7995SOL    HW124884   4.057   5.158   2.582
 7995SOL    HW224885   4.123   5.302   2.543
 7996SOL     OW24886   4.400   1.607   5.517
 7996SOL    HW124887   4.469   1.580   5.585
 7996SOL    HW224888   4.443   1.616   5.427
 7997SOL     OW24889   5.305   3.109   0.815
 7997SOL    HW124890   5.258   3.023   0.797
 7997SOL    HW224891   5.358   3.101   0.900
 7998SOL     OW24892   6.776   5.207   6.114
 7998SOL    HW124893   6.791   5.245   6.205
 7998SOL    HW224894   6.678   5.192   6.100
 7999SOL     OW24895   2.682   2.525   5.554
 7999SOL    HW124896   2.705   2.598   5.490
 7999SOL    HW224897   2.586   2.532   5.580
 8000SOL     OW24898   4.719   0.393   5.784
 8000SOL    HW124899   4.790   0.322   5.775
 8000SOL    HW224900   4.762   0.479   5.809
 8001SOL     OW24901   2.641   4.745   0.109
 8001SOL    HW124902   2.721   4.804   0.100
 8001SOL    HW224903   2.564   4.797   0.144
 8002SOL     OW24904   4.741   2.270   5.898
 8002SOL    HW124905   4.722   2.260   5.995
 8002SOL    HW224906   4.659   2.305   5.852
 8003SOL     OW24907   4.672   5.255   3.355
 8003SOL    HW124908   4.747   5.303   3.309
 8003SOL    HW224909   4.597   5.241   3.291
 8004SOL     OW24910   0.856   3.976   3.162
 8004SOL    HW124911   0.911   3.907   3.210
 8004SOL    HW224912   0.911   4.019   3.091
 8005SOL     OW24913   1.924   1.066   2.432
 8005SOL    HW124914   1.943   1.050   2.529
 8005SOL    HW224915   1.871   1.150   2.422
 8006SOL     OW24916   4.307   5.746   2.106
 8006SOL    HW124917   4.329   5.648   2.115
 8006SOL    HW224918   4.346   5.781   2.021
 8007SOL     OW24919   0.255   1.477   4.118
 8007SOL    HW124920   0.196   1.458   4.039
 8007SOL    HW224921   0.198   1.504   4.196
 8008SOL     OW24922   5.702   5.458   1.487
 8008SOL    HW124923   5.700   5.360   1.468
 8008SOL    HW224924   5.738   5.507   1.408
 8009SOL     OW24925   6.657   6.764   2.975
 8009SOL    HW124926   6.585   6.699   2.952
 8009SOL    HW224927   6.715   6.780   2.895
 8010SOL     OW24928   1.965   2.075   6.931
 8010SOL    HW124929   2.041   2.134   6.957
 8010SOL    HW224930   1.975   2.047   6.836
 8011SOL     OW24931   2.483   3.193   6.872
 8011SOL    HW124932   2.484   3.135   6.954
 8011SOL    HW224933   2.411   3.160   6.810
 8012SOL     OW24934   2.237   6.336   3.266
 8012SOL    HW124935   2.282   6.328   3.355
 8012SOL    HW224936   2.139   6.353   3.279
 8013SOL     OW24937   6.413   5.489   4.896
 8013SOL    HW124938   6.440   5.491   4.993
 8013SOL    HW224939   6.450   5.406   4.853
 8014SOL     OW24940   2.864   0.142   6.823
 8014SOL    HW124941   2.883   0.206   6.749
 8014SOL    HW224942   2.944   0.085   6.840
 8015SOL     OW24943   1.065   2.059   0.251
 8015SOL    HW124944   1.160   2.047   0.224
 8015SOL    HW224945   1.039   2.155   0.241
 8016SOL     OW24946   3.974   5.952   1.894
 8016SOL    HW124947   4.029   5.888   1.841
 8016SOL    HW224948   4.033   5.998   1.961
 8017SOL     OW24949   6.671   3.786   5.639
 8017SOL    HW124950   6.633   3.734   5.715
 8017SOL    HW224951   6.755   3.830   5.668
 8018SOL     OW24952   4.876   3.199   3.729
 8018SOL    HW124953   4.830   3.118   3.693
 8018SOL    HW224954   4.918   3.250   3.654
 8019SOL     OW24955   3.356   5.350   1.071
 8019SOL    HW124956   3.356   5.449   1.088
 8019SOL    HW224957   3.340   5.302   1.157
 8020SOL     OW24958   5.574   0.364   6.348
 8020SOL    HW124959   5.571   0.276   6.299
 8020SOL    HW224960   5.507   0.426   6.308
 8021SOL     OW24961   6.452   1.183   1.336
 8021SOL    HW124962   6.452   1.230   1.425
 8021SOL    HW224963   6.543   1.147   1.318
 8022SOL     OW24964   5.205   5.069   3.913
 8022SOL    HW124965   5.219   4.999   3.982
 8022SOL    HW224966   5.242   5.156   3.945
 8023SOL     OW24967   0.384   5.713   3.724
 8023SOL    HW124968   0.312   5.763   3.677
 8023SOL    HW224969   0.345   5.637   3.775
 8024SOL     OW24970   4.234   5.531   4.312
 8024SOL    HW124971   4.214   5.517   4.409
 8024SOL    HW224972   4.307   5.468   4.284
 8025SOL     OW24973   3.242   5.904   0.421
 8025SOL    HW124974   3.201   5.820   0.386
 8025SOL    HW224975   3.334   5.884   0.454
 8026SOL     OW24976   2.068   2.028   6.267
 8026SOL    HW124977   2.115   2.105   6.309
 8026SOL    HW224978   2.134   1.958   6.242
 8027SOL     OW24979   4.417   3.151   5.370
 8027SOL    HW124980   4.375   3.208   5.441
 8027SOL    HW224981   4.443   3.208   5.292
 8028SOL     OW24982   6.234   5.190   0.653
 8028SOL    HW124983   6.286   5.228   0.577
 8028SOL    HW224984   6.152   5.145   0.618
 8029SOL     OW24985   3.177   4.095   6.057
 8029SOL    HW124986   3.080   4.087   6.033
 8029SOL    HW224987   3.191   4.179   6.110
 8030SOL     OW24988   6.831   3.272   1.082
 8030SOL    HW124989   6.820   3.263   1.181
 8030SOL    HW224990   6.745   3.305   1.042
 8031SOL     OW24991   3.950   6.479   0.903
 8031SOL    HW124992   3.906   6.466   0.814
 8031SOL    HW224993   3.886   6.523   0.965
 8032SOL     OW24994   4.741   3.730   5.563
 8032SOL    HW124995   4.804   3.798   5.601
 8032SOL    HW224996   4.767   3.639   5.593
 8033SOL     OW24997   6.533   1.495   1.713
 8033SOL    HW124998   6.501   1.534   1.799
 8033SOL    HW224999   6.631   1.512   1.702
 8034SOL     OW25000   6.488   1.927   5.833
 8034SOL    HW125001   6.585   1.933   5.855
 8034SOL    HW225002   6.434   1.974   5.903
 8035SOL     OW25003   5.400   6.019   5.978
 8035SOL    HW125004   5.426   6.086   5.909
 8035SOL    HW225005   5.472   6.013   6.047
 8036SOL     OW25006   1.654   4.531   1.505
 8036SOL    HW125007   1.671   4.561   1.599
 8036SOL    HW225008   1.629   4.434   1.505
 8037SOL     OW25009   2.312   3.289   1.683
 8037SOL    HW125010   2.323   3.357   1.755
 8037SOL    HW225011   2.387   3.223   1.688
 8038SOL     OW25012   5.604   1.129   3.998
 8038SOL    HW125013   5.557   1.143   3.910
 8038SOL    HW225014   5.701   1.113   3.982
 8039SOL     OW25015   2.218   5.742   3.627
 8039SOL    HW125016   2.316   5.758   3.620
 8039SOL    HW225017   2.197   5.650   3.594
 8040SOL     OW25018   6.015   6.250   6.652
 8040SOL    HW125019   6.022   6.248   6.552
 8040SOL    HW225020   6.094   6.202   6.691
 8041SOL     OW25021   3.035   2.300   1.197
 8041SOL    HW125022   3.108   2.232   1.208
 8041SOL    HW225023   3.053   2.377   1.257
 8042SOL     OW25024   2.207   5.273   6.572
 8042SOL    HW125025   2.182   5.176   6.570
 8042SOL    HW225026   2.175   5.314   6.658
 8043SOL     OW25027   2.991   0.560   1.093
 8043SOL    HW125028   3.029   0.624   1.160
 8043SOL    HW225029   2.892   0.570   1.091
 8044SOL     OW25030   3.139   2.935   2.015
 8044SOL    HW125031   3.164   2.896   2.104
 8044SOL    HW225032   3.041   2.954   2.013
 8045SOL     OW25033   6.184   2.597   3.786
 8045SOL    HW125034   6.204   2.695   3.786
 8045SOL    HW225035   6.171   2.566   3.880
 8046SOL     OW25036   6.744   5.530   5.276
 8046SOL    HW125037   6.779   5.587   5.350
 8046SOL    HW225038   6.765   5.572   5.188
 8047SOL     OW25039   2.504   0.088   4.207
 8047SOL    HW125040   2.408   0.112   4.219
 8047SOL    HW225041   2.522   0.067   4.111
 8048SOL     OW25042   5.320   0.008   5.386
 8048SOL    HW125043   5.349   0.061   5.306
 8048SOL    HW225044   5.239   0.050   5.426
 8049SOL     OW25045   1.664   0.305   0.168
 8049SOL    HW125046   1.616   0.378   0.119
 8049SOL    HW225047   1.640   0.217   0.129
 8050SOL     OW25048   0.180   3.154   1.972
 8050SOL    HW125049   0.257   3.214   1.991
 8050SOL    HW225050   0.172   3.086   2.045
 8051SOL     OW25051   2.466   1.769   3.746
 8051SOL    HW125052   2.535   1.708   3.785
 8051SOL    HW225053   2.510   1.854   3.717
 8052SOL     OW25054   3.934   1.708   2.897
 8052SOL    HW125055   3.890   1.748   2.817
 8052SOL    HW225056   3.976   1.780   2.952
 8053SOL     OW25057   4.464   3.521   1.470
 8053SOL    HW125058   4.545   3.469   1.443
 8053SOL    HW225059   4.385   3.460   1.474
 8054SOL     OW25060   4.738   6.042   4.545
 8054SOL    HW125061   4.783   6.077   4.463
 8054SOL    HW225062   4.639   6.053   4.536
 8055SOL     OW25063   1.560   0.145   5.183
 8055SOL    HW125064   1.612   0.095   5.252
 8055SOL    HW225065   1.619   0.214   5.140
 8056SOL     OW25066   4.390   1.122   2.450
 8056SOL    HW125067   4.403   1.201   2.511
 8056SOL    HW225068   4.308   1.137   2.393
 8057SOL     OW25069   3.393   0.083   3.889
 8057SOL    HW125070   3.491   0.064   3.897
 8057SOL    HW225071   3.341   7.015   3.907
 8058SOL     OW25072   1.739   0.015   2.921
 8058SOL    HW125073   1.801   0.082   2.963
 8058SOL    HW225074   1.649   0.022   2.964
 8059SOL     OW25075   1.481   1.316   4.076
 8059SOL    HW125076   1.387   1.348   4.078
 8059SOL    HW225077   1.540   1.387   4.037
 8060SOL     OW25078   0.646   2.649   5.042
 8060SOL    HW125079   0.723   2.616   4.986
 8060SOL    HW225080   0.604   2.728   4.997
 8061SOL     OW25081   5.766   6.539   3.226
 8061SOL    HW125082   5.705   6.473   3.270
 8061SOL    HW225083   5.721   6.578   3.146
 8062SOL     OW25084   1.275   3.079   1.866
 8062SOL    HW125085   1.308   3.129   1.786
 8062SOL    HW225086   1.324   2.992   1.873
 8063SOL     OW25087   2.512   2.936   5.839
 8063SOL    HW125088   2.464   3.023   5.828
 8063SOL    HW225089   2.445   2.862   5.839
 8064SOL     OW25090   5.882   2.637   5.549
 8064SOL    HW125091   5.925   2.547   5.537
 8064SOL    HW225092   5.783   2.625   5.563
 8065SOL     OW25093   4.432   0.122   6.588
 8065SOL    HW125094   4.369   0.088   6.517
 8065SOL    HW225095   4.522   0.138   6.548
 8066SOL     OW25096   1.828   0.440   1.784
 8066SOL    HW125097   1.845   0.394   1.697
 8066SOL    HW225098   1.896   0.409   1.851
 8067SOL     OW25099   4.601   2.263   2.337
 8067SOL    HW125100   4.600   2.363   2.324
 8067SOL    HW225101   4.582   2.242   2.433
 8068SOL     OW25102   6.903   4.636   4.324
 8068SOL    HW125103   6.945   4.595   4.243
 8068SOL    HW225104   6.947   4.599   4.406
 8069SOL     OW25105   0.793   6.603   2.192
 8069SOL    HW125106   0.773   6.620   2.288
 8069SOL    HW225107   0.756   6.514   2.165
 8070SOL     OW25108   3.510   0.621   2.241
 8070SOL    HW125109   3.426   0.572   2.216
 8070SOL    HW225110   3.545   0.586   2.328
 8071SOL     OW25111   5.522   4.804   0.334
 8071SOL    HW125112   5.512   4.817   0.235
 8071SOL    HW225113   5.568   4.883   0.374
 8072SOL     OW25114   3.842   0.595   3.325
 8072SOL    HW125115   3.800   0.644   3.250
 8072SOL    HW225116   3.802   0.624   3.412
 8073SOL     OW25117   4.840   0.221   6.038
 8073SOL    HW125118   4.805   0.189   5.950
 8073SOL    HW225119   4.832   0.148   6.106
 8074SOL     OW25120   3.016   4.010   0.096
 8074SOL    HW125121   2.931   3.963   0.072
 8074SOL    HW225122   2.995   4.097   0.139
 8075SOL     OW25123   6.248   1.411   4.169
 8075SOL    HW125124   6.307   1.331   4.181
 8075SOL    HW225125   6.153   1.381   4.158
 8076SOL     OW25126   4.810   3.238   6.833
 8076SOL    HW125127   4.748   3.183   6.889
 8076SOL    HW225128   4.887   3.181   6.805
 8077SOL     OW25129   0.902   0.813   6.907
 8077SOL    HW125130   0.962   0.759   6.849
 8077SOL    HW225131   0.948   0.834   6.993
 8078SOL     OW25132   5.729   3.316   1.291
 8078SOL    HW125133   5.669   3.378   1.341
 8078SOL    HW225134   5.693   3.303   1.198
 8079SOL     OW25135   1.512   2.402   0.979
 8079SOL    HW125136   1.608   2.415   1.005
 8079SOL    HW225137   1.496   2.446   0.891
 8080SOL     OW25138   4.195   4.944   6.965
 8080SOL    HW125139   4.133   5.005   7.014
 8080SOL    HW225140   4.158   4.924   6.874
 8081SOL     OW25141   5.584   2.379   4.653
 8081SOL    HW125142   5.512   2.426   4.704
 8081SOL    HW225143   5.545   2.303   4.602
 8082SOL     OW25144   6.677   3.596   4.896
 8082SOL    HW125145   6.642   3.506   4.871
 8082SOL    HW225146   6.652   3.616   4.990
 8083SOL     OW25147   5.542   1.799   4.970
 8083SOL    HW125148   5.549   1.717   4.912
 8083SOL    HW225149   5.566   1.880   4.917
 8084SOL     OW25150   6.074   0.250   0.169
 8084SOL    HW125151   5.991   0.208   0.206
 8084SOL    HW225152   6.155   0.204   0.206
 8085SOL     OW25153   4.699   2.307   1.099
 8085SOL    HW125154   4.691   2.256   1.185
 8085SOL    HW225155   4.612   2.305   1.050
 8086SOL     OW25156   2.533   5.239   5.834
 8086SOL    HW125157   2.448   5.247   5.782
 8086SOL    HW225158   2.516   5.187   5.918
 8087SOL     OW25159   2.522   3.543   0.599
 8087SOL    HW125160   2.471   3.530   0.684
 8087SOL    HW225161   2.521   3.458   0.547
 8088SOL     OW25162   4.545   0.208   3.486
 8088SOL    HW125163   4.491   0.291   3.488
 8088SOL    HW225164   4.486   0.128   3.497
 8089SOL     OW25165   6.660   2.686   0.615
 8089SOL    HW125166   6.587   2.738   0.661
 8089SOL    HW225167   6.715   2.639   0.684
 8090SOL     OW25168   4.619   1.413   5.356
 8090SOL    HW125169   4.580   1.504   5.342
 8090SOL    HW225170   4.580   1.349   5.289
 8091SOL     OW25171   1.671   3.573   5.502
 8091SOL    HW125172   1.690   3.667   5.473
 8091SOL    HW225173   1.660   3.570   5.601
 8092SOL     OW25174   6.381   1.811   4.130
 8092SOL    HW125175   6.394   1.796   4.032
 8092SOL    HW225176   6.468   1.838   4.171
 8093SOL     OW25177   5.898   5.412   0.623
 8093SOL    HW125178   5.815   5.461   0.649
 8093SOL    HW225179   5.883   5.313   0.629
 8094SOL     OW25180   0.337   3.308   4.120
 8094SOL    HW125181   0.306   3.336   4.029
 8094SOL    HW225182   0.436   3.296   4.119
 8095SOL     OW25183   6.539   3.229   4.937
 8095SOL    HW125184   6.601   3.214   4.860
 8095SOL    HW225185   6.447   3.247   4.903
 8096SOL     OW25186   4.538   0.392   0.557
 8096SOL    HW125187   4.609   0.413   0.624
 8096SOL    HW225188   4.469   0.334   0.600
 8097SOL     OW25189   4.765   1.768   4.119
 8097SOL    HW125190   4.781   1.763   4.020
 8097SOL    HW225191   4.779   1.862   4.151
 8098SOL     OW25192   2.244   1.990   4.141
 8098SOL    HW125193   2.229   1.984   4.043
 8098SOL    HW225194   2.165   2.033   4.185
 8099SOL     OW25195   3.691   6.449   4.183
 8099SOL    HW125196   3.625   6.508   4.136
 8099SOL    HW225197   3.643   6.384   4.241
 8100SOL     OW25198   6.444   6.103   1.714
 8100SOL    HW125199   6.532   6.137   1.748
 8100SOL    HW225200   6.379   6.179   1.708
 8101SOL     OW25201   0.797   4.750   2.125
 8101SOL    HW125202   0.814   4.714   2.034
 8101SOL    HW225203   0.703   4.782   2.132
 8102SOL     OW25204   6.804   6.830   5.486
 8102SOL    HW125205   6.851   6.913   5.516
 8102SOL    HW225206   6.706   6.843   5.494
 8103SOL     OW25207   2.476   2.467   2.281
 8103SOL    HW125208   2.544   2.445   2.351
 8103SOL    HW225209   2.509   2.437   2.191
 8104SOL     OW25210   2.516   6.868   6.047
 8104SOL    HW125211   2.610   6.902   6.050
 8104SOL    HW225212   2.452   6.944   6.062
 8105SOL     OW25213   2.287   2.459   3.037
 8105SOL    HW125214   2.224   2.532   3.065
 8105SOL    HW225215   2.236   2.390   2.984
 8106SOL     OW25216   0.809   3.826   5.372
 8106SOL    HW125217   0.806   3.796   5.276
 8106SOL    HW225218   0.742   3.774   5.425
 8107SOL     OW25219   1.020   5.392   6.983
 8107SOL    HW125220   1.040   5.461   6.913
 8107SOL    HW225221   1.103   5.344   7.008
 8108SOL     OW25222   2.392   2.699   6.168
 8108SOL    HW125223   2.474   2.737   6.211
 8108SOL    HW225224   2.316   2.764   6.177
 8109SOL     OW25225   0.298   5.765   5.280
 8109SOL    HW125226   0.318   5.715   5.196
 8109SOL    HW225227   0.356   5.730   5.354
 8110SOL     OW25228   1.508   5.074   0.464
 8110SOL    HW125229   1.432   5.092   0.526
 8110SOL    HW225230   1.475   5.072   0.370
 8111SOL     OW25231   3.105   6.094   4.096
 8111SOL    HW125232   3.189   6.046   4.121
 8111SOL    HW225233   3.092   6.090   3.997
 8112SOL     OW25234   3.664   1.360   4.102
 8112SOL    HW125235   3.583   1.303   4.111
 8112SOL    HW225236   3.724   1.344   4.181
 8113SOL     OW25237   3.055   2.278   5.715
 8113SOL    HW125238   3.050   2.349   5.645
 8113SOL    HW225239   3.109   2.201   5.681
 8114SOL     OW25240   3.291   3.792   1.299
 8114SOL    HW125241   3.253   3.809   1.390
 8114SOL    HW225242   3.274   3.696   1.274
 8115SOL     OW25243   4.052   2.746   1.196
 8115SOL    HW125244   4.005   2.662   1.169
 8115SOL    HW225245   4.086   2.793   1.114
 8116SOL     OW25246   5.342   1.459   5.514
 8116SOL    HW125247   5.426   1.502   5.480
 8116SOL    HW225248   5.300   1.407   5.441
 8117SOL     OW25249   2.869   2.690   5.683
 8117SOL    HW125250   2.808   2.659   5.610
 8117SOL    HW225251   2.845   2.643   5.768
 8118SOL     OW25252   0.942   1.656   4.127
 8118SOL    HW125253   0.915   1.752   4.138
 8118SOL    HW225254   0.916   1.624   4.036
 8119SOL     OW25255   1.281   6.912   2.502
 8119SOL    HW125256   1.206   6.910   2.569
 8119SOL    HW225257   1.258   6.853   2.425
 8120SOL     OW25258   4.827   4.171   2.479
 8120SOL    HW125259   4.820   4.187   2.577
 8120SOL    HW225260   4.754   4.221   2.432
 8121SOL     OW25261   6.659   5.631   3.338
 8121SOL    HW125262   6.584   5.577   3.377
 8121SOL    HW225263   6.717   5.573   3.282
 8122SOL     OW25264   0.130   5.207   1.827
 8122SOL    HW125265   0.165   5.259   1.906
 8122SOL    HW225266   0.162   5.250   1.743
 8123SOL     OW25267   1.337   5.390   6.531
 8123SOL    HW125268   1.345   5.441   6.617
 8123SOL    HW225269   1.241   5.387   6.503
 8124SOL     OW25270   1.476   5.874   2.789
 8124SOL    HW125271   1.413   5.798   2.803
 8124SOL    HW225272   1.565   5.851   2.828
 8125SOL     OW25273   4.888   5.330   3.208
 8125SOL    HW125274   4.956   5.257   3.210
 8125SOL    HW225275   4.877   5.364   3.115
 8126SOL     OW25276   0.280   4.643   1.510
 8126SOL    HW125277   0.321   4.667   1.422
 8126SOL    HW225278   0.187   4.609   1.495
 8127SOL     OW25279   4.441   5.299   1.200
 8127SOL    HW125280   4.346   5.317   1.175
 8127SOL    HW225281   4.474   5.220   1.149
 8128SOL     OW25282   4.015   2.067   5.204
 8128SOL    HW125283   4.026   1.970   5.179
 8128SOL    HW225284   3.919   2.092   5.198
 8129SOL     OW25285   4.520   5.921   6.702
 8129SOL    HW125286   4.600   5.881   6.657
 8129SOL    HW225287   4.478   5.990   6.643
 8130SOL     OW25288   0.510   0.524   6.260
 8130SOL    HW125289   0.419   0.501   6.294
 8130SOL    HW225290   0.579   0.489   6.323
 8131SOL     OW25291   2.468   1.591   1.498
 8131SOL    HW125292   2.484   1.548   1.409
 8131SOL    HW225293   2.476   1.690   1.489
 8132SOL     OW25294   5.778   4.446   3.376
 8132SOL    HW125295   5.824   4.434   3.463
 8132SOL    HW225296   5.805   4.373   3.313
 8133SOL     OW25297   0.398   5.712   2.469
 8133SOL    HW125298   0.393   5.627   2.417
 8133SOL    HW225299   0.423   5.692   2.564
 8134SOL     OW25300   2.913   3.288   1.553
 8134SOL    HW125301   2.840   3.258   1.615
 8134SOL    HW225302   2.979   3.343   1.604
 8135SOL     OW25303   3.780   6.421   2.368
 8135SOL    HW125304   3.836   6.357   2.315
 8135SOL    HW225305   3.688   6.384   2.376
 8136SOL     OW25306   2.484   5.866   1.816
 8136SOL    HW125307   2.483   5.858   1.915
 8136SOL    HW225308   2.523   5.782   1.776
 8137SOL     OW25309   3.142   3.745   5.592
 8137SOL    HW125310   3.227   3.693   5.591
 8137SOL    HW225311   3.126   3.780   5.684
 8138SOL     OW25312   4.317   0.906   3.567
 8138SOL    HW125313   4.331   0.828   3.505
 8138SOL    HW225314   4.316   0.990   3.513
 8139SOL     OW25315   1.965   3.012   5.797
 8139SOL    HW125316   1.892   3.079   5.791
 8139SOL    HW225317   1.970   2.961   5.711
 8140SOL     OW25318   5.270   1.987   1.176
 8140SOL    HW125319   5.200   2.047   1.138
 8140SOL    HW225320   5.288   1.912   1.113
 8141SOL     OW25321   5.768   0.670   5.167
 8141SOL    HW125322   5.830   0.745   5.144
 8141SOL    HW225323   5.675   0.697   5.145
 8142SOL     OW25324   3.891   5.863   0.482
 8142SOL    HW125325   3.812   5.812   0.448
 8142SOL    HW225326   3.943   5.900   0.405
 8143SOL     OW25327   5.715   5.174   6.966
 8143SOL    HW125328   5.627   5.193   7.010
 8143SOL    HW225329   5.724   5.076   6.952
 8144SOL     OW25330   1.806   5.631   6.738
 8144SOL    HW125331   1.749   5.705   6.703
 8144SOL    HW225332   1.895   5.632   6.693
 8145SOL     OW25333   4.986   5.761   5.374
 8145SOL    HW125334   5.079   5.726   5.387
 8145SOL    HW225335   4.961   5.754   5.278
 8146SOL     OW25336   6.845   6.201   5.080
 8146SOL    HW125337   6.894   6.278   5.040
 8146SOL    HW225338   6.909   6.142   5.128
 8147SOL     OW25339   2.339   7.004   4.593
 8147SOL    HW125340   2.291   0.055   4.651
 8147SOL    HW225341   2.277   6.969   4.523
 8148SOL     OW25342   5.440   4.543   0.375
 8148SOL    HW125343   5.477   4.632   0.351
 8148SOL    HW225344   5.363   4.555   0.438
 8149SOL     OW25345   1.712   7.006   4.988
 8149SOL    HW125346   1.691   6.932   4.924
 8149SOL    HW225347   1.645   7.007   5.062
 8150SOL     OW25348   7.007   4.328   0.782
 8150SOL    HW125349   6.939   4.266   0.823
 8150SOL    HW225350   0.027   4.286   0.699
 8151SOL     OW25351   6.192   3.935   1.854
 8151SOL    HW125352   6.286   3.968   1.866
 8151SOL    HW225353   6.194   3.839   1.826
 8152SOL     OW25354   4.930   1.981   3.960
 8152SOL    HW125355   4.859   1.955   3.895
 8152SOL    HW225356   4.988   1.902   3.981
 8153SOL     OW25357   0.424   1.862   0.963
 8153SOL    HW125358   0.446   1.945   0.912
 8153SOL    HW225359   0.418   1.883   1.060
 8154SOL     OW25360   0.464   0.787   3.696
 8154SOL    HW125361   0.389   0.809   3.758
 8154SOL    HW225362   0.477   0.864   3.632
 8155SOL     OW25363   0.973   5.087   4.481
 8155SOL    HW125364   0.953   5.010   4.420
 8155SOL    HW225365   1.065   5.122   4.461
 8156SOL     OW25366   1.425   4.074   0.440
 8156SOL    HW125367   1.516   4.055   0.404
 8156SOL    HW225368   1.415   4.031   0.530
 8157SOL     OW25369   6.248   4.349   4.905
 8157SOL    HW125370   6.160   4.397   4.906
 8157SOL    HW225371   6.297   4.371   4.821
 8158SOL     OW25372   6.217   5.269   6.167
 8158SOL    HW125373   6.184   5.266   6.073
 8158SOL    HW225374   6.174   5.196   6.220
 8159SOL     OW25375   1.987   6.845   5.263
 8159SOL    HW125376   2.022   6.751   5.269
 8159SOL    HW225377   2.053   6.908   5.304
 8160SOL     OW25378   5.407   2.801   2.930
 8160SOL    HW125379   5.317   2.810   2.887
 8160SOL    HW225380   5.439   2.707   2.919
 8161SOL     OW25381   0.517   2.238   1.261
 8161SOL    HW125382   0.572   2.188   1.327
 8161SOL    HW225383   0.567   2.247   1.175
 8162SOL     OW25384   0.235   5.959   5.002
 8162SOL    HW125385   0.142   5.926   5.015
 8162SOL    HW225386   0.296   5.882   4.985
 8163SOL     OW25387   3.129   4.971   5.788
 8163SOL    HW125388   3.036   4.976   5.752
 8163SOL    HW225389   3.135   4.894   5.852
 8164SOL     OW25390   5.191   1.953   0.173
 8164SOL    HW125391   5.131   1.956   0.252
 8164SOL    HW225392   5.208   2.046   0.139
 8165SOL     OW25393   0.722   2.800   6.250
 8165SOL    HW125394   0.745   2.718   6.198
 8165SOL    HW225395   0.645   2.847   6.206
 8166SOL     OW25396   3.100   2.141   4.308
 8166SOL    HW125397   3.060   2.214   4.363
 8166SOL    HW225398   3.041   2.124   4.228
 8167SOL     OW25399   1.797   2.603   3.088
 8167SOL    HW125400   1.698   2.612   3.077
 8167SOL    HW225401   1.841   2.692   3.075
 8168SOL     OW25402   1.183   6.263   2.876
 8168SOL    HW125403   1.186   6.323   2.796
 8168SOL    HW225404   1.182   6.167   2.846
 8169SOL     OW25405   5.177   5.071   6.758
 8169SOL    HW125406   5.117   5.144   6.792
 8169SOL    HW225407   5.259   5.067   6.814
 8170SOL     OW25408   6.928   4.414   3.505
 8170SOL    HW125409   6.845   4.384   3.552
 8170SOL    HW225410   6.918   4.398   3.406
 8171SOL     OW25411   1.793   1.700   1.546
 8171SOL    HW125412   1.823   1.794   1.564
 8171SOL    HW225413   1.872   1.639   1.542
 8172SOL     OW25414   1.584   4.971   0.777
 8172SOL    HW125415   1.536   4.922   0.705
 8172SOL    HW225416   1.528   5.049   0.807
 8173SOL     OW25417   5.822   6.591   1.763
 8173SOL    HW125418   5.769   6.506   1.771
 8173SOL    HW225419   5.840   6.610   1.666
 8174SOL     OW25420   2.590   6.681   3.992
 8174SOL    HW125421   2.629   6.590   4.008
 8174SOL    HW225422   2.559   6.720   4.079
 8175SOL     OW25423   0.596   2.114   6.009
 8175SOL    HW125424   0.606   2.186   6.077
 8175SOL    HW225425   0.575   2.028   6.054
 8176SOL     OW25426   2.864   4.729   6.735
 8176SOL    HW125427   2.900   4.706   6.644
 8176SOL    HW225428   2.939   4.746   6.798
 8177SOL     OW25429   3.669   0.847   2.514
 8177SOL    HW125430   3.750   0.888   2.473
 8177SOL    HW225431   3.613   0.918   2.557
 8178SOL     OW25432   2.387   6.098   1.173
 8178SOL    HW125433   2.388   6.003   1.143
 8178SOL    HW225434   2.443   6.108   1.255
 8179SOL     OW25435   6.545   0.052   3.673
 8179SOL    HW125436   6.501   6.994   3.621
 8179SOL    HW225437   6.628   0.082   3.625
 8180SOL     OW25438   4.962   5.239   0.687
 8180SOL    HW125439   4.953   5.175   0.762
 8180SOL    HW225440   5.058   5.242   0.657
 8181SOL     OW25441   6.309   0.635   6.454
 8181SOL    HW125442   6.408   0.629   6.468
 8181SOL    HW225443   6.262   0.599   6.535
 8182SOL     OW25444   3.705   3.571   3.047
 8182SOL    HW125445   3.775   3.642   3.057
 8182SOL    HW225446   3.619   3.613   3.018
 8183SOL     OW25447   0.448   0.296   5.328
 8183SOL    HW125448   0.501   0.281   5.245
 8183SOL    HW225449   0.351   0.281   5.309
 8184SOL     OW25450   0.034   5.720   4.614
 8184SOL    HW125451   0.098   5.796   4.608
 8184SOL    HW225452   6.965   5.745   4.567
 8185SOL     OW25453   0.247   6.344   4.638
 8185SOL    HW125454   0.312   6.378   4.569
 8185SOL    HW225455   0.289   6.270   4.690
 8186SOL     OW25456   1.613   5.951   0.103
 8186SOL    HW125457   1.643   5.858   0.082
 8186SOL    HW225458   1.574   5.953   0.195
 8187SOL     OW25459   1.167   6.359   4.826
 8187SOL    HW125460   1.123   6.399   4.906
 8187SOL    HW225461   1.241   6.420   4.795
 8188SOL     OW25462   1.496   2.701   2.825
 8188SOL    HW125463   1.481   2.726   2.729
 8188SOL    HW225464   1.468   2.777   2.884
 8189SOL     OW25465   6.856   5.429   4.340
 8189SOL    HW125466   6.922   5.358   4.315
 8189SOL    HW225467   6.805   5.456   4.258
 8190SOL     OW25468   5.795   4.037   3.034
 8190SOL    HW125469   5.860   3.960   3.040
 8190SOL    HW225470   5.770   4.051   2.938
 8191SOL     OW25471   5.419   5.242   0.998
 8191SOL    HW125472   5.412   5.322   0.938
 8191SOL    HW225473   5.338   5.235   1.055
 8192SOL     OW25474   0.008   5.574   3.156
 8192SOL    HW125475   6.972   5.656   3.181
 8192SOL    HW225476   6.964   5.494   3.161
 8193SOL     OW25477   0.558   4.828   4.395
 8193SOL    HW125478   0.655   4.809   4.404
 8193SOL    HW225479   0.541   4.879   4.311
 8194SOL     OW25480   5.055   0.329   2.370
 8194SOL    HW125481   5.062   0.427   2.349
 8194SOL    HW225482   5.104   0.310   2.455
 8195SOL     OW25483   6.769   6.639   3.193
 8195SOL    HW125484   6.680   6.594   3.185
 8195SOL    HW225485   6.774   6.714   3.127
 8196SOL     OW25486   4.740   6.845   2.906
 8196SOL    HW125487   4.790   6.931   2.906
 8196SOL    HW225488   4.801   6.770   2.879
 8197SOL     OW25489   4.004   1.163   3.411
 8197SOL    HW125490   4.001   1.140   3.314
 8197SOL    HW225491   3.995   1.080   3.465
 8198SOL     OW25492   1.993   5.158   0.307
 8198SOL    HW125493   1.995   5.204   0.218
 8198SOL    HW225494   2.009   5.225   0.379
 8199SOL     OW25495   6.110   2.480   0.414
 8199SOL    HW125496   6.035   2.423   0.382
 8199SOL    HW225497   6.116   2.563   0.358
 8200SOL     OW25498   6.035   4.815   6.940
 8200SOL    HW125499   6.022   4.806   6.841
 8200SOL    HW225500   6.111   4.877   6.958
 8201SOL     OW25501   5.291   0.716   5.278
 8201SOL    HW125502   5.299   0.680   5.371
 8201SOL    HW225503   5.265   0.813   5.282
 8202SOL     OW25504   0.427   5.470   1.784
 8202SOL    HW125505   0.330   5.469   1.761
 8202SOL    HW225506   0.468   5.555   1.751
 8203SOL     OW25507   1.408   3.226   0.364
 8203SOL    HW125508   1.475   3.158   0.396
 8203SOL    HW225509   1.427   3.314   0.406
 8204SOL     OW25510   1.470   3.488   0.713
 8204SOL    HW125511   1.482   3.526   0.805
 8204SOL    HW225512   1.491   3.390   0.716
 8205SOL     OW25513   0.064   4.176   6.292
 8205SOL    HW125514   0.097   4.087   6.324
 8205SOL    HW225515   0.079   4.183   6.193
 8206SOL     OW25516   3.263   0.796   1.245
 8206SOL    HW125517   3.305   0.884   1.224
 8206SOL    HW225518   3.325   0.742   1.303
 8207SOL     OW25519   4.164   3.656   4.276
 8207SOL    HW125520   4.139   3.748   4.307
 8207SOL    HW225521   4.255   3.633   4.310
 8208SOL     OW25522   2.855   0.074   6.390
 8208SOL    HW125523   2.845   0.156   6.445
 8208SOL    HW225524   2.908   0.006   6.441
 8209SOL     OW25525   5.974   2.363   3.933
 8209SOL    HW125526   6.028   2.345   3.851
 8209SOL    HW225527   6.035   2.364   4.013
 8210SOL     OW25528   1.909   2.496   6.292
 8210SOL    HW125529   1.813   2.522   6.299
 8210SOL    HW225530   1.956   2.557   6.228
 8211SOL     OW25531   4.185   4.884   1.254
 8211SOL    HW125532   4.204   4.886   1.155
 8211SOL    HW225533   4.151   4.793   1.279
 8212SOL     OW25534   1.833   3.541   2.825
 8212SOL    HW125535   1.835   3.461   2.765
 8212SOL    HW225536   1.908   3.535   2.891
 8213SOL     OW25537   6.553   4.785   0.535
 8213SOL    HW125538   6.591   4.787   0.627
 8213SOL    HW225539   6.453   4.788   0.540
 8214SOL     OW25540   4.909   3.406   3.515
 8214SOL    HW125541   4.950   3.463   3.444
 8214SOL    HW225542   4.875   3.464   3.589
 8215SOL     OW25543   3.751   5.046   1.835
 8215SOL    HW125544   3.799   4.959   1.846
 8215SOL    HW225545   3.813   5.121   1.854
 8216SOL     OW25546   5.478   3.225   3.936
 8216SOL    HW125547   5.485   3.148   3.872
 8216SOL    HW225548   5.397   3.279   3.914
 8217SOL     OW25549   2.402   5.623   0.071
 8217SOL    HW125550   2.490   5.585   0.098
 8217SOL    HW225551   2.398   5.720   0.094
 8218SOL     OW25552   4.679   2.471   6.731
 8218SOL    HW125553   4.596   2.444   6.778
 8218SOL    HW225554   4.753   2.483   6.797
 8219SOL     OW25555   5.085   2.231   0.139
 8219SOL    HW125556   5.039   2.297   0.197
 8219SOL    HW225557   5.017   2.184   0.082
 8220SOL     OW25558   3.859   3.615   1.563
 8220SOL    HW125559   3.856   3.548   1.488
 8220SOL    HW225560   3.832   3.570   1.648
 8221SOL     OW25561   5.610   4.228   3.649
 8221SOL    HW125562   5.694   4.253   3.601
 8221SOL    HW225563   5.632   4.162   3.721
 8222SOL     OW25564   6.000   0.963   2.716
 8222SOL    HW125565   6.028   0.896   2.648
 8222SOL    HW225566   5.940   0.919   2.783
 8223SOL     OW25567   0.560   4.913   0.133
 8223SOL    HW125568   0.482   4.916   0.070
 8223SOL    HW225569   0.580   4.818   0.157
 8224SOL     OW25570   0.571   3.936   2.317
 8224SOL    HW125571   0.650   3.897   2.270
 8224SOL    HW225572   0.596   4.025   2.356
 8225SOL     OW25573   5.136   1.141   1.432
 8225SOL    HW125574   5.111   1.070   1.366
 8225SOL    HW225575   5.082   1.130   1.516
 8226SOL     OW25576   3.860   0.562   6.781
 8226SOL    HW125577   3.771   0.603   6.762
 8226SOL    HW225578   3.917   0.566   6.698
 8227SOL     OW25579   6.171   4.073   3.205
 8227SOL    HW125580   6.228   4.093   3.284
 8227SOL    HW225581   6.192   3.982   3.170
 8228SOL     OW25582   0.133   1.402   3.856
 8228SOL    HW125583   0.136   1.502   3.860
 8228SOL    HW225584   0.052   1.373   3.805
 8229SOL     OW25585   5.489   5.589   0.129
 8229SOL    HW125586   5.398   5.580   0.090
 8229SOL    HW225587   5.557   5.557   0.064
 8230SOL     OW25588   5.060   0.223   3.021
 8230SOL    HW125589   5.029   0.214   3.116
 8230SOL    HW225590   5.150   0.182   3.011
 8231SOL     OW25591   3.916   5.774   1.189
 8231SOL    HW125592   3.862   5.854   1.217
 8231SOL    HW225593   4.012   5.790   1.210
 8232SOL     OW25594   2.610   1.345   0.219
 8232SOL    HW125595   2.553   1.396   0.154
 8232SOL    HW225596   2.652   1.408   0.284
 8233SOL     OW25597   0.914   5.753   6.076
 8233SOL    HW125598   0.902   5.844   6.115
 8233SOL    HW225599   0.825   5.709   6.064
 8234SOL     OW25600   2.237   3.278   6.650
 8234SOL    HW125601   2.267   3.188   6.682
 8234SOL    HW225602   2.216   3.274   6.553
 8235SOL     OW25603   4.663   2.504   6.464
 8235SOL    HW125604   4.582   2.546   6.423
 8235SOL    HW225605   4.658   2.512   6.564
 8236SOL     OW25606   6.270   2.444   1.521
 8236SOL    HW125607   6.259   2.533   1.477
 8236SOL    HW225608   6.237   2.448   1.615
 8237SOL     OW25609   3.772   6.145   5.557
 8237SOL    HW125610   3.840   6.176   5.491
 8237SOL    HW225611   3.683   6.186   5.535
 8238SOL     OW25612   1.016   1.037   6.222
 8238SOL    HW125613   1.106   0.994   6.224
 8238SOL    HW225614   0.954   0.984   6.165
 8239SOL     OW25615   5.787   1.154   6.882
 8239SOL    HW125616   5.755   1.064   6.850
 8239SOL    HW225617   5.727   1.187   6.954
 8240SOL     OW25618   3.730   3.205   3.168
 8240SOL    HW125619   3.814   3.161   3.199
 8240SOL    HW225620   3.658   3.135   3.159
 8241SOL     OW25621   4.835   6.229   1.201
 8241SOL    HW125622   4.748   6.215   1.155
 8241SOL    HW225623   4.906   6.248   1.133
 8242SOL     OW25624   1.489   4.047   5.313
 8242SOL    HW125625   1.535   4.118   5.367
 8242SOL    HW225626   1.401   4.025   5.355
 8243SOL     OW25627   0.246   3.325   5.136
 8243SOL    HW125628   0.312   3.377   5.190
 8243SOL    HW225629   0.192   3.267   5.197
 8244SOL     OW25630   2.742   5.265   4.995
 8244SOL    HW125631   2.758   5.167   4.996
 8244SOL    HW225632   2.645   5.283   4.979
 8245SOL     OW25633   4.219   3.865   1.255
 8245SOL    HW125634   4.310   3.824   1.253
 8245SOL    HW225635   4.163   3.817   1.322
 8246SOL     OW25636   5.426   3.238   4.839
 8246SOL    HW125637   5.505   3.192   4.799
 8246SOL    HW225638   5.369   3.276   4.766
 8247SOL     OW25639   1.231   6.356   6.733
 8247SOL    HW125640   1.288   6.418   6.679
 8247SOL    HW225641   1.272   6.264   6.732
 8248SOL     OW25642   0.216   4.004   3.492
 8248SOL    HW125643   0.204   3.950   3.575
 8248SOL    HW225644   0.290   4.070   3.505
 8249SOL     OW25645   1.153   5.367   3.016
 8249SOL    HW125646   1.160   5.450   3.071
 8249SOL    HW225647   1.070   5.370   2.960
 8250SOL     OW25648   3.149   3.425   2.429
 8250SOL    HW125649   3.200   3.437   2.514
 8250SOL    HW225650   3.132   3.514   2.387
 8251SOL     OW25651   5.685   0.605   4.721
 8251SOL    HW125652   5.652   0.595   4.627
 8251SOL    HW225653   5.691   0.702   4.744
 8252SOL     OW25654   1.036   3.802   4.110
 8252SOL    HW125655   0.972   3.863   4.157
 8252SOL    HW225656   1.120   3.793   4.165
 8253SOL     OW25657   3.187   3.462   5.689
 8253SOL    HW125658   3.143   3.394   5.629
 8253SOL    HW225659   3.119   3.500   5.751
 8254SOL     OW25660   4.722   5.581   2.814
 8254SOL    HW125661   4.641   5.629   2.848
 8254SOL    HW225662   4.702   5.544   2.723
 8255SOL     OW25663   3.852   5.014   3.499
 8255SOL    HW125664   3.812   5.058   3.580
 8255SOL    HW225665   3.791   5.027   3.421
 8256SOL     OW25666   5.327   2.523   3.190
 8256SOL    HW125667   5.400   2.460   3.215
 8256SOL    HW225668   5.262   2.477   3.130
 8257SOL     OW25669   6.337   4.178   4.181
 8257SOL    HW125670   6.428   4.202   4.146
 8257SOL    HW225671   6.335   4.190   4.280
 8258SOL     OW25672   5.218   1.930   6.677
 8258SOL    HW125673   5.314   1.954   6.661
 8258SOL    HW225674   5.200   1.927   6.775
 8259SOL     OW25675   4.818   0.646   1.092
 8259SOL    HW125676   4.890   0.653   1.022
 8259SOL    HW225677   4.747   0.583   1.060
 8260SOL     OW25678   3.594   5.773   6.451
 8260SOL    HW125679   3.547   5.813   6.373
 8260SOL    HW225680   3.565   5.819   6.535
 8261SOL     OW25681   5.001   1.431   1.657
 8261SOL    HW125682   4.943   1.354   1.683
 8261SOL    HW225683   5.094   1.416   1.690
 8262SOL     OW25684   6.598   2.473   1.509
 8262SOL    HW125685   6.575   2.452   1.604
 8262SOL    HW225686   6.696   2.492   1.502
 8263SOL     OW25687   5.685   1.555   0.647
 8263SOL    HW125688   5.603   1.611   0.657
 8263SOL    HW225689   5.731   1.577   0.561
 8264SOL     OW25690   1.509   4.291   1.521
 8264SOL    HW125691   1.484   4.278   1.425
 8264SOL    HW225692   1.446   4.238   1.579
 8265SOL     OW25693   1.886   0.780   2.559
 8265SOL    HW125694   1.790   0.757   2.571
 8265SOL    HW225695   1.910   0.857   2.619
 8266SOL     OW25696   3.260   0.814   2.959
 8266SOL    HW125697   3.277   0.855   3.049
 8266SOL    HW225698   3.186   0.865   2.914
 8267SOL     OW25699   0.164   3.836   0.687
 8267SOL    HW125700   0.138   3.836   0.590
 8267SOL    HW225701   0.103   3.896   0.738
 8268SOL     OW25702   2.922   5.210   6.815
 8268SOL    HW125703   2.890   5.135   6.756
 8268SOL    HW225704   2.999   5.177   6.871
 8269SOL     OW25705   6.037   1.981   0.154
 8269SOL    HW125706   5.993   2.020   0.235
 8269SOL    HW225707   6.136   1.983   0.166
 8270SOL     OW25708   2.571   6.207   4.463
 8270SOL    HW125709   2.511   6.132   4.491
 8270SOL    HW225710   2.613   6.185   4.375
 8271SOL     OW25711   0.310   2.217   2.986
 8271SOL    HW125712   0.321   2.311   2.955
 8271SOL    HW225713   0.389   2.163   2.957
 8272SOL     OW25714   3.139   1.402   4.104
 8272SOL    HW125715   3.069   1.433   4.039
 8272SOL    HW225716   3.227   1.440   4.077
 8273SOL     OW25717   1.555   6.301   2.218
 8273SOL    HW125718   1.488   6.369   2.189
 8273SOL    HW225719   1.563   6.302   2.317
 8274SOL     OW25720   5.242   4.088   3.689
 8274SOL    HW125721   5.157   4.133   3.661
 8274SOL    HW225722   5.312   4.102   3.619
 8275SOL     OW25723   5.555   2.286   0.062
 8275SOL    HW125724   5.622   2.355   0.090
 8275SOL    HW225725   5.545   2.288   6.978
 8276SOL     OW25726   0.700   1.712   2.558
 8276SOL    HW125727   0.601   1.706   2.546
 8276SOL    HW225728   0.738   1.620   2.570
 8277SOL     OW25729   0.187   1.451   0.254
 8277SOL    HW125730   0.281   1.418   0.244
 8277SOL    HW225731   0.124   1.380   0.223
 8278SOL     OW25732   1.391   2.503   0.716
 8278SOL    HW125733   1.476   2.542   0.681
 8278SOL    HW225734   1.330   2.481   0.640
 8279SOL     OW25735   0.183   5.869   3.639
 8279SOL    HW125736   0.097   5.888   3.685
 8279SOL    HW225737   0.215   5.952   3.593
 8280SOL     OW25738   3.408   2.565   6.049
 8280SOL    HW125739   3.442   2.587   5.958
 8280SOL    HW225740   3.334   2.627   6.074
 8281SOL     OW25741   4.437   5.241   2.378
 8281SOL    HW125742   4.416   5.158   2.430
 8281SOL    HW225743   4.398   5.321   2.424
 8282SOL     OW25744   6.596   2.934   6.273
 8282SOL    HW125745   6.546   2.964   6.355
 8282SOL    HW225746   6.531   2.892   6.209
 8283SOL     OW25747   2.134   2.822   5.904
 8283SOL    HW125748   2.071   2.891   5.869
 8283SOL    HW225749   2.193   2.789   5.831
 8284SOL     OW25750   6.311   4.747   1.794
 8284SOL    HW125751   6.353   4.773   1.881
 8284SOL    HW225752   6.212   4.748   1.803
 8285SOL     OW25753   4.059   3.263   3.675
 8285SOL    HW125754   4.117   3.289   3.752
 8285SOL    HW225755   3.964   3.285   3.696
 8286SOL     OW25756   0.508   2.578   6.853
 8286SOL    HW125757   0.429   2.638   6.869
 8286SOL    HW225758   0.484   2.485   6.880
 8287SOL     OW25759   1.493   7.014   4.155
 8287SOL    HW125760   1.464   0.044   4.071
 8287SOL    HW225761   1.460   6.920   4.154
 8288SOL     OW25762   2.749   1.779   3.117
 8288SOL    HW125763   2.823   1.735   3.168
 8288SOL    HW225764   2.787   1.842   3.050
 8289SOL     OW25765   0.361   6.342   0.037
 8289SOL    HW125766   0.369   6.320   0.135
 8289SOL    HW225767   0.405   6.430   0.020
 8290SOL     OW25768   6.236   2.242   1.059
 8290SOL    HW125769   6.178   2.307   1.009
 8290SOL    HW225770   6.306   2.293   1.110
 8291SOL     OW25771   4.098   0.813   0.659
 8291SOL    HW125772   4.013   0.865   0.674
 8291SOL    HW225773   4.151   0.811   0.743
 8292SOL     OW25774   2.939   0.509   6.093
 8292SOL    HW125775   2.977   0.569   6.022
 8292SOL    HW225776   2.898   0.429   6.049
 8293SOL     OW25777   6.160   5.447   5.184
 8293SOL    HW125778   6.164   5.350   5.209
 8293SOL    HW225779   6.137   5.456   5.087
 8294SOL     OW25780   6.133   3.231   0.032
 8294SOL    HW125781   6.069   3.285   6.994
 8294SOL    HW225782   6.093   3.211   0.122
 8295SOL     OW25783   4.992   3.068   6.749
 8295SOL    HW125784   4.942   3.021   6.676
 8295SOL    HW225785   5.031   3.000   6.811
 8296SOL     OW25786   0.860   5.062   5.730
 8296SOL    HW125787   0.843   5.103   5.640
 8296SOL    HW225788   0.958   5.048   5.742
 8297SOL     OW25789   1.441   2.805   3.794
 8297SOL    HW125790   1.426   2.898   3.827
 8297SOL    HW225791   1.534   2.797   3.756
 8298SOL     OW25792   4.635   1.672   1.787
 8298SOL    HW125793   4.570   1.742   1.758
 8298SOL    HW225794   4.698   1.652   1.712
 8299SOL     OW25795   6.039   2.381   1.904
 8299SOL    HW125796   6.123   2.434   1.917
 8299SOL    HW225797   6.045   2.329   1.819
 8300SOL     OW25798   1.817   5.303   2.932
 8300SOL    HW125799   1.911   5.338   2.926
 8300SOL    HW225800   1.812   5.236   3.007
 8301SOL     OW25801   2.762   1.600   6.175
 8301SOL    HW125802   2.782   1.621   6.270
 8301SOL    HW225803   2.784   1.679   6.117
 8302SOL     OW25804   6.072   5.907   5.622
 8302SOL    HW125805   6.049   5.895   5.525
 8302SOL    HW225806   6.102   6.001   5.638
 8303SOL     OW25807   6.885   0.185   6.739
 8303SOL    HW125808   6.985   0.177   6.742
 8303SOL    HW225809   6.849   0.120   6.672
 8304SOL     OW25810   0.122   3.205   0.691
 8304SOL    HW125811   0.159   3.284   0.642
 8304SOL    HW225812   0.178   3.124   0.671
 8305SOL     OW25813   3.187   5.307   2.837
 8305SOL    HW125814   3.287   5.312   2.827
 8305SOL    HW225815   3.163   5.223   2.884
 8306SOL     OW25816   1.821   3.100   4.035
 8306SOL    HW125817   1.780   3.047   3.961
 8306SOL    HW225818   1.866   3.181   3.996
 8307SOL     OW25819   3.988   6.020   0.968
 8307SOL    HW125820   3.908   6.080   0.957
 8307SOL    HW225821   3.961   5.940   1.022
 8308SOL     OW25822   2.957   0.635   1.887
 8308SOL    HW125823   3.029   0.703   1.871
 8308SOL    HW225824   2.880   0.652   1.826
 8309SOL     OW25825   5.977   6.640   2.233
 8309SOL    HW125826   5.880   6.617   2.230
 8309SOL    HW225827   5.990   6.725   2.284
 8310SOL     OW25828   6.190   4.757   6.448
 8310SOL    HW125829   6.276   4.769   6.399
 8310SOL    HW225830   6.141   4.678   6.410
 8311SOL     OW25831   6.507   0.161   6.189
 8311SOL    HW125832   6.437   0.220   6.228
 8311SOL    HW225833   6.597   0.194   6.218
 8312SOL     OW25834   4.885   6.354   1.441
 8312SOL    HW125835   4.856   6.302   1.361
 8312SOL    HW225836   4.819   6.427   1.459
 8313SOL     OW25837   4.133   1.537   2.924
 8313SOL    HW125838   4.150   1.529   3.022
 8313SOL    HW225839   4.048   1.589   2.909
 8314SOL     OW25840   0.388   6.839   3.399
 8314SOL    HW125841   0.411   6.742   3.388
 8314SOL    HW225842   0.460   6.894   3.356
 8315SOL     OW25843   5.154   4.539   6.623
 8315SOL    HW125844   5.081   4.602   6.599
 8315SOL    HW225845   5.211   4.522   6.542
 8316SOL     OW25846   2.842   5.461   6.578
 8316SOL    HW125847   2.856   5.375   6.628
 8316SOL    HW225848   2.745   5.473   6.558
 8317SOL     OW25849   2.503   4.450   1.300
 8317SOL    HW125850   2.407   4.472   1.319
 8317SOL    HW225851   2.509   4.385   1.225
 8318SOL     OW25852   3.114   1.324   5.600
 8318SOL    HW125853   3.082   1.248   5.544
 8318SOL    HW225854   3.075   1.409   5.566
 8319SOL     OW25855   2.741   0.438   5.717
 8319SOL    HW125856   2.728   0.452   5.619
 8319SOL    HW225857   2.789   0.517   5.756
 8320SOL     OW25858   4.165   5.106   1.370
 8320SOL    HW125859   4.258   5.141   1.375
 8320SOL    HW225860   4.166   5.014   1.330
 8321SOL     OW25861   6.627   0.789   1.064
 8321SOL    HW125862   6.618   0.701   1.016
 8321SOL    HW225863   6.723   0.808   1.080
 8322SOL     OW25864   5.284   0.043   0.350
 8322SOL    HW125865   5.378   0.018   0.373
 8322SOL    HW225866   5.237   6.979   0.312
 8323SOL     OW25867   1.871   0.808   1.726
 8323SOL    HW125868   1.871   0.852   1.815
 8323SOL    HW225869   1.792   0.746   1.720
 8324SOL     OW25870   6.983   0.966   2.346
 8324SOL    HW125871   0.049   1.015   2.376
 8324SOL    HW225872   7.005   0.870   2.331
 8325SOL     OW25873   4.028   3.922   4.691
 8325SOL    HW125874   4.061   3.935   4.785
 8325SOL    HW225875   4.060   3.834   4.656
 8326SOL     OW25876   4.148   2.945   6.348
 8326SOL    HW125877   4.057   2.966   6.385
 8326SOL    HW225878   4.217   2.987   6.406
 8327SOL     OW25879   5.424   2.601   5.993
 8327SOL    HW125880   5.350   2.594   5.925
 8327SOL    HW225881   5.489   2.671   5.964
 8328SOL     OW25882   2.102   2.747   3.889
 8328SOL    HW125883   2.196   2.742   3.856
 8328SOL    HW225884   2.093   2.693   3.972
 8329SOL     OW25885   0.550   2.640   4.740
 8329SOL    HW125886   0.516   2.587   4.662
 8329SOL    HW225887   0.650   2.640   4.738
 8330SOL     OW25888   2.324   6.758   0.392
 8330SOL    HW125889   2.283   6.850   0.391
 8330SOL    HW225890   2.422   6.765   0.376
 8331SOL     OW25891   2.793   0.088   1.086
 8331SOL    HW125892   2.858   0.162   1.105
 8331SOL    HW225893   2.780   0.081   0.987
 8332SOL     OW25894   4.695   6.053   3.631
 8332SOL    HW125895   4.601   6.041   3.662
 8332SOL    HW225896   4.745   6.110   3.697
 8333SOL     OW25897   1.736   5.173   5.691
 8333SOL    HW125898   1.813   5.191   5.753
 8333SOL    HW225899   1.677   5.253   5.687
 8334SOL     OW25900   6.499   6.847   4.047
 8334SOL    HW125901   6.522   6.927   3.992
 8334SOL    HW225902   6.574   6.827   4.110
 8335SOL     OW25903   6.454   6.316   5.210
 8335SOL    HW125904   6.508   6.360   5.281
 8335SOL    HW225905   6.467   6.217   5.213
 8336SOL     OW25906   1.164   1.819   2.699
 8336SOL    HW125907   1.226   1.771   2.637
 8336SOL    HW225908   1.169   1.917   2.682
 8337SOL     OW25909   0.507   6.685   2.296
 8337SOL    HW125910   0.470   6.615   2.234
 8337SOL    HW225911   0.581   6.646   2.349
 8338SOL     OW25912   2.289   5.017   0.621
 8338SOL    HW125913   2.274   5.062   0.709
 8338SOL    HW225914   2.249   4.925   0.625
 8339SOL     OW25915   5.857   0.916   3.151
 8339SOL    HW125916   5.778   0.962   3.193
 8339SOL    HW225917   5.851   0.927   3.052
 8340SOL     OW25918   4.539   3.925   1.637
 8340SOL    HW125919   4.500   4.017   1.628
 8340SOL    HW225920   4.470   3.857   1.614
 8341SOL     OW25921   2.329   7.009   0.657
 8341SOL    HW125922   2.328   0.027   0.563
 8341SOL    HW225923   2.396   0.045   0.711
 8342SOL     OW25924   5.115   6.843   1.324
 8342SOL    HW125925   5.064   6.807   1.402
 8342SOL    HW225926   5.177   6.915   1.354
 8343SOL     OW25927   0.556   5.001   5.471
 8343SOL    HW125928   0.639   5.003   5.415
 8343SOL    HW225929   0.582   4.994   5.568
 8344SOL     OW25930   3.826   6.995   4.866
 8344SOL    HW125931   3.793   0.047   4.801
 8344SOL    HW225932   3.790   7.016   4.957
 8345SOL     OW25933   6.327   1.477   3.038
 8345SOL    HW125934   6.353   1.556   3.094
 8345SOL    HW225935   6.266   1.417   3.090
 8346SOL     OW25936   3.856   5.087   2.362
 8346SOL    HW125937   3.807   5.162   2.405
 8346SOL    HW225938   3.795   5.036   2.302
 8347SOL     OW25939   3.214   5.194   4.483
 8347SOL    HW125940   3.132   5.147   4.515
 8347SOL    HW225941   3.278   5.127   4.444
 8348SOL     OW25942   1.753   0.640   0.769
 8348SOL    HW125943   1.747   0.739   0.757
 8348SOL    HW225944   1.685   0.595   0.711
 8349SOL     OW25945   6.265   5.446   1.697
 8349SOL    HW125946   6.214   5.418   1.779
 8349SOL    HW225947   6.227   5.532   1.662
 8350SOL     OW25948   6.337   0.944   5.026
 8350SOL    HW125949   6.427   0.953   4.982
 8350SOL    HW225950   6.333   0.857   5.074
 8351SOL     OW25951   2.841   5.949   2.263
 8351SOL    HW125952   2.853   6.025   2.200
 8351SOL    HW225953   2.861   5.980   2.356
 8352SOL     OW25954   6.547   5.855   1.919
 8352SOL    HW125955   6.586   5.786   1.858
 8352SOL    HW225956   6.472   5.813   1.971
 8353SOL     OW25957   1.597   3.440   2.158
 8353SOL    HW125958   1.530   3.413   2.226
 8353SOL    HW225959   1.667   3.369   2.151
 8354SOL     OW25960   3.012   0.529   0.327
 8354SOL    HW125961   3.049   0.530   0.419
 8354SOL    HW225962   2.912   0.540   0.331
 8355SOL     OW25963   3.156   1.178   0.881
 8355SOL    HW125964   3.246   1.209   0.911
 8355SOL    HW225965   3.126   1.101   0.938
 8356SOL     OW25966   3.046   5.380   0.175
 8356SOL    HW125967   3.134   5.347   0.209
 8356SOL    HW225968   3.032   5.474   0.203
 8357SOL     OW25969   4.285   5.946   2.982
 8357SOL    HW125970   4.327   5.892   3.055
 8357SOL    HW225971   4.212   5.893   2.939
 8358SOL     OW25972   2.979   2.051   5.130
 8358SOL    HW125973   3.023   1.986   5.068
 8358SOL    HW225974   3.017   2.142   5.115
 8359SOL     OW25975   4.060   4.806   3.468
 8359SOL    HW125976   4.100   4.808   3.376
 8359SOL    HW225977   3.992   4.878   3.477
 8360SOL     OW25978   4.134   0.411   3.110
 8360SOL    HW125979   4.197   0.356   3.055
 8360SOL    HW225980   4.080   0.351   3.169
 8361SOL     OW25981   1.371   0.331   2.858
 8361SOL    HW125982   1.358   0.376   2.770
 8361SOL    HW225983   1.440   0.381   2.911
 8362SOL     OW25984   2.174   2.991   0.462
 8362SOL    HW125985   2.126   2.961   0.544
 8362SOL    HW225986   2.200   3.087   0.471
 8363SOL     OW25987   0.525   3.594   1.518
 8363SOL    HW125988   0.596   3.663   1.503
 8363SOL    HW225989   0.514   3.539   1.434
 8364SOL     OW25990   6.934   4.515   5.487
 8364SOL    HW125991   0.001   4.508   5.432
 8364SOL    HW225992   6.869   4.575   5.441
 8365SOL     OW25993   1.200   3.633   6.070
 8365SOL    HW125994   1.128   3.576   6.107
 8365SOL    HW225995   1.203   3.625   5.970
 8366SOL     OW25996   2.417   6.987   2.544
 8366SOL    HW125997   2.331   0.021   2.535
 8366SOL    HW225998   2.446   6.988   2.640
 8367SOL     OW25999   5.025   5.517   3.717
 8367SOL    HW126000   4.955   5.586   3.699
 8367SOL    HW226001   5.014   5.481   3.810
 8368SOL     OW26002   3.198   5.696   6.112
 8368SOL    HW126003   3.237   5.763   6.049
 8368SOL    HW226004   3.208   5.604   6.073
 8369SOL     OW26005   2.666   1.764   1.310
 8369SOL    HW126006   2.569   1.781   1.329
 8369SOL    HW226007   2.719   1.772   1.395
 8370SOL     OW26008   2.076   1.457   6.892
 8370SOL    HW126009   2.110   1.542   6.854
 8370SOL    HW226010   2.056   1.393   6.818
 8371SOL     OW26011   1.660   2.217   0.231
 8371SOL    HW126012   1.580   2.267   0.264
 8371SOL    HW226013   1.702   2.166   0.306
 8372SOL     OW26014   6.694   0.453   0.660
 8372SOL    HW126015   6.625   0.390   0.695
 8372SOL    HW226016   6.783   0.407   0.661
 8373SOL     OW26017   1.617   6.650   4.272
 8373SOL    HW126018   1.624   6.550   4.273
 8373SOL    HW226019   1.527   6.677   4.239
 8374SOL     OW26020   6.681   0.691   5.991
 8374SOL    HW126021   6.715   0.597   5.992
 8374SOL    HW226022   6.582   0.690   5.976
 8375SOL     OW26023   4.139   0.590   6.071
 8375SOL    HW126024   4.150   0.631   6.161
 8375SOL    HW226025   4.153   0.491   6.077
 8376SOL     OW26026   4.398   0.269   4.405
 8376SOL    HW126027   4.321   0.213   4.372
 8376SOL    HW226028   4.425   0.333   4.333
 8377SOL     OW26029   5.925   4.884   0.879
 8377SOL    HW126030   5.967   4.839   0.800
 8377SOL    HW226031   5.996   4.919   0.939
 8378SOL     OW26032   4.808   2.940   3.608
 8378SOL    HW126033   4.810   3.012   3.539
 8378SOL    HW226034   4.896   2.893   3.610
 8379SOL     OW26035   5.107   2.960   2.307
 8379SOL    HW126036   5.150   2.986   2.393
 8379SOL    HW226037   5.141   3.019   2.233
 8380SOL     OW26038   5.680   1.621   3.685
 8380SOL    HW126039   5.737   1.685   3.634
 8380SOL    HW226040   5.708   1.528   3.665
 8381SOL     OW26041   1.910   5.440   4.164
 8381SOL    HW126042   1.924   5.537   4.184
 8381SOL    HW226043   1.831   5.431   4.102
 8382SOL     OW26044   0.644   4.502   1.983
 8382SOL    HW126045   0.604   4.591   2.004
 8382SOL    HW226046   0.713   4.480   2.051
 8383SOL     OW26047   3.460   1.438   5.720
 8383SOL    HW126048   3.546   1.416   5.673
 8383SOL    HW226049   3.402   1.357   5.724
 8384SOL     OW26050   0.945   6.813   1.606
 8384SOL    HW126051   0.896   6.828   1.520
 8384SOL    HW226052   0.883   6.771   1.672
 8385SOL     OW26053   4.176   1.611   1.017
 8385SOL    HW126054   4.103   1.679   1.005
 8385SOL    HW226055   4.149   1.546   1.087
 8386SOL     OW26056   0.482   3.476   2.247
 8386SOL    HW126057   0.512   3.422   2.325
 8386SOL    HW226058   0.559   3.490   2.185
 8387SOL     OW26059   1.205   2.015   1.884
 8387SOL    HW126060   1.123   1.994   1.937
 8387SOL    HW226061   1.196   1.978   1.791
 8388SOL     OW26062   0.878   6.531   2.870
 8388SOL    HW126063   0.783   6.518   2.900
 8388SOL    HW226064   0.909   6.622   2.899
 8389SOL     OW26065   5.828   3.059   3.518
 8389SOL    HW126066   5.797   3.154   3.520
 8389SOL    HW226067   5.749   2.998   3.521
 8390SOL     OW26068   5.952   2.007   6.466
 8390SOL    HW126069   5.926   1.913   6.443
 8390SOL    HW226070   6.012   2.044   6.396
 8391SOL     OW26071   6.506   6.953   1.166
 8391SOL    HW126072   6.562   0.008   1.123
 8391SOL    HW226073   6.507   6.966   1.265
 8392SOL     OW26074   3.659   3.147   5.018
 8392SOL    HW126075   3.621   3.057   5.000
 8392SOL    HW226076   3.756   3.138   5.043
 8393SOL     OW26077   5.600   7.002   1.257
 8393SOL    HW126078   5.611   6.923   1.317
 8393SOL    HW226079   5.606   0.070   1.312
 8394SOL     OW26080   5.915   2.847   2.409
 8394SOL    HW126081   5.937   2.749   2.414
 8394SOL    HW226082   5.990   2.900   2.448
 8395SOL     OW26083   2.525   0.762   4.921
 8395SOL    HW126084   2.442   0.792   4.968
 8395SOL    HW226085   2.586   0.841   4.909
 8396SOL     OW26086   5.023   5.102   4.490
 8396SOL    HW126087   5.066   5.146   4.411
 8396SOL    HW226088   4.949   5.041   4.459
 8397SOL     OW26089   6.400   6.809   2.685
 8397SOL    HW126090   6.406   6.719   2.641
 8397SOL    HW226091   6.358   6.800   2.775
 8398SOL     OW26092   5.924   1.751   6.448
 8398SOL    HW126093   5.854   1.681   6.462
 8398SOL    HW226094   6.003   1.710   6.402
 8399SOL     OW26095   0.433   4.469   2.287
 8399SOL    HW126096   0.385   4.523   2.356
 8399SOL    HW226097   0.473   4.388   2.329
 8400SOL     OW26098   1.016   0.953   5.108
 8400SOL    HW126099   1.068   0.930   5.191
 8400SOL    HW226100   1.007   1.052   5.101
 8401SOL     OW26101   2.139   0.315   5.823
 8401SOL    HW126102   2.120   0.217   5.835
 8401SOL    HW226103   2.206   0.344   5.892
 8402SOL     OW26104   2.879   0.458   6.355
 8402SOL    HW126105   2.964   0.482   6.403
 8402SOL    HW226106   2.895   0.465   6.256
 8403SOL     OW26107   5.709   5.002   5.021
 8403SOL    HW126108   5.637   5.070   5.024
 8403SOL    HW226109   5.669   4.911   5.013
 8404SOL     OW26110   1.177   1.446   0.100
 8404SOL    HW126111   1.239   1.516   0.137
 8404SOL    HW226112   1.097   1.438   0.159
 8405SOL     OW26113   4.096   6.832   5.533
 8405SOL    HW126114   4.129   6.764   5.468
 8405SOL    HW226115   4.080   6.918   5.486
 8406SOL     OW26116   5.727   0.518   5.799
 8406SOL    HW126117   5.652   0.577   5.767
 8406SOL    HW226118   5.813   0.569   5.796
 8407SOL     OW26119   4.436   0.751   4.493
 8407SOL    HW126120   4.505   0.806   4.446
 8407SOL    HW226121   4.461   0.742   4.590
 8408SOL     OW26122   3.984   2.128   1.536
 8408SOL    HW126123   4.065   2.074   1.557
 8408SOL    HW226124   3.935   2.150   1.620
 8409SOL     OW26125   4.300   2.427   1.928
 8409SOL    HW126126   4.356   2.500   1.887
 8409SOL    HW226127   4.312   2.428   2.027
 8410SOL     OW26128   0.130   1.642   1.495
 8410SOL    HW126129   0.125   1.544   1.478
 8410SOL    HW226130   0.101   1.692   1.413
 8411SOL     OW26131   1.082   5.792   1.026
 8411SOL    HW126132   1.071   5.734   0.945
 8411SOL    HW226133   1.122   5.739   1.100
 8412SOL     OW26134   2.598   2.904   6.985
 8412SOL    HW126135   2.552   2.908   6.897
 8412SOL    HW226136   2.696   2.920   6.973
 8413SOL     OW26137   3.839   5.764   4.658
 8413SOL    HW126138   3.853   5.703   4.580
 8413SOL    HW226139   3.856   5.859   4.630
 8414SOL     OW26140   2.015   6.730   0.657
 8414SOL    HW126141   2.025   6.828   0.643
 8414SOL    HW226142   2.039   6.708   0.752
 8415SOL     OW26143   3.343   1.485   6.334
 8415SOL    HW126144   3.413   1.413   6.329
 8415SOL    HW226145   3.261   1.449   6.379
 8416SOL     OW26146   0.917   2.520   5.006
 8416SOL    HW126147   0.985   2.447   5.010
 8416SOL    HW226148   0.907   2.561   5.097
 8417SOL     OW26149   1.853   3.576   5.944
 8417SOL    HW126150   1.875   3.569   6.041
 8417SOL    HW226151   1.916   3.518   5.891
 8418SOL     OW26152   0.410   6.153   2.293
 8418SOL    HW126153   0.314   6.173   2.272
 8418SOL    HW226154   0.418   6.060   2.328
 8419SOL     OW26155   3.625   1.553   4.469
 8419SOL    HW126156   3.581   1.585   4.553
 8419SOL    HW226157   3.600   1.612   4.393
 8420SOL     OW26158   3.532   1.104   2.332
 8420SOL    HW126159   3.614   1.159   2.340
 8420SOL    HW226160   3.453   1.157   2.364
 8421SOL     OW26161   4.625   0.063   6.875
 8421SOL    HW126162   4.543   0.118   6.862
 8421SOL    HW226163   4.638   0.003   6.796
 8422SOL     OW26164   5.103   2.184   4.029
 8422SOL    HW126165   5.077   2.226   4.116
 8422SOL    HW226166   5.025   2.131   3.994
 8423SOL     OW26167   6.280   5.817   0.328
 8423SOL    HW126168   6.363   5.799   0.277
 8423SOL    HW226169   6.280   5.765   0.413
 8424SOL     OW26170   3.001   0.603   5.394
 8424SOL    HW126171   3.009   0.566   5.487
 8424SOL    HW226172   2.936   0.548   5.343
 8425SOL     OW26173   3.607   3.520   2.166
 8425SOL    HW126174   3.567   3.608   2.192
 8425SOL    HW226175   3.568   3.447   2.222
 8426SOL     OW26176   3.558   3.393   1.667
 8426SOL    HW126177   3.497   3.315   1.676
 8426SOL    HW226178   3.541   3.439   1.580
 8427SOL     OW26179   4.003   3.212   2.920
 8427SOL    HW126180   4.041   3.260   2.841
 8427SOL    HW226181   3.959   3.128   2.890
 8428SOL     OW26182   5.722   0.172   2.132
 8428SOL    HW126183   5.775   0.091   2.110
 8428SOL    HW226184   5.644   0.146   2.189
 8429SOL     OW26185   3.317   6.090   5.257
 8429SOL    HW126186   3.341   6.039   5.175
 8429SOL    HW226187   3.265   6.031   5.319
 8430SOL     OW26188   5.267   6.576   5.370
 8430SOL    HW126189   5.299   6.598   5.278
 8430SOL    HW226190   5.196   6.641   5.397
 8431SOL     OW26191   2.199   3.099   6.077
 8431SOL    HW126192   2.191   3.008   6.038
 8431SOL    HW226193   2.109   3.132   6.104
 8432SOL     OW26194   6.473   5.392   5.911
 8432SOL    HW126195   6.483   5.309   5.966
 8432SOL    HW226196   6.537   5.461   5.944
 8433SOL     OW26197   4.911   2.122   1.024
 8433SOL    HW126198   4.963   2.142   1.108
 8433SOL    HW226199   4.816   2.103   1.048
 8434SOL     OW26200   2.970   6.258   4.891
 8434SOL    HW126201   2.951   6.298   4.981
 8434SOL    HW226202   3.068   6.240   4.883
 8435SOL     OW26203   6.356   1.857   3.033
 8435SOL    HW126204   6.304   1.807   2.964
 8435SOL    HW226205   6.441   1.892   2.992
 8436SOL     OW26206   1.836   5.512   2.676
 8436SOL    HW126207   1.741   5.482   2.674
 8436SOL    HW226208   1.840   5.610   2.698
 8437SOL     OW26209   1.874   5.960   0.600
 8437SOL    HW126210   1.845   5.944   0.506
 8437SOL    HW226211   1.879   5.873   0.649
 8438SOL     OW26212   1.038   4.147   2.816
 8438SOL    HW126213   0.950   4.114   2.783
 8438SOL    HW226214   1.026   4.194   2.903
 8439SOL     OW26215   6.331   4.165   2.576
 8439SOL    HW126216   6.392   4.088   2.559
 8439SOL    HW226217   6.326   4.182   2.675
 8440SOL     OW26218   1.615   1.824   2.290
 8440SOL    HW126219   1.564   1.909   2.282
 8440SOL    HW226220   1.602   1.785   2.381
 8441SOL     OW26221   6.888   2.535   5.945
 8441SOL    HW126222   6.926   2.618   5.905
 8441SOL    HW226223   6.923   2.455   5.896
 8442SOL     OW26224   3.876   2.598   7.002
 8442SOL    HW126225   3.816   2.523   6.976
 8442SOL    HW226226   3.881   2.665   6.928
 8443SOL     OW26227   2.121   4.293   2.884
 8443SOL    HW126228   2.077   4.326   2.801
 8443SOL    HW226229   2.218   4.318   2.883
 8444SOL     OW26230   5.742   5.243   4.688
 8444SOL    HW126231   5.810   5.312   4.665
 8444SOL    HW226232   5.788   5.156   4.709
 8445SOL     OW26233   4.554   6.456   6.809
 8445SOL    HW126234   4.508   6.517   6.745
 8445SOL    HW226235   4.486   6.417   6.872
 8446SOL     OW26236   6.560   5.703   4.457
 8446SOL    HW126237   6.544   5.799   4.435
 8446SOL    HW226238   6.487   5.669   4.516
 8447SOL     OW26239   3.694   1.908   4.340
 8447SOL    HW126240   3.746   1.940   4.419
 8447SOL    HW226241   3.639   1.984   4.304
 8448SOL     OW26242   3.253   6.298   3.065
 8448SOL    HW126243   3.264   6.270   2.969
 8448SOL    HW226244   3.206   6.387   3.068
 8449SOL     OW26245   1.475   2.446   4.080
 8449SOL    HW126246   1.540   2.390   4.130
 8449SOL    HW226247   1.459   2.532   4.130
 8450SOL     OW26248   6.774   0.947   0.591
 8450SOL    HW126249   6.687   0.989   0.618
 8450SOL    HW226250   6.825   1.011   0.533
 8451SOL     OW26251   3.997   2.874   1.427
 8451SOL    HW126252   3.911   2.924   1.433
 8451SOL    HW226253   4.011   2.844   1.332
 8452SOL     OW26254   5.009   1.040   5.793
 8452SOL    HW126255   4.922   1.082   5.768
 8452SOL    HW226256   5.064   1.107   5.844
 8453SOL     OW26257   0.038   0.341   0.190
 8453SOL    HW126258   0.106   0.339   0.263
 8453SOL    HW226259   6.986   0.412   0.210
 8454SOL     OW26260   6.343   6.026   6.480
 8454SOL    HW126261   6.337   5.932   6.447
 8454SOL    HW226262   6.438   6.057   6.474
 8455SOL     OW26263   6.392   0.830   2.600
 8455SOL    HW126264   6.439   0.871   2.522
 8455SOL    HW226265   6.346   0.746   2.570
 8456SOL     OW26266   0.039   0.392   2.082
 8456SOL    HW126267   6.997   0.472   2.065
 8456SOL    HW226268   0.064   0.388   2.179
 8457SOL     OW26269   6.920   0.163   4.751
 8457SOL    HW126270   6.994   0.158   4.818
 8457SOL    HW226271   6.852   0.092   4.770
 8458SOL     OW26272   0.790   6.919   6.864
 8458SOL    HW126273   0.776   6.823   6.839
 8458SOL    HW226274   0.782   6.929   6.963
 8459SOL     OW26275   0.756   5.621   3.009
 8459SOL    HW126276   0.795   5.687   3.073
 8459SOL    HW226277   0.661   5.604   3.032
 8460SOL     OW26278   4.125   3.535   3.310
 8460SOL    HW126279   4.119   3.501   3.216
 8460SOL    HW226280   4.217   3.570   3.327
 8461SOL     OW26281   6.277   3.297   3.745
 8461SOL    HW126282   6.216   3.353   3.801
 8461SOL    HW226283   6.227   3.219   3.709
 8462SOL     OW26284   2.647   2.536   1.823
 8462SOL    HW126285   2.739   2.505   1.844
 8462SOL    HW226286   2.593   2.460   1.788
 8463SOL     OW26287   6.200   0.433   1.780
 8463SOL    HW126288   6.204   0.530   1.802
 8463SOL    HW226289   6.242   0.416   1.691
 8464SOL     OW26290   6.891   1.143   4.294
 8464SOL    HW126291   6.898   1.243   4.288
 8464SOL    HW226292   6.906   1.114   4.389
 8465SOL     OW26293   2.041   1.616   0.624
 8465SOL    HW126294   1.981   1.618   0.704
 8465SOL    HW226295   2.104   1.539   0.632
 8466SOL     OW26296   0.660   0.211   4.204
 8466SOL    HW126297   0.591   0.283   4.211
 8466SOL    HW226298   0.615   0.122   4.198
 8467SOL     OW26299   4.279   5.304   0.759
 8467SOL    HW126300   4.375   5.274   0.756
 8467SOL    HW226301   4.275   5.400   0.786
 8468SOL     OW26302   3.428   2.431   0.114
 8468SOL    HW126303   3.391   2.507   0.060
 8468SOL    HW226304   3.487   2.375   0.056
 8469SOL     OW26305   4.492   2.349   5.788
 8469SOL    HW126306   4.504   2.445   5.763
 8469SOL    HW226307   4.404   2.337   5.835
 8470SOL     OW26308   2.119   3.041   7.012
 8470SOL    HW126309   2.116   3.129   0.044
 8470SOL    HW226310   2.122   2.967   0.064
 8471SOL     OW26311   4.527   1.754   4.974
 8471SOL    HW126312   4.482   1.668   4.950
 8471SOL    HW226313   4.461   1.829   4.969
 8472SOL     OW26314   1.279   6.610   2.824
 8472SOL    HW126315   1.352   6.577   2.764
 8472SOL    HW226316   1.193   6.610   2.774
 8473SOL     OW26317   6.642   5.815   6.514
 8473SOL    HW126318   6.739   5.820   6.536
 8473SOL    HW226319   6.630   5.755   6.435
 8474SOL     OW26320   4.136   5.752   0.313
 8474SOL    HW126321   4.127   5.662   0.356
 8474SOL    HW226322   4.154   5.820   0.383
 8475SOL     OW26323   4.674   2.009   2.603
 8475SOL    HW126324   4.735   2.019   2.523
 8475SOL    HW226325   4.660   1.912   2.622
 8476SOL     OW26326   4.411   0.435   2.991
 8476SOL    HW126327   4.449   0.423   3.083
 8476SOL    HW226328   4.474   0.492   2.937
 8477SOL     OW26329   3.244   6.830   3.161
 8477SOL    HW126330   3.159   6.879   3.183
 8477SOL    HW226331   3.255   6.826   3.062
 8478SOL     OW26332   1.335   0.211   5.818
 8478SOL    HW126333   1.366   0.282   5.755
 8478SOL    HW226334   1.260   0.246   5.873
 8479SOL     OW26335   5.413   0.774   2.384
 8479SOL    HW126336   5.324   0.740   2.414
 8479SOL    HW226337   5.465   0.806   2.463
 8480SOL     OW26338   1.784   1.231   1.318
 8480SOL    HW126339   1.691   1.267   1.324
 8480SOL    HW226340   1.789   1.143   1.366
 8481SOL     OW26341   4.272   0.350   5.680
 8481SOL    HW126342   4.288   0.369   5.583
 8481SOL    HW226343   4.237   0.257   5.691
 8482SOL     OW26344   0.030   0.565   1.555
 8482SOL    HW126345   0.041   0.509   1.472
 8482SOL    HW226346   0.094   0.641   1.553
 8483SOL     OW26347   5.123   6.225   2.018
 8483SOL    HW126348   5.126   6.125   2.007
 8483SOL    HW226349   5.112   6.248   2.114
 8484SOL     OW26350   6.736   4.782   5.644
 8484SOL    HW126351   6.826   4.811   5.674
 8484SOL    HW226352   6.675   4.861   5.639
 8485SOL     OW26353   1.954   3.247   6.147
 8485SOL    HW126354   1.915   3.201   6.227
 8485SOL    HW226355   1.988   3.337   6.174
 8486SOL     OW26356   4.406   0.882   2.266
 8486SOL    HW126357   4.369   0.802   2.313
 8486SOL    HW226358   4.418   0.957   2.331
 8487SOL     OW26359   4.449   0.682   0.746
 8487SOL    HW126360   4.414   0.770   0.778
 8487SOL    HW226361   4.379   0.635   0.692
 8488SOL     OW26362   6.677   3.707   5.382
 8488SOL    HW126363   6.764   3.736   5.342
 8488SOL    HW226364   6.675   3.731   5.479
 8489SOL     OW26365   2.954   6.852   3.188
 8489SOL    HW126366   2.881   6.828   3.124
 8489SOL    HW226367   2.948   6.793   3.269
 8490SOL     OW26368   4.014   5.167   2.864
 8490SOL    HW126369   4.053   5.216   2.787
 8490SOL    HW226370   4.038   5.070   2.857
 8491SOL     OW26371   1.011   0.923   1.414
 8491SOL    HW126372   0.950   0.856   1.372
 8491SOL    HW226373   0.957   0.990   1.464
 8492SOL     OW26374   5.755   3.851   4.719
 8492SOL    HW126375   5.816   3.774   4.701
 8492SOL    HW226376   5.706   3.875   4.636
 8493SOL     OW26377   3.405   2.885   1.143
 8493SOL    HW126378   3.390   2.879   1.241
 8493SOL    HW226379   3.388   2.796   1.101
 8494SOL     OW26380   3.611   6.218   6.699
 8494SOL    HW126381   3.567   6.263   6.776
 8494SOL    HW226382   3.572   6.128   6.686
 8495SOL     OW26383   0.657   2.824   6.753
 8495SOL    HW126384   0.633   2.796   6.660
 8495SOL    HW226385   0.615   2.762   6.819
 8496SOL     OW26386   0.892   2.122   3.511
 8496SOL    HW126387   0.933   2.032   3.527
 8496SOL    HW226388   0.963   2.192   3.519
 8497SOL     OW26389   5.509   3.925   3.608
 8497SOL    HW126390   5.537   3.993   3.540
 8497SOL    HW226391   5.442   3.863   3.567
 8498SOL     OW26392   6.862   0.730   1.417
 8498SOL    HW126393   6.878   0.826   1.442
 8498SOL    HW226394   6.896   0.670   1.489
 8499SOL     OW26395   0.155   4.349   0.554
 8499SOL    HW126396   0.170   4.429   0.495
 8499SOL    HW226397   0.240   4.327   0.602
 8500SOL     OW26398   2.441   0.397   5.658
 8500SOL    HW126399   2.518   0.334   5.647
 8500SOL    HW226400   2.465   0.468   5.724
 8501SOL     OW26401   2.615   3.696   6.232
 8501SOL    HW126402   2.670   3.672   6.312
 8501SOL    HW226403   2.675   3.730   6.159
 8502SOL     OW26404   0.743   6.751   1.411
 8502SOL    HW126405   0.754   6.653   1.430
 8502SOL    HW226406   0.731   6.764   1.312
 8503SOL     OW26407   3.723   5.645   3.401
 8503SOL    HW126408   3.817   5.646   3.436
 8503SOL    HW226409   3.725   5.642   3.301
 8504SOL     OW26410   1.273   4.853   3.110
 8504SOL    HW126411   1.227   4.938   3.135
 8504SOL    HW226412   1.331   4.823   3.186
 8505SOL     OW26413   4.539   2.150   3.499
 8505SOL    HW126414   4.630   2.192   3.499
 8505SOL    HW226415   4.508   2.138   3.594
 8506SOL     OW26416   0.790   5.744   6.752
 8506SOL    HW126417   0.813   5.822   6.810
 8506SOL    HW226418   0.715   5.769   6.691
 8507SOL     OW26419   1.684   0.522   4.523
 8507SOL    HW126420   1.604   0.472   4.490
 8507SOL    HW226421   1.762   0.460   4.527
 8508SOL     OW26422   0.636   3.623   5.473
 8508SOL    HW126423   0.666   3.555   5.405
 8508SOL    HW226424   0.561   3.585   5.527
 8509SOL     OW26425   5.867   2.105   5.084
 8509SOL    HW126426   5.899   2.057   5.003
 8509SOL    HW226427   5.767   2.109   5.084
 8510SOL     OW26428   4.905   6.991   2.582
 8510SOL    HW126429   4.879   0.071   2.598
 8510SOL    HW226430   4.833   6.946   2.528
 8511SOL     OW26431   6.775   5.421   1.737
 8511SOL    HW126432   6.696   5.384   1.785
 8511SOL    HW226433   6.753   5.510   1.698
 8512SOL     OW26434   4.017   3.017   1.039
 8512SOL    HW126435   3.934   2.962   1.026
 8512SOL    HW226436   3.991   3.113   1.047
 8513SOL     OW26437   0.547   3.199   0.687
 8513SOL    HW126438   0.622   3.166   0.630
 8513SOL    HW226439   0.582   3.220   0.778
 8514SOL     OW26440   2.268   2.883   4.787
 8514SOL    HW126441   2.323   2.806   4.755
 8514SOL    HW226442   2.309   2.922   4.870
 8515SOL     OW26443   2.732   0.945   0.288
 8515SOL    HW126444   2.829   0.964   0.305
 8515SOL    HW226445   2.723   0.856   0.242
 8516SOL     OW26446   6.265   3.279   4.845
 8516SOL    HW126447   6.182   3.293   4.899
 8516SOL    HW226448   6.299   3.367   4.812
 8517SOL     OW26449   1.640   1.878   5.857
 8517SOL    HW126450   1.544   1.849   5.855
 8517SOL    HW226451   1.644   1.977   5.875
 8518SOL     OW26452   5.526   4.868   0.046
 8518SOL    HW126453   5.474   4.785   0.022
 8518SOL    HW226454   5.619   4.861   0.009
 8519SOL     OW26455   0.510   3.881   0.453
 8519SOL    HW126456   0.422   3.838   0.431
 8519SOL    HW226457   0.512   3.973   0.414
 8520SOL     OW26458   3.155   3.581   6.085
 8520SOL    HW126459   3.177   3.678   6.098
 8520SOL    HW226460   3.228   3.536   6.034
 8521SOL     OW26461   1.880   6.852   4.642
 8521SOL    HW126462   1.813   6.798   4.591
 8521SOL    HW226463   1.917   6.796   4.716
 8522SOL     OW26464   0.450   0.638   6.917
 8522SOL    HW126465   0.386   0.628   6.994
 8522SOL    HW226466   0.417   0.584   6.840
 8523SOL     OW26467   4.098   1.732   1.335
 8523SOL    HW126468   4.035   1.759   1.408
 8523SOL    HW226469   4.063   1.765   1.247
 8524SOL     OW26470   3.221   6.345   5.209
 8524SOL    HW126471   3.132   6.313   5.179
 8524SOL    HW226472   3.276   6.267   5.241
 8525SOL     OW26473   6.102   2.999   2.529
 8525SOL    HW126474   6.197   3.028   2.523
 8525SOL    HW226475   6.043   3.079   2.540
 8526SOL     OW26476   0.336   4.666   6.733
 8526SOL    HW126477   0.317   4.568   6.730
 8526SOL    HW226478   0.391   4.691   6.653
 8527SOL     OW26479   2.837   0.755   6.184
 8527SOL    HW126480   2.857   0.657   6.178
 8527SOL    HW226481   2.922   0.806   6.176
 8528SOL     OW26482   5.663   0.702   1.004
 8528SOL    HW126483   5.605   0.647   0.944
 8528SOL    HW226484   5.706   0.642   1.072
 8529SOL     OW26485   0.869   6.387   6.393
 8529SOL    HW126486   0.954   6.425   6.358
 8529SOL    HW226487   0.810   6.362   6.316
 8530SOL     OW26488   3.740   3.771   2.483
 8530SOL    HW126489   3.753   3.677   2.515
 8530SOL    HW226490   3.805   3.832   2.528
 8531SOL     OW26491   6.224   5.707   3.239
 8531SOL    HW126492   6.215   5.699   3.140
 8531SOL    HW226493   6.167   5.638   3.284
 8532SOL     OW26494   3.624   5.500   0.364
 8532SOL    HW126495   3.533   5.461   0.381
 8532SOL    HW226496   3.649   5.486   0.269
 8533SOL     OW26497   2.505   6.217   5.131
 8533SOL    HW126498   2.434   6.150   5.153
 8533SOL    HW226499   2.555   6.241   5.215
 8534SOL     OW26500   1.828   3.259   2.056
 8534SOL    HW126501   1.855   3.338   2.002
 8534SOL    HW226502   1.880   3.257   2.141
 8535SOL     OW26503   6.336   0.234   2.346
 8535SOL    HW126504   6.363   0.156   2.403
 8535SOL    HW226505   6.296   0.305   2.404
 8536SOL     OW26506   1.590   1.133   3.889
 8536SOL    HW126507   1.547   1.043   3.896
 8536SOL    HW226508   1.532   1.201   3.934
 8537SOL     OW26509   5.815   1.250   3.068
 8537SOL    HW126510   5.762   1.248   3.153
 8537SOL    HW226511   5.782   1.178   3.007
 8538SOL     OW26512   0.778   2.176   6.929
 8538SOL    HW126513   0.871   2.146   6.909
 8538SOL    HW226514   0.780   2.269   6.967
 8539SOL     OW26515   5.227   3.026   1.997
 8539SOL    HW126516   5.240   3.064   1.905
 8539SOL    HW226517   5.141   2.975   2.000
 8540SOL     OW26518   4.145   0.428   1.289
 8540SOL    HW126519   4.210   0.490   1.244
 8540SOL    HW226520   4.067   0.481   1.323
 8541SOL     OW26521   1.884   3.166   3.295
 8541SOL    HW126522   1.959   3.112   3.333
 8541SOL    HW226523   1.812   3.177   3.364
 8542SOL     OW26524   2.987   4.620   6.494
 8542SOL    HW126525   3.029   4.529   6.493
 8542SOL    HW226526   2.935   4.634   6.410
 8543SOL     OW26527   3.861   2.147   6.643
 8543SOL    HW126528   3.771   2.107   6.657
 8543SOL    HW226529   3.909   2.154   6.731
 8544SOL     OW26530   6.232   1.669   4.303
 8544SOL    HW126531   6.241   1.570   4.289
 8544SOL    HW226532   6.279   1.718   4.230
 8545SOL     OW26533   4.568   6.468   5.148
 8545SOL    HW126534   4.551   6.560   5.113
 8545SOL    HW226535   4.482   6.418   5.154
 8546SOL     OW26536   3.853   2.332   0.001
 8546SOL    HW126537   3.860   2.256   6.952
 8546SOL    HW226538   3.924   2.323   0.071
 8547SOL     OW26539   1.746   4.353   2.009
 8547SOL    HW126540   1.758   4.448   2.039
 8547SOL    HW226541   1.663   4.346   1.954
 8548SOL     OW26542   6.240   2.064   5.677
 8548SOL    HW126543   6.178   2.032   5.749
 8548SOL    HW226544   6.334   2.038   5.700
 8549SOL     OW26545   5.284   3.004   5.518
 8549SOL    HW126546   5.313   2.927   5.461
 8549SOL    HW226547   5.251   3.078   5.460
 8550SOL     OW26548   1.384   4.440   5.418
 8550SOL    HW126549   1.407   4.476   5.328
 8550SOL    HW226550   1.414   4.503   5.489
 8551SOL     OW26551   2.262   4.192   1.264
 8551SOL    HW126552   2.322   4.233   1.195
 8551SOL    HW226553   2.201   4.126   1.220
 8552SOL     OW26554   2.861   6.542   4.786
 8552SOL    HW126555   2.854   6.642   4.791
 8552SOL    HW226556   2.779   6.501   4.825
 8553SOL     OW26557   6.346   5.829   6.968
 8553SOL    HW126558   6.341   5.736   7.005
 8553SOL    HW226559   6.418   5.833   6.898
 8554SOL     OW26560   6.050   3.671   0.605
 8554SOL    HW126561   5.975   3.653   0.541
 8554SOL    HW226562   6.065   3.590   0.662
 8555SOL     OW26563   2.076   6.530   4.499
 8555SOL    HW126564   1.984   6.524   4.538
 8555SOL    HW226565   2.079   6.604   4.432
 8556SOL     OW26566   5.965   6.697   4.768
 8556SOL    HW126567   5.988   6.774   4.709
 8556SOL    HW226568   5.952   6.730   4.862
 8557SOL     OW26569   6.593   1.724   1.051
 8557SOL    HW126570   6.656   1.798   1.076
 8557SOL    HW226571   6.629   1.637   1.082
 8558SOL     OW26572   1.634   4.119   2.548
 8558SOL    HW126573   1.540   4.100   2.520
 8558SOL    HW226574   1.634   4.193   2.615
 8559SOL     OW26575   0.714   1.554   5.333
 8559SOL    HW126576   0.700   1.592   5.424
 8559SOL    HW226577   0.636   1.578   5.274
 8560SOL     OW26578   6.485   2.769   6.661
 8560SOL    HW126579   6.480   2.866   6.685
 8560SOL    HW226580   6.567   2.728   6.702
 8561SOL     OW26581   4.599   6.010   6.360
 8561SOL    HW126582   4.522   6.059   6.400
 8561SOL    HW226583   4.684   6.042   6.401
 8562SOL     OW26584   3.973   0.241   4.349
 8562SOL    HW126585   4.005   0.266   4.441
 8562SOL    HW226586   3.952   0.324   4.297
 8563SOL     OW26587   2.850   2.821   6.708
 8563SOL    HW126588   2.853   2.730   6.751
 8563SOL    HW226589   2.863   2.891   6.779
 8564SOL     OW26590   0.907   5.829   3.152
 8564SOL    HW126591   0.983   5.790   3.204
 8564SOL    HW226592   0.928   5.923   3.127
 8565SOL     OW26593   3.365   1.039   1.487
 8565SOL    HW126594   3.439   1.101   1.516
 8565SOL    HW226595   3.365   0.958   1.545
 8566SOL     OW26596   1.800   4.083   4.144
 8566SOL    HW126597   1.723   4.131   4.186
 8566SOL    HW226598   1.781   4.067   4.048
 8567SOL     OW26599   5.331   6.811   6.356
 8567SOL    HW126600   5.351   6.713   6.352
 8567SOL    HW226601   5.274   6.829   6.436
 8568SOL     OW26602   5.591   0.174   0.621
 8568SOL    HW126603   5.646   0.254   0.647
 8568SOL    HW226604   5.497   0.203   0.605
 8569SOL     OW26605   3.504   0.599   5.358
 8569SOL    HW126606   3.421   0.548   5.334
 8569SOL    HW226607   3.579   0.572   5.298
 8570SOL     OW26608   6.319   3.511   6.492
 8570SOL    HW126609   6.347   3.434   6.435
 8570SOL    HW226610   6.297   3.479   6.583
 8571SOL     OW26611   6.941   4.141   5.815
 8571SOL    HW126612   6.856   4.191   5.832
 8571SOL    HW226613   6.978   4.166   5.726
 8572SOL     OW26614   2.582   5.186   6.205
 8572SOL    HW126615   2.672   5.224   6.226
 8572SOL    HW226616   2.530   5.174   6.290
 8573SOL     OW26617   3.489   6.072   3.975
 8573SOL    HW126618   3.438   5.989   3.997
 8573SOL    HW226619   3.535   6.105   4.058
 8574SOL     OW26620   0.863   3.864   4.322
 8574SOL    HW126621   0.794   3.801   4.358
 8574SOL    HW226622   0.818   3.936   4.270
 8575SOL     OW26623   2.989   3.150   6.196
 8575SOL    HW126624   3.022   3.170   6.104
 8575SOL    HW226625   2.912   3.211   6.218
 8576SOL     OW26626   1.962   0.252   0.768
 8576SOL    HW126627   1.963   0.172   0.709
 8576SOL    HW226628   1.930   0.226   0.859
 8577SOL     OW26629   6.262   5.576   4.361
 8577SOL    HW126630   6.286   5.670   4.335
 8577SOL    HW226631   6.168   5.557   4.336
 8578SOL     OW26632   4.427   0.512   3.526
 8578SOL    HW126633   4.479   0.584   3.479
 8578SOL    HW226634   4.394   0.547   3.614
 8579SOL     OW26635   0.577   4.543   2.607
 8579SOL    HW126636   0.484   4.551   2.642
 8579SOL    HW226637   0.606   4.447   2.611
 8580SOL     OW26638   2.625   5.516   5.878
 8580SOL    HW126639   2.636   5.549   5.971
 8580SOL    HW226640   2.625   5.416   5.877
 8581SOL     OW26641   3.547   3.384   0.300
 8581SOL    HW126642   3.531   3.402   0.397
 8581SOL    HW226643   3.484   3.313   0.268
 8582SOL     OW26644   3.800   4.721   0.141
 8582SOL    HW126645   3.840   4.709   0.050
 8582SOL    HW226646   3.811   4.816   0.170
 8583SOL     OW26647   5.664   6.754   4.666
 8583SOL    HW126648   5.634   6.694   4.591
 8583SOL    HW226649   5.757   6.730   4.692
 8584SOL     OW26650   0.262   5.621   6.434
 8584SOL    HW126651   0.170   5.647   6.404
 8584SOL    HW226652   0.315   5.589   6.355
 8585SOL     OW26653   1.586   1.853   0.938
 8585SOL    HW126654   1.636   1.769   0.915
 8585SOL    HW226655   1.488   1.834   0.943
 8586SOL     OW26656   4.097   5.103   3.852
 8586SOL    HW126657   4.009   5.076   3.891
 8586SOL    HW226658   4.164   5.115   3.926
 8587SOL     OW26659   6.429   1.638   1.436
 8587SOL    HW126660   6.495   1.704   1.401
 8587SOL    HW226661   6.386   1.674   1.518
 8588SOL     OW26662   3.649   2.814   6.188
 8588SOL    HW126663   3.591   2.832   6.108
 8588SOL    HW226664   3.743   2.798   6.158
 8589SOL     OW26665   2.592   1.554   4.582
 8589SOL    HW126666   2.497   1.558   4.613
 8589SOL    HW226667   2.606   1.619   4.508
 8590SOL     OW26668   5.584   5.114   5.277
 8590SOL    HW126669   5.635   5.122   5.362
 8590SOL    HW226670   5.491   5.085   5.296
 8591SOL     OW26671   0.739   3.076   0.544
 8591SOL    HW126672   0.667   3.057   0.476
 8591SOL    HW226673   0.813   3.009   0.534
 8592SOL     OW26674   6.515   6.337   6.794
 8592SOL    HW126675   6.504   6.422   6.846
 8592SOL    HW226676   6.542   6.263   6.857
 8593SOL     OW26677   0.484   5.217   3.234
 8593SOL    HW126678   0.455   5.293   3.292
 8593SOL    HW226679   0.410   5.194   3.170
 8594SOL     OW26680   4.016   3.666   2.865
 8594SOL    HW126681   3.986   3.684   2.959
 8594SOL    HW226682   4.100   3.612   2.867
 8595SOL     OW26683   1.384   2.808   1.951
 8595SOL    HW126684   1.432   2.742   1.893
 8595SOL    HW226685   1.373   2.769   2.043
 8596SOL     OW26686   6.660   4.075   2.467
 8596SOL    HW126687   6.717   4.149   2.504
 8596SOL    HW226688   6.634   4.097   2.373
 8597SOL     OW26689   1.933   1.591   0.862
 8597SOL    HW126690   1.877   1.637   0.931
 8597SOL    HW226691   1.941   1.494   0.884
 8598SOL     OW26692   6.059   2.947   2.045
 8598SOL    HW126693   6.006   3.019   2.000
 8598SOL    HW226694   6.099   2.886   1.976
 8599SOL     OW26695   1.030   2.686   0.692
 8599SOL    HW126696   1.060   2.594   0.716
 8599SOL    HW226697   0.941   2.682   0.647
 8600SOL     OW26698   6.981   2.341   6.120
 8600SOL    HW126699   0.045   2.302   6.074
 8600SOL    HW226700   6.953   2.425   6.075
 8601SOL     OW26701   0.458   0.407   4.851
 8601SOL    HW126702   0.491   0.501   4.862
 8601SOL    HW226703   0.525   0.354   4.799
 8602SOL     OW26704   1.433   6.498   2.042
 8602SOL    HW126705   1.404   6.429   1.976
 8602SOL    HW226706   1.430   6.589   2.000
 8603SOL     OW26707   4.903   3.721   1.632
 8603SOL    HW126708   4.824   3.661   1.638
 8603SOL    HW226709   4.874   3.817   1.639
 8604SOL     OW26710   6.156   2.565   3.122
 8604SOL    HW126711   6.079   2.621   3.092
 8604SOL    HW226712   6.191   2.600   3.209
 8605SOL     OW26713   2.894   5.145   1.495
 8605SOL    HW126714   2.820   5.087   1.462
 8605SOL    HW226715   2.931   5.107   1.579
 8606SOL     OW26716   4.095   5.252   4.658
 8606SOL    HW126717   4.094   5.165   4.610
 8606SOL    HW226718   4.069   5.238   4.754
 8607SOL     OW26719   2.696   6.536   0.471
 8607SOL    HW126720   2.617   6.511   0.527
 8607SOL    HW226721   2.773   6.560   0.529
 8608SOL     OW26722   5.476   6.692   2.549
 8608SOL    HW126723   5.494   6.655   2.458
 8608SOL    HW226724   5.514   6.785   2.556
 8609SOL     OW26725   5.529   0.348   5.928
 8609SOL    HW126726   5.601   0.406   5.889
 8609SOL    HW226727   5.440   0.392   5.915
 8610SOL     OW26728   6.603   6.471   5.409
 8610SOL    HW126729   6.697   6.449   5.384
 8610SOL    HW226730   6.598   6.497   5.505
 8611SOL     OW26731   1.704   2.095   3.102
 8611SOL    HW126732   1.697   1.996   3.109
 8611SOL    HW226733   1.656   2.126   3.020
 8612SOL     OW26734   5.225   3.180   4.497
 8612SOL    HW126735   5.200   3.109   4.562
 8612SOL    HW226736   5.230   3.141   4.405
 8613SOL     OW26737   0.947   0.324   0.402
 8613SOL    HW126738   1.036   0.280   0.410
 8613SOL    HW226739   0.953   0.418   0.438
 8614SOL     OW26740   1.565   2.451   3.498
 8614SOL    HW126741   1.623   2.423   3.421
 8614SOL    HW226742   1.623   2.486   3.572
 8615SOL     OW26743   4.916   1.850   5.989
 8615SOL    HW126744   4.911   1.901   6.075
 8615SOL    HW226745   4.939   1.912   5.914
 8616SOL     OW26746   0.847   3.298   0.391
 8616SOL    HW126747   0.806   3.242   0.462
 8616SOL    HW226748   0.909   3.365   0.433
 8617SOL     OW26749   6.045   3.208   0.888
 8617SOL    HW126750   5.991   3.146   0.830
 8617SOL    HW226751   6.062   3.164   0.977
 8618SOL     OW26752   3.561   1.397   2.902
 8618SOL    HW126753   3.640   1.442   2.943
 8618SOL    HW226754   3.477   1.438   2.937
 8619SOL     OW26755   3.743   6.690   0.772
 8619SOL    HW126756   3.766   6.770   0.828
 8619SOL    HW226757   3.650   6.700   0.736
 8620SOL     OW26758   6.137   5.825   3.931
 8620SOL    HW126759   6.079   5.875   3.867
 8620SOL    HW226760   6.083   5.753   3.975
 8621SOL     OW26761   5.119   0.850   3.528
 8621SOL    HW126762   5.150   0.883   3.439
 8621SOL    HW226763   5.023   0.874   3.541
 8622SOL     OW26764   5.033   5.652   6.191
 8622SOL    HW126765   4.939   5.675   6.165
 8622SOL    HW226766   5.080   5.609   6.113
 8623SOL     OW26767   6.037   1.587   3.811
 8623SOL    HW126768   6.018   1.555   3.903
 8623SOL    HW226769   6.011   1.683   3.802
 8624SOL     OW26770   6.192   3.047   3.676
 8624SOL    HW126771   6.114   3.031   3.736
 8624SOL    HW226772   6.160   3.075   3.585
 8625SOL     OW26773   3.803   1.272   6.402
 8625SOL    HW126774   3.892   1.273   6.358
 8625SOL    HW226775   3.774   1.366   6.420
 8626SOL     OW26776   2.988   3.609   2.023
 8626SOL    HW126777   2.939   3.543   2.081
 8626SOL    HW226778   3.007   3.692   2.075
 8627SOL     OW26779   2.820   0.489   6.799
 8627SOL    HW126780   2.913   0.525   6.789
 8627SOL    HW226781   2.786   0.511   6.891
 8628SOL     OW26782   6.274   1.662   1.204
 8628SOL    HW126783   6.352   1.680   1.264
 8628SOL    HW226784   6.282   1.717   1.121
 8629SOL     OW26785   1.528   5.737   3.279
 8629SOL    HW126786   1.540   5.653   3.332
 8629SOL    HW226787   1.490   5.809   3.338
 8630SOL     OW26788   5.178   4.813   4.205
 8630SOL    HW126789   5.153   4.787   4.298
 8630SOL    HW226790   5.104   4.788   4.142
 8631SOL     OW26791   4.044   6.561   3.492
 8631SOL    HW126792   4.092   6.473   3.494
 8631SOL    HW226793   4.074   6.614   3.413
 8632SOL     OW26794   3.185   0.969   3.178
 8632SOL    HW126795   3.191   1.060   3.137
 8632SOL    HW226796   3.178   0.977   3.277
 8633SOL     OW26797   6.703   6.493   2.723
 8633SOL    HW126798   6.724   6.447   2.810
 8633SOL    HW226799   6.628   6.444   2.677
 8634SOL     OW26800   6.246   5.980   1.858
 8634SOL    HW126801   6.263   6.024   1.946
 8634SOL    HW226802   6.331   5.981   1.804
 8635SOL     OW26803   5.991   3.580   5.602
 8635SOL    HW126804   6.062   3.541   5.661
 8635SOL    HW226805   5.984   3.678   5.619
 8636SOL     OW26806   6.274   5.156   0.919
 8636SOL    HW126807   6.310   5.250   0.915
 8636SOL    HW226808   6.266   5.119   0.827
 8637SOL     OW26809   1.218   0.547   1.729
 8637SOL    HW126810   1.139   0.500   1.689
 8637SOL    HW226811   1.293   0.548   1.663
 8638SOL     OW26812   5.873   4.480   1.254
 8638SOL    HW126813   5.849   4.548   1.184
 8638SOL    HW226814   5.948   4.516   1.310
 8639SOL     OW26815   6.068   2.603   2.412
 8639SOL    HW126816   6.096   2.507   2.414
 8639SOL    HW226817   6.118   2.655   2.481
 8640SOL     OW26818   5.023   5.860   1.713
 8640SOL    HW126819   5.015   5.796   1.637
 8640SOL    HW226820   5.023   5.954   1.679
 8641SOL     OW26821   5.499   4.608   3.647
 8641SOL    HW126822   5.528   4.566   3.562
 8641SOL    HW226823   5.410   4.652   3.634
 8642SOL     OW26824   4.332   1.092   1.530
 8642SOL    HW126825   4.243   1.061   1.564
 8642SOL    HW226826   4.343   1.065   1.435
 8643SOL     OW26827   4.679   6.889   0.030
 8643SOL    HW126828   4.777   6.906   0.043
 8643SOL    HW226829   4.642   6.956   6.981
 8644SOL     OW26830   6.504   3.512   5.459
 8644SOL    HW126831   6.440   3.473   5.393
 8644SOL    HW226832   6.571   3.569   5.412
 8645SOL     OW26833   6.608   3.476   1.718
 8645SOL    HW126834   6.705   3.497   1.713
 8645SOL    HW226835   6.565   3.537   1.785
 8646SOL     OW26836   4.817   6.362   0.622
 8646SOL    HW126837   4.848   6.325   0.534
 8646SOL    HW226838   4.804   6.461   0.614
 8647SOL     OW26839   5.017   5.125   2.195
 8647SOL    HW126840   5.090   5.168   2.249
 8647SOL    HW226841   5.043   5.031   2.172
 8648SOL     OW26842   5.858   0.587   3.981
 8648SOL    HW126843   5.898   0.543   4.061
 8648SOL    HW226844   5.775   0.635   4.007
 8649SOL     OW26845   6.286   4.227   5.664
 8649SOL    HW126846   6.248   4.141   5.630
 8649SOL    HW226847   6.384   4.229   5.647
 8650SOL     OW26848   0.440   5.596   1.480
 8650SOL    HW126849   0.346   5.586   1.446
 8650SOL    HW226850   0.445   5.675   1.541
 8651SOL     OW26851   4.280   3.183   1.030
 8651SOL    HW126852   4.277   3.201   1.128
 8651SOL    HW226853   4.203   3.229   0.986
 8652SOL     OW26854   0.570   2.651   3.977
 8652SOL    HW126855   0.602   2.642   4.072
 8652SOL    HW226856   0.554   2.747   3.956
 8653SOL     OW26857   5.399   3.118   6.586
 8653SOL    HW126858   5.492   3.151   6.569
 8653SOL    HW226859   5.403   3.039   6.647
 8654SOL     OW26860   1.552   4.787   1.585
 8654SOL    HW126861   1.581   4.693   1.598
 8654SOL    HW226862   1.574   4.840   1.667
 8655SOL     OW26863   5.556   5.987   2.757
 8655SOL    HW126864   5.525   5.912   2.699
 8655SOL    HW226865   5.655   5.983   2.767
 8656SOL     OW26866   6.497   2.249   1.972
 8656SOL    HW126867   6.462   2.160   1.943
 8656SOL    HW226868   6.443   2.282   2.050
 8657SOL     OW26869   3.211   5.208   0.898
 8657SOL    HW126870   3.268   5.263   0.961
 8657SOL    HW226871   3.187   5.122   0.942
 8658SOL     OW26872   1.304   5.683   6.082
 8658SOL    HW126873   1.293   5.641   6.172
 8658SOL    HW226874   1.276   5.779   6.086
 8659SOL     OW26875   4.253   6.901   4.762
 8659SOL    HW126876   4.332   6.941   4.809
 8659SOL    HW226877   4.195   6.853   4.828
 8660SOL     OW26878   5.477   4.611   0.011
 8660SOL    HW126879   5.465   4.594   6.929
 8660SOL    HW226880   5.516   4.530   0.054
 8661SOL     OW26881   6.201   3.327   1.917
 8661SOL    HW126882   6.226   3.397   1.984
 8661SOL    HW226883   6.257   3.245   1.932
 8662SOL     OW26884   0.288   1.069   6.802
 8662SOL    HW126885   0.192   1.085   6.776
 8662SOL    HW226886   0.324   1.151   6.847
 8663SOL     OW26887   2.631   5.146   0.972
 8663SOL    HW126888   2.655   5.170   1.066
 8663SOL    HW226889   2.710   5.107   0.925
 8664SOL     OW26890   4.673   4.792   1.533
 8664SOL    HW126891   4.714   4.883   1.544
 8664SOL    HW226892   4.730   4.737   1.473
 8665SOL     OW26893   5.200   5.188   4.664
 8665SOL    HW126894   5.175   5.284   4.654
 8665SOL    HW226895   5.131   5.131   4.619
 8666SOL     OW26896   6.631   4.533   4.352
 8666SOL    HW126897   6.727   4.559   4.351
 8666SOL    HW226898   6.587   4.569   4.435
 8667SOL     OW26899   5.482   2.225   3.351
 8667SOL    HW126900   5.479   2.193   3.256
 8667SOL    HW226901   5.389   2.238   3.384
 8668SOL     OW26902   3.393   0.676   4.878
 8668SOL    HW126903   3.308   0.658   4.830
 8668SOL    HW226904   3.377   0.742   4.952
 8669SOL     OW26905   4.110   6.636   6.417
 8669SOL    HW126906   4.037   6.619   6.482
 8669SOL    HW226907   4.095   6.725   6.372
 8670SOL     OW26908   4.466   4.453   2.594
 8670SOL    HW126909   4.537   4.414   2.652
 8670SOL    HW226910   4.377   4.443   2.640
 8671SOL     OW26911   6.148   6.107   2.472
 8671SOL    HW126912   6.148   6.034   2.540
 8671SOL    HW226913   6.070   6.095   2.411
 8672SOL     OW26914   3.617   4.984   4.661
 8672SOL    HW126915   3.666   4.957   4.744
 8672SOL    HW226916   3.636   5.080   4.642
 8673SOL     OW26917   4.883   2.437   6.917
 8673SOL    HW126918   4.825   2.468   6.993
 8673SOL    HW226919   4.904   2.340   6.929
 8674SOL     OW26920   0.858   0.032   3.201
 8674SOL    HW126921   0.955   0.017   3.218
 8674SOL    HW226922   0.845   0.062   3.106
 8675SOL     OW26923   2.504   1.755   3.008
 8675SOL    HW126924   2.503   1.742   2.909
 8675SOL    HW226925   2.598   1.747   3.042
 8676SOL     OW26926   4.587   1.151   4.218
 8676SOL    HW126927   4.516   1.213   4.252
 8676SOL    HW226928   4.671   1.203   4.202
 8677SOL     OW26929   2.117   3.815   5.870
 8677SOL    HW126930   2.036   3.873   5.879
 8677SOL    HW226931   2.109   3.738   5.933
 8678SOL     OW26932   1.508   0.762   5.796
 8678SOL    HW126933   1.413   0.755   5.768
 8678SOL    HW226934   1.523   0.851   5.840
 8679SOL     OW26935   5.985   1.920   4.929
 8679SOL    HW126936   5.990   1.997   4.866
 8679SOL    HW226937   5.914   1.856   4.900
 8680SOL     OW26938   0.727   3.701   0.394
 8680SOL    HW126939   0.666   3.765   0.441
 8680SOL    HW226940   0.804   3.679   0.453
 8681SOL     OW26941   4.092   3.698   1.437
 8681SOL    HW126942   4.087   3.642   1.355
 8681SOL    HW226943   4.026   3.665   1.504
 8682SOL     OW26944   1.203   5.739   2.593
 8682SOL    HW126945   1.135   5.777   2.655
 8682SOL    HW226946   1.248   5.661   2.636
 8683SOL     OW26947   4.538   3.078   6.903
 8683SOL    HW126948   4.581   2.990   6.881
 8683SOL    HW226949   4.482   3.068   6.986
 8684SOL     OW26950   5.931   2.876   3.311
 8684SOL    HW126951   5.967   2.922   3.230
 8684SOL    HW226952   5.922   2.942   3.386
 8685SOL     OW26953   0.176   1.653   5.471
 8685SOL    HW126954   0.160   1.562   5.509
 8685SOL    HW226955   0.113   1.669   5.395
 8686SOL     OW26956   6.448   1.498   3.959
 8686SOL    HW126957   6.397   1.481   4.044
 8686SOL    HW226958   6.384   1.518   3.885
 8687SOL     OW26959   3.641   1.028   2.972
 8687SOL    HW126960   3.618   1.050   2.877
 8687SOL    HW226961   3.717   0.962   2.973
 8688SOL     OW26962   0.928   6.894   2.233
 8688SOL    HW126963   0.989   6.815   2.235
 8688SOL    HW226964   0.847   6.872   2.179
 8689SOL     OW26965   5.095   4.429   1.298
 8689SOL    HW126966   5.015   4.370   1.311
 8689SOL    HW226967   5.099   4.459   1.202
 8690SOL     OW26968   1.474   1.010   2.294
 8690SOL    HW126969   1.460   1.065   2.212
 8690SOL    HW226970   1.387   0.970   2.323
 8691SOL     OW26971   6.158   1.420   0.596
 8691SOL    HW126972   6.128   1.443   0.688
 8691SOL    HW226973   6.211   1.495   0.558
 8692SOL     OW26974   1.526   1.230   3.632
 8692SOL    HW126975   1.567   1.194   3.716
 8692SOL    HW226976   1.543   1.167   3.557
 8693SOL     OW26977   5.046   2.156   6.433
 8693SOL    HW126978   4.982   2.226   6.401
 8693SOL    HW226979   5.140   2.190   6.426
 8694SOL     OW26980   3.859   6.736   6.773
 8694SOL    HW126981   3.853   6.639   6.795
 8694SOL    HW226982   3.811   6.754   6.687
 8695SOL     OW26983   4.317   4.395   5.419
 8695SOL    HW126984   4.253   4.416   5.346
 8695SOL    HW226985   4.387   4.331   5.385
 8696SOL     OW26986   2.307   5.306   0.533
 8696SOL    HW126987   2.375   5.334   0.466
 8696SOL    HW226988   2.318   5.209   0.554
 8697SOL     OW26989   4.860   5.068   6.510
 8697SOL    HW126990   4.932   5.136   6.500
 8697SOL    HW226991   4.896   4.989   6.561
 8698SOL     OW26992   5.674   5.989   5.091
 8698SOL    HW126993   5.659   5.896   5.056
 8698SOL    HW226994   5.680   5.987   5.191
 8699SOL     OW26995   1.677   1.439   4.920
 8699SOL    HW126996   1.618   1.372   4.875
 8699SOL    HW226997   1.711   1.401   5.006
 8700SOL     OW26998   2.756   2.213   6.117
 8700SOL    HW126999   2.751   2.231   6.019
 8700SOL    HW227000   2.830   2.147   6.135
 8701SOL     OW27001   1.320   0.904   3.853
 8701SOL    HW127002   1.301   0.825   3.795
 8701SOL    HW227003   1.379   0.875   3.929
 8702SOL     OW27004   4.979   6.398   6.961
 8702SOL    HW127005   5.032   6.373   6.879
 8702SOL    HW227006   5.040   6.397   0.025
 8703SOL     OW27007   1.422   4.960   1.418
 8703SOL    HW127008   1.477   4.950   1.335
 8703SOL    HW227009   1.449   4.890   1.484
 8704SOL     OW27010   1.144   4.374   1.657
 8704SOL    HW127011   1.217   4.360   1.724
 8704SOL    HW227012   1.065   4.417   1.702
 8705SOL     OW27013   4.596   6.581   4.364
 8705SOL    HW127014   4.636   6.534   4.442
 8705SOL    HW227015   4.666   6.636   4.318
 8706SOL     OW27016   5.032   0.790   5.715
 8706SOL    HW127017   4.946   0.794   5.666
 8706SOL    HW227018   5.058   0.882   5.746
 8707SOL     OW27019   4.190   1.783   5.576
 8707SOL    HW127020   4.262   1.715   5.570
 8707SOL    HW227021   4.229   1.874   5.559
 8708SOL     OW27022   3.855   1.636   0.779
 8708SOL    HW127023   3.830   1.620   0.684
 8708SOL    HW227024   3.859   1.549   0.828
 8709SOL     OW27025   5.270   3.481   0.611
 8709SOL    HW127026   5.318   3.394   0.600
 8709SOL    HW227027   5.337   3.554   0.628
 8710SOL     OW27028   6.233   2.985   3.962
 8710SOL    HW127029   6.148   2.982   3.908
 8710SOL    HW227030   6.249   3.078   3.995
 8711SOL     OW27031   1.031   1.135   4.606
 8711SOL    HW127032   1.047   1.198   4.531
 8711SOL    HW227033   1.075   1.048   4.587
 8712SOL     OW27034   3.616   0.271   6.759
 8712SOL    HW127035   3.606   0.298   6.855
 8712SOL    HW227036   3.708   0.237   6.743
 8713SOL     OW27037   6.265   4.811   2.882
 8713SOL    HW127038   6.268   4.901   2.925
 8713SOL    HW227039   6.238   4.743   2.951
 8714SOL     OW27040   1.637   1.674   4.181
 8714SOL    HW127041   1.732   1.654   4.205
 8714SOL    HW227042   1.632   1.764   4.138
 8715SOL     OW27043   5.674   1.091   2.487
 8715SOL    HW127044   5.741   1.164   2.476
 8715SOL    HW227045   5.625   1.078   2.400
 8716SOL     OW27046   0.556   1.360   2.156
 8716SOL    HW127047   0.555   1.446   2.206
 8716SOL    HW227048   0.572   1.285   2.220
 8717SOL     OW27049   4.177   3.474   0.832
 8717SOL    HW127050   4.111   3.400   0.822
 8717SOL    HW227051   4.249   3.464   0.764
 8718SOL     OW27052   6.891   2.806   5.757
 8718SOL    HW127053   6.927   2.877   5.696
 8718SOL    HW227054   6.884   2.843   5.849
 8719SOL     OW27055   5.816   0.680   5.572
 8719SOL    HW127056   5.866   0.737   5.507
 8719SOL    HW227057   5.814   0.725   5.661
 8720SOL     OW27058   4.818   3.423   5.509
 8720SOL    HW127059   4.891   3.478   5.467
 8720SOL    HW227060   4.858   3.341   5.551
 8721SOL     OW27061   6.726   0.743   5.113
 8721SOL    HW127062   6.685   0.759   5.203
 8721SOL    HW227063   6.787   0.664   5.118
 8722SOL     OW27064   3.055   3.126   0.859
 8722SOL    HW127065   2.987   3.135   0.931
 8722SOL    HW227066   3.010   3.097   0.774
 8723SOL     OW27067   0.199   5.887   0.603
 8723SOL    HW127068   0.298   5.897   0.618
 8723SOL    HW227069   0.177   5.913   0.509
 8724SOL     OW27070   4.826   5.838   6.602
 8724SOL    HW127071   4.836   5.775   6.525
 8724SOL    HW227072   4.850   5.930   6.572
 8725SOL     OW27073   2.481   6.347   1.130
 8725SOL    HW127074   2.435   6.261   1.152
 8725SOL    HW227075   2.435   6.390   1.052
 8726SOL     OW27076   0.095   0.613   1.104
 8726SOL    HW127077   0.182   0.662   1.102
 8726SOL    HW227078   0.101   0.534   1.043
 8727SOL     OW27079   5.607   6.700   1.222
 8727SOL    HW127080   5.587   6.629   1.288
 8727SOL    HW227081   5.534   6.705   1.154
 8728SOL     OW27082   2.749   5.847   5.459
 8728SOL    HW127083   2.819   5.871   5.391
 8728SOL    HW227084   2.692   5.773   5.423
 8729SOL     OW27085   4.751   5.867   4.753
 8729SOL    HW127086   4.754   5.932   4.677
 8729SOL    HW227087   4.692   5.790   4.729
 8730SOL     OW27088   6.240   5.967   1.051
 8730SOL    HW127089   6.227   5.869   1.066
 8730SOL    HW227090   6.302   5.981   0.974
 8731SOL     OW27091   0.559   1.590   2.281
 8731SOL    HW127092   0.503   1.555   2.355
 8731SOL    HW227093   0.512   1.667   2.237
 8732SOL     OW27094   6.620   6.095   2.004
 8732SOL    HW127095   6.584   6.005   1.979
 8732SOL    HW227096   6.545   6.154   2.033
 8733SOL     OW27097   6.822   0.285   0.930
 8733SOL    HW127098   6.832   0.205   0.990
 8733SOL    HW227099   6.724   0.306   0.920
 8734SOL     OW27100   6.646   6.384   0.726
 8734SOL    HW127101   6.570   6.444   0.702
 8734SOL    HW227102   6.631   6.345   0.817
 8735SOL     OW27103   0.481   3.100   6.446
 8735SOL    HW127104   0.501   3.125   6.351
 8735SOL    HW227105   0.383   3.114   6.464
 8736SOL     OW27106   0.345   4.899   5.883
 8736SOL    HW127107   0.401   4.817   5.890
 8736SOL    HW227108   0.254   4.882   5.923
 8737SOL     OW27109   3.930   6.056   6.795
 8737SOL    HW127110   4.028   6.076   6.797
 8737SOL    HW227111   3.883   6.117   6.859
 8738SOL     OW27112   0.853   3.991   5.691
 8738SOL    HW127113   0.909   4.063   5.652
 8738SOL    HW227114   0.829   4.013   5.785
 8739SOL     OW27115   1.170   3.659   5.768
 8739SOL    HW127116   1.084   3.648   5.719
 8739SOL    HW227117   1.226   3.728   5.723
 8740SOL     OW27118   1.710   6.349   0.584
 8740SOL    HW127119   1.627   6.350   0.529
 8740SOL    HW227120   1.698   6.288   0.662
 8741SOL     OW27121   1.616   3.613   1.949
 8741SOL    HW127122   1.577   3.534   1.996
 8741SOL    HW227123   1.688   3.653   2.005
 8742SOL     OW27124   4.642   5.711   2.144
 8742SOL    HW127125   4.579   5.763   2.087
 8742SOL    HW227126   4.723   5.687   2.091
 8743SOL     OW27127   2.528   4.695   2.283
 8743SOL    HW127128   2.564   4.780   2.246
 8743SOL    HW227129   2.474   4.714   2.365
 8744SOL     OW27130   3.018   3.290   5.507
 8744SOL    HW127131   3.054   3.222   5.443
 8744SOL    HW227132   2.955   3.351   5.458
 8745SOL     OW27133   5.595   1.573   6.797
 8745SOL    HW127134   5.563   1.535   6.884
 8745SOL    HW227135   5.642   1.660   6.813
 8746SOL     OW27136   5.240   3.368   4.690
 8746SOL    HW127137   5.242   3.308   4.610
 8746SOL    HW227138   5.287   3.453   4.669
 8747SOL     OW27139   0.421   1.859   3.739
 8747SOL    HW127140   0.436   1.813   3.826
 8747SOL    HW227141   0.462   1.950   3.742
 8748SOL     OW27142   3.020   6.902   6.842
 8748SOL    HW127143   3.117   6.879   6.851
 8748SOL    HW227144   2.965   6.821   6.862
 8749SOL     OW27145   3.836   1.548   3.465
 8749SOL    HW127146   3.786   1.607   3.529
 8749SOL    HW227147   3.847   1.457   3.505
 8750SOL     OW27148   1.929   0.765   5.033
 8750SOL    HW127149   1.970   0.788   5.121
 8750SOL    HW227150   2.001   0.752   4.965
 8751SOL     OW27151   1.709   6.433   2.983
 8751SOL    HW127152   1.700   6.517   3.037
 8751SOL    HW227153   1.618   6.403   2.954
 8752SOL     OW27154   2.319   0.682   5.978
 8752SOL    HW127155   2.358   0.749   6.040
 8752SOL    HW227156   2.221   0.701   5.964
 8753SOL     OW27157   5.473   0.998   5.065
 8753SOL    HW127158   5.476   1.065   4.991
 8753SOL    HW227159   5.478   1.046   5.153
 8754SOL     OW27160   2.049   1.029   5.522
 8754SOL    HW127161   1.971   0.988   5.474
 8754SOL    HW227162   2.129   0.969   5.513
 8755SOL     OW27163   2.312   2.212   0.203
 8755SOL    HW127164   2.363   2.189   0.286
 8755SOL    HW227165   2.310   2.132   0.143
 8756SOL     OW27166   2.054   4.670   4.436
 8756SOL    HW127167   1.982   4.688   4.503
 8756SOL    HW227168   2.034   4.721   4.352
 8757SOL     OW27169   3.265   5.340   3.766
 8757SOL    HW127170   3.350   5.288   3.752
 8757SOL    HW227171   3.274   5.397   3.848
 8758SOL     OW27172   4.989   6.329   2.638
 8758SOL    HW127173   4.950   6.411   2.595
 8758SOL    HW227174   4.968   6.330   2.735
 8759SOL     OW27175   5.489   0.634   6.056
 8759SOL    HW127176   5.413   0.697   6.041
 8759SOL    HW227177   5.464   0.567   6.126
 8760SOL     OW27178   2.004   2.988   3.635
 8760SOL    HW127179   2.045   3.006   3.725
 8760SOL    HW227180   2.075   2.978   3.567
 8761SOL     OW27181   5.229   6.221   1.698
 8761SOL    HW127182   5.141   6.213   1.746
 8761SOL    HW227183   5.292   6.275   1.753
 8762SOL     OW27184   1.025   5.149   1.194
 8762SOL    HW127185   1.079   5.164   1.277
 8762SOL    HW227186   1.022   5.233   1.140
 8763SOL     OW27187   0.543   6.351   6.721
 8763SOL    HW127188   0.522   6.440   6.760
 8763SOL    HW227189   0.458   6.309   6.686
 8764SOL     OW27190   3.460   1.917   6.112
 8764SOL    HW127191   3.397   1.852   6.154
 8764SOL    HW227192   3.483   1.886   6.019
 8765SOL     OW27193   6.119   0.253   4.763
 8765SOL    HW127194   6.199   0.241   4.704
 8765SOL    HW227195   6.148   0.263   4.858
 8766SOL     OW27196   2.085   4.577   2.168
 8766SOL    HW127197   2.185   4.581   2.169
 8766SOL    HW227198   2.049   4.663   2.204
 8767SOL     OW27199   4.836   0.256   5.257
 8767SOL    HW127200   4.808   0.335   5.202
 8767SOL    HW227201   4.756   0.203   5.283
 8768SOL     OW27202   0.706   4.237   0.192
 8768SOL    HW127203   0.792   4.287   0.205
 8768SOL    HW227204   0.725   4.139   0.185
 8769SOL     OW27205   1.864   0.698   6.188
 8769SOL    HW127206   1.801   0.774   6.202
 8769SOL    HW227207   1.814   0.618   6.156
 8770SOL     OW27208   5.696   1.600   3.078
 8770SOL    HW127209   5.664   1.662   3.149
 8770SOL    HW227210   5.751   1.528   3.120
 8771SOL     OW27211   2.925   2.950   5.341
 8771SOL    HW127212   3.007   3.008   5.333
 8771SOL    HW227213   2.845   3.002   5.312
 8772SOL     OW27214   6.685   6.779   6.654
 8772SOL    HW127215   6.597   6.792   6.699
 8772SOL    HW227216   6.725   6.869   6.633
 8773SOL     OW27217   2.847   1.953   2.884
 8773SOL    HW127218   2.838   2.030   2.822
 8773SOL    HW227219   2.914   1.888   2.846
 8774SOL     OW27220   1.341   1.334   6.702
 8774SOL    HW127221   1.322   1.395   6.779
 8774SOL    HW227222   1.320   1.240   6.727
 8775SOL     OW27223   6.580   5.923   4.125
 8775SOL    HW127224   6.603   5.832   4.160
 8775SOL    HW227225   6.489   5.921   4.083
 8776SOL     OW27226   3.038   3.754   5.321
 8776SOL    HW127227   3.097   3.738   5.242
 8776SOL    HW227228   3.089   3.740   5.405
 8777SOL     OW27229   5.795   5.918   2.908
 8777SOL    HW127230   5.766   6.008   2.938
 8777SOL    HW227231   5.753   5.848   2.966
 8778SOL     OW27232   1.401   3.115   2.985
 8778SOL    HW127233   1.493   3.155   2.975
 8778SOL    HW227234   1.409   3.017   3.004
 8779SOL     OW27235   1.980   4.430   1.055
 8779SOL    HW127236   1.974   4.528   1.039
 8779SOL    HW227237   1.962   4.410   1.151
 8780SOL     OW27238   2.203   5.769   5.149
 8780SOL    HW127239   2.240   5.743   5.060
 8780SOL    HW227240   2.104   5.779   5.142
 8781SOL     OW27241   1.101   2.489   2.853
 8781SOL    HW127242   1.078   2.584   2.875
 8781SOL    HW227243   1.037   2.428   2.899
 8782SOL     OW27244   5.404   1.458   3.697
 8782SOL    HW127245   5.385   1.449   3.795
 8782SOL    HW227246   5.491   1.505   3.684
 8783SOL     OW27247   6.349   2.735   5.620
 8783SOL    HW127248   6.436   2.755   5.665
 8783SOL    HW227249   6.354   2.647   5.574
 8784SOL     OW27250   5.976   4.062   5.789
 8784SOL    HW127251   5.993   4.044   5.886
 8784SOL    HW227252   5.913   4.139   5.780
 8785SOL     OW27253   5.193   4.052   6.012
 8785SOL    HW127254   5.183   4.149   6.034
 8785SOL    HW227255   5.258   4.042   5.936
 8786SOL     OW27256   1.667   6.345   6.926
 8786SOL    HW127257   1.705   6.415   6.865
 8786SOL    HW227258   1.574   6.370   6.952
 8787SOL     OW27259   1.277   2.941   6.733
 8787SOL    HW127260   1.324   2.957   6.646
 8787SOL    HW227261   1.265   2.842   6.746
 8788SOL     OW27262   1.282   2.129   5.369
 8788SOL    HW127263   1.200   2.088   5.329
 8788SOL    HW227264   1.357   2.124   5.303
 8789SOL     OW27265   6.922   1.176   0.530
 8789SOL    HW127266   6.860   1.209   0.459
 8789SOL    HW227267   6.973   1.254   0.568
 8790SOL     OW27268   4.048   1.099   6.063
 8790SOL    HW127269   3.967   1.052   6.097
 8790SOL    HW227270   4.076   1.169   6.128
 8791SOL     OW27271   5.140   6.046   5.316
 8791SOL    HW127272   5.182   6.131   5.350
 8791SOL    HW227273   5.159   5.972   5.380
 8792SOL     OW27274   5.154   6.905   2.687
 8792SOL    HW127275   5.230   6.961   2.718
 8792SOL    HW227276   5.072   6.962   2.677
 8793SOL     OW27277   1.017   4.345   3.230
 8793SOL    HW127278   1.016   4.277   3.304
 8793SOL    HW227279   1.043   4.434   3.268
 8794SOL     OW27280   2.808   5.873   2.663
 8794SOL    HW127281   2.790   5.820   2.747
 8794SOL    HW227282   2.721   5.904   2.624
 8795SOL     OW27283   3.094   6.455   4.694
 8795SOL    HW127284   3.006   6.489   4.726
 8795SOL    HW227285   3.110   6.364   4.732
 8796SOL     OW27286   5.026   2.286   4.583
 8796SOL    HW127287   5.014   2.358   4.651
 8796SOL    HW227288   5.047   2.326   4.494
 8797SOL     OW27289   0.595   5.725   6.541
 8797SOL    HW127290   0.621   5.728   6.445
 8797SOL    HW227291   0.529   5.651   6.556
 8798SOL     OW27292   3.104   3.398   5.211
 8798SOL    HW127293   3.164   3.320   5.226
 8798SOL    HW227294   3.067   3.395   5.118
 8799SOL     OW27295   3.541   0.884   2.171
 8799SOL    HW127296   3.534   0.789   2.202
 8799SOL    HW227297   3.531   0.946   2.249
 8800SOL     OW27298   3.797   3.883   0.661
 8800SOL    HW127299   3.805   3.889   0.561
 8800SOL    HW227300   3.795   3.787   0.688
 8801SOL     OW27301   3.439   6.467   5.623
 8801SOL    HW127302   3.506   6.479   5.550
 8801SOL    HW227303   3.379   6.390   5.602
 8802SOL     OW27304   1.936   6.344   1.487
 8802SOL    HW127305   1.993   6.319   1.409
 8802SOL    HW227306   1.933   6.443   1.496
 8803SOL     OW27307   3.751   5.785   1.878
 8803SOL    HW127308   3.817   5.861   1.878
 8803SOL    HW227309   3.710   5.776   1.787
 8804SOL     OW27310   2.456   0.852   1.618
 8804SOL    HW127311   2.466   0.753   1.618
 8804SOL    HW227312   2.453   0.886   1.712
 8805SOL     OW27313   0.725   0.051   3.823
 8805SOL    HW127314   0.784   0.117   3.869
 8805SOL    HW227315   0.761   0.031   3.732
 8806SOL     OW27316   1.986   5.029   6.696
 8806SOL    HW127317   2.038   5.068   6.773
 8806SOL    HW227318   1.945   5.104   6.644
 8807SOL     OW27319   2.479   5.192   6.456
 8807SOL    HW127320   2.540   5.189   6.535
 8807SOL    HW227321   2.385   5.171   6.485
 8808SOL     OW27322   5.816   2.727   0.711
 8808SOL    HW127323   5.791   2.734   0.808
 8808SOL    HW227324   5.773   2.646   0.671
 8809SOL     OW27325   6.467   4.908   0.090
 8809SOL    HW127326   6.478   4.810   0.108
 8809SOL    HW227327   6.542   4.939   0.030
 8810SOL     OW27328   4.869   1.307   3.683
 8810SOL    HW127329   4.841   1.394   3.724
 8810SOL    HW227330   4.934   1.325   3.609
 8811SOL     OW27331   1.237   0.884   3.454
 8811SOL    HW127332   1.151   0.935   3.446
 8811SOL    HW227333   1.292   0.897   3.372
 8812SOL     OW27334   2.884   1.283   0.180
 8812SOL    HW127335   2.784   1.283   0.187
 8812SOL    HW227336   2.918   1.189   0.191
 8813SOL     OW27337   1.151   5.636   1.225
 8813SOL    HW127338   1.095   5.602   1.301
 8813SOL    HW227339   1.248   5.632   1.250
 8814SOL     OW27340   5.745   6.886   5.566
 8814SOL    HW127341   5.818   6.828   5.530
 8814SOL    HW227342   5.657   6.840   5.554
 8815SOL     OW27343   6.015   5.319   3.203
 8815SOL    HW127344   6.014   5.302   3.105
 8815SOL    HW227345   5.993   5.235   3.252
 8816SOL     OW27346   0.683   5.440   2.406
 8816SOL    HW127347   0.764   5.477   2.359
 8816SOL    HW227348   0.657   5.502   2.480
 8817SOL     OW27349   2.059   3.898   5.236
 8817SOL    HW127350   2.158   3.902   5.252
 8817SOL    HW227351   2.026   3.806   5.256
 8818SOL     OW27352   6.679   4.602   5.415
 8818SOL    HW127353   6.676   4.672   5.343
 8818SOL    HW227354   6.697   4.646   5.503
 8819SOL     OW27355   6.485   0.543   4.581
 8819SOL    HW127356   6.569   0.596   4.573
 8819SOL    HW227357   6.507   0.448   4.604
 8820SOL     OW27358   1.060   2.459   3.228
 8820SOL    HW127359   1.027   2.398   3.156
 8820SOL    HW227360   1.144   2.504   3.198
 8821SOL     OW27361   1.054   6.767   6.924
 8821SOL    HW127362   1.088   6.710   6.999
 8821SOL    HW227363   0.990   6.835   6.959
 8822SOL     OW27364   1.349   2.572   3.843
 8822SOL    HW127365   1.402   2.648   3.806
 8822SOL    HW227366   1.394   2.537   3.925
 8823SOL     OW27367   2.408   5.005   0.950
 8823SOL    HW127368   2.487   5.067   0.942
 8823SOL    HW227369   2.429   4.919   0.904
 8824SOL     OW27370   4.844   4.337   1.263
 8824SOL    HW127371   4.796   4.258   1.225
 8824SOL    HW227372   4.809   4.356   1.355
 8825SOL     OW27373   2.587   2.155   0.117
 8825SOL    HW127374   2.505   2.147   0.061
 8825SOL    HW227375   2.607   2.251   0.134
 8826SOL     OW27376   5.520   0.084   1.829
 8826SOL    HW127377   5.459   0.032   1.769
 8826SOL    HW227378   5.481   0.175   1.845
 8827SOL     OW27379   6.278   1.525   3.749
 8827SOL    HW127380   6.296   1.592   3.677
 8827SOL    HW227381   6.188   1.543   3.789
 8828SOL     OW27382   1.714   5.859   3.531
 8828SOL    HW127383   1.777   5.831   3.458
 8828SOL    HW227384   1.732   5.954   3.555
 8829SOL     OW27385   1.165   0.528   1.420
 8829SOL    HW127386   1.189   0.620   1.453
 8829SOL    HW227387   1.233   0.498   1.353
 8830SOL     OW27388   1.373   1.257   0.613
 8830SOL    HW127389   1.396   1.209   0.528
 8830SOL    HW227390   1.296   1.319   0.596
 8831SOL     OW27391   6.340   0.806   1.851
 8831SOL    HW127392   6.409   0.850   1.909
 8831SOL    HW227393   6.251   0.846   1.869
 8832SOL     OW27394   6.027   1.500   2.131
 8832SOL    HW127395   5.958   1.544   2.073
 8832SOL    HW227396   5.994   1.497   2.225
 8833SOL     OW27397   0.978   5.221   2.184
 8833SOL    HW127398   1.019   5.130   2.180
 8833SOL    HW227399   0.878   5.213   2.184
 8834SOL     OW27400   6.305   4.379   3.669
 8834SOL    HW127401   6.236   4.445   3.639
 8834SOL    HW227402   6.266   4.320   3.739
 8835SOL     OW27403   0.498   1.394   0.542
 8835SOL    HW127404   0.501   1.431   0.635
 8835SOL    HW227405   0.561   1.444   0.484
 8836SOL     OW27406   4.708   1.430   1.936
 8836SOL    HW127407   4.680   1.513   1.887
 8836SOL    HW227408   4.807   1.422   1.934
 8837SOL     OW27409   0.194   2.426   2.352
 8837SOL    HW127410   0.174   2.518   2.383
 8837SOL    HW227411   0.128   2.362   2.392
 8838SOL     OW27412   1.307   6.844   3.627
 8838SOL    HW127413   1.242   6.907   3.669
 8838SOL    HW227414   1.257   6.773   3.578
 8839SOL     OW27415   5.546   5.356   4.808
 8839SOL    HW127416   5.616   5.321   4.745
 8839SOL    HW227417   5.574   5.336   4.902
 8840SOL     OW27418   4.059   1.029   1.880
 8840SOL    HW127419   3.985   1.049   1.944
 8840SOL    HW227420   4.146   1.055   1.921
 8841SOL     OW27421   3.583   6.696   3.483
 8841SOL    HW127422   3.565   6.616   3.540
 8841SOL    HW227423   3.641   6.760   3.533
 8842SOL     OW27424   1.387   2.212   1.817
 8842SOL    HW127425   1.429   2.187   1.730
 8842SOL    HW227426   1.316   2.145   1.839
 8843SOL     OW27427   6.958   2.812   4.193
 8843SOL    HW127428   7.000   2.766   4.115
 8843SOL    HW227429   6.957   2.750   4.272
 8844SOL     OW27430   5.992   1.683   0.183
 8844SOL    HW127431   5.899   1.695   0.150
 8844SOL    HW227432   6.044   1.766   0.167
 8845SOL     OW27433   5.094   2.669   0.148
 8845SOL    HW127434   5.001   2.683   0.183
 8845SOL    HW227435   5.159   2.681   0.223
 8846SOL     OW27436   3.048   4.903   4.136
 8846SOL    HW127437   3.087   4.877   4.224
 8846SOL    HW227438   2.993   4.986   4.147
 8847SOL     OW27439   1.234   1.389   3.485
 8847SOL    HW127440   1.242   1.442   3.400
 8847SOL    HW227441   1.139   1.387   3.515
 8848SOL     OW27442   0.420   1.398   3.810
 8848SOL    HW127443   0.350   1.398   3.882
 8848SOL    HW227444   0.375   1.394   3.721
 8849SOL     OW27445   2.996   6.936   1.139
 8849SOL    HW127446   2.909   6.971   1.105
 8849SOL    HW227447   3.053   7.012   1.170
 8850SOL     OW27448   3.176   1.942   0.083
 8850SOL    HW127449   3.225   2.019   0.124
 8850SOL    HW227450   3.117   1.975   0.010
 8851SOL     OW27451   1.861   3.678   2.111
 8851SOL    HW127452   1.903   3.597   2.151
 8851SOL    HW227453   1.933   3.743   2.084
 8852SOL     OW27454   0.837   2.533   4.570
 8852SOL    HW127455   0.741   2.516   4.548
 8852SOL    HW227456   0.844   2.610   4.633
 8853SOL     OW27457   4.301   0.759   1.581
 8853SOL    HW127458   4.285   0.661   1.578
 8853SOL    HW227459   4.349   0.788   1.498
 8854SOL     OW27460   6.673   2.401   5.143
 8854SOL    HW127461   6.739   2.327   5.126
 8854SOL    HW227462   6.715   2.470   5.202
 8855SOL     OW27463   4.896   4.845   1.191
 8855SOL    HW127464   4.845   4.787   1.255
 8855SOL    HW227465   4.981   4.799   1.164
 8856SOL     OW27466   5.703   0.495   5.375
 8856SOL    HW127467   5.712   0.537   5.285
 8856SOL    HW227468   5.745   0.554   5.444
 8857SOL     OW27469   6.589   2.436   6.611
 8857SOL    HW127470   6.633   2.504   6.553
 8857SOL    HW227471   6.622   2.344   6.587
 8858SOL     OW27472   6.567   5.257   4.985
 8858SOL    HW127473   6.651   5.313   4.989
 8858SOL    HW227474   6.569   5.201   4.902
 8859SOL     OW27475   0.463   5.408   2.952
 8859SOL    HW127476   0.542   5.351   2.975
 8859SOL    HW227477   0.465   5.491   3.009
 8860SOL     OW27478   6.385   2.765   2.140
 8860SOL    HW127479   6.418   2.716   2.221
 8860SOL    HW227480   6.460   2.775   2.074
 8861SOL     OW27481   3.002   2.496   1.383
 8861SOL    HW127482   2.997   2.583   1.334
 8861SOL    HW227483   3.063   2.506   1.462
 8862SOL     OW27484   4.549   4.641   4.897
 8862SOL    HW127485   4.518   4.685   4.813
 8862SOL    HW227486   4.471   4.619   4.955
 8863SOL     OW27487   1.414   3.393   1.882
 8863SOL    HW127488   1.359   3.409   1.800
 8863SOL    HW227489   1.505   3.362   1.856
 8864SOL     OW27490   6.237   1.692   4.867
 8864SOL    HW127491   6.194   1.732   4.947
 8864SOL    HW227492   6.167   1.650   4.808
 8865SOL     OW27493   2.979   1.374   0.868
 8865SOL    HW127494   2.908   1.348   0.934
 8865SOL    HW227495   3.053   1.306   0.871
 8866SOL     OW27496   6.263   0.072   1.714
 8866SOL    HW127497   6.200   0.010   1.666
 8866SOL    HW227498   6.215   0.114   1.791
 8867SOL     OW27499   5.884   2.646   3.149
 8867SOL    HW127500   5.876   2.723   3.212
 8867SOL    HW227501   5.806   2.585   3.160
 8868SOL     OW27502   0.371   2.993   3.468
 8868SOL    HW127503   0.379   3.068   3.402
 8868SOL    HW227504   0.462   2.958   3.489
 8869SOL     OW27505   4.401   6.926   3.851
 8869SOL    HW127506   4.324   6.874   3.887
 8869SOL    HW227507   4.476   6.926   3.917
 8870SOL     OW27508   0.844   0.733   1.857
 8870SOL    HW127509   0.816   0.637   1.856
 8870SOL    HW227510   0.934   0.742   1.814
 8871SOL     OW27511   0.466   6.635   1.310
 8871SOL    HW127512   0.498   6.667   1.399
 8871SOL    HW227513   0.507   6.546   1.290
 8872SOL     OW27514   6.832   4.714   3.728
 8872SOL    HW127515   6.872   4.806   3.731
 8872SOL    HW227516   6.763   4.705   3.800
 8873SOL     OW27517   1.703   1.608   3.747
 8873SOL    HW127518   1.700   1.708   3.746
 8873SOL    HW227519   1.642   1.572   3.677
 8874SOL     OW27520   2.867   5.762   0.539
 8874SOL    HW127521   2.867   5.860   0.556
 8874SOL    HW227522   2.951   5.721   0.576
 8875SOL     OW27523   6.129   2.708   4.208
 8875SOL    HW127524   6.139   2.656   4.293
 8875SOL    HW227525   6.110   2.646   4.132
 8876SOL     OW27526   4.621   0.515   0.861
 8876SOL    HW127527   4.699   0.494   0.802
 8876SOL    HW227528   4.561   0.581   0.815
 8877SOL     OW27529   0.963   4.573   1.152
 8877SOL    HW127530   1.060   4.596   1.160
 8877SOL    HW227531   0.931   4.533   1.238
 8878SOL     OW27532   4.977   3.881   2.190
 8878SOL    HW127533   4.956   3.880   2.092
 8878SOL    HW227534   4.951   3.794   2.231
 8879SOL     OW27535   6.972   4.241   4.098
 8879SOL    HW127536   6.979   4.144   4.121
 8879SOL    HW227537   0.002   4.259   4.011
 8880SOL     OW27538   4.162   1.885   2.743
 8880SOL    HW127539   4.237   1.843   2.692
 8880SOL    HW227540   4.075   1.865   2.696
 8881SOL     OW27541   3.734   5.277   3.278
 8881SOL    HW127542   3.680   5.192   3.275
 8881SOL    HW227543   3.797   5.273   3.355
 8882SOL     OW27544   3.879   1.435   0.186
 8882SOL    HW127545   3.958   1.411   0.130
 8882SOL    HW227546   3.796   1.432   0.129
 8883SOL     OW27547   0.638   6.461   2.986
 8883SOL    HW127548   0.684   6.427   3.068
 8883SOL    HW227549   0.571   6.394   2.954
 8884SOL     OW27550   4.451   2.374   6.188
 8884SOL    HW127551   4.461   2.424   6.102
 8884SOL    HW227552   4.535   2.324   6.208
 8885SOL     OW27553   6.282   4.812   0.923
 8885SOL    HW127554   6.279   4.746   0.997
 8885SOL    HW227555   6.190   4.825   0.886
 8886SOL     OW27556   4.677   6.598   0.486
 8886SOL    HW127557   4.701   6.626   0.393
 8886SOL    HW227558   4.737   6.645   0.551
 8887SOL     OW27559   3.804   0.628   1.942
 8887SOL    HW127560   3.900   0.631   1.914
 8887SOL    HW227561   3.747   0.609   1.863
 8888SOL     OW27562   3.955   2.135   2.218
 8888SOL    HW127563   3.946   2.080   2.135
 8888SOL    HW227564   3.872   2.127   2.272
 8889SOL     OW27565   1.567   4.727   6.564
 8889SOL    HW127566   1.626   4.664   6.614
 8889SOL    HW227567   1.563   4.700   6.468
 8890SOL     OW27568   1.778   6.105   6.989
 8890SOL    HW127569   1.735   6.183   6.945
 8890SOL    HW227570   1.708   6.053   0.024
 8891SOL     OW27571   5.862   3.431   5.400
 8891SOL    HW127572   5.815   3.377   5.469
 8891SOL    HW227573   5.915   3.503   5.445
 8892SOL     OW27574   2.490   5.296   4.946
 8892SOL    HW127575   2.407   5.254   4.984
 8892SOL    HW227576   2.474   5.319   4.850
 8893SOL     OW27577   0.740   4.817   5.234
 8893SOL    HW127578   0.674   4.754   5.193
 8893SOL    HW227579   0.741   4.805   5.333
 8894SOL     OW27580   5.378   2.276   1.704
 8894SOL    HW127581   5.378   2.221   1.621
 8894SOL    HW227582   5.468   2.273   1.746
 8895SOL     OW27583   0.207   3.528   1.811
 8895SOL    HW127584   0.210   3.619   1.770
 8895SOL    HW227585   0.116   3.510   1.847
 8896SOL     OW27586   0.834   1.061   3.718
 8896SOL    HW127587   0.816   1.154   3.687
 8896SOL    HW227588   0.754   1.026   3.766
 8897SOL     OW27589   1.582   5.357   4.359
 8897SOL    HW127590   1.636   5.426   4.407
 8897SOL    HW227591   1.588   5.270   4.408
 8898SOL     OW27592   5.835   5.026   2.741
 8898SOL    HW127593   5.799   4.986   2.657
 8898SOL    HW227594   5.779   5.104   2.769
 8899SOL     OW27595   2.269   4.549   1.456
 8899SOL    HW127596   2.209   4.475   1.426
 8899SOL    HW227597   2.215   4.618   1.504
 8900SOL     OW27598   3.878   1.765   4.712
 8900SOL    HW127599   3.905   1.861   4.708
 8900SOL    HW227600   3.784   1.758   4.746
 8901SOL     OW27601   1.240   4.907   5.269
 8901SOL    HW127602   1.309   4.834   5.268
 8901SOL    HW227603   1.221   4.933   5.364
 8902SOL     OW27604   0.626   5.040   6.777
 8902SOL    HW127605   0.652   5.082   6.864
 8902SOL    HW227606   0.535   5.072   6.750
 8903SOL     OW27607   0.714   0.697   4.536
 8903SOL    HW127608   0.655   0.733   4.464
 8903SOL    HW227609   0.717   0.597   4.530
 8904SOL     OW27610   6.793   1.084   2.822
 8904SOL    HW127611   6.875   1.118   2.867
 8904SOL    HW227612   6.744   1.021   2.882
 8905SOL     OW27613   1.941   5.152   1.640
 8905SOL    HW127614   1.889   5.193   1.566
 8905SOL    HW227615   1.965   5.058   1.617
 8906SOL     OW27616   6.135   0.580   6.687
 8906SOL    HW127617   6.131   0.605   6.783
 8906SOL    HW227618   6.042   0.578   6.650
 8907SOL     OW27619   2.714   3.106   5.301
 8907SOL    HW127620   2.628   3.085   5.253
 8907SOL    HW227621   2.698   3.181   5.365
 8908SOL     OW27622   1.590   5.739   5.762
 8908SOL    HW127623   1.535   5.801   5.707
 8908SOL    HW227624   1.681   5.731   5.723
 8909SOL     OW27625   2.291   6.160   1.987
 8909SOL    HW127626   2.378   6.121   2.017
 8909SOL    HW227627   2.300   6.196   1.894
 8910SOL     OW27628   1.058   0.958   3.973
 8910SOL    HW127629   0.993   0.991   3.905
 8910SOL    HW227630   1.147   0.943   3.930
 8911SOL     OW27631   5.177   3.010   4.275
 8911SOL    HW127632   5.078   3.008   4.294
 8911SOL    HW227633   5.191   3.001   4.177
 8912SOL     OW27634   3.718   2.977   3.691
 8912SOL    HW127635   3.737   2.959   3.594
 8912SOL    HW227636   3.644   3.043   3.698
 8913SOL     OW27637   5.257   5.723   1.172
 8913SOL    HW127638   5.163   5.757   1.161
 8913SOL    HW227639   5.314   5.794   1.212
 8914SOL     OW27640   4.950   5.145   5.180
 8914SOL    HW127641   4.968   5.113   5.273
 8914SOL    HW227642   5.036   5.152   5.130
 8915SOL     OW27643   2.517   0.921   3.660
 8915SOL    HW127644   2.456   0.888   3.588
 8915SOL    HW227645   2.479   1.004   3.700
 8916SOL     OW27646   6.008   0.601   2.156
 8916SOL    HW127647   5.935   0.649   2.205
 8916SOL    HW227648   5.993   0.607   2.058
 8917SOL     OW27649   5.925   2.312   0.510
 8917SOL    HW127650   5.838   2.348   0.543
 8917SOL    HW227651   5.997   2.334   0.576
 8918SOL     OW27652   1.618   3.316   2.846
 8918SOL    HW127653   1.685   3.285   2.779
 8918SOL    HW227654   1.650   3.292   2.938
 8919SOL     OW27655   6.468   2.752   2.613
 8919SOL    HW127656   6.536   2.778   2.544
 8919SOL    HW227657   6.444   2.832   2.667
 8920SOL     OW27658   0.749   2.169   0.604
 8920SOL    HW127659   0.708   2.081   0.628
 8920SOL    HW227660   0.732   2.189   0.507
 8921SOL     OW27661   0.987   2.513   1.145
 8921SOL    HW127662   0.997   2.510   1.244
 8921SOL    HW227663   1.067   2.471   1.102
 8922SOL     OW27664   2.781   4.971   3.416
 8922SOL    HW127665   2.877   4.986   3.392
 8922SOL    HW227666   2.749   4.885   3.376
 8923SOL     OW27667   2.574   1.500   3.531
 8923SOL    HW127668   2.516   1.494   3.612
 8923SOL    HW227669   2.524   1.543   3.457
 8924SOL     OW27670   6.235   4.917   4.873
 8924SOL    HW127671   6.234   5.014   4.848
 8924SOL    HW227672   6.245   4.861   4.791
 8925SOL     OW27673   0.582   6.506   3.787
 8925SOL    HW127674   0.509   6.566   3.754
 8925SOL    HW227675   0.543   6.421   3.822
 8926SOL     OW27676   5.856   2.101   6.707
 8926SOL    HW127677   5.881   2.193   6.738
 8926SOL    HW227678   5.894   2.086   6.615
 8927SOL     OW27679   1.123   1.648   6.584
 8927SOL    HW127680   1.060   1.664   6.507
 8927SOL    HW227681   1.139   1.550   6.593
 8928SOL     OW27682   1.202   6.904   5.371
 8928SOL    HW127683   1.217   6.921   5.273
 8928SOL    HW227684   1.286   6.868   5.412
 8929SOL     OW27685   6.530   1.102   3.631
 8929SOL    HW127686   6.531   1.147   3.720
 8929SOL    HW227687   6.535   1.171   3.558
 8930SOL     OW27688   2.368   5.389   2.692
 8930SOL    HW127689   2.327   5.299   2.678
 8930SOL    HW227690   2.296   5.456   2.711
 8931SOL     OW27691   4.369   3.084   0.099
 8931SOL    HW127692   4.423   3.156   0.142
 8931SOL    HW227693   4.279   3.121   0.074
 8932SOL     OW27694   0.412   3.734   2.433
 8932SOL    HW127695   0.461   3.808   2.388
 8932SOL    HW227696   0.420   3.651   2.379
 8933SOL     OW27697   5.049   2.182   6.134
 8933SOL    HW127698   5.028   2.099   6.185
 8933SOL    HW227699   5.142   2.213   6.156
 8934SOL     OW27700   2.407   6.232   2.908
 8934SOL    HW127701   2.366   6.309   2.860
 8934SOL    HW227702   2.350   6.209   2.988
 8935SOL     OW27703   0.306   5.604   6.705
 8935SOL    HW127704   0.212   5.627   6.730
 8935SOL    HW227705   0.320   5.625   6.608
 8936SOL     OW27706   4.504   3.117   0.899
 8936SOL    HW127707   4.434   3.139   0.967
 8936SOL    HW227708   4.466   3.054   0.832
 8937SOL     OW27709   0.009   1.299   6.347
 8937SOL    HW127710   0.104   1.270   6.358
 8937SOL    HW227711   6.965   1.219   6.350
 8938SOL     OW27712   4.693   5.866   1.749
 8938SOL    HW127713   4.721   5.960   1.766
 8938SOL    HW227714   4.768   5.804   1.772
 8939SOL     OW27715   5.635   2.057   4.365
 8939SOL    HW127716   5.608   2.119   4.292
 8939SOL    HW227717   5.554   2.012   4.403
 8940SOL     OW27718   5.495   6.976   2.572
 8940SOL    HW127719   5.415   0.005   2.611
 8940SOL    HW227720   5.573   6.987   2.634
 8941SOL     OW27721   3.741   2.074   0.138
 8941SOL    HW127722   3.826   2.124   0.154
 8941SOL    HW227723   3.725   2.067   0.040
 8942SOL     OW27724   1.366   2.234   5.798
 8942SOL    HW127725   1.430   2.166   5.835
 8942SOL    HW227726   1.411   2.285   5.724
 8943SOL     OW27727   5.313   3.862   0.779
 8943SOL    HW127728   5.219   3.832   0.796
 8943SOL    HW227729   5.312   3.954   0.741
 8944SOL     OW27730   4.183   5.724   1.276
 8944SOL    HW127731   4.200   5.768   1.364
 8944SOL    HW227732   4.270   5.709   1.229
 8945SOL     OW27733   2.476   1.148   3.845
 8945SOL    HW127734   2.389   1.181   3.884
 8945SOL    HW227735   2.522   1.090   3.912
 8946SOL     OW27736   3.759   0.924   4.778
 8946SOL    HW127737   3.714   0.977   4.849
 8946SOL    HW227738   3.847   0.891   4.812
 8947SOL     OW27739   3.596   3.590   5.356
 8947SOL    HW127740   3.645   3.529   5.294
 8947SOL    HW227741   3.607   3.685   5.325
 8948SOL     OW27742   5.584   4.828   3.418
 8948SOL    HW127743   5.585   4.849   3.516
 8948SOL    HW227744   5.507   4.874   3.375
 8949SOL     OW27745   1.578   5.741   6.038
 8949SOL    HW127746   1.598   5.736   5.940
 8949SOL    HW227747   1.480   5.728   6.053
 8950SOL     OW27748   4.710   2.861   4.447
 8950SOL    HW127749   4.642   2.799   4.487
 8950SOL    HW227750   4.758   2.910   4.520
 8951SOL     OW27751   2.873   1.993   5.592
 8951SOL    HW127752   2.848   1.955   5.502
 8951SOL    HW227753   2.971   1.981   5.606
 8952SOL     OW27754   6.305   6.749   3.256
 8952SOL    HW127755   6.252   6.830   3.282
 8952SOL    HW227756   6.243   6.671   3.248
 8953SOL     OW27757   1.353   5.140   5.568
 8953SOL    HW127758   1.394   5.103   5.652
 8953SOL    HW227759   1.412   5.120   5.490
 8954SOL     OW27760   2.353   6.401   6.132
 8954SOL    HW127761   2.427   6.355   6.083
 8954SOL    HW227762   2.384   6.423   6.225
 8955SOL     OW27763   0.162   3.948   4.353
 8955SOL    HW127764   0.194   3.866   4.307
 8955SOL    HW227765   0.107   3.923   4.432
 8956SOL     OW27766   0.789   0.814   4.760
 8956SOL    HW127767   0.851   0.760   4.816
 8956SOL    HW227768   0.758   0.760   4.682
 8957SOL     OW27769   3.262   6.014   1.929
 8957SOL    HW127770   3.229   5.940   1.987
 8957SOL    HW227771   3.263   6.099   1.981
 8958SOL     OW27772   3.146   0.580   4.804
 8958SOL    HW127773   3.104   0.498   4.843
 8958SOL    HW227774   3.076   0.635   4.758
 8959SOL     OW27775   3.705   5.181   0.028
 8959SOL    HW127776   3.793   5.177   0.076
 8959SOL    HW227777   3.712   5.244   6.967
 8960SOL     OW27778   4.269   5.622   0.602
 8960SOL    HW127779   4.213   5.704   0.609
 8960SOL    HW227780   4.359   5.645   0.566
 8961SOL     OW27781   0.730   2.876   4.217
 8961SOL    HW127782   0.712   2.922   4.304
 8961SOL    HW227783   0.658   2.900   4.151
 8962SOL     OW27784   4.849   0.389   3.994
 8962SOL    HW127785   4.847   0.348   3.903
 8962SOL    HW227786   4.762   0.434   4.013
 8963SOL     OW27787   0.721   1.171   4.429
 8963SOL    HW127788   0.741   1.120   4.513
 8963SOL    HW227789   0.793   1.154   4.362
 8964SOL     OW27790   0.740   3.079   3.291
 8964SOL    HW127791   0.732   2.986   3.327
 8964SOL    HW227792   0.804   3.080   3.214
 8965SOL     OW27793   1.922   5.045   1.225
 8965SOL    HW127794   1.972   5.075   1.143
 8965SOL    HW227795   1.910   5.123   1.287
 8966SOL     OW27796   3.990   2.041   4.778
 8966SOL    HW127797   4.076   2.055   4.826
 8966SOL    HW227798   3.997   2.080   4.686
 8967SOL     OW27799   5.388   6.638   0.478
 8967SOL    HW127800   5.461   6.611   0.541
 8967SOL    HW227801   5.362   6.561   0.420
 8968SOL     OW27802   5.672   4.041   3.821
 8968SOL    HW127803   5.622   4.042   3.908
 8968SOL    HW227804   5.632   3.973   3.760
 8969SOL     OW27805   6.617   0.054   3.921
 8969SOL    HW127806   6.571   0.050   3.832
 8969SOL    HW227807   6.714   0.070   3.907
 8970SOL     OW27808   3.048   2.754   1.271
 8970SOL    HW127809   2.976   2.799   1.218
 8970SOL    HW227810   3.070   2.810   1.351
 8971SOL     OW27811   3.548   6.521   2.863
 8971SOL    HW127812   3.450   6.531   2.877
 8971SOL    HW227813   3.581   6.440   2.913
 8972SOL     OW27814   5.119   0.250   4.789
 8972SOL    HW127815   5.160   0.159   4.801
 8972SOL    HW227816   5.124   0.300   4.875
 8973SOL     OW27817   1.850   4.793   6.577
 8973SOL    HW127818   1.904   4.865   6.618
 8973SOL    HW227819   1.766   4.831   6.538
 8974SOL     OW27820   0.282   2.587   4.229
 8974SOL    HW127821   0.211   2.531   4.273
 8974SOL    HW227822   0.346   2.527   4.180
 8975SOL     OW27823   3.428   0.777   5.943
 8975SOL    HW127824   3.397   0.702   5.885
 8975SOL    HW227825   3.521   0.804   5.916
 8976SOL     OW27826   1.475   5.655   3.905
 8976SOL    HW127827   1.565   5.637   3.943
 8976SOL    HW227828   1.484   5.689   3.811
 8977SOL     OW27829   5.497   1.511   0.060
 8977SOL    HW127830   5.495   1.603   0.099
 8977SOL    HW227831   5.426   1.455   0.102
 8978SOL     OW27832   5.660   5.245   1.300
 8978SOL    HW127833   5.699   5.252   1.208
 8978SOL    HW227834   5.672   5.152   1.334
 8979SOL     OW27835   0.966   4.750   4.863
 8979SOL    HW127836   0.869   4.740   4.839
 8979SOL    HW227837   1.021   4.693   4.802
 8980SOL     OW27838   3.120   3.045   3.971
 8980SOL    HW127839   3.204   2.991   3.966
 8980SOL    HW227840   3.117   3.109   3.894
 8981SOL     OW27841   2.795   1.937   5.339
 8981SOL    HW127842   2.712   1.904   5.294
 8981SOL    HW227843   2.849   1.991   5.275
 8982SOL     OW27844   3.738   4.901   0.552
 8982SOL    HW127845   3.705   4.808   0.538
 8982SOL    HW227846   3.686   4.944   0.625
 8983SOL     OW27847   4.759   4.560   0.822
 8983SOL    HW127848   4.804   4.585   0.736
 8983SOL    HW227849   4.675   4.614   0.832
 8984SOL     OW27850   1.544   6.706   3.495
 8984SOL    HW127851   1.500   6.727   3.583
 8984SOL    HW227852   1.643   6.719   3.503
 8985SOL     OW27853   3.344   3.090   6.059
 8985SOL    HW127854   3.291   3.129   5.983
 8985SOL    HW227855   3.290   3.096   6.143
 8986SOL     OW27856   2.500   6.064   2.162
 8986SOL    HW127857   2.572   6.031   2.102
 8986SOL    HW227858   2.476   5.993   2.228
 8987SOL     OW27859   4.997   6.810   2.377
 8987SOL    HW127860   5.000   6.877   2.450
 8987SOL    HW227861   4.908   6.764   2.379
 8988SOL     OW27862   0.838   4.616   4.532
 8988SOL    HW127863   0.929   4.653   4.550
 8988SOL    HW227864   0.769   4.672   4.578
 8989SOL     OW27865   2.290   2.002   6.714
 8989SOL    HW127866   2.302   1.942   6.635
 8989SOL    HW227867   2.366   2.066   6.720
 8990SOL     OW27868   0.313   4.795   4.184
 8990SOL    HW127869   0.352   4.718   4.133
 8990SOL    HW227870   0.361   4.879   4.160
 8991SOL     OW27871   1.578   2.404   5.418
 8991SOL    HW127872   1.599   2.502   5.416
 8991SOL    HW227873   1.600   2.363   5.330
 8992SOL     OW27874   6.090   2.201   1.703
 8992SOL    HW127875   6.154   2.138   1.746
 8992SOL    HW227876   6.124   2.227   1.613
 8993SOL     OW27877   4.375   2.072   0.971
 8993SOL    HW127878   4.405   2.167   0.963
 8993SOL    HW227879   4.450   2.011   0.946
 8994SOL     OW27880   1.488   5.492   2.388
 8994SOL    HW127881   1.537   5.448   2.312
 8994SOL    HW227882   1.487   5.430   2.467
 8995SOL     OW27883   0.637   0.351   1.705
 8995SOL    HW127884   0.623   0.253   1.690
 8995SOL    HW227885   0.550   0.398   1.695
 8996SOL     OW27886   4.191   5.905   5.459
 8996SOL    HW127887   4.093   5.909   5.477
 8996SOL    HW227888   4.218   5.809   5.448
 8997SOL     OW27889   6.231   0.283   5.020
 8997SOL    HW127890   6.255   0.192   5.052
 8997SOL    HW227891   6.248   0.350   5.092
 8998SOL     OW27892   6.930   4.408   4.959
 8998SOL    HW127893   6.838   4.432   4.928
 8998SOL    HW227894   6.980   4.492   4.982
 8999SOL     OW27895   4.095   5.935   6.505
 8999SOL    HW127896   4.176   5.877   6.494
 8999SOL    HW227897   4.014   5.882   6.483
 9000SOL     OW27898   0.772   4.202   0.982
 9000SOL    HW127899   0.773   4.127   0.916
 9000SOL    HW227900   0.710   4.180   1.057
 9001SOL     OW27901   1.605   5.661   0.769
 9001SOL    HW127902   1.579   5.668   0.865
 9001SOL    HW227903   1.703   5.678   0.759
 9002SOL     OW27904   0.047   5.430   6.216
 9002SOL    HW127905   0.021   5.437   6.120
 9002SOL    HW227906   6.993   5.379   6.266
 9003SOL     OW27907   4.999   6.923   0.722
 9003SOL    HW127908   4.965   6.832   0.699
 9003SOL    HW227909   4.935   6.967   0.785
 9004SOL     OW27910   6.180   5.258   1.487
 9004SOL    HW127911   6.211   5.331   1.549
 9004SOL    HW227912   6.259   5.204   1.458
 9005SOL     OW27913   4.892   0.859   4.878
 9005SOL    HW127914   4.958   0.934   4.867
 9005SOL    HW227915   4.917   0.784   4.817
 9006SOL     OW27916   3.664   6.168   0.366
 9006SOL    HW127917   3.730   6.240   0.347
 9006SOL    HW227918   3.590   6.204   0.422
 9007SOL     OW27919   0.666   0.909   3.349
 9007SOL    HW127920   0.650   0.869   3.259
 9007SOL    HW227921   0.582   0.902   3.404
 9008SOL     OW27922   0.034   5.493   2.524
 9008SOL    HW127923   0.016   5.469   2.619
 9008SOL    HW227924   0.106   5.433   2.488
 9009SOL     OW27925   2.803   6.788   1.889
 9009SOL    HW127926   2.734   6.734   1.939
 9009SOL    HW227927   2.840   6.858   1.949
 9010SOL     OW27928   1.561   5.720   4.450
 9010SOL    HW127929   1.610   5.652   4.504
 9010SOL    HW227930   1.479   5.679   4.410
 9011SOL     OW27931   1.835   1.988   2.062
 9011SOL    HW127932   1.851   2.043   2.145
 9011SOL    HW227933   1.738   1.988   2.040
 9012SOL     OW27934   2.583   6.360   6.735
 9012SOL    HW127935   2.522   6.297   6.784
 9012SOL    HW227936   2.564   6.454   6.763
 9013SOL     OW27937   2.073   0.427   4.728
 9013SOL    HW127938   1.987   0.397   4.687
 9013SOL    HW227939   2.149   0.405   4.667
 9014SOL     OW27940   5.131   3.126   3.520
 9014SOL    HW127941   5.198   3.190   3.482
 9014SOL    HW227942   5.051   3.122   3.459
 9015SOL     OW27943   4.421   6.757   5.961
 9015SOL    HW127944   4.429   6.857   5.954
 9015SOL    HW227945   4.412   6.718   5.869
 9016SOL     OW27946   5.048   4.519   5.883
 9016SOL    HW127947   5.100   4.599   5.914
 9016SOL    HW227948   4.951   4.541   5.885
 9017SOL     OW27949   2.797   0.446   5.207
 9017SOL    HW127950   2.794   0.348   5.189
 9017SOL    HW227951   2.711   0.476   5.248
 9018SOL     OW27952   4.149   4.924   0.513
 9018SOL    HW127953   4.156   4.825   0.499
 9018SOL    HW227954   4.073   4.944   0.573
 9019SOL     OW27955   0.607   3.238   4.219
 9019SOL    HW127956   0.704   3.235   4.242
 9019SOL    HW227957   0.556   3.178   4.282
 9020SOL     OW27958   5.793   4.680   3.234
 9020SOL    HW127959   5.722   4.676   3.163
 9020SOL    HW227960   5.789   4.596   3.289
 9021SOL     OW27961   6.883   1.422   4.275
 9021SOL    HW127962   6.802   1.452   4.326
 9021SOL    HW227963   6.946   1.499   4.266
 9022SOL     OW27964   4.660   3.474   0.100
 9022SOL    HW127965   4.609   3.411   0.042
 9022SOL    HW227966   4.757   3.469   0.076
 9023SOL     OW27967   6.996   4.756   0.679
 9023SOL    HW127968   0.038   4.725   0.754
 9023SOL    HW227969   6.946   4.678   0.641
 9024SOL     OW27970   2.108   4.718   5.918
 9024SOL    HW127971   2.034   4.777   5.886
 9024SOL    HW227972   2.165   4.769   5.983
 9025SOL     OW27973   0.881   6.197   0.886
 9025SOL    HW127974   0.816   6.188   0.810
 9025SOL    HW227975   0.854   6.136   0.960
 9026SOL     OW27976   5.823   0.907   0.175
 9026SOL    HW127977   5.823   0.843   0.252
 9026SOL    HW227978   5.905   0.965   0.180
 9027SOL     OW27979   0.135   3.749   2.822
 9027SOL    HW127980   0.049   3.795   2.800
 9027SOL    HW227981   0.167   3.698   2.743
 9028SOL     OW27982   3.335   4.696   6.807
 9028SOL    HW127983   3.289   4.614   6.841
 9028SOL    HW227984   3.284   4.734   6.731
 9029SOL     OW27985   4.506   6.249   4.680
 9029SOL    HW127986   4.523   6.177   4.747
 9029SOL    HW227987   4.452   6.322   4.723
 9030SOL     OW27988   2.870   2.238   2.302
 9030SOL    HW127989   2.950   2.247   2.363
 9030SOL    HW227990   2.896   2.263   2.209
 9031SOL     OW27991   5.163   6.894   5.182
 9031SOL    HW127992   5.103   6.971   5.159
 9031SOL    HW227993   5.240   6.927   5.236
 9032SOL     OW27994   5.399   2.734   1.123
 9032SOL    HW127995   5.307   2.753   1.091
 9032SOL    HW227996   5.421   2.638   1.107
 9033SOL     OW27997   1.229   6.389   2.634
 9033SOL    HW127998   1.225   6.305   2.581
 9033SOL    HW227999   1.318   6.433   2.619
 9034SOL     OW28000   4.464   6.520   4.762
 9034SOL    HW128001   4.552   6.544   4.804
 9034SOL    HW228002   4.410   6.603   4.748
 9035SOL     OW28003   3.226   5.195   6.089
 9035SOL    HW128004   3.217   5.119   6.025
 9035SOL    HW228005   3.267   5.274   6.042
 9036SOL     OW28006   0.785   5.193   5.471
 9036SOL    HW128007   0.816   5.268   5.530
 9036SOL    HW228008   0.828   5.202   5.381
 9037SOL     OW28009   0.229   0.565   2.185
 9037SOL    HW128010   0.195   0.535   2.096
 9037SOL    HW228011   0.291   0.495   2.222
 9038SOL     OW28012   3.974   3.255   5.721
 9038SOL    HW128013   3.878   3.282   5.715
 9038SOL    HW228014   4.032   3.334   5.702
 9039SOL     OW28015   4.262   6.378   6.783
 9039SOL    HW128016   4.232   6.416   6.695
 9039SOL    HW228017   4.259   6.279   6.780
 9040SOL     OW28018   2.086   2.183   1.617
 9040SOL    HW128019   2.077   2.183   1.716
 9040SOL    HW228020   2.161   2.122   1.591
 9041SOL     OW28021   6.126   2.251   2.771
 9041SOL    HW128022   6.176   2.329   2.733
 9041SOL    HW228023   6.185   2.202   2.835
 9042SOL     OW28024   5.255   5.940   6.590
 9042SOL    HW128025   5.344   5.969   6.625
 9042SOL    HW228026   5.182   5.990   6.637
 9043SOL     OW28027   2.828   2.879   1.696
 9043SOL    HW128028   2.732   2.850   1.694
 9043SOL    HW228029   2.850   2.929   1.612
 9044SOL     OW28030   1.524   0.481   0.027
 9044SOL    HW128031   1.449   0.516   6.987
 9044SOL    HW228032   1.611   0.502   6.997
 9045SOL     OW28033   3.767   0.638   3.616
 9045SOL    HW128034   3.672   0.606   3.609
 9045SOL    HW228035   3.794   0.641   3.713
 9046SOL     OW28036   3.864   3.574   2.283
 9046SOL    HW128037   3.789   3.523   2.241
 9046SOL    HW228038   3.835   3.668   2.301
 9047SOL     OW28039   0.532   4.686   5.575
 9047SOL    HW128040   0.601   4.684   5.502
 9047SOL    HW228041   0.569   4.642   5.657
 9048SOL     OW28042   6.820   1.772   5.098
 9048SOL    HW128043   6.879   1.753   5.176
 9048SOL    HW228044   6.845   1.712   5.022
 9049SOL     OW28045   1.417   6.794   5.521
 9049SOL    HW128046   1.430   6.877   5.576
 9049SOL    HW228047   1.385   6.720   5.580
 9050SOL     OW28048   1.200   4.550   0.228
 9050SOL    HW128049   1.224   4.589   0.317
 9050SOL    HW228050   1.101   4.548   0.217
 9051SOL     OW28051   1.989   0.929   1.522
 9051SOL    HW128052   2.063   0.996   1.530
 9051SOL    HW228053   1.973   0.886   1.610
 9052SOL     OW28054   2.133   3.435   6.226
 9052SOL    HW128055   2.165   3.451   6.132
 9052SOL    HW228056   2.164   3.510   6.285
 9053SOL     OW28057   0.314   1.267   6.981
 9053SOL    HW128058   0.292   1.360   6.954
 9053SOL    HW228059   0.375   1.269   0.044
 9054SOL     OW28060   1.582   5.464   2.845
 9054SOL    HW128061   1.666   5.434   2.889
 9054SOL    HW228062   1.516   5.388   2.846
 9055SOL     OW28063   0.716   2.605   6.040
 9055SOL    HW128064   0.786   2.550   5.993
 9055SOL    HW228065   0.655   2.545   6.092
 9056SOL     OW28066   5.601   1.614   4.139
 9056SOL    HW128067   5.641   1.540   4.084
 9056SOL    HW228068   5.662   1.693   4.137
 9057SOL     OW28069   5.025   1.411   3.472
 9057SOL    HW128070   5.007   1.402   3.374
 9057SOL    HW228071   5.077   1.495   3.489
 9058SOL     OW28072   2.273   0.016   6.071
 9058SOL    HW128073   2.234   0.007   6.162
 9058SOL    HW228074   2.204   0.049   6.007
 9059SOL     OW28075   1.218   2.144   3.925
 9059SOL    HW128076   1.199   2.221   3.864
 9059SOL    HW228077   1.133   2.096   3.946
 9060SOL     OW28078   5.328   2.495   5.069
 9060SOL    HW128079   5.424   2.523   5.071
 9060SOL    HW228080   5.288   2.503   5.160
 9061SOL     OW28081   1.957   4.746   3.543
 9061SOL    HW128082   1.869   4.758   3.496
 9061SOL    HW228083   2.028   4.797   3.495
 9062SOL     OW28084   1.538   6.172   1.973
 9062SOL    HW128085   1.467   6.145   2.037
 9062SOL    HW228086   1.628   6.166   2.017
 9063SOL     OW28087   2.943   1.566   2.399
 9063SOL    HW128088   3.005   1.601   2.470
 9063SOL    HW228089   2.974   1.598   2.309
 9064SOL     OW28090   4.625   3.968   6.716
 9064SOL    HW128091   4.695   4.027   6.759
 9064SOL    HW228092   4.637   3.874   6.748
 9065SOL     OW28093   2.594   0.844   1.378
 9065SOL    HW128094   2.644   0.757   1.374
 9065SOL    HW228095   2.540   0.848   1.462
 9066SOL     OW28096   4.956   6.913   0.007
 9066SOL    HW128097   4.994   6.992   6.974
 9066SOL    HW228098   4.986   6.829   6.978
 9067SOL     OW28099   1.060   0.271   1.468
 9067SOL    HW128100   1.086   0.209   1.543
 9067SOL    HW228101   1.097   0.362   1.486
 9068SOL     OW28102   1.247   6.254   6.177
 9068SOL    HW128103   1.338   6.224   6.207
 9068SOL    HW228104   1.201   6.180   6.128
 9069SOL     OW28105   1.183   2.246   6.022
 9069SOL    HW128106   1.239   2.251   5.939
 9069SOL    HW228107   1.212   2.166   6.076
 9070SOL     OW28108   1.477   4.488   4.066
 9070SOL    HW128109   1.380   4.510   4.057
 9070SOL    HW228110   1.531   4.572   4.067
 9071SOL     OW28111   5.017   5.253   6.866
 9071SOL    HW128112   5.068   5.260   6.952
 9071SOL    HW228113   4.930   5.301   6.875
 9072SOL     OW28114   5.294   4.550   0.638
 9072SOL    HW128115   5.337   4.469   0.599
 9072SOL    HW228116   5.194   4.542   0.630
 9073SOL     OW28117   1.868   0.342   1.244
 9073SOL    HW128118   1.933   0.275   1.280
 9073SOL    HW228119   1.810   0.299   1.176
 9074SOL     OW28120   0.354   0.428   1.626
 9074SOL    HW128121   0.354   0.514   1.575
 9074SOL    HW228122   0.269   0.379   1.607
 9075SOL     OW28123   0.037   0.427   1.322
 9075SOL    HW128124   0.051   0.491   1.247
 9075SOL    HW228125   6.957   0.399   1.325
 9076SOL     OW28126   1.341   2.362   5.524
 9076SOL    HW128127   1.287   2.284   5.494
 9076SOL    HW228128   1.426   2.366   5.473
 9077SOL     OW28129   5.691   6.378   2.534
 9077SOL    HW128130   5.639   6.316   2.593
 9077SOL    HW228131   5.635   6.402   2.455
 9078SOL     OW28132   4.583   3.303   5.553
 9078SOL    HW128133   4.661   3.359   5.526
 9078SOL    HW228134   4.614   3.209   5.571
 9079SOL     OW28135   2.453   6.624   5.196
 9079SOL    HW128136   2.419   6.718   5.187
 9079SOL    HW228137   2.491   6.611   5.288
 9080SOL     OW28138   4.661   1.034   0.331
 9080SOL    HW128139   4.639   1.010   0.426
 9080SOL    HW228140   4.624   1.125   0.311
 9081SOL     OW28141   5.369   0.049   3.297
 9081SOL    HW128142   5.351   6.983   3.352
 9081SOL    HW228143   5.401   0.123   3.357
 9082SOL     OW28144   2.336   0.632   2.002
 9082SOL    HW128145   2.258   0.633   1.940
 9082SOL    HW228146   2.344   0.541   2.043
 9083SOL     OW28147   4.400   5.179   3.630
 9083SOL    HW128148   4.335   5.103   3.633
 9083SOL    HW228149   4.375   5.241   3.555
 9084SOL     OW28150   3.542   3.759   2.297
 9084SOL    HW128151   3.558   3.842   2.243
 9084SOL    HW228152   3.611   3.753   2.370
 9085SOL     OW28153   0.951   2.104   0.849
 9085SOL    HW128154   1.020   2.110   0.777
 9085SOL    HW228155   0.863   2.136   0.815
 9086SOL     OW28156   6.759   3.686   0.101
 9086SOL    HW128157   6.749   3.599   0.053
 9086SOL    HW228158   6.672   3.735   0.099
 9087SOL     OW28159   5.221   3.568   1.954
 9087SOL    HW128160   5.139   3.512   1.945
 9087SOL    HW228161   5.229   3.600   2.048
 9088SOL     OW28162   5.770   4.741   2.086
 9088SOL    HW128163   5.781   4.828   2.134
 9088SOL    HW228164   5.726   4.675   2.147
 9089SOL     OW28165   3.965   0.939   5.722
 9089SOL    HW128166   4.061   0.909   5.720
 9089SOL    HW228167   3.961   1.034   5.753
 9090SOL     OW28168   6.574   1.929   3.658
 9090SOL    HW128169   6.627   1.996   3.711
 9090SOL    HW228170   6.637   1.865   3.614
 9091SOL     OW28171   4.145   2.894   5.413
 9091SOL    HW128172   4.048   2.903   5.391
 9091SOL    HW228173   4.169   2.958   5.486
 9092SOL     OW28174   6.555   3.618   6.259
 9092SOL    HW128175   6.605   3.700   6.288
 9092SOL    HW228176   6.539   3.559   6.338
 9093SOL     OW28177   2.465   6.182   4.864
 9093SOL    HW128178   2.486   6.182   4.961
 9093SOL    HW228179   2.370   6.155   4.849
 9094SOL     OW28180   1.965   3.732   0.674
 9094SOL    HW128181   2.014   3.806   0.719
 9094SOL    HW228182   1.982   3.735   0.575
 9095SOL     OW28183   0.508   0.134   6.087
 9095SOL    HW128184   0.582   0.182   6.135
 9095SOL    HW228185   0.434   0.198   6.069
 9096SOL     OW28186   6.599   5.452   3.728
 9096SOL    HW128187   6.588   5.373   3.667
 9096SOL    HW228188   6.597   5.536   3.674
 9097SOL     OW28189   1.015   3.935   0.086
 9097SOL    HW128190   1.025   3.835   0.088
 9097SOL    HW228191   1.095   3.975   0.042
 9098SOL     OW28192   1.829   5.174   3.776
 9098SOL    HW128193   1.846   5.265   3.813
 9098SOL    HW228194   1.773   5.122   3.840
 9099SOL     OW28195   2.196   1.549   6.286
 9099SOL    HW128196   2.216   1.519   6.379
 9099SOL    HW228197   2.204   1.471   6.224
 9100SOL     OW28198   1.823   4.803   4.525
 9100SOL    HW128199   1.750   4.736   4.513
 9100SOL    HW228200   1.805   4.882   4.467
 9101SOL     OW28201   6.745   1.945   1.102
 9101SOL    HW128202   6.834   1.959   1.144
 9101SOL    HW228203   6.738   2.001   1.020
 9102SOL     OW28204   3.735   0.773   3.147
 9102SOL    HW128205   3.786   0.857   3.129
 9102SOL    HW228206   3.663   0.762   3.078
 9103SOL     OW28207   6.430   0.240   1.247
 9103SOL    HW128208   6.415   0.216   1.343
 9103SOL    HW228209   6.364   0.192   1.189
 9104SOL     OW28210   5.651   2.440   5.850
 9104SOL    HW128211   5.578   2.476   5.910
 9104SOL    HW228212   5.614   2.366   5.794
 9105SOL     OW28213   2.931   0.746   0.052
 9105SOL    HW128214   2.993   0.718   0.126
 9105SOL    HW228215   2.837   0.724   0.077
 9106SOL     OW28216   2.453   3.114   6.192
 9106SOL    HW128217   2.379   3.091   6.129
 9106SOL    HW228218   2.526   3.046   6.185
 9107SOL     OW28219   3.679   0.644   1.185
 9107SOL    HW128220   3.745   0.694   1.128
 9107SOL    HW228221   3.704   0.548   1.189
 9108SOL     OW28222   6.272   6.457   5.592
 9108SOL    HW128223   6.356   6.498   5.628
 9108SOL    HW228224   6.278   6.357   5.599
 9109SOL     OW28225   5.532   4.561   3.366
 9109SOL    HW128226   5.550   4.659   3.360
 9109SOL    HW228227   5.617   4.513   3.388
 9110SOL     OW28228   1.536   6.785   2.410
 9110SOL    HW128229   1.563   6.736   2.327
 9110SOL    HW228230   1.440   6.814   2.402
 9111SOL     OW28231   4.409   2.742   5.511
 9111SOL    HW128232   4.485   2.791   5.468
 9111SOL    HW228233   4.331   2.804   5.520
 9112SOL     OW28234   0.747   4.646   1.578
 9112SOL    HW128235   0.712   4.732   1.614
 9112SOL    HW228236   0.709   4.570   1.631
 9113SOL     OW28237   5.811   6.885   4.202
 9113SOL    HW128238   5.790   6.790   4.182
 9113SOL    HW228239   5.729   6.931   4.238
 9114SOL     OW28240   0.364   1.491   6.209
 9114SOL    HW128241   0.365   1.562   6.279
 9114SOL    HW228242   0.338   1.403   6.250
 9115SOL     OW28243   5.355   3.731   4.408
 9115SOL    HW128244   5.290   3.693   4.342
 9115SOL    HW228245   5.353   3.678   4.492
 9116SOL     OW28246   0.740   5.096   3.597
 9116SOL    HW128247   0.782   5.165   3.656
 9116SOL    HW228248   0.697   5.026   3.654
 9117SOL     OW28249   1.857   6.825   0.022
 9117SOL    HW128250   1.818   6.747   0.071
 9117SOL    HW228251   1.955   6.812   0.012
 9118SOL     OW28252   6.828   5.092   1.340
 9118SOL    HW128253   6.870   5.143   1.415
 9118SOL    HW228254   6.742   5.135   1.314
 9119SOL     OW28255   3.381   1.298   0.960
 9119SOL    HW128256   3.444   1.372   0.939
 9119SOL    HW228257   3.421   1.237   1.028
 9120SOL     OW28258   6.287   4.200   5.123
 9120SOL    HW128259   6.278   4.258   5.042
 9120SOL    HW228260   6.364   4.232   5.179
 9121SOL     OW28261   4.439   1.144   4.596
 9121SOL    HW128262   4.393   1.206   4.532
 9121SOL    HW228263   4.382   1.064   4.611
 9122SOL     OW28264   0.101   1.458   1.977
 9122SOL    HW128265   0.092   1.517   1.897
 9122SOL    HW228266   0.010   1.436   2.012
 9123SOL     OW28267   0.612   6.249   4.708
 9123SOL    HW128268   0.611   6.334   4.760
 9123SOL    HW228269   0.666   6.180   4.756
 9124SOL     OW28270   3.348   5.561   0.328
 9124SOL    HW128271   3.342   5.604   0.238
 9124SOL    HW228272   3.310   5.469   0.324
 9125SOL     OW28273   4.978   6.370   1.845
 9125SOL    HW128274   5.031   6.328   1.918
 9125SOL    HW228275   4.884   6.336   1.847
 9126SOL     OW28276   3.678   5.200   0.416
 9126SOL    HW128277   3.751   5.137   0.442
 9126SOL    HW228278   3.702   5.293   0.444
 9127SOL     OW28279   6.339   4.578   5.496
 9127SOL    HW128280   6.369   4.577   5.591
 9127SOL    HW228281   6.396   4.515   5.443
 9128SOL     OW28282   5.346   3.619   6.867
 9128SOL    HW128283   5.265   3.569   6.836
 9128SOL    HW228284   5.395   3.655   6.787
 9129SOL     OW28285   0.457   3.146   1.414
 9129SOL    HW128286   0.359   3.131   1.428
 9129SOL    HW228287   0.494   3.197   1.491
 9130SOL     OW28288   2.761   3.320   6.227
 9130SOL    HW128289   2.815   3.403   6.241
 9130SOL    HW228290   2.736   3.311   6.131
 9131SOL     OW28291   6.346   3.160   0.833
 9131SOL    HW128292   6.370   3.076   0.881
 9131SOL    HW228293   6.250   3.183   0.851
 9132SOL     OW28294   0.961   3.844   3.516
 9132SOL    HW128295   0.973   3.775   3.444
 9132SOL    HW228296   1.050   3.879   3.545
 9133SOL     OW28297   4.909   0.150   0.609
 9133SOL    HW128298   4.956   0.167   0.522
 9133SOL    HW228299   4.947   0.067   0.651
 9134SOL     OW28300   5.016   4.317   6.829
 9134SOL    HW128301   5.102   4.267   6.815
 9134SOL    HW228302   5.022   4.407   6.786
 9135SOL     OW28303   6.682   5.525   2.709
 9135SOL    HW128304   6.738   5.594   2.663
 9135SOL    HW228305   6.599   5.567   2.743
 9136SOL     OW28306   0.689   5.480   6.736
 9136SOL    HW128307   0.713   5.412   6.806
 9136SOL    HW228308   0.741   5.564   6.752
 9137SOL     OW28309   5.540   5.384   6.094
 9137SOL    HW128310   5.473   5.378   6.020
 9137SOL    HW228311   5.605   5.308   6.086
 9138SOL     OW28312   1.563   4.209   6.485
 9138SOL    HW128313   1.527   4.134   6.430
 9138SOL    HW228314   1.626   4.264   6.431
 9139SOL     OW28315   0.316   6.702   1.063
 9139SOL    HW128316   0.382   6.686   1.136
 9139SOL    HW228317   0.236   6.643   1.077
 9140SOL     OW28318   0.599   4.134   3.015
 9140SOL    HW128319   0.535   4.061   2.992
 9140SOL    HW228320   0.586   4.162   3.110
 9141SOL     OW28321   0.474   6.068   4.279
 9141SOL    HW128322   0.464   6.166   4.265
 9141SOL    HW228323   0.450   6.045   4.374
 9142SOL     OW28324   1.319   5.126   3.490
 9142SOL    HW128325   1.329   5.143   3.392
 9142SOL    HW228326   1.302   5.212   3.537
 9143SOL     OW28327   5.497   3.392   2.334
 9143SOL    HW128328   5.406   3.408   2.372
 9143SOL    HW228329   5.493   3.398   2.235
 9144SOL     OW28330   2.523   4.506   5.032
 9144SOL    HW128331   2.568   4.539   5.115
 9144SOL    HW228332   2.552   4.560   4.954
 9145SOL     OW28333   3.027   6.216   6.206
 9145SOL    HW128334   3.091   6.251   6.274
 9145SOL    HW228335   3.071   6.144   6.152
 9146SOL     OW28336   5.435   1.698   4.609
 9146SOL    HW128337   5.497   1.777   4.606
 9146SOL    HW228338   5.347   1.723   4.570
 9147SOL     OW28339   4.404   0.405   6.132
 9147SOL    HW128340   4.309   0.375   6.142
 9147SOL    HW228341   4.446   0.354   6.056
 9148SOL     OW28342   3.878   5.450   2.293
 9148SOL    HW128343   3.837   5.373   2.244
 9148SOL    HW228344   3.909   5.519   2.228
 9149SOL     OW28345   1.265   4.126   1.584
 9149SOL    HW128346   1.230   4.220   1.588
 9149SOL    HW228347   1.282   4.093   1.676
 9150SOL     OW28348   3.950   3.455   6.804
 9150SOL    HW128349   3.899   3.459   6.719
 9150SOL    HW228350   3.886   3.441   6.880
 9151SOL     OW28351   2.102   3.555   4.028
 9151SOL    HW128352   2.108   3.616   4.107
 9151SOL    HW228353   2.123   3.606   3.945
 9152SOL     OW28354   1.929   5.173   1.908
 9152SOL    HW128355   1.853   5.230   1.939
 9152SOL    HW228356   1.932   5.173   1.808
 9153SOL     OW28357   0.730   3.964   0.141
 9153SOL    HW128358   0.682   3.880   0.166
 9153SOL    HW228359   0.822   3.941   0.109
 9154SOL     OW28360   4.319   5.393   2.749
 9154SOL    HW128361   4.227   5.432   2.746
 9154SOL    HW228362   4.374   5.433   2.676
 9155SOL     OW28363   0.784   6.223   2.700
 9155SOL    HW128364   0.853   6.289   2.670
 9155SOL    HW228365   0.704   6.229   2.641
 9156SOL     OW28366   6.738   4.390   5.670
 9156SOL    HW128367   6.701   4.462   5.730
 9156SOL    HW228368   6.803   4.431   5.606
 9157SOL     OW28369   1.801   4.596   5.189
 9157SOL    HW128370   1.755   4.518   5.148
 9157SOL    HW228371   1.858   4.566   5.265
 9158SOL     OW28372   6.926   2.520   3.816
 9158SOL    HW128373   6.993   2.559   3.880
 9158SOL    HW228374   6.845   2.579   3.813
 9159SOL     OW28375   2.340   0.765   3.509
 9159SOL    HW128376   2.278   0.689   3.526
 9159SOL    HW228377   2.411   0.737   3.444
 9160SOL     OW28378   0.632   3.463   6.486
 9160SOL    HW128379   0.589   3.465   6.576
 9160SOL    HW228380   0.726   3.432   6.495
 9161SOL     OW28381   5.619   3.212   2.484
 9161SOL    HW128382   5.627   3.120   2.444
 9161SOL    HW228383   5.585   3.275   2.415
 9162SOL     OW28384   5.236   1.754   2.041
 9162SOL    HW128385   5.161   1.714   1.988
 9162SOL    HW228386   5.294   1.809   1.980
 9163SOL     OW28387   2.076   3.514   2.941
 9163SOL    HW128388   2.117   3.595   2.898
 9163SOL    HW228389   2.097   3.514   3.039
 9164SOL     OW28390   3.527   0.379   0.856
 9164SOL    HW128391   3.594   0.309   0.883
 9164SOL    HW228392   3.574   0.466   0.843
 9165SOL     OW28393   6.280   0.584   6.191
 9165SOL    HW128394   6.262   0.485   6.193
 9165SOL    HW228395   6.288   0.617   6.285
 9166SOL     OW28396   4.259   5.813   1.531
 9166SOL    HW128397   4.232   5.811   1.628
 9166SOL    HW228398   4.304   5.900   1.511
 9167SOL     OW28399   1.167   2.538   4.853
 9167SOL    HW128400   1.090   2.578   4.904
 9167SOL    HW228401   1.206   2.463   4.905
 9168SOL     OW28402   5.824   5.918   4.451
 9168SOL    HW128403   5.821   5.845   4.519
 9168SOL    HW228404   5.842   6.005   4.496
 9169SOL     OW28405   5.866   5.877   0.340
 9169SOL    HW128406   5.912   5.927   0.413
 9169SOL    HW228407   5.923   5.877   0.258
 9170SOL     OW28408   1.367   0.256   5.356
 9170SOL    HW128409   1.442   0.241   5.292
 9170SOL    HW228410   1.404   0.291   5.442
 9171SOL     OW28411   4.579   5.846   0.037
 9171SOL    HW128412   4.560   5.753   0.006
 9171SOL    HW228413   4.571   5.909   6.975
 9172SOL     OW28414   5.313   0.474   5.825
 9172SOL    HW128415   5.250   0.488   5.748
 9172SOL    HW228416   5.395   0.529   5.810
 9173SOL     OW28417   5.643   4.280   6.272
 9173SOL    HW128418   5.570   4.289   6.340
 9173SOL    HW228419   5.697   4.364   6.271
 9174SOL     OW28420   6.230   4.992   6.933
 9174SOL    HW128421   6.212   5.088   6.909
 9174SOL    HW228422   6.293   4.989   7.011
 9175SOL     OW28423   2.066   1.029   1.161
 9175SOL    HW128424   2.043   0.968   1.086
 9175SOL    HW228425   2.166   1.032   1.172
 9176SOL     OW28426   1.379   0.118   2.297
 9176SOL    HW128427   1.421   0.030   2.275
 9176SOL    HW228428   1.383   0.177   2.217
 9177SOL     OW28429   0.545   5.771   3.465
 9177SOL    HW128430   0.514   5.774   3.560
 9177SOL    HW228431   0.632   5.722   3.460
 9178SOL     OW28432   0.894   3.665   1.142
 9178SOL    HW128433   0.818   3.603   1.123
 9178SOL    HW228434   0.962   3.657   1.069
 9179SOL     OW28435   3.829   5.896   2.698
 9179SOL    HW128436   3.897   5.845   2.645
 9179SOL    HW228437   3.745   5.903   2.644
 9180SOL     OW28438   0.267   1.121   5.236
 9180SOL    HW128439   0.202   1.112   5.160
 9180SOL    HW228440   0.360   1.120   5.200
 9181SOL     OW28441   3.123   2.109   3.198
 9181SOL    HW128442   3.214   2.147   3.178
 9181SOL    HW228443   3.131   2.042   3.272
 9182SOL     OW28444   6.861   1.240   3.233
 9182SOL    HW128445   6.847   1.180   3.312
 9182SOL    HW228446   6.797   1.317   3.238
 9183SOL     OW28447   3.365   1.784   5.516
 9183SOL    HW128448   3.408   1.854   5.573
 9183SOL    HW228449   3.301   1.731   5.571
 9184SOL     OW28450   2.834   5.518   0.767
 9184SOL    HW128451   2.753   5.460   0.774
 9184SOL    HW228452   2.870   5.515   0.673
 9185SOL     OW28453   0.295   1.242   5.605
 9185SOL    HW128454   0.220   1.308   5.614
 9185SOL    HW228455   0.378   1.290   5.579
 9186SOL     OW28456   5.513   6.435   6.073
 9186SOL    HW128457   5.448   6.467   6.142
 9186SOL    HW228458   5.489   6.474   5.984
 9187SOL     OW28459   5.222   3.587   1.271
 9187SOL    HW128460   5.158   3.523   1.313
 9187SOL    HW228461   5.180   3.627   1.190
 9188SOL     OW28462   1.162   1.171   2.695
 9188SOL    HW128463   1.113   1.097   2.741
 9188SOL    HW228464   1.122   1.186   2.604
 9189SOL     OW28465   3.075   0.672   6.843
 9189SOL    HW128466   3.028   0.699   6.927
 9189SOL    HW228467   3.063   0.744   6.774
 9190SOL     OW28468   3.663   0.800   5.783
 9190SOL    HW128469   3.727   0.875   5.773
 9190SOL    HW228470   3.706   0.715   5.752
 9191SOL     OW28471   5.233   0.000   1.719
 9191SOL    HW128472   5.242   0.083   1.774
 9191SOL    HW228473   5.167   0.016   1.646
 9192SOL     OW28474   4.529   4.847   4.171
 9192SOL    HW128475   4.559   4.941   4.188
 9192SOL    HW228476   4.519   4.799   4.259
 9193SOL     OW28477   4.026   3.430   2.462
 9193SOL    HW128478   3.962   3.498   2.426
 9193SOL    HW228479   4.057   3.370   2.388
 9194SOL     OW28480   2.902   5.416   3.656
 9194SOL    HW128481   2.810   5.384   3.632
 9194SOL    HW228482   2.918   5.506   3.616
 9195SOL     OW28483   0.180   3.084   3.829
 9195SOL    HW128484   0.215   3.170   3.868
 9195SOL    HW228485   0.083   3.095   3.807
 9196SOL     OW28486   5.367   5.451   3.526
 9196SOL    HW128487   5.273   5.457   3.492
 9196SOL    HW228488   5.431   5.470   3.451
 9197SOL     OW28489   4.286   2.067   6.881
 9197SOL    HW128490   4.372   2.077   6.830
 9197SOL    HW228491   4.236   2.153   6.879
 9198SOL     OW28492   6.178   2.705   4.831
 9198SOL    HW128493   6.205   2.801   4.832
 9198SOL    HW228494   6.260   2.648   4.824
 9199SOL     OW28495   1.083   3.669   0.052
 9199SOL    HW128496   1.161   3.610   0.072
 9199SOL    HW228497   1.064   3.665   6.969
 9200SOL     OW28498   4.477   5.854   1.941
 9200SOL    HW128499   4.549   5.850   1.871
 9200SOL    HW228500   4.454   5.949   1.958
 9201SOL     OW28501   6.790   2.851   2.343
 9201SOL    HW128502   6.733   2.893   2.414
 9201SOL    HW228503   6.822   2.762   2.374
 9202SOL     OW28504   1.803   5.748   3.270
 9202SOL    HW128505   1.863   5.793   3.203
 9202SOL    HW228506   1.708   5.761   3.243
 9203SOL     OW28507   5.006   2.212   0.795
 9203SOL    HW128508   4.961   2.166   0.871
 9203SOL    HW228509   5.042   2.300   0.827
 9204SOL     OW28510   4.674   4.734   1.800
 9204SOL    HW128511   4.682   4.756   1.703
 9204SOL    HW228512   4.609   4.796   1.843
 9205SOL     OW28513   4.096   2.310   1.191
 9205SOL    HW128514   4.066   2.215   1.187
 9205SOL    HW228515   4.024   2.369   1.153
 9206SOL     OW28516   0.027   0.177   5.139
 9206SOL    HW128517   0.027   0.091   5.189
 9206SOL    HW228518   0.063   0.162   5.047
 9207SOL     OW28519   5.933   6.506   0.177
 9207SOL    HW128520   5.966   6.426   0.128
 9207SOL    HW228521   5.938   6.491   0.275
 9208SOL     OW28522   5.799   4.644   1.550
 9208SOL    HW128523   5.842   4.582   1.615
 9208SOL    HW228524   5.868   4.709   1.516
 9209SOL     OW28525   5.315   0.495   4.529
 9209SOL    HW128526   5.334   0.400   4.506
 9209SOL    HW228527   5.244   0.499   4.600
 9210SOL     OW28528   1.276   6.711   0.209
 9210SOL    HW128529   1.239   6.634   0.156
 9210SOL    HW228530   1.265   6.693   0.307
 9211SOL     OW28531   5.507   1.347   6.340
 9211SOL    HW128532   5.476   1.381   6.429
 9211SOL    HW228533   5.452   1.387   6.268
 9212SOL     OW28534   6.304   3.726   6.666
 9212SOL    HW128535   6.318   3.654   6.598
 9212SOL    HW228536   6.237   3.792   6.631
 9213SOL     OW28537   0.179   5.172   3.206
 9213SOL    HW128538   0.107   5.103   3.197
 9213SOL    HW228539   0.188   5.223   3.121
 9214SOL     OW28540   1.834   0.980   5.855
 9214SOL    HW128541   1.845   0.888   5.818
 9214SOL    HW228542   1.898   0.994   5.931
 9215SOL     OW28543   6.709   3.838   3.892
 9215SOL    HW128544   6.664   3.861   3.979
 9215SOL    HW228545   6.748   3.921   3.852
 9216SOL     OW28546   2.082   6.728   3.525
 9216SOL    HW128547   2.058   6.778   3.608
 9216SOL    HW228548   2.127   6.643   3.549
 9217SOL     OW28549   3.357   2.568   0.378
 9217SOL    HW128550   3.410   2.508   0.317
 9217SOL    HW228551   3.286   2.614   0.325
 9218SOL     OW28552   4.833   6.003   6.009
 9218SOL    HW128553   4.734   5.997   6.024
 9218SOL    HW228554   4.854   6.081   5.952
 9219SOL     OW28555   4.066   3.223   6.219
 9219SOL    HW128556   4.007   3.168   6.161
 9219SOL    HW228557   4.012   3.261   6.295
 9220SOL     OW28558   0.755   6.762   3.478
 9220SOL    HW128559   0.737   6.717   3.390
 9220SOL    HW228560   0.775   6.859   3.462
 9221SOL     OW28561   2.588   1.476   1.928
 9221SOL    HW128562   2.582   1.556   1.987
 9221SOL    HW228563   2.592   1.393   1.983
 9222SOL     OW28564   2.219   5.986   3.474
 9222SOL    HW128565   2.237   5.908   3.533
 9222SOL    HW228566   2.143   5.966   3.413
 9223SOL     OW28567   6.061   2.158   4.805
 9223SOL    HW128568   5.987   2.221   4.781
 9223SOL    HW228569   6.098   2.182   4.895
 9224SOL     OW28570   1.703   5.739   2.900
 9224SOL    HW128571   1.795   5.716   2.930
 9224SOL    HW228572   1.649   5.655   2.892
 9225SOL     OW28573   0.521   6.152   5.274
 9225SOL    HW128574   0.604   6.109   5.308
 9225SOL    HW228575   0.518   6.145   5.174
 9226SOL     OW28576   0.808   6.715   4.900
 9226SOL    HW128577   0.852   6.757   4.979
 9226SOL    HW228578   0.771   6.786   4.840
 9227SOL     OW28579   4.199   3.013   0.715
 9227SOL    HW128580   4.240   3.018   0.807
 9227SOL    HW228581   4.168   2.920   0.697
 9228SOL     OW28582   3.786   3.497   4.368
 9228SOL    HW128583   3.765   3.591   4.341
 9228SOL    HW228584   3.803   3.442   4.286
 9229SOL     OW28585   0.421   6.055   1.146
 9229SOL    HW128586   0.345   6.092   1.092
 9229SOL    HW228587   0.457   5.974   1.101
 9230SOL     OW28588   3.644   0.027   6.109
 9230SOL    HW128589   3.551   0.016   6.074
 9230SOL    HW228590   3.647   0.103   6.174
 9231SOL     OW28591   6.090   6.477   1.988
 9231SOL    HW128592   6.134   6.474   2.078
 9231SOL    HW228593   6.028   6.555   1.984
 9232SOL     OW28594   0.972   5.058   1.807
 9232SOL    HW128595   1.036   5.134   1.803
 9232SOL    HW228596   0.971   5.009   1.720
 9233SOL     OW28597   1.243   0.004   6.026
 9233SOL    HW128598   1.321   0.009   6.088
 9233SOL    HW228599   1.277   7.012   5.932
 9234SOL     OW28600   3.398   3.886   6.860
 9234SOL    HW128601   3.352   3.970   6.832
 9234SOL    HW228602   3.334   3.828   6.910
 9235SOL     OW28603   2.120   2.214   2.937
 9235SOL    HW128604   2.101   2.141   2.871
 9235SOL    HW228605   2.113   2.177   3.030
 9236SOL     OW28606   1.791   4.438   6.315
 9236SOL    HW128607   1.726   4.514   6.325
 9236SOL    HW228608   1.862   4.445   6.385
 9237SOL     OW28609   0.041   5.193   3.869
 9237SOL    HW128610   7.003   5.184   3.954
 9237SOL    HW228611   0.027   5.284   3.831
 9238SOL     OW28612   1.932   2.637   5.270
 9238SOL    HW128613   1.993   2.626   5.348
 9238SOL    HW228614   1.959   2.717   5.217
 9239SOL     OW28615   1.773   6.012   6.146
 9239SOL    HW128616   1.802   5.950   6.074
 9239SOL    HW228617   1.712   6.082   6.108
 9240SOL     OW28618   4.091   1.231   4.788
 9240SOL    HW128619   4.025   1.264   4.855
 9240SOL    HW228620   4.077   1.278   4.701
 9241SOL     OW28621   5.466   6.275   0.513
 9241SOL    HW128622   5.559   6.239   0.505
 9241SOL    HW228623   5.438   6.273   0.609
 9242SOL     OW28624   2.696   2.093   6.886
 9242SOL    HW128625   2.625   2.138   6.833
 9242SOL    HW228626   2.682   2.112   6.984
 9243SOL     OW28627   2.004   0.167   0.372
 9243SOL    HW128628   1.916   0.179   0.418
 9243SOL    HW228629   2.001   0.210   0.282
 9244SOL     OW28630   2.841   6.360   6.835
 9244SOL    HW128631   2.751   6.387   6.804
 9244SOL    HW228632   2.901   6.440   6.837
 9245SOL     OW28633   0.747   3.727   3.071
 9245SOL    HW128634   0.744   3.827   3.075
 9245SOL    HW228635   0.655   3.691   3.058
 9246SOL     OW28636   4.844   0.722   6.515
 9246SOL    HW128637   4.809   0.815   6.505
 9246SOL    HW228638   4.769   0.660   6.536
 9247SOL     OW28639   2.720   6.269   2.712
 9247SOL    HW128640   2.806   6.292   2.665
 9247SOL    HW228641   2.647   6.262   2.644
 9248SOL     OW28642   2.938   6.883   6.561
 9248SOL    HW128643   2.973   6.911   6.651
 9248SOL    HW228644   2.988   6.803   6.529
 9249SOL     OW28645   3.560   1.255   0.678
 9249SOL    HW128646   3.500   1.334   0.697
 9249SOL    HW228647   3.508   1.185   0.629
 9250SOL     OW28648   0.662   3.373   1.988
 9250SOL    HW128649   0.635   3.295   2.044
 9250SOL    HW228650   0.588   3.397   1.924
 9251SOL     OW28651   4.224   1.112   0.730
 9251SOL    HW128652   4.126   1.091   0.738
 9251SOL    HW228653   4.235   1.206   0.697
 9252SOL     OW28654   5.596   1.588   4.799
 9252SOL    HW128655   5.532   1.606   4.725
 9252SOL    HW228656   5.640   1.500   4.785
 9253SOL     OW28657   2.388   5.162   3.613
 9253SOL    HW128658   2.361   5.150   3.708
 9253SOL    HW228659   2.420   5.075   3.575
 9254SOL     OW28660   6.743   6.190   2.364
 9254SOL    HW128661   6.807   6.116   2.385
 9254SOL    HW228662   6.777   6.275   2.404
 9255SOL     OW28663   0.192   3.098   1.350
 9255SOL    HW128664   0.124   3.029   1.327
 9255SOL    HW228665   0.152   3.189   1.337
 9256SOL     OW28666   2.123   6.254   1.288
 9256SOL    HW128667   2.167   6.295   1.208
 9256SOL    HW228668   2.189   6.246   1.362
 9257SOL     OW28669   6.479   6.012   5.106
 9257SOL    HW128670   6.567   5.983   5.068
 9257SOL    HW228671   6.431   5.933   5.144
 9258SOL     OW28672   5.055   3.576   2.929
 9258SOL    HW128673   5.005   3.644   2.874
 9258SOL    HW228674   5.152   3.600   2.931
 9259SOL     OW28675   0.889   3.091   6.482
 9259SOL    HW128676   0.822   3.062   6.549
 9259SOL    HW228677   0.981   3.068   6.514
 9260SOL     OW28678   5.136   4.678   5.085
 9260SOL    HW128679   5.043   4.682   5.049
 9260SOL    HW228680   5.187   4.758   5.055
 9261SOL     OW28681   1.814   3.193   1.393
 9261SOL    HW128682   1.740   3.127   1.388
 9261SOL    HW228683   1.897   3.154   1.353
 9262SOL     OW28684   6.853   6.546   6.132
 9262SOL    HW128685   6.778   6.540   6.197
 9262SOL    HW228686   6.875   6.642   6.113
 9263SOL     OW28687   2.625   4.563   2.874
 9263SOL    HW128688   2.717   4.596   2.852
 9263SOL    HW228689   2.588   4.512   2.797
 9264SOL     OW28690   5.891   3.660   5.204
 9264SOL    HW128691   5.980   3.698   5.180
 9264SOL    HW228692   5.903   3.576   5.257
 9265SOL     OW28693   4.668   0.587   1.965
 9265SOL    HW128694   4.638   0.505   2.013
 9265SOL    HW228695   4.651   0.668   2.021
 9266SOL     OW28696   0.440   4.495   0.881
 9266SOL    HW128697   0.441   4.581   0.932
 9266SOL    HW228698   0.533   4.464   0.866
 9267SOL     OW28699   6.864   1.053   3.431
 9267SOL    HW128700   6.798   0.983   3.458
 9267SOL    HW228701   6.939   1.011   3.380
 9268SOL     OW28702   0.086   0.022   1.124
 9268SOL    HW128703   0.077   7.001   1.217
 9268SOL    HW228704   0.141   0.106   1.128
 9269SOL     OW28705   3.224   6.194   1.034
 9269SOL    HW128706   3.128   6.199   1.061
 9269SOL    HW228707   3.276   6.264   1.084
 9270SOL     OW28708   2.169   1.138   5.120
 9270SOL    HW128709   2.077   1.174   5.135
 9270SOL    HW228710   2.200   1.161   5.028
 9271SOL     OW28711   1.521   5.029   5.307
 9271SOL    HW128712   1.488   5.097   5.242
 9271SOL    HW228713   1.488   4.938   5.281
 9272SOL     OW28714   6.212   6.895   6.204
 9272SOL    HW128715   6.236   6.880   6.108
 9272SOL    HW228716   6.184   6.990   6.217
 9273SOL     OW28717   6.486   3.777   3.313
 9273SOL    HW128718   6.396   3.805   3.278
 9273SOL    HW228719   6.521   3.846   3.376
 9274SOL     OW28720   6.860   3.281   0.774
 9274SOL    HW128721   6.955   3.306   0.755
 9274SOL    HW228722   6.839   3.299   0.870
 9275SOL     OW28723   4.644   2.011   0.548
 9275SOL    HW128724   4.556   1.970   0.570
 9275SOL    HW228725   4.712   1.939   0.535
 9276SOL     OW28726   1.402   4.251   0.248
 9276SOL    HW128727   1.433   4.345   0.265
 9276SOL    HW228728   1.399   4.202   0.335
 9277SOL     OW28729   3.265   5.972   2.793
 9277SOL    HW128730   3.280   6.070   2.776
 9277SOL    HW228731   3.237   5.928   2.708
 9278SOL     OW28732   1.579   6.893   4.718
 9278SOL    HW128733   1.485   6.893   4.683
 9278SOL    HW228734   1.632   6.824   4.670
 9279SOL     OW28735   3.380   6.097   1.696
 9279SOL    HW128736   3.442   6.039   1.643
 9279SOL    HW228737   3.366   6.057   1.786
 9280SOL     OW28738   1.179   4.707   1.385
 9280SOL    HW128739   1.249   4.640   1.413
 9280SOL    HW228740   1.205   4.746   1.297
 9281SOL     OW28741   1.343   5.677   0.694
 9281SOL    HW128742   1.320   5.619   0.616
 9281SOL    HW228743   1.442   5.686   0.701
 9282SOL     OW28744   1.887   0.625   3.762
 9282SOL    HW128745   1.816   0.654   3.698
 9282SOL    HW228746   1.907   0.700   3.825
 9283SOL     OW28747   5.567   5.129   6.279
 9283SOL    HW128748   5.517   5.197   6.333
 9283SOL    HW228749   5.555   5.039   6.320
 9284SOL     OW28750   3.941   6.516   1.678
 9284SOL    HW128751   3.908   6.569   1.600
 9284SOL    HW228752   4.008   6.569   1.728
 9285SOL     OW28753   6.940   5.421   3.516
 9285SOL    HW128754   6.913   5.333   3.477
 9285SOL    HW228755   6.867   5.488   3.502
 9286SOL     OW28756   5.583   6.092   1.728
 9286SOL    HW128757   5.583   6.079   1.827
 9286SOL    HW228758   5.562   6.004   1.684
 9287SOL     OW28759   4.400   4.405   0.605
 9287SOL    HW128760   4.337   4.431   0.532
 9287SOL    HW228761   4.464   4.337   0.571
 9288SOL     OW28762   4.094   0.717   3.334
 9288SOL    HW128763   4.016   0.665   3.299
 9288SOL    HW228764   4.063   0.780   3.406
 9289SOL     OW28765   4.355   6.247   2.267
 9289SOL    HW128766   4.335   6.149   2.266
 9289SOL    HW228767   4.418   6.268   2.341
 9290SOL     OW28768   5.629   0.565   3.570
 9290SOL    HW128769   5.547   0.532   3.617
 9290SOL    HW228770   5.651   0.503   3.495
 9291SOL     OW28771   0.261   4.715   5.515
 9291SOL    HW128772   0.238   4.810   5.537
 9291SOL    HW228773   0.359   4.701   5.525
 9292SOL     OW28774   1.783   2.279   7.007
 9292SOL    HW128775   1.726   2.254   0.069
 9292SOL    HW228776   1.856   2.212   6.996
 9293SOL     OW28777   4.233   0.964   5.806
 9293SOL    HW128778   4.186   1.033   5.862
 9293SOL    HW228779   4.266   0.891   5.865
 9294SOL     OW28780   5.541   5.976   6.196
 9294SOL    HW128781   5.608   6.014   6.259
 9294SOL    HW228782   5.462   5.941   6.247
 9295SOL     OW28783   6.168   0.290   3.012
 9295SOL    HW128784   6.118   0.257   2.932
 9295SOL    HW228785   6.224   0.369   2.987
 9296SOL     OW28786   2.357   3.521   5.708
 9296SOL    HW128787   2.377   3.576   5.627
 9296SOL    HW228788   2.442   3.501   5.757
 9297SOL     OW28789   6.894   5.757   1.996
 9297SOL    HW128790   6.897   5.659   2.014
 9297SOL    HW228791   6.831   5.776   1.921
 9298SOL     OW28792   6.675   4.849   6.902
 9298SOL    HW128793   6.751   4.830   6.963
 9298SOL    HW228794   6.623   4.764   6.887
 9299SOL     OW28795   3.174   2.142   4.015
 9299SOL    HW128796   3.245   2.138   4.085
 9299SOL    HW228797   3.089   2.176   4.056
 9300SOL     OW28798   2.719   5.951   6.011
 9300SOL    HW128799   2.737   5.998   6.097
 9300SOL    HW228800   2.805   5.935   5.963
 9301SOL     OW28801   0.115   3.431   4.366
 9301SOL    HW128802   0.031   3.432   4.312
 9301SOL    HW228803   0.188   3.388   4.314
 9302SOL     OW28804   2.987   5.867   3.849
 9302SOL    HW128805   3.044   5.948   3.835
 9302SOL    HW228806   2.917   5.863   3.777
 9303SOL     OW28807   2.824   4.212   6.652
 9303SOL    HW128808   2.763   4.139   6.621
 9303SOL    HW228809   2.787   4.301   6.623
 9304SOL     OW28810   6.091   5.879   6.631
 9304SOL    HW128811   6.003   5.912   6.597
 9304SOL    HW228812   6.155   5.872   6.554
 9305SOL     OW28813   2.249   1.892   0.799
 9305SOL    HW128814   2.188   1.919   0.874
 9305SOL    HW228815   2.194   1.870   0.718
 9306SOL     OW28816   6.714   5.985   3.834
 9306SOL    HW128817   6.621   5.966   3.800
 9306SOL    HW228818   6.717   5.969   3.933
 9307SOL     OW28819   1.686   4.257   1.202
 9307SOL    HW128820   1.750   4.322   1.243
 9307SOL    HW228821   1.592   4.281   1.228
 9308SOL     OW28822   2.449   3.298   1.098
 9308SOL    HW128823   2.492   3.382   1.132
 9308SOL    HW228824   2.380   3.321   1.030
 9309SOL     OW28825   3.655   4.974   5.805
 9309SOL    HW128826   3.615   4.951   5.894
 9309SOL    HW228827   3.751   5.001   5.817
 9310SOL     OW28828   6.319   6.188   5.639
 9310SOL    HW128829   6.370   6.136   5.571
 9310SOL    HW228830   6.379   6.211   5.716
 9311SOL     OW28831   5.575   4.702   6.601
 9311SOL    HW128832   5.647   4.633   6.595
 9311SOL    HW228833   5.497   4.665   6.651
 9312SOL     OW28834   5.844   3.429   4.035
 9312SOL    HW128835   5.809   3.350   3.986
 9312SOL    HW228836   5.768   3.483   4.072
 9313SOL     OW28837   0.365   0.636   1.894
 9313SOL    HW128838   0.377   0.574   1.817
 9313SOL    HW228839   0.325   0.722   1.860
 9314SOL     OW28840   5.197   4.820   1.376
 9314SOL    HW128841   5.272   4.823   1.442
 9314SOL    HW228842   5.233   4.789   1.287
 9315SOL     OW28843   5.703   5.532   5.684
 9315SOL    HW128844   5.775   5.600   5.667
 9315SOL    HW228845   5.616   5.567   5.648
 9316SOL     OW28846   5.277   5.526   7.003
 9316SOL    HW128847   5.223   5.600   0.028
 9316SOL    HW228848   5.304   5.551   6.910
 9317SOL     OW28849   2.880   6.958   3.571
 9317SOL    HW128850   2.946   6.980   3.499
 9317SOL    HW228851   2.856   0.026   3.620
 9318SOL     OW28852   3.230   0.252   3.334
 9318SOL    HW128853   3.285   0.277   3.255
 9318SOL    HW228854   3.287   0.205   3.401
 9319SOL     OW28855   3.678   2.333   1.014
 9319SOL    HW128856   3.750   2.306   0.950
 9319SOL    HW228857   3.595   2.279   0.996
 9320SOL     OW28858   6.535   0.093   6.661
 9320SOL    HW128859   6.627   0.055   6.647
 9320SOL    HW228860   6.537   0.156   6.739
 9321SOL     OW28861   1.180   2.219   4.500
 9321SOL    HW128862   1.191   2.195   4.404
 9321SOL    HW228863   1.180   2.318   4.510
 9322SOL     OW28864   5.314   3.474   0.330
 9322SOL    HW128865   5.284   3.558   0.284
 9322SOL    HW228866   5.272   3.469   0.421
 9323SOL     OW28867   0.830   2.714   4.763
 9323SOL    HW128868   0.874   2.703   4.852
 9323SOL    HW228869   0.842   2.808   4.731
 9324SOL     OW28870   1.006   4.345   0.981
 9324SOL    HW128871   0.986   4.418   1.046
 9324SOL    HW228872   0.933   4.276   0.986
 9325SOL     OW28873   0.263   4.248   3.007
 9325SOL    HW128874   0.289   4.218   2.915
 9325SOL    HW228875   0.318   4.200   3.075
 9326SOL     OW28876   4.461   4.752   1.172
 9326SOL    HW128877   4.491   4.661   1.146
 9326SOL    HW228878   4.441   4.755   1.270
 9327SOL     OW28879   1.629   1.657   3.403
 9327SOL    HW128880   1.709   1.715   3.416
 9327SOL    HW228881   1.638   1.607   3.317
 9328SOL     OW28882   1.336   0.373   3.742
 9328SOL    HW128883   1.425   0.392   3.783
 9328SOL    HW228884   1.283   0.458   3.736
 9329SOL     OW28885   1.425   4.942   6.293
 9329SOL    HW128886   1.363   5.014   6.324
 9329SOL    HW228887   1.375   4.855   6.288
 9330SOL     OW28888   1.060   6.333   0.695
 9330SOL    HW128889   1.000   6.312   0.772
 9330SOL    HW228890   1.129   6.260   0.685
 9331SOL     OW28891   2.133   5.014   4.803
 9331SOL    HW128892   2.049   4.972   4.772
 9331SOL    HW228893   2.203   4.944   4.816
 9332SOL     OW28894   6.299   5.659   0.562
 9332SOL    HW128895   6.238   5.602   0.617
 9332SOL    HW228896   6.374   5.692   0.620
 9333SOL     OW28897   1.778   5.339   0.749
 9333SOL    HW128898   1.774   5.437   0.732
 9333SOL    HW228899   1.748   5.290   0.667
 9334SOL     OW28900   6.939   5.786   0.476
 9334SOL    HW128901   7.006   5.721   0.510
 9334SOL    HW228902   6.963   5.878   0.505
 9335SOL     OW28903   6.981   3.986   0.821
 9335SOL    HW128904   6.974   3.989   0.920
 9335SOL    HW228905   6.894   4.016   0.780
 9336SOL     OW28906   4.179   5.267   5.569
 9336SOL    HW128907   4.196   5.179   5.613
 9336SOL    HW228908   4.174   5.339   5.639
 9337SOL     OW28909   3.373   1.847   4.635
 9337SOL    HW128910   3.299   1.823   4.698
 9337SOL    HW228911   3.335   1.868   4.545
 9338SOL     OW28912   4.380   0.047   1.831
 9338SOL    HW128913   4.450   0.055   1.759
 9338SOL    HW228914   4.298   0.098   1.803
 9339SOL     OW28915   0.176   3.625   5.083
 9339SOL    HW128916   0.127   3.631   4.997
 9339SOL    HW228917   0.274   3.628   5.066
 9340SOL     OW28918   2.389   4.538   2.080
 9340SOL    HW128919   2.481   4.524   2.042
 9340SOL    HW228920   2.397   4.582   2.169
 9341SOL     OW28921   5.975   5.575   1.250
 9341SOL    HW128922   6.053   5.620   1.208
 9341SOL    HW228923   5.996   5.478   1.263
 9342SOL     OW28924   2.840   0.254   4.813
 9342SOL    HW128925   2.872   0.299   4.897
 9342SOL    HW228926   2.895   0.285   4.736
 9343SOL     OW28927   5.471   3.801   1.358
 9343SOL    HW128928   5.379   3.830   1.382
 9343SOL    HW228929   5.538   3.864   1.397
 9344SOL     OW28930   5.644   6.405   4.961
 9344SOL    HW128931   5.680   6.488   5.002
 9344SOL    HW228932   5.574   6.366   5.022
 9345SOL     OW28933   6.843   4.638   6.274
 9345SOL    HW128934   6.873   4.707   6.340
 9345SOL    HW228935   6.922   4.589   6.238
 9346SOL     OW28936   4.965   0.987   1.972
 9346SOL    HW128937   5.019   0.903   1.965
 9346SOL    HW228938   4.874   0.973   1.934
 9347SOL     OW28939   4.551   7.005   2.210
 9347SOL    HW128940   4.485   0.045   2.259
 9347SOL    HW228941   4.595   0.045   2.139
 9348SOL     OW28942   2.521   4.914   1.610
 9348SOL    HW128943   2.491   4.819   1.602
 9348SOL    HW228944   2.603   4.927   1.554
 9349SOL     OW28945   0.005   4.902   1.481
 9349SOL    HW128946   0.093   4.949   1.486
 9349SOL    HW228947   6.973   4.930   1.397
 9350SOL     OW28948   6.512   0.471   6.846
 9350SOL    HW128949   6.440   0.415   6.806
 9350SOL    HW228950   6.471   0.550   6.892
 9351SOL     OW28951   4.543   4.322   6.324
 9351SOL    HW128952   4.593   4.295   6.406
 9351SOL    HW228953   4.572   4.265   6.247
 9352SOL     OW28954   2.845   1.608   6.726
 9352SOL    HW128955   2.758   1.653   6.744
 9352SOL    HW228956   2.851   1.524   6.780
 9353SOL     OW28957   0.977   3.125   2.354
 9353SOL    HW128958   0.964   3.152   2.450
 9353SOL    HW228959   1.062   3.074   2.345
 9354SOL     OW28960   6.074   2.058   2.534
 9354SOL    HW128961   6.041   1.968   2.560
 9354SOL    HW228962   6.090   2.113   2.616
 9355SOL     OW28963   0.410   1.767   2.110
 9355SOL    HW128964   0.321   1.724   2.118
 9355SOL    HW228965   0.473   1.706   2.061
 9356SOL     OW28966   4.715   2.528   2.099
 9356SOL    HW128967   4.796   2.494   2.146
 9356SOL    HW228968   4.642   2.544   2.165
 9357SOL     OW28969   2.322   4.611   6.750
 9357SOL    HW128970   2.361   4.597   6.841
 9357SOL    HW228971   2.360   4.695   6.710
 9358SOL     OW28972   5.433   4.111   2.696
 9358SOL    HW128973   5.351   4.150   2.737
 9358SOL    HW228974   5.428   4.120   2.597
 9359SOL     OW28975   4.476   5.110   5.717
 9359SOL    HW128976   4.512   5.019   5.735
 9359SOL    HW228977   4.414   5.137   5.791
 9360SOL     OW28978   1.068   0.410   5.375
 9360SOL    HW128979   1.095   0.324   5.419
 9360SOL    HW228980   0.978   0.399   5.334
 9361SOL     OW28981   1.615   1.295   2.191
 9361SOL    HW128982   1.574   1.237   2.121
 9361SOL    HW228983   1.547   1.312   2.263
 9362SOL     OW28984   1.432   1.741   3.174
 9362SOL    HW128985   1.403   1.746   3.079
 9362SOL    HW228986   1.527   1.771   3.182
 9363SOL     OW28987   1.346   6.303   1.843
 9363SOL    HW128988   1.428   6.250   1.864
 9363SOL    HW228989   1.367   6.368   1.770
 9364SOL     OW28990   5.405   4.102   0.994
 9364SOL    HW128991   5.475   4.062   1.052
 9364SOL    HW228992   5.434   4.100   0.898
 9365SOL     OW28993   2.210   1.561   3.987
 9365SOL    HW128994   2.207   1.648   4.037
 9365SOL    HW228995   2.123   1.546   3.940
 9366SOL     OW28996   2.730   1.216   1.658
 9366SOL    HW128997   2.713   1.202   1.560
 9366SOL    HW228998   2.726   1.314   1.679
 9367SOL     OW28999   5.397   6.704   3.795
 9367SOL    HW129000   5.426   6.742   3.883
 9367SOL    HW229001   5.466   6.723   3.726
 9368SOL     OW29002   5.711   2.963   0.627
 9368SOL    HW129003   5.759   2.888   0.673
 9368SOL    HW229004   5.612   2.948   0.632
 9369SOL     OW29005   0.167   1.898   5.146
 9369SOL    HW129006   0.147   1.939   5.236
 9369SOL    HW229007   0.186   1.801   5.157
 9370SOL     OW29008   5.934   5.359   2.328
 9370SOL    HW129009   5.882   5.313   2.401
 9370SOL    HW229010   6.031   5.358   2.351
 9371SOL     OW29011   1.871   6.686   0.289
 9371SOL    HW129012   1.841   6.644   0.375
 9371SOL    HW229013   1.860   6.785   0.296
 9372SOL     OW29014   5.654   5.729   0.377
 9372SOL    HW129015   5.742   5.776   0.369
 9372SOL    HW229016   5.624   5.700   0.286
 9373SOL     OW29017   4.855   3.037   4.178
 9373SOL    HW129018   4.909   2.964   4.136
 9373SOL    HW229019   4.764   3.002   4.202
 9374SOL     OW29020   5.366   3.921   6.853
 9374SOL    HW129021   5.343   3.893   6.760
 9374SOL    HW229022   5.466   3.929   6.861
 9375SOL     OW29023   6.239   0.014   4.263
 9375SOL    HW129024   6.196   0.105   4.261
 9375SOL    HW229025   6.314   0.012   4.197
 9376SOL     OW29026   2.589   3.483   1.737
 9376SOL    HW129027   2.592   3.493   1.637
 9376SOL    HW229028   2.496   3.502   1.769
 9377SOL     OW29029   6.702   4.351   3.656
 9377SOL    HW129030   6.656   4.422   3.709
 9377SOL    HW229031   6.763   4.298   3.715
 9378SOL     OW29032   4.134   6.263   0.904
 9378SOL    HW129033   4.055   6.324   0.908
 9378SOL    HW229034   4.110   6.175   0.944
 9379SOL     OW29035   4.655   4.534   5.344
 9379SOL    HW129036   4.658   4.438   5.371
 9379SOL    HW229037   4.746   4.574   5.356
 9380SOL     OW29038   6.694   5.861   5.626
 9380SOL    HW129039   6.792   5.866   5.643
 9380SOL    HW229040   6.665   5.944   5.577
 9381SOL     OW29041   1.183   1.083   0.196
 9381SOL    HW129042   1.099   1.137   0.209
 9381SOL    HW229043   1.160   0.986   0.192
 9382SOL     OW29044   5.804   1.941   2.770
 9382SOL    HW129045   5.745   2.001   2.718
 9382SOL    HW229046   5.825   1.983   2.859
 9383SOL     OW29047   6.819   5.346   6.364
 9383SOL    HW129048   6.847   5.265   6.416
 9383SOL    HW229049   6.733   5.382   6.402
 9384SOL     OW29050   3.761   6.878   2.501
 9384SOL    HW129051   3.668   6.841   2.507
 9384SOL    HW229052   3.819   6.833   2.569
 9385SOL     OW29053   3.563   6.590   3.211
 9385SOL    HW129054   3.589   6.654   3.138
 9385SOL    HW229055   3.583   6.631   3.299
 9386SOL     OW29056   3.607   0.301   5.308
 9386SOL    HW129057   3.638   0.336   5.396
 9386SOL    HW229058   3.658   0.344   5.234
 9387SOL     OW29059   5.028   5.515   0.699
 9387SOL    HW129060   4.993   5.429   0.664
 9387SOL    HW229061   5.048   5.506   0.797
 9388SOL     OW29062   6.764   6.900   1.876
 9388SOL    HW129063   6.774   6.839   1.797
 9388SOL    HW229064   6.813   6.985   1.859
 9389SOL     OW29065   2.789   0.643   0.473
 9389SOL    HW129066   2.844   0.657   0.556
 9389SOL    HW229067   2.703   0.599   0.497
 9390SOL     OW29068   3.966   5.566   0.946
 9390SOL    HW129069   3.961   5.644   1.009
 9390SOL    HW229070   3.941   5.596   0.854
 9391SOL     OW29071   6.111   1.037   3.832
 9391SOL    HW129072   6.159   1.111   3.880
 9391SOL    HW229073   6.152   1.024   3.742
 9392SOL     OW29074   0.739   6.956   5.377
 9392SOL    HW129075   0.680   0.014   5.409
 9392SOL    HW229076   0.830   6.965   5.419
 9393SOL     OW29077   4.377   1.309   5.861
 9393SOL    HW129078   4.405   1.340   5.770
 9393SOL    HW229079   4.376   1.209   5.863
 9394SOL     OW29080   6.438   1.727   2.360
 9394SOL    HW129081   6.533   1.698   2.375
 9394SOL    HW229082   6.396   1.668   2.292
 9395SOL     OW29083   2.055   2.595   6.503
 9395SOL    HW129084   2.035   2.540   6.584
 9395SOL    HW229085   2.002   2.561   6.425
 9396SOL     OW29086   6.963   1.027   6.110
 9396SOL    HW129087   0.003   1.095   6.063
 9396SOL    HW229088   6.976   0.938   6.066
 9397SOL     OW29089   2.078   1.764   0.275
 9397SOL    HW129090   2.093   1.674   0.317
 9397SOL    HW229091   2.071   1.833   0.347
 9398SOL     OW29092   2.733   1.533   1.689
 9398SOL    HW129093   2.681   1.508   1.770
 9398SOL    HW229094   2.700   1.620   1.653
 9399SOL     OW29095   0.190   0.662   6.153
 9399SOL    HW129096   0.098   0.689   6.125
 9399SOL    HW229097   0.236   0.740   6.196
 9400SOL     OW29098   3.769   1.524   3.914
 9400SOL    HW129099   3.846   1.481   3.868
 9400SOL    HW229100   3.731   1.461   3.982
 9401SOL     OW29101   4.572   6.366   4.142
 9401SOL    HW129102   4.526   6.350   4.055
 9401SOL    HW229103   4.504   6.386   4.213
 9402SOL     OW29104   2.836   4.892   6.365
 9402SOL    HW129105   2.857   4.816   6.304
 9402SOL    HW229106   2.738   4.893   6.384
 9403SOL     OW29107   6.074   6.764   4.128
 9403SOL    HW129108   6.106   6.797   4.040
 9403SOL    HW229109   5.991   6.812   4.154
 9404SOL     OW29110   1.705   4.324   5.288
 9404SOL    HW129111   1.787   4.324   5.231
 9404SOL    HW229112   1.732   4.309   5.384
 9405SOL     OW29113   0.594   0.643   1.079
 9405SOL    HW129114   0.680   0.674   1.119
 9405SOL    HW229115   0.580   0.688   0.991
 9406SOL     OW29116   6.600   1.038   4.916
 9406SOL    HW129117   6.653   1.116   4.883
 9406SOL    HW229118   6.645   0.953   4.890
 9407SOL     OW29119   3.471   5.552   3.390
 9407SOL    HW129120   3.569   5.564   3.406
 9407SOL    HW229121   3.440   5.620   3.323
 9408SOL     OW29122   3.850   2.276   6.402
 9408SOL    HW129123   3.767   2.231   6.370
 9408SOL    HW229124   3.879   2.236   6.489
 9409SOL     OW29125   5.980   3.846   3.724
 9409SOL    HW129126   5.938   3.875   3.638
 9409SOL    HW229127   5.909   3.815   3.788
 9410SOL     OW29128   4.323   6.794   1.903
 9410SOL    HW129129   4.373   6.725   1.851
 9410SOL    HW229130   4.350   6.885   1.872
 9411SOL     OW29131   5.250   5.155   1.948
 9411SOL    HW129132   5.174   5.157   1.883
 9411SOL    HW229133   5.279   5.061   1.963
 9412SOL     OW29134   6.527   2.344   3.104
 9412SOL    HW129135   6.490   2.349   3.197
 9412SOL    HW229136   6.598   2.274   3.101
 9413SOL     OW29137   3.678   5.666   3.117
 9413SOL    HW129138   3.609   5.627   3.055
 9413SOL    HW229139   3.753   5.601   3.127
 9414SOL     OW29140   2.333   0.397   2.177
 9414SOL    HW129141   2.362   0.303   2.194
 9414SOL    HW229142   2.235   0.407   2.199
 9415SOL     OW29143   1.662   0.658   1.714
 9415SOL    HW129144   1.697   0.586   1.774
 9415SOL    HW229145   1.563   0.647   1.704
 9416SOL     OW29146   1.339   2.257   1.459
 9416SOL    HW129147   1.398   2.186   1.497
 9416SOL    HW229148   1.360   2.345   1.501
 9417SOL     OW29149   1.169   0.457   4.813
 9417SOL    HW129150   1.184   0.449   4.912
 9417SOL    HW229151   1.252   0.429   4.765
 9418SOL     OW29152   4.235   4.232   0.967
 9418SOL    HW129153   4.216   4.226   0.869
 9418SOL    HW229154   4.149   4.224   1.018
 9419SOL     OW29155   2.665   5.684   3.728
 9419SOL    HW129156   2.615   5.598   3.723
 9419SOL    HW229157   2.743   5.681   3.665
 9420SOL     OW29158   2.100   0.525   3.309
 9420SOL    HW129159   2.038   0.588   3.262
 9420SOL    HW229160   2.074   0.519   3.405
 9421SOL     OW29161   1.716   5.078   5.032
 9421SOL    HW129162   1.740   5.162   5.081
 9421SOL    HW229163   1.714   5.002   5.097
 9422SOL     OW29164   4.086   1.154   3.151
 9422SOL    HW129165   4.130   1.075   3.108
 9422SOL    HW229166   4.153   1.225   3.167
 9423SOL     OW29167   4.451   7.006   4.892
 9423SOL    HW129168   4.529   6.948   4.869
 9423SOL    HW229169   4.483   0.083   4.913
 9424SOL     OW29170   3.199   5.881   3.505
 9424SOL    HW129171   3.163   5.791   3.480
 9424SOL    HW229172   3.237   5.926   3.424
 9425SOL     OW29173   0.817   5.277   2.602
 9425SOL    HW129174   0.744   5.346   2.598
 9425SOL    HW229175   0.878   5.289   2.524
 9426SOL     OW29176   3.749   6.184   0.788
 9426SOL    HW129177   3.786   6.272   0.760
 9426SOL    HW229178   3.737   6.125   0.708
 9427SOL     OW29179   2.421   5.113   4.129
 9427SOL    HW129180   2.343   5.053   4.112
 9427SOL    HW229181   2.479   5.073   4.200
 9428SOL     OW29182   4.804   6.596   2.294
 9428SOL    HW129183   4.816   6.575   2.392
 9428SOL    HW229184   4.777   6.513   2.246
 9429SOL     OW29185   0.838   3.489   2.936
 9429SOL    HW129186   0.807   3.574   2.978
 9429SOL    HW229187   0.773   3.416   2.956
 9430SOL     OW29188   6.531   6.458   1.919
 9430SOL    HW129189   6.453   6.395   1.920
 9430SOL    HW229190   6.505   6.541   1.870
 9431SOL     OW29191   6.687   4.309   0.257
 9431SOL    HW129192   6.640   4.220   0.256
 9431SOL    HW229193   6.682   4.347   0.349
 9432SOL     OW29194   6.760   6.796   4.162
 9432SOL    HW129195   6.730   6.701   4.174
 9432SOL    HW229196   6.851   6.797   4.121
 9433SOL     OW29197   2.450   5.654   4.113
 9433SOL    HW129198   2.405   5.714   4.178
 9433SOL    HW229199   2.406   5.564   4.114
 9434SOL     OW29200   6.443   4.693   3.356
 9434SOL    HW129201   6.518   4.633   3.382
 9434SOL    HW229202   6.394   4.722   3.438
 9435SOL     OW29203   2.516   1.925   5.179
 9435SOL    HW129204   2.514   2.017   5.139
 9435SOL    HW229205   2.491   1.931   5.275
 9436SOL     OW29206   3.841   1.631   5.543
 9436SOL    HW129207   3.749   1.644   5.507
 9436SOL    HW229208   3.847   1.670   5.635
 9437SOL     OW29209   0.443   6.083   4.548
 9437SOL    HW129210   0.487   6.163   4.590
 9437SOL    HW229211   0.477   6.000   4.591
 9438SOL     OW29212   0.484   6.464   1.928
 9438SOL    HW129213   0.569   6.462   1.877
 9438SOL    HW229214   0.410   6.426   1.872
 9439SOL     OW29215   1.821   3.389   1.183
 9439SOL    HW129216   1.797   3.337   1.265
 9439SOL    HW229217   1.817   3.329   1.103
 9440SOL     OW29218   3.278   5.725   3.850
 9440SOL    HW129219   3.209   5.786   3.812
 9440SOL    HW229220   3.347   5.705   3.781
 9441SOL     OW29221   1.584   5.455   5.435
 9441SOL    HW129222   1.498   5.429   5.480
 9441SOL    HW229223   1.661   5.420   5.489
 9442SOL     OW29224   0.471   3.771   1.065
 9442SOL    HW129225   0.558   3.807   1.099
 9442SOL    HW229226   0.401   3.843   1.069
 9443SOL     OW29227   1.401   2.523   1.545
 9443SOL    HW129228   1.377   2.620   1.538
 9443SOL    HW229229   1.488   2.514   1.594
 9444SOL     OW29230   1.314   4.339   5.770
 9444SOL    HW129231   1.224   4.351   5.728
 9444SOL    HW229232   1.317   4.250   5.816
 9445SOL     OW29233   6.277   2.561   1.802
 9445SOL    HW129234   6.360   2.557   1.857
 9445SOL    HW229235   6.228   2.646   1.821
 9446SOL     OW29236   5.704   4.242   6.918
 9446SOL    HW129237   5.662   4.292   6.994
 9446SOL    HW229238   5.774   4.299   6.876
 9447SOL     OW29239   5.888   1.081   1.777
 9447SOL    HW129240   5.865   1.178   1.767
 9447SOL    HW229241   5.851   1.047   1.864
 9448SOL     OW29242   6.026   6.033   0.479
 9448SOL    HW129243   6.109   6.039   0.423
 9448SOL    HW229244   6.051   6.041   0.576
 9449SOL     OW29245   5.863   5.649   5.075
 9449SOL    HW129246   5.928   5.722   5.055
 9449SOL    HW229247   5.902   5.561   5.049
 9450SOL     OW29248   2.029   6.012   3.834
 9450SOL    HW129249   1.970   5.971   3.765
 9450SOL    HW229250   2.111   5.956   3.846
 9451SOL     OW29251   3.745   3.820   5.445
 9451SOL    HW129252   3.835   3.835   5.406
 9451SOL    HW229253   3.740   3.727   5.482
 9452SOL     OW29254   3.367   4.419   0.845
 9452SOL    HW129255   3.419   4.499   0.873
 9452SOL    HW229256   3.281   4.416   0.896
 9453SOL     OW29257   3.619   5.575   1.087
 9453SOL    HW129258   3.650   5.493   1.134
 9453SOL    HW229259   3.694   5.613   1.034
 9454SOL     OW29260   2.201   2.337   6.088
 9454SOL    HW129261   2.262   2.258   6.092
 9454SOL    HW229262   2.212   2.383   6.000
 9455SOL     OW29263   1.332   2.273   2.560
 9455SOL    HW129264   1.421   2.317   2.548
 9455SOL    HW229265   1.310   2.218   2.479
 9456SOL     OW29266   1.141   3.175   0.340
 9456SOL    HW129267   1.231   3.210   0.366
 9456SOL    HW229268   1.140   3.154   0.242
 9457SOL     OW29269   5.985   3.756   0.316
 9457SOL    HW129270   6.072   3.801   0.296
 9457SOL    HW229271   5.911   3.822   0.308
 9458SOL     OW29272   1.307   6.243   4.126
 9458SOL    HW129273   1.247   6.165   4.146
 9458SOL    HW229274   1.256   6.328   4.139
 9459SOL     OW29275   4.514   6.254   0.635
 9459SOL    HW129276   4.595   6.283   0.686
 9459SOL    HW229277   4.487   6.162   0.665
 9460SOL     OW29278   1.293   3.822   5.545
 9460SOL    HW129279   1.300   3.764   5.463
 9460SOL    HW229280   1.237   3.902   5.524
 9461SOL     OW29281   1.393   0.230   2.551
 9461SOL    HW129282   1.379   0.174   2.469
 9461SOL    HW229283   1.490   0.245   2.565
 9462SOL     OW29284   0.484   3.046   3.744
 9462SOL    HW129285   0.541   2.972   3.710
 9462SOL    HW229286   0.389   3.032   3.715
 9463SOL     OW29287   5.655   2.550   6.542
 9463SOL    HW129288   5.676   2.480   6.473
 9463SOL    HW229289   5.737   2.571   6.594
 9464SOL     OW29290   4.144   6.226   6.107
 9464SOL    HW129291   4.124   6.305   6.050
 9464SOL    HW229292   4.202   6.162   6.055
 9465SOL     OW29293   4.708   6.439   4.573
 9465SOL    HW129294   4.636   6.413   4.637
 9465SOL    HW229295   4.793   6.394   4.599
 9466SOL     OW29296   3.550   1.803   6.861
 9466SOL    HW129297   3.567   1.755   6.947
 9466SOL    HW229298   3.524   1.898   6.881
 9467SOL     OW29299   1.771   2.740   2.344
 9467SOL    HW129300   1.868   2.758   2.326
 9467SOL    HW229301   1.723   2.827   2.357
 9468SOL     OW29302   0.931   2.327   5.914
 9468SOL    HW129303   1.001   2.279   5.966
 9468SOL    HW229304   0.853   2.267   5.900
 9469SOL     OW29305   0.025   4.264   2.698
 9469SOL    HW129306   0.021   4.200   2.775
 9469SOL    HW229307   6.950   4.274   2.658
 9470SOL     OW29308   6.887   3.653   1.391
 9470SOL    HW129309   6.981   3.619   1.391
 9470SOL    HW229310   6.855   3.661   1.296
 9471SOL     OW29311   0.288   2.640   5.830
 9471SOL    HW129312   0.384   2.667   5.838
 9471SOL    HW229313   0.237   2.680   5.906
 9472SOL     OW29314   6.541   2.041   5.388
 9472SOL    HW129315   6.469   1.986   5.431
 9472SOL    HW229316   6.592   2.091   5.458
 9473SOL     OW29317   2.833   5.106   5.537
 9473SOL    HW129318   2.915   5.060   5.501
 9473SOL    HW229319   2.791   5.160   5.464
 9474SOL     OW29320   3.777   5.715   3.789
 9474SOL    HW129321   3.690   5.764   3.787
 9474SOL    HW229322   3.841   5.765   3.847
 9475SOL     OW29323   2.116   3.420   1.227
 9475SOL    HW129324   2.029   3.442   1.182
 9475SOL    HW229325   2.155   3.338   1.185
 9476SOL     OW29326   2.445   4.003   5.523
 9476SOL    HW129327   2.486   4.020   5.434
 9476SOL    HW229328   2.377   3.929   5.515
 9477SOL     OW29329   0.654   2.248   0.345
 9477SOL    HW129330   0.635   2.310   0.269
 9477SOL    HW229331   0.567   2.215   0.383
 9478SOL     OW29332   5.567   3.945   6.237
 9478SOL    HW129333   5.590   4.001   6.316
 9478SOL    HW229334   5.594   3.992   6.153
 9479SOL     OW29335   5.468   4.819   5.110
 9479SOL    HW129336   5.527   4.747   5.149
 9479SOL    HW229337   5.416   4.862   5.183
 9480SOL     OW29338   6.672   3.880   6.520
 9480SOL    HW129339   6.616   3.933   6.584
 9480SOL    HW229340   6.675   3.785   6.550
 9481SOL     OW29341   0.387   2.498   2.900
 9481SOL    HW129342   0.426   2.524   2.812
 9481SOL    HW229343   0.390   2.576   2.963
 9482SOL     OW29344   4.847   0.528   2.511
 9482SOL    HW129345   4.760   0.576   2.519
 9482SOL    HW229346   4.919   0.582   2.555
 9483SOL     OW29347   1.159   1.349   0.431
 9483SOL    HW129348   1.138   1.292   0.351
 9483SOL    HW229349   1.075   1.366   0.482
 9484SOL     OW29350   5.868   0.397   3.773
 9484SOL    HW129351   5.883   0.441   3.685
 9484SOL    HW229352   5.849   0.467   3.842
 9485SOL     OW29353   0.571   0.145   2.789
 9485SOL    HW129354   0.521   0.213   2.735
 9485SOL    HW229355   0.669   0.158   2.775
 9486SOL     OW29356   2.521   6.774   2.040
 9486SOL    HW129357   2.545   6.791   2.136
 9486SOL    HW229358   2.511   6.862   1.993
 9487SOL     OW29359   3.502   3.456   3.556
 9487SOL    HW129360   3.595   3.492   3.552
 9487SOL    HW229361   3.457   3.469   3.467
 9488SOL     OW29362   1.445   0.912   1.665
 9488SOL    HW129363   1.508   0.932   1.590
 9488SOL    HW229364   1.382   0.840   1.637
 9489SOL     OW29365   2.974   4.554   0.286
 9489SOL    HW129366   2.959   4.651   0.267
 9489SOL    HW229367   2.979   4.541   0.385
 9490SOL     OW29368   4.793   1.451   0.003
 9490SOL    HW129369   4.883   1.414   0.027
 9490SOL    HW229370   4.802   1.511   6.939
 9491SOL     OW29371   5.872   5.985   6.250
 9491SOL    HW129372   5.894   6.004   6.346
 9491SOL    HW229373   5.924   6.046   6.191
 9492SOL     OW29374   2.569   4.660   1.108
 9492SOL    HW129375   2.599   4.565   1.119
 9492SOL    HW229376   2.471   4.666   1.129
 9493SOL     OW29377   5.306   6.345   2.561
 9493SOL    HW129378   5.300   6.292   2.646
 9493SOL    HW229379   5.219   6.391   2.544
 9494SOL     OW29380   4.009   3.378   6.445
 9494SOL    HW129381   3.990   3.466   6.488
 9494SOL    HW229382   4.108   3.364   6.442
 9495SOL     OW29383   5.334   2.659   4.189
 9495SOL    HW129384   5.325   2.649   4.090
 9495SOL    HW229385   5.352   2.755   4.212
 9496SOL     OW29386   6.384   4.314   0.018
 9496SOL    HW129387   6.402   4.353   0.108
 9496SOL    HW229388   6.471   4.303   6.985
 9497SOL     OW29389   0.944   6.283   5.971
 9497SOL    HW129390   0.999   6.213   5.926
 9497SOL    HW229391   0.847   6.261   5.959
 9498SOL     OW29392   4.180   0.008   6.487
 9498SOL    HW129393   4.141   6.979   6.567
 9498SOL    HW229394   4.133   6.992   6.404
 9499SOL     OW29395   4.597   4.118   5.707
 9499SOL    HW129396   4.510   4.166   5.704
 9499SOL    HW229397   4.589   4.039   5.768
 9500SOL     OW29398   4.984   5.768   1.149
 9500SOL    HW129399   4.900   5.817   1.171
 9500SOL    HW229400   4.964   5.697   1.081
 9501SOL     OW29401   3.376   2.059   4.986
 9501SOL    HW129402   3.420   1.976   5.019
 9501SOL    HW229403   3.372   2.127   5.059
 9502SOL     OW29404   3.695   3.311   5.705
 9502SOL    HW129405   3.617   3.350   5.655
 9502SOL    HW229406   3.701   3.354   5.795
 9503SOL     OW29407   1.600   6.672   1.718
 9503SOL    HW129408   1.590   6.701   1.623
 9503SOL    HW229409   1.697   6.655   1.737
 9504SOL     OW29410   0.393   3.106   0.389
 9504SOL    HW129411   0.460   3.035   0.367
 9504SOL    HW229412   0.414   3.147   0.477
 9505SOL     OW29413   5.407   3.224   2.852
 9505SOL    HW129414   5.338   3.196   2.784
 9505SOL    HW229415   5.459   3.301   2.816
 9506SOL     OW29416   6.639   2.225   1.383
 9506SOL    HW129417   6.643   2.194   1.478
 9506SOL    HW229418   6.647   2.325   1.380
 9507SOL     OW29419   1.168   2.671   5.126
 9507SOL    HW129420   1.141   2.611   5.201
 9507SOL    HW229421   1.092   2.732   5.103
 9508SOL     OW29422   4.756   1.138   5.781
 9508SOL    HW129423   4.693   1.118   5.855
 9508SOL    HW229424   4.795   1.229   5.794
 9509SOL     OW29425   3.742   6.787   6.215
 9509SOL    HW129426   3.726   6.872   6.165
 9509SOL    HW229427   3.738   6.709   6.153
 9510SOL     OW29428   5.940   3.694   3.313
 9510SOL    HW129429   5.933   3.731   3.221
 9510SOL    HW229430   6.035   3.672   3.334
 9511SOL     OW29431   2.245   1.523   1.100
 9511SOL    HW129432   2.220   1.572   1.184
 9511SOL    HW229433   2.214   1.429   1.106
 9512SOL     OW29434   1.311   3.690   5.308
 9512SOL    HW129435   1.376   3.619   5.281
 9512SOL    HW229436   1.300   3.756   5.234
 9513SOL     OW29437   2.300   4.335   4.555
 9513SOL    HW129438   2.392   4.296   4.558
 9513SOL    HW229439   2.236   4.273   4.600
 9514SOL     OW29440   3.241   2.721   5.763
 9514SOL    HW129441   3.289   2.637   5.738
 9514SOL    HW229442   3.205   2.764   5.681
 9515SOL     OW29443   2.134   5.877   5.743
 9515SOL    HW129444   2.179   5.816   5.809
 9515SOL    HW229445   2.196   5.951   5.719
 9516SOL     OW29446   5.694   4.631   4.690
 9516SOL    HW129447   5.737   4.580   4.616
 9516SOL    HW229448   5.598   4.606   4.698
 9517SOL     OW29449   0.665   5.292   3.056
 9517SOL    HW129450   0.609   5.292   3.139
 9517SOL    HW229451   0.722   5.209   3.055
 9518SOL     OW29452   1.053   2.931   5.712
 9518SOL    HW129453   1.148   2.902   5.726
 9518SOL    HW229454   1.047   3.031   5.718
 9519SOL     OW29455   3.254   3.193   3.480
 9519SOL    HW129456   3.348   3.218   3.457
 9519SOL    HW229457   3.192   3.230   3.411
 9520SOL     OW29458   5.200   0.904   6.595
 9520SOL    HW129459   5.288   0.866   6.569
 9520SOL    HW229460   5.135   0.830   6.612
 9521SOL     OW29461   3.579   1.049   1.089
 9521SOL    HW129462   3.662   1.018   1.137
 9521SOL    HW229463   3.501   1.044   1.152
 9522SOL     OW29464   3.721   6.569   1.046
 9522SOL    HW129465   3.669   6.620   0.978
 9522SOL    HW229466   3.711   6.471   1.028
 9523SOL     OW29467   2.463   5.038   4.817
 9523SOL    HW129468   2.557   5.046   4.851
 9523SOL    HW229469   2.399   5.060   4.890
 9524SOL     OW29470   1.835   4.436   0.227
 9524SOL    HW129471   1.901   4.407   0.296
 9524SOL    HW229472   1.865   4.405   0.137
 9525SOL     OW29473   2.245   3.231   6.385
 9525SOL    HW129474   2.191   3.303   6.340
 9525SOL    HW229475   2.300   3.183   6.317
 9526SOL     OW29476   5.348   5.400   5.884
 9526SOL    HW129477   5.365   5.325   5.821
 9526SOL    HW229478   5.335   5.485   5.833
 9527SOL     OW29479   3.896   6.795   4.455
 9527SOL    HW129480   3.970   6.734   4.483
 9527SOL    HW229481   3.825   6.795   4.526
 9528SOL     OW29482   4.973   2.410   0.302
 9528SOL    HW129483   4.894   2.355   0.330
 9528SOL    HW229484   4.943   2.503   0.281
 9529SOL     OW29485   5.457   0.652   1.838
 9529SOL    HW129486   5.384   0.592   1.871
 9529SOL    HW229487   5.420   0.718   1.773
 9530SOL     OW29488   0.964   5.633   3.653
 9530SOL    HW129489   1.061   5.621   3.672
 9530SOL    HW229490   0.947   5.727   3.622
 9531SOL     OW29491   3.160   5.498   1.750
 9531SOL    HW129492   3.182   5.410   1.792
 9531SOL    HW229493   3.070   5.494   1.707
 9532SOL     OW29494   0.113   4.882   4.357
 9532SOL    HW129495   0.041   4.814   4.343
 9532SOL    HW229496   0.196   4.852   4.309
 9533SOL     OW29497   1.171   3.976   3.639
 9533SOL    HW129498   1.237   3.905   3.665
 9533SOL    HW229499   1.171   4.049   3.707
 9534SOL     OW29500   4.434   5.915   4.284
 9534SOL    HW129501   4.457   5.967   4.366
 9534SOL    HW229502   4.432   5.977   4.205
 9535SOL     OW29503   0.148   1.512   4.567
 9535SOL    HW129504   0.248   1.513   4.568
 9535SOL    HW229505   0.113   1.547   4.653
 9536SOL     OW29506   3.624   3.654   5.710
 9536SOL    HW129507   3.585   3.743   5.732
 9536SOL    HW229508   3.559   3.601   5.656
 9537SOL     OW29509   7.005   1.033   4.046
 9537SOL    HW129510   6.976   1.059   4.138
 9537SOL    HW229511   6.930   1.051   3.982
 9538SOL     OW29512   5.534   0.358   5.072
 9538SOL    HW129513   5.627   0.323   5.079
 9538SOL    HW229514   5.516   0.388   4.979
 9539SOL     OW29515   3.538   3.917   2.672
 9539SOL    HW129516   3.529   3.819   2.689
 9539SOL    HW229517   3.623   3.950   2.712
 9540SOL     OW29518   4.160   4.825   3.166
 9540SOL    HW129519   4.135   4.838   3.070
 9540SOL    HW229520   4.243   4.877   3.187
 9541SOL     OW29521   1.439   5.911   5.623
 9541SOL    HW129522   1.353   5.865   5.645
 9541SOL    HW229523   1.420   6.008   5.605
 9542SOL     OW29524   6.260   3.822   3.089
 9542SOL    HW129525   6.237   3.733   3.129
 9542SOL    HW229526   6.257   3.815   2.989
 9543SOL     OW29527   2.349   0.378   5.995
 9543SOL    HW129528   2.393   0.343   6.078
 9543SOL    HW229529   2.361   0.477   5.990
 9544SOL     OW29530   6.264   3.621   4.652
 9544SOL    HW129531   6.222   3.709   4.629
 9544SOL    HW229532   6.278   3.568   4.568
 9545SOL     OW29533   6.647   4.121   2.112
 9545SOL    HW129534   6.598   4.209   2.105
 9545SOL    HW229535   6.580   4.046   2.110
 9546SOL     OW29536   2.834   2.870   1.158
 9546SOL    HW129537   2.771   2.881   1.235
 9546SOL    HW229538   2.787   2.898   1.074
 9547SOL     OW29539   4.165   0.415   3.440
 9547SOL    HW129540   4.245   0.470   3.419
 9547SOL    HW229541   4.093   0.473   3.477
 9548SOL     OW29542   0.915   5.181   6.273
 9548SOL    HW129543   0.896   5.172   6.370
 9548SOL    HW229544   0.935   5.277   6.251
 9549SOL     OW29545   4.145   1.567   1.717
 9549SOL    HW129546   4.163   1.468   1.712
 9549SOL    HW229547   4.192   1.605   1.797
 9550SOL     OW29548   6.779   2.691   1.756
 9550SOL    HW129549   6.713   2.621   1.785
 9550SOL    HW229550   6.846   2.649   1.695
 9551SOL     OW29551   6.079   3.083   6.606
 9551SOL    HW129552   5.982   3.089   6.632
 9551SOL    HW229553   6.110   2.989   6.616
 9552SOL     OW29554   3.147   1.703   6.885
 9552SOL    HW129555   3.086   1.628   6.910
 9552SOL    HW229556   3.107   1.790   6.914
 9553SOL     OW29557   5.686   1.325   0.051
 9553SOL    HW129558   5.768   1.383   0.052
 9553SOL    HW229559   5.604   1.382   0.058
 9554SOL     OW29560   2.961   1.049   4.596
 9554SOL    HW129561   2.868   1.056   4.561
 9554SOL    HW229562   3.023   1.102   4.537
 9555SOL     OW29563   0.137   6.010   3.283
 9555SOL    HW129564   0.070   6.061   3.337
 9555SOL    HW229565   0.186   6.072   3.222
 9556SOL     OW29566   2.122   4.701   6.327
 9556SOL    HW129567   2.152   4.629   6.264
 9556SOL    HW229568   2.035   4.739   6.294
 9557SOL     OW29569   5.916   0.743   1.255
 9557SOL    HW129570   5.866   0.828   1.270
 9557SOL    HW229571   5.857   0.678   1.207
 9558SOL     OW29572   5.010   6.402   6.467
 9558SOL    HW129573   5.093   6.346   6.463
 9558SOL    HW229574   5.010   6.466   6.390
 9559SOL     OW29575   2.446   4.602   7.014
 9559SOL    HW129576   2.385   4.546   0.054
 9559SOL    HW229577   2.516   4.642   0.056
 9560SOL     OW29578   2.604   0.092   2.409
 9560SOL    HW129579   2.541   0.044   2.469
 9560SOL    HW229580   2.640   0.173   2.456
 9561SOL     OW29581   0.168   0.798   6.887
 9561SOL    HW129582   0.205   0.885   6.857
 9561SOL    HW229583   0.230   0.756   6.953
 9562SOL     OW29584   1.788   5.972   2.801
 9562SOL    HW129585   1.784   6.042   2.872
 9562SOL    HW229586   1.772   5.882   2.841
 9563SOL     OW29587   0.928   5.903   6.490
 9563SOL    HW129588   0.932   5.975   6.420
 9563SOL    HW229589   0.879   5.939   6.570
 9564SOL     OW29590   1.376   1.315   0.892
 9564SOL    HW129591   1.385   1.279   0.799
 9564SOL    HW229592   1.368   1.239   0.956
 9565SOL     OW29593   2.283   2.035   4.512
 9565SOL    HW129594   2.199   1.983   4.523
 9565SOL    HW229595   2.361   1.972   4.513
 9566SOL     OW29596   3.363   7.004   0.014
 9566SOL    HW129597   3.431   0.003   0.085
 9566SOL    HW229598   3.288   0.054   0.024
 9567SOL     OW29599   0.038   4.315   1.366
 9567SOL    HW129600   6.977   4.257   1.337
 9567SOL    HW229601   0.105   4.321   1.292
 9568SOL     OW29602   4.327   1.916   6.117
 9568SOL    HW129603   4.295   1.999   6.162
 9568SOL    HW229604   4.414   1.888   6.157
 9569SOL     OW29605   5.506   0.066   2.307
 9569SOL    HW129606   5.497   7.013   2.380
 9569SOL    HW229607   5.433   0.052   2.240
 9570SOL     OW29608   0.941   3.760   1.986
 9570SOL    HW129609   1.023   3.811   2.013
 9570SOL    HW229610   0.968   3.675   1.942
 9571SOL     OW29611   1.723   1.259   6.707
 9571SOL    HW129612   1.820   1.270   6.685
 9571SOL    HW229613   1.668   1.321   6.651
 9572SOL     OW29614   1.956   4.790   4.204
 9572SOL    HW129615   1.925   4.758   4.114
 9572SOL    HW229616   1.890   4.854   4.242
 9573SOL     OW29617   6.136   6.821   4.475
 9573SOL    HW129618   6.071   6.750   4.450
 9573SOL    HW229619   6.156   6.878   4.395
 9574SOL     OW29620   4.632   3.018   0.380
 9574SOL    HW129621   4.689   3.061   0.310
 9574SOL    HW229622   4.590   3.089   0.437
 9575SOL     OW29623   5.242   6.763   2.256
 9575SOL    HW129624   5.155   6.783   2.301
 9575SOL    HW229625   5.266   6.840   2.196
 9576SOL     OW29626   1.294   1.388   6.100
 9576SOL    HW129627   1.339   1.378   6.011
 9576SOL    HW229628   1.222   1.320   6.109
 9577SOL     OW29629   6.581   4.916   3.441
 9577SOL    HW129630   6.637   4.897   3.361
 9577SOL    HW229631   6.603   4.851   3.514
 9578SOL     OW29632   2.092   3.349   2.613
 9578SOL    HW129633   2.113   3.445   2.600
 9578SOL    HW229634   2.161   3.306   2.671
 9579SOL     OW29635   6.169   5.899   2.629
 9579SOL    HW129636   6.269   5.893   2.630
 9579SOL    HW229637   6.136   5.910   2.723
 9580SOL     OW29638   5.143   4.090   3.350
 9580SOL    HW129639   5.123   4.126   3.441
 9580SOL    HW229640   5.190   4.159   3.296
 9581SOL     OW29641   5.575   2.136   6.327
 9581SOL    HW129642   5.599   2.074   6.402
 9581SOL    HW229643   5.476   2.131   6.310
 9582SOL     OW29644   4.971   6.622   4.768
 9582SOL    HW129645   4.991   6.545   4.708
 9582SOL    HW229646   5.057   6.661   4.802
 9583SOL     OW29647   3.171   5.079   1.459
 9583SOL    HW129648   3.080   5.113   1.434
 9583SOL    HW229649   3.163   5.012   1.533
 9584SOL     OW29650   2.380   5.275   4.385
 9584SOL    HW129651   2.440   5.204   4.348
 9584SOL    HW229652   2.417   5.307   4.473
 9585SOL     OW29653   4.598   6.750   0.832
 9585SOL    HW129654   4.508   6.761   0.789
 9585SOL    HW229655   4.597   6.670   0.892
 9586SOL     OW29656   3.078   5.562   2.725
 9586SOL    HW129657   3.169   5.601   2.743
 9586SOL    HW229658   3.045   5.516   2.807
 9587SOL     OW29659   3.317   6.479   0.419
 9587SOL    HW129660   3.217   6.476   0.418
 9587SOL    HW229661   3.349   6.559   0.368
 9588SOL     OW29662   6.582   5.985   0.171
 9588SOL    HW129663   6.552   5.893   0.197
 9588SOL    HW229664   6.682   5.988   0.169
 9589SOL     OW29665   1.581   2.220   6.316
 9589SOL    HW129666   1.616   2.252   6.228
 9589SOL    HW229667   1.658   2.197   6.376
 9590SOL     OW29668   6.453   0.516   1.149
 9590SOL    HW129669   6.443   0.419   1.171
 9590SOL    HW229670   6.412   0.571   1.222
 9591SOL     OW29671   5.465   0.769   0.406
 9591SOL    HW129672   5.453   0.868   0.393
 9591SOL    HW229673   5.485   0.751   0.503
 9592SOL     OW29674   2.530   6.006   5.522
 9592SOL    HW129675   2.551   6.063   5.602
 9592SOL    HW229676   2.610   5.952   5.498
 9593SOL     OW29677   2.184   2.352   4.036
 9593SOL    HW129678   2.189   2.252   4.038
 9593SOL    HW229679   2.221   2.389   4.121
 9594SOL     OW29680   0.216   6.267   3.406
 9594SOL    HW129681   0.117   6.275   3.390
 9594SOL    HW229682   0.262   6.246   3.320
 9595SOL     OW29683   0.665   3.542   3.717
 9595SOL    HW129684   0.646   3.613   3.649
 9595SOL    HW229685   0.764   3.533   3.730
 9596SOL     OW29686   1.535   6.785   0.537
 9596SOL    HW129687   1.492   6.757   0.623
 9596SOL    HW229688   1.613   6.725   0.518
 9597SOL     OW29689   0.965   3.504   1.901
 9597SOL    HW129690   0.867   3.487   1.895
 9597SOL    HW229691   1.007   3.493   1.811
 9598SOL     OW29692   2.142   4.275   4.149
 9598SOL    HW129693   2.165   4.359   4.199
 9598SOL    HW229694   2.191   4.274   4.062
 9599SOL     OW29695   4.652   6.870   4.767
 9599SOL    HW129696   4.727   6.852   4.831
 9599SOL    HW229697   4.685   6.930   4.694
 9600SOL     OW29698   3.724   1.153   0.871
 9600SOL    HW129699   3.663   1.191   0.802
 9600SOL    HW229700   3.674   1.139   0.956
 9601SOL     OW29701   0.922   3.680   0.755
 9601SOL    HW129702   0.837   3.641   0.721
 9601SOL    HW229703   0.904   3.766   0.801
 9602SOL     OW29704   4.140   4.350   5.619
 9602SOL    HW129705   4.129   4.252   5.600
 9602SOL    HW229706   4.228   4.382   5.584
 9603SOL     OW29707   5.087   6.970   6.002
 9603SOL    HW129708   5.074   0.016   5.925
 9603SOL    HW229709   5.014   6.902   6.004
 9604SOL     OW29710   4.764   0.031   1.774
 9604SOL    HW129711   4.835   0.006   1.708
 9604SOL    HW229712   4.682   0.060   1.725
 9605SOL     OW29713   5.295   5.221   1.484
 9605SOL    HW129714   5.361   5.278   1.532
 9605SOL    HW229715   5.247   5.163   1.549
 9606SOL     OW29716   0.994   1.399   6.451
 9606SOL    HW129717   0.988   1.466   6.378
 9606SOL    HW229718   0.941   1.430   6.530
 9607SOL     OW29719   1.787   2.134   6.616
 9607SOL    HW129720   1.884   2.137   6.639
 9607SOL    HW229721   1.733   2.174   6.690
 9608SOL     OW29722   5.834   2.373   4.788
 9608SOL    HW129723   5.747   2.363   4.740
 9608SOL    HW229724   5.859   2.470   4.793
 9609SOL     OW29725   4.935   3.060   0.640
 9609SOL    HW129726   4.931   3.133   0.572
 9609SOL    HW229727   4.844   3.021   0.652
 9610SOL     OW29728   1.108   4.516   2.924
 9610SOL    HW129729   1.176   4.499   2.995
 9610SOL    HW229730   1.148   4.495   2.834
 9611SOL     OW29731   2.011   0.885   0.268
 9611SOL    HW129732   2.040   0.789   0.267
 9611SOL    HW229733   1.924   0.893   0.315
 9612SOL     OW29734   0.216   1.959   3.568
 9612SOL    HW129735   0.165   1.875   3.586
 9612SOL    HW229736   0.314   1.941   3.579
 9613SOL     OW29737   6.129   4.565   3.887
 9613SOL    HW129738   6.222   4.588   3.916
 9613SOL    HW229739   6.098   4.631   3.819
 9614SOL     OW29740   4.266   2.106   3.155
 9614SOL    HW129741   4.346   2.078   3.209
 9614SOL    HW229742   4.285   2.194   3.111
 9615SOL     OW29743   1.862   4.413   1.336
 9615SOL    HW129744   1.819   4.494   1.377
 9615SOL    HW229745   1.912   4.363   1.407
 9616SOL     OW29746   4.419   3.452   6.104
 9616SOL    HW129747   4.362   3.501   6.169
 9616SOL    HW229748   4.405   3.353   6.115
 9617SOL     OW29749   1.833   3.319   2.666
 9617SOL    HW129750   1.796   3.328   2.574
 9617SOL    HW229751   1.931   3.300   2.661
 9618SOL     OW29752   2.446   2.159   0.457
 9618SOL    HW129753   2.517   2.179   0.526
 9618SOL    HW229754   2.359   2.145   0.503
 9619SOL     OW29755   2.310   0.482   6.902
 9619SOL    HW129756   2.302   0.387   6.935
 9619SOL    HW229757   2.364   0.484   6.818
 9620SOL     OW29758   5.101   0.539   5.203
 9620SOL    HW129759   5.004   0.563   5.205
 9620SOL    HW229760   5.156   0.622   5.206
 9621SOL     OW29761   1.840   3.781   3.161
 9621SOL    HW129762   1.778   3.807   3.088
 9621SOL    HW229763   1.796   3.713   3.220
 9622SOL     OW29764   4.478   0.451   0.030
 9622SOL    HW129765   4.444   0.370   6.998
 9622SOL    HW229766   4.450   0.534   6.997
 9623SOL     OW29767   1.967   3.887   0.193
 9623SOL    HW129768   1.926   3.968   0.235
 9623SOL    HW229769   1.926   3.873   0.102
 9624SOL     OW29770   6.444   2.745   3.952
 9624SOL    HW129771   6.397   2.828   3.982
 9624SOL    HW229772   6.457   2.684   4.030
 9625SOL     OW29773   5.546   6.221   1.463
 9625SOL    HW129774   5.638   6.259   1.454
 9625SOL    HW229775   5.549   6.144   1.527
 9626SOL     OW29776   3.448   0.363   0.574
 9626SOL    HW129777   3.495   0.433   0.521
 9626SOL    HW229778   3.480   0.366   0.669
 9627SOL     OW29779   0.678   0.226   6.822
 9627SOL    HW129780   0.638   0.139   6.852
 9627SOL    HW229781   0.737   0.262   6.894
 9628SOL     OW29782   3.352   0.031   1.967
 9628SOL    HW129783   3.373   0.017   2.064
 9628SOL    HW229784   3.271   0.089   1.959
 9629SOL     OW29785   2.567   0.222   1.216
 9629SOL    HW129786   2.645   0.208   1.156
 9629SOL    HW229787   2.483   0.219   1.163
 9630SOL     OW29788   6.757   2.191   6.477
 9630SOL    HW129789   6.800   2.106   6.448
 9630SOL    HW229790   6.792   2.217   6.568
 9631SOL     OW29791   6.884   5.964   0.188
 9631SOL    HW129792   6.911   5.956   0.092
 9631SOL    HW229793   6.867   6.060   0.210
 9632SOL     OW29794   1.156   5.446   2.715
 9632SOL    HW129795   1.068   5.435   2.761
 9632SOL    HW229796   1.147   5.422   2.618
 9633SOL     OW29797   0.171   5.352   6.482
 9633SOL    HW129798   0.223   5.288   6.424
 9633SOL    HW229799   0.157   5.437   6.431
 9634SOL     OW29800   0.681   6.117   5.937
 9634SOL    HW129801   0.619   6.193   5.955
 9634SOL    HW229802   0.742   6.104   6.015
 9635SOL     OW29803   7.009   6.133   5.305
 9635SOL    HW129804   0.053   6.177   5.239
 9635SOL    HW229805   0.005   6.034   5.300
 9636SOL     OW29806   4.160   1.678   0.306
 9636SOL    HW129807   4.111   1.765   0.316
 9636SOL    HW229808   4.203   1.675   0.216
 9637SOL     OW29809   2.357   0.734   6.270
 9637SOL    HW129810   2.287   0.788   6.223
 9637SOL    HW229811   2.319   0.694   6.353
 9638SOL     OW29812   6.375   2.450   6.782
 9638SOL    HW129813   6.315   2.526   6.757
 9638SOL    HW229814   6.451   2.444   6.716
 9639SOL     OW29815   3.557   0.318   2.509
 9639SOL    HW129816   3.578   0.405   2.554
 9639SOL    HW229817   3.632   0.254   2.524
 9640SOL     OW29818   1.109   1.496   2.832
 9640SOL    HW129819   1.145   1.411   2.871
 9640SOL    HW229820   1.068   1.477   2.743
 9641SOL     OW29821   5.323   5.885   6.325
 9641SOL    HW129822   5.335   5.790   6.295
 9641SOL    HW229823   5.288   5.886   6.419
 9642SOL     OW29824   3.313   6.535   3.313
 9642SOL    HW129825   3.250   6.603   3.275
 9642SOL    HW229826   3.398   6.536   3.261
 9643SOL     OW29827   4.399   4.653   2.851
 9643SOL    HW129828   4.341   4.735   2.845
 9643SOL    HW229829   4.407   4.612   2.760
 9644SOL     OW29830   2.817   1.281   0.568
 9644SOL    HW129831   2.867   1.260   0.653
 9644SOL    HW229832   2.767   1.199   0.538
 9645SOL     OW29833   2.454   5.278   4.663
 9645SOL    HW129834   2.451   5.185   4.700
 9645SOL    HW229835   2.550   5.305   4.650
 9646SOL     OW29836   3.557   5.347   3.902
 9646SOL    HW129837   3.559   5.418   3.972
 9646SOL    HW229838   3.557   5.256   3.945
 9647SOL     OW29839   6.605   3.060   5.897
 9647SOL    HW129840   6.625   3.135   5.833
 9647SOL    HW229841   6.587   3.098   5.988
 9648SOL     OW29842   4.543   3.869   0.964
 9648SOL    HW129843   4.522   3.957   1.007
 9648SOL    HW229844   4.570   3.804   1.034
 9649SOL     OW29845   2.209   5.273   1.956
 9649SOL    HW129846   2.261   5.193   1.984
 9649SOL    HW229847   2.113   5.247   1.942
 9650SOL     OW29848   1.444   0.263   1.128
 9650SOL    HW129849   1.442   0.359   1.154
 9650SOL    HW229850   1.375   0.213   1.179
 9651SOL     OW29851   0.329   1.674   0.094
 9651SOL    HW129852   0.232   1.666   0.119
 9651SOL    HW229853   0.352   1.601   0.029
 9652SOL     OW29854   1.270   4.738   1.727
 9652SOL    HW129855   1.201   4.796   1.685
 9652SOL    HW229856   1.305   4.673   1.659
 9653SOL     OW29857   5.635   6.289   4.379
 9653SOL    HW129858   5.720   6.270   4.428
 9653SOL    HW229859   5.558   6.279   4.442
 9654SOL     OW29860   2.142   3.077   2.505
 9654SOL    HW129861   2.045   3.103   2.502
 9654SOL    HW229862   2.178   3.093   2.597
 9655SOL     OW29863   6.185   1.968   6.658
 9655SOL    HW129864   6.157   2.027   6.733
 9655SOL    HW229865   6.104   1.933   6.610
 9656SOL     OW29866   2.590   1.830   3.321
 9656SOL    HW129867   2.652   1.829   3.242
 9656SOL    HW229868   2.509   1.775   3.300
 9657SOL     OW29869   6.929   0.529   4.880
 9657SOL    HW129870   6.879   0.475   4.948
 9657SOL    HW229871   0.004   0.491   4.867
 9658SOL     OW29872   5.948   1.540   2.638
 9658SOL    HW129873   5.854   1.550   2.672
 9658SOL    HW229874   6.008   1.514   2.714
 9659SOL     OW29875   1.233   5.251   0.016
 9659SOL    HW129876   1.316   5.304   7.015
 9659SOL    HW229877   1.244   5.158   6.997
 9660SOL     OW29878   1.041   5.282   0.389
 9660SOL    HW129879   1.061   5.289   0.487
 9660SOL    HW229880   0.958   5.228   0.375
 9661SOL     OW29881   3.920   0.601   0.617
 9661SOL    HW129882   3.978   0.680   0.596
 9661SOL    HW229883   3.954   0.521   0.568
 9662SOL     OW29884   5.823   1.787   4.134
 9662SOL    HW129885   5.850   1.857   4.200
 9662SOL    HW229886   5.897   1.771   4.069
 9663SOL     OW29887   2.421   5.949   3.146
 9663SOL    HW129888   2.503   5.993   3.109
 9663SOL    HW229889   2.448   5.884   3.217
 9664SOL     OW29890   2.736   5.924   1.529
 9664SOL    HW129891   2.698   6.004   1.575
 9664SOL    HW229892   2.708   5.841   1.579
 9665SOL     OW29893   5.298   4.389   3.736
 9665SOL    HW129894   5.396   4.390   3.755
 9665SOL    HW229895   5.284   4.386   3.637
 9666SOL     OW29896   6.006   4.791   4.531
 9666SOL    HW129897   5.965   4.705   4.503
 9666SOL    HW229898   5.933   4.852   4.565
 9667SOL     OW29899   2.965   3.437   3.615
 9667SOL    HW129900   2.928   3.515   3.564
 9667SOL    HW229901   2.998   3.468   3.704
 9668SOL     OW29902   6.976   1.756   5.323
 9668SOL    HW129903   6.890   1.709   5.345
 9668SOL    HW229904   6.975   1.848   5.363
 9669SOL     OW29905   1.616   6.611   0.088
 9669SOL    HW129906   1.545   6.665   0.043
 9669SOL    HW229907   1.595   6.603   0.186
 9670SOL     OW29908   5.924   4.209   6.529
 9670SOL    HW129909   5.961   4.172   6.614
 9670SOL    HW229910   5.887   4.300   6.545
 9671SOL     OW29911   6.904   0.898   6.914
 9671SOL    HW129912   6.909   0.948   7.000
 9671SOL    HW229913   6.984   0.838   6.905
 9672SOL     OW29914   1.087   6.566   5.405
 9672SOL    HW129915   1.147   6.614   5.341
 9672SOL    HW229916   0.998   6.611   5.406
 9673SOL     OW29917   2.354   2.483   6.312
 9673SOL    HW129918   2.295   2.418   6.263
 9673SOL    HW229919   2.363   2.567   6.258
 9674SOL     OW29920   2.566   6.560   2.390
 9674SOL    HW129921   2.471   6.575   2.417
 9674SOL    HW229922   2.569   6.490   2.318
 9675SOL     OW29923   0.243   2.190   2.700
 9675SOL    HW129924   0.257   2.276   2.750
 9675SOL    HW229925   0.159   2.196   2.646
 9676SOL     OW29926   6.666   2.538   4.872
 9676SOL    HW129927   6.672   2.471   4.946
 9676SOL    HW229928   6.594   2.604   4.893
 9677SOL     OW29929   1.775   3.168   5.775
 9677SOL    HW129930   1.751   3.217   5.859
 9677SOL    HW229931   1.692   3.153   5.721
 9678SOL     OW29932   3.680   3.421   3.294
 9678SOL    HW129933   3.680   3.488   3.220
 9678SOL    HW229934   3.707   3.332   3.259
 9679SOL     OW29935   0.775   3.962   0.885
 9679SOL    HW129936   0.760   3.918   0.973
 9679SOL    HW229937   0.698   3.941   0.824
 9680SOL     OW29938   4.649   4.897   2.656
 9680SOL    HW129939   4.632   4.919   2.752
 9680SOL    HW229940   4.663   4.982   2.604
 9681SOL     OW29941   0.428   0.971   4.218
 9681SOL    HW129942   0.397   1.040   4.283
 9681SOL    HW229943   0.471   0.895   4.268
 9682SOL     OW29944   0.475   4.204   2.563
 9682SOL    HW129945   0.460   4.122   2.619
 9682SOL    HW229946   0.524   4.178   2.480
 9683SOL     OW29947   4.570   0.164   5.341
 9683SOL    HW129948   4.550   0.191   5.247
 9683SOL    HW229949   4.574   0.245   5.399
 9684SOL     OW29950   1.012   4.152   3.445
 9684SOL    HW129951   1.077   4.097   3.497
 9684SOL    HW229952   0.920   4.115   3.458
 9685SOL     OW29953   2.074   1.752   6.460
 9685SOL    HW129954   2.142   1.823   6.443
 9685SOL    HW229955   2.048   1.709   6.374
 9686SOL     OW29956   5.677   2.798   1.942
 9686SOL    HW129957   5.749   2.763   2.001
 9686SOL    HW229958   5.616   2.724   1.916
 9687SOL     OW29959   3.485   1.054   4.350
 9687SOL    HW129960   3.444   1.008   4.429
 9687SOL    HW229961   3.543   1.129   4.382
 9688SOL     OW29962   5.662   1.616   4.437
 9688SOL    HW129963   5.587   1.633   4.501
 9688SOL    HW229964   5.625   1.603   4.345
 9689SOL     OW29965   2.643   5.191   5.326
 9689SOL    HW129966   2.724   5.191   5.267
 9689SOL    HW229967   2.570   5.139   5.282
 9690SOL     OW29968   6.455   3.674   0.350
 9690SOL    HW129969   6.399   3.592   0.335
 9690SOL    HW229970   6.542   3.648   0.392
 9691SOL     OW29971   1.572   4.719   0.602
 9691SOL    HW129972   1.650   4.745   0.546
 9691SOL    HW229973   1.543   4.626   0.578
 9692SOL     OW29974   2.943   5.411   0.508
 9692SOL    HW129975   2.978   5.319   0.492
 9692SOL    HW229976   2.854   5.421   0.465
 9693SOL     OW29977   5.710   5.853   1.790
 9693SOL    HW129978   5.675   5.839   1.883
 9693SOL    HW229979   5.783   5.921   1.792
 9694SOL     OW29980   0.948   1.633   0.470
 9694SOL    HW129981   1.033   1.654   0.423
 9694SOL    HW229982   0.894   1.716   0.481
 9695SOL     OW29983   6.499   4.641   0.141
 9695SOL    HW129984   6.547   4.683   0.218
 9695SOL    HW229985   6.431   4.576   0.175
 9696SOL     OW29986   3.970   4.358   0.329
 9696SOL    HW129987   3.908   4.290   0.369
 9696SOL    HW229988   3.940   4.450   0.355
 9697SOL     OW29989   0.211   6.073   6.258
 9697SOL    HW129990   0.175   6.012   6.328
 9697SOL    HW229991   0.137   6.130   6.222
 9698SOL     OW29992   4.847   1.445   5.512
 9698SOL    HW129993   4.762   1.431   5.461
 9698SOL    HW229994   4.851   1.539   5.545
 9699SOL     OW29995   1.532   2.423   6.502
 9699SOL    HW129996   1.432   2.431   6.513
 9699SOL    HW229997   1.554   2.331   6.471
 9700SOL     OW29998   4.100   3.276   3.404
 9700SOL    HW129999   4.114   3.372   3.378
 9700SOL    HW230000   4.093   3.269   3.503
 9701SOL     OW30001   4.814   4.708   4.268
 9701SOL    HW130002   4.807   4.641   4.341
 9701SOL    HW230003   4.881   4.678   4.201
 9702SOL     OW30004   5.513   0.411   1.157
 9702SOL    HW130005   5.460   0.490   1.126
 9702SOL    HW230006   5.480   0.329   1.111
 9703SOL     OW30007   2.476   5.880   4.325
 9703SOL    HW130008   2.386   5.922   4.330
 9703SOL    HW230009   2.540   5.943   4.283
 9704SOL     OW30010   2.217   1.275   3.869
 9704SOL    HW130011   2.187   1.347   3.931
 9704SOL    HW230012   2.137   1.225   3.835
 9705SOL     OW30013   3.434   4.161   0.783
 9705SOL    HW130014   3.463   4.255   0.804
 9705SOL    HW230015   3.505   4.097   0.809
 9706SOL     OW30016   6.969   2.278   3.680
 9706SOL    HW130017   6.927   2.358   3.721
 9706SOL    HW230018   0.011   2.232   3.748
 9707SOL     OW30019   2.731   5.500   1.835
 9707SOL    HW130020   2.799   5.452   1.891
 9707SOL    HW230021   2.639   5.469   1.861
 9708SOL     OW30022   2.098   1.884   1.713
 9708SOL    HW130023   2.196   1.899   1.699
 9708SOL    HW230024   2.048   1.905   1.629
 9709SOL     OW30025   1.767   6.680   3.741
 9709SOL    HW130026   1.844   6.666   3.803
 9709SOL    HW230027   1.798   6.666   3.646
 9710SOL     OW30028   1.149   6.999   3.777
 9710SOL    HW130029   1.134   0.059   3.712
 9710SOL    HW230030   1.145   0.019   3.870
 9711SOL     OW30031   1.429   3.139   6.569
 9711SOL    HW130032   1.521   3.101   6.558
 9711SOL    HW230033   1.384   3.143   6.480
 9712SOL     OW30034   4.877   3.638   4.700
 9712SOL    HW130035   4.833   3.642   4.790
 9712SOL    HW230036   4.900   3.543   4.679
 9713SOL     OW30037   0.012   4.930   3.112
 9713SOL    HW130038   6.942   4.980   3.113
 9713SOL    HW230039   0.009   4.857   3.180
 9714SOL     OW30040   2.277   1.767   2.625
 9714SOL    HW130041   2.228   1.822   2.558
 9714SOL    HW230042   2.345   1.710   2.579
 9715SOL     OW30043   6.015   5.609   6.047
 9715SOL    HW130044   6.046   5.553   5.970
 9715SOL    HW230045   6.026   5.558   6.132
 9716SOL     OW30046   3.084   0.893   5.823
 9716SOL    HW130047   3.167   0.909   5.769
 9716SOL    HW230048   3.028   0.976   5.825
 9717SOL     OW30049   5.657   5.206   3.034
 9717SOL    HW130050   5.681   5.227   2.939
 9717SOL    HW230051   5.559   5.220   3.047
 9718SOL     OW30052   5.258   3.064   1.709
 9718SOL    HW130053   5.349   3.028   1.729
 9718SOL    HW230054   5.225   3.026   1.623
 9719SOL     OW30055   6.953   1.344   0.115
 9719SOL    HW130056   6.936   1.256   0.070
 9719SOL    HW230057   6.940   1.418   0.049
 9720SOL     OW30058   0.701   0.600   0.343
 9720SOL    HW130059   0.701   0.503   0.318
 9720SOL    HW230060   0.649   0.612   0.428
 9721SOL     OW30061   0.484   2.582   3.515
 9721SOL    HW130062   0.536   2.519   3.457
 9721SOL    HW230063   0.402   2.613   3.467
 9722SOL     OW30064   0.250   0.237   4.480
 9722SOL    HW130065   0.193   0.199   4.407
 9722SOL    HW230066   0.288   0.162   4.536
 9723SOL     OW30067   6.702   0.322   4.077
 9723SOL    HW130068   6.670   0.367   3.994
 9723SOL    HW230069   6.650   0.238   4.092
 9724SOL     OW30070   4.062   2.839   1.681
 9724SOL    HW130071   3.979   2.798   1.720
 9724SOL    HW230072   4.043   2.869   1.588
 9725SOL     OW30073   3.798   3.135   5.479
 9725SOL    HW130074   3.771   3.202   5.549
 9725SOL    HW230075   3.767   3.168   5.389
 9726SOL     OW30076   5.290   6.006   4.797
 9726SOL    HW130077   5.225   5.978   4.868
 9726SOL    HW230078   5.341   5.927   4.766
 9727SOL     OW30079   0.986   0.498   6.696
 9727SOL    HW130080   0.949   0.512   6.605
 9727SOL    HW230081   0.916   0.459   6.755
 9728SOL     OW30082   3.353   6.120   6.445
 9728SOL    HW130083   3.310   6.210   6.442
 9728SOL    HW230084   3.441   6.124   6.398
 9729SOL     OW30085   3.011   5.263   2.583
 9729SOL    HW130086   3.051   5.243   2.673
 9729SOL    HW230087   2.989   5.177   2.536
 9730SOL     OW30088   5.597   3.840   3.135
 9730SOL    HW130089   5.670   3.899   3.099
 9730SOL    HW230090   5.545   3.890   3.204
 9731SOL     OW30091   5.462   4.951   1.043
 9731SOL    HW130092   5.536   4.937   0.977
 9731SOL    HW230093   5.450   5.048   1.059
 9732SOL     OW30094   4.710   6.545   4.877
 9732SOL    HW130095   4.796   6.589   4.851
 9732SOL    HW230096   4.722   6.497   4.964
 9733SOL     OW30097   5.255   4.419   5.185
 9733SOL    HW130098   5.349   4.429   5.218
 9733SOL    HW230099   5.204   4.502   5.204
 9734SOL     OW30100   6.059   1.723   5.991
 9734SOL    HW130101   6.146   1.718   5.942
 9734SOL    HW230102   5.984   1.700   5.928
 9735SOL     OW30103   3.210   4.959   1.012
 9735SOL    HW130104   3.310   4.955   1.010
 9735SOL    HW230105   3.173   4.870   0.985
 9736SOL     OW30106   3.084   1.509   2.158
 9736SOL    HW130107   3.023   1.527   2.081
 9736SOL    HW230108   3.043   1.439   2.217
 9737SOL     OW30109   4.331   1.833   4.414
 9737SOL    HW130110   4.313   1.887   4.496
 9737SOL    HW230111   4.250   1.835   4.354
 9738SOL     OW30112   2.279   1.050   2.008
 9738SOL    HW130113   2.333   1.119   2.056
 9738SOL    HW230114   2.198   1.027   2.062
 9739SOL     OW30115   5.513   4.460   2.039
 9739SOL    HW130116   5.601   4.466   1.992
 9739SOL    HW230117   5.492   4.364   2.057
 9740SOL     OW30118   6.371   3.029   2.507
 9740SOL    HW130119   6.369   3.022   2.407
 9740SOL    HW230120   6.430   3.105   2.533
 9741SOL     OW30121   3.770   2.106   2.603
 9741SOL    HW130122   3.761   2.092   2.504
 9741SOL    HW230123   3.681   2.091   2.646
 9742SOL     OW30124   4.018   1.474   3.763
 9742SOL    HW130125   4.082   1.540   3.725
 9742SOL    HW230126   3.983   1.416   3.690
 9743SOL     OW30127   1.726   1.075   5.120
 9743SOL    HW130128   1.752   1.168   5.094
 9743SOL    HW230129   1.626   1.065   5.115
 9744SOL     OW30130   2.798   0.344   1.372
 9744SOL    HW130131   2.880   0.318   1.320
 9744SOL    HW230132   2.717   0.322   1.318
 9745SOL     OW30133   0.348   0.708   4.575
 9745SOL    HW130134   0.324   0.788   4.629
 9745SOL    HW230135   0.291   0.631   4.602
 9746SOL     OW30136   6.019   0.276   4.206
 9746SOL    HW130137   6.076   0.325   4.141
 9746SOL    HW230138   6.046   0.300   4.299
 9747SOL     OW30139   0.222   0.179   6.376
 9747SOL    HW130140   0.241   0.269   6.338
 9747SOL    HW230141   0.302   0.146   6.427
 9748SOL     OW30142   1.408   4.201   4.410
 9748SOL    HW130143   1.484   4.233   4.353
 9748SOL    HW230144   1.440   4.124   4.467
 9749SOL     OW30145   0.191   5.092   4.512
 9749SOL    HW130146   0.169   5.006   4.467
 9749SOL    HW230147   0.268   5.078   4.574
 9750SOL     OW30148   2.549   5.466   2.510
 9750SOL    HW130149   2.641   5.428   2.520
 9750SOL    HW230150   2.498   5.453   2.595
 9751SOL     OW30151   1.326   2.454   0.434
 9751SOL    HW130152   1.361   2.384   0.371
 9751SOL    HW230153   1.257   2.509   0.388
 9752SOL     OW30154   3.711   6.840   5.923
 9752SOL    HW130155   3.726   6.744   5.946
 9752SOL    HW230156   3.617   6.865   5.944
 9753SOL     OW30157   6.721   6.442   0.101
 9753SOL    HW130158   6.784   6.469   0.027
 9753SOL    HW230159   6.747   6.352   0.136
 9754SOL     OW30160   6.859   3.417   6.694
 9754SOL    HW130161   6.823   3.458   6.778
 9754SOL    HW230162   6.939   3.361   6.716
 9755SOL     OW30163   3.926   5.838   5.083
 9755SOL    HW130164   4.010   5.892   5.084
 9755SOL    HW230165   3.936   5.763   5.018
 9756SOL     OW30166   5.009   2.949   6.377
 9756SOL    HW130167   4.978   3.031   6.330
 9756SOL    HW230168   5.109   2.949   6.382
 9757SOL     OW30169   6.417   0.960   3.895
 9757SOL    HW130170   6.369   0.921   3.817
 9757SOL    HW230171   6.452   1.051   3.871
 9758SOL     OW30172   3.572   1.062   0.403
 9758SOL    HW130173   3.577   1.009   0.318
 9758SOL    HW230174   3.528   1.007   0.474
 9759SOL     OW30175   2.774   5.958   1.983
 9759SOL    HW130176   2.721   5.893   1.928
 9759SOL    HW230177   2.857   5.983   1.934
 9760SOL     OW30178   5.485   4.207   5.937
 9760SOL    HW130179   5.416   4.274   5.910
 9760SOL    HW230180   5.454   4.115   5.911
 9761SOL     OW30181   4.974   5.352   2.542
 9761SOL    HW130182   4.978   5.431   2.603
 9761SOL    HW230183   4.940   5.382   2.452
 9762SOL     OW30184   3.304   0.440   2.319
 9762SOL    HW130185   3.355   0.361   2.353
 9762SOL    HW230186   3.221   0.409   2.272
 9763SOL     OW30187   2.265   1.959   1.520
 9763SOL    HW130188   2.273   1.994   1.427
 9763SOL    HW230189   2.346   1.904   1.542
 9764SOL     OW30190   0.678   2.499   3.776
 9764SOL    HW130191   0.678   2.542   3.866
 9764SOL    HW230192   0.738   2.419   3.778
 9765SOL     OW30193   0.602   0.625   6.024
 9765SOL    HW130194   0.669   0.694   6.050
 9765SOL    HW230195   0.564   0.582   6.106
 9766SOL     OW30196   2.564   0.692   2.413
 9766SOL    HW130197   2.653   0.646   2.416
 9766SOL    HW230198   2.505   0.656   2.484
 9767SOL     OW30199   4.776   0.502   5.124
 9767SOL    HW130200   4.707   0.573   5.139
 9767SOL    HW230201   4.809   0.507   5.029
 9768SOL     OW30202   4.729   1.855   3.315
 9768SOL    HW130203   4.759   1.796   3.240
 9768SOL    HW230204   4.802   1.863   3.382
 9769SOL     OW30205   0.255   2.244   0.729
 9769SOL    HW130206   0.262   2.336   0.768
 9769SOL    HW230207   0.170   2.201   0.761
 9770SOL     OW30208   0.874   2.709   5.618
 9770SOL    HW130209   0.920   2.625   5.647
 9770SOL    HW230210   0.929   2.788   5.646
 9771SOL     OW30211   2.295   6.268   3.789
 9771SOL    HW130212   2.316   6.278   3.692
 9771SOL    HW230213   2.251   6.352   3.822
 9772SOL     OW30214   5.886   6.681   1.169
 9772SOL    HW130215   5.798   6.724   1.188
 9772SOL    HW230216   5.943   6.742   1.113
 9773SOL     OW30217   4.969   5.453   3.953
 9773SOL    HW130218   4.906   5.531   3.950
 9773SOL    HW230219   4.916   5.369   3.965
 9774SOL     OW30220   6.949   5.076   4.606
 9774SOL    HW130221   6.894   5.116   4.532
 9774SOL    HW230222   0.029   5.076   4.580
 9775SOL     OW30223   2.792   1.760   5.039
 9775SOL    HW130224   2.769   1.721   5.128
 9775SOL    HW230225   2.849   1.695   4.988
 9776SOL     OW30226   0.441   4.546   4.370
 9776SOL    HW130227   0.449   4.645   4.372
 9776SOL    HW230228   0.363   4.520   4.313
 9777SOL     OW30229   5.257   6.277   6.449
 9777SOL    HW130230   5.329   6.241   6.508
 9777SOL    HW230231   5.239   6.211   6.375
 9778SOL     OW30232   4.248   0.938   4.638
 9778SOL    HW130233   4.183   0.888   4.696
 9778SOL    HW230234   4.308   0.872   4.592
 9779SOL     OW30235   3.451   2.455   6.579
 9779SOL    HW130236   3.491   2.546   6.586
 9779SOL    HW230237   3.365   2.460   6.528
 9780SOL     OW30238   2.180   3.913   1.226
 9780SOL    HW130239   2.090   3.938   1.262
 9780SOL    HW230240   2.196   3.816   1.242
 9781SOL     OW30241   0.801   6.868   4.666
 9781SOL    HW130242   0.722   6.853   4.607
 9781SOL    HW230243   0.869   6.798   4.649
 9782SOL     OW30244   6.270   6.815   1.212
 9782SOL    HW130245   6.203   6.798   1.139
 9782SOL    HW230246   6.352   6.857   1.173
 9783SOL     OW30247   6.016   6.942   3.475
 9783SOL    HW130248   6.089   6.969   3.412
 9783SOL    HW230249   6.056   6.899   3.556
 9784SOL     OW30250   5.403   0.247   4.516
 9784SOL    HW130251   5.501   0.255   4.497
 9784SOL    HW230252   5.384   0.156   4.552
 9785SOL     OW30253   1.031   2.519   1.411
 9785SOL    HW130254   1.037   2.573   1.494
 9785SOL    HW230255   1.043   2.422   1.433
 9786SOL     OW30256   1.989   0.167   3.831
 9786SOL    HW130257   1.919   0.238   3.825
 9786SOL    HW230258   2.080   0.209   3.824
 9787SOL     OW30259   5.547   4.333   1.594
 9787SOL    HW130260   5.478   4.384   1.542
 9787SOL    HW230261   5.506   4.247   1.626
 9788SOL     OW30262   6.727   0.314   6.238
 9788SOL    HW130263   6.773   0.367   6.166
 9788SOL    HW230264   6.795   0.285   6.305
 9789SOL     OW30265   1.785   4.494   4.719
 9789SOL    HW130266   1.864   4.433   4.723
 9789SOL    HW230267   1.802   4.575   4.775
 9790SOL     OW30268   6.922   1.267   3.709
 9790SOL    HW130269   6.901   1.230   3.619
 9790SOL    HW230270   6.873   1.215   3.779
 9791SOL     OW30271   1.564   2.844   0.974
 9791SOL    HW130272   1.652   2.820   0.932
 9791SOL    HW230273   1.490   2.801   0.922
 9792SOL     OW30274   3.877   5.593   2.030
 9792SOL    HW130275   3.806   5.523   2.025
 9792SOL    HW230276   3.847   5.675   1.982
 9793SOL     OW30277   5.342   6.150   2.355
 9793SOL    HW130278   5.259   6.157   2.300
 9793SOL    HW230279   5.355   6.234   2.408
 9794SOL     OW30280   3.867   3.120   6.746
 9794SOL    HW130281   3.796   3.181   6.712
 9794SOL    HW230282   3.827   3.054   6.810
 9795SOL     OW30283   1.580   4.663   2.856
 9795SOL    HW130284   1.564   4.564   2.855
 9795SOL    HW230285   1.663   4.684   2.805
 9796SOL     OW30286   3.765   5.001   6.785
 9796SOL    HW130287   3.726   4.916   6.750
 9796SOL    HW230288   3.713   5.032   6.864
 9797SOL     OW30289   5.991   3.147   5.182
 9797SOL    HW130290   5.992   3.077   5.110
 9797SOL    HW230291   6.072   3.136   5.241
 9798SOL     OW30292   2.916   1.269   2.215
 9798SOL    HW130293   2.998   1.274   2.272
 9798SOL    HW230294   2.925   1.192   2.151
 9799SOL     OW30295   3.905   3.746   3.120
 9799SOL    HW130296   3.904   3.696   3.207
 9799SOL    HW230297   3.932   3.841   3.137
 9800SOL     OW30298   3.425   6.706   0.273
 9800SOL    HW130299   3.381   6.682   0.187
 9800SOL    HW230300   3.518   6.671   0.275
 9801SOL     OW30301   5.584   4.705   1.380
 9801SOL    HW130302   5.673   4.674   1.413
 9801SOL    HW230303   5.548   4.639   1.313
 9802SOL     OW30304   0.900   5.586   2.292
 9802SOL    HW130305   0.920   5.597   2.389
 9802SOL    HW230306   0.983   5.600   2.239
 9803SOL     OW30307   5.513   0.235   6.634
 9803SOL    HW130308   5.493   0.305   6.703
 9803SOL    HW230309   5.517   0.277   6.544
 9804SOL     OW30310   4.596   5.243   4.590
 9804SOL    HW130311   4.653   5.185   4.648
 9804SOL    HW230312   4.571   5.326   4.641
 9805SOL     OW30313   3.654   4.000   0.885
 9805SOL    HW130314   3.673   3.961   0.975
 9805SOL    HW230315   3.708   3.952   0.816
 9806SOL     OW30316   0.024   1.322   2.312
 9806SOL    HW130317   0.095   1.253   2.327
 9806SOL    HW230318   0.003   1.368   2.398
 9807SOL     OW30319   2.099   3.137   0.925
 9807SOL    HW130320   2.176   3.199   0.912
 9807SOL    HW230321   2.072   3.098   0.837
 9808SOL     OW30322   2.317   2.403   3.477
 9808SOL    HW130323   2.358   2.364   3.395
 9808SOL    HW230324   2.218   2.411   3.465
 9809SOL     OW30325   0.357   0.267   3.982
 9809SOL    HW130326   0.315   0.303   4.065
 9809SOL    HW230327   0.304   0.189   3.949
 9810SOL     OW30328   4.287   1.870   2.469
 9810SOL    HW130329   4.383   1.843   2.479
 9810SOL    HW230330   4.232   1.791   2.442
 9811SOL     OW30331   1.688   0.815   3.314
 9811SOL    HW130332   1.738   0.886   3.265
 9811SOL    HW230333   1.735   0.727   3.303
 9812SOL     OW30334   5.708   3.144   6.418
 9812SOL    HW130335   5.643   3.154   6.343
 9812SOL    HW230336   5.743   3.050   6.420
 9813SOL     OW30337   6.113   4.626   0.385
 9813SOL    HW130338   6.077   4.642   0.293
 9813SOL    HW230339   6.057   4.557   0.431
 9814SOL     OW30340   6.221   1.135   5.753
 9814SOL    HW130341   6.284   1.179   5.689
 9814SOL    HW230342   6.159   1.203   5.792
 9815SOL     OW30343   0.304   4.949   2.119
 9815SOL    HW130344   0.231   4.986   2.178
 9815SOL    HW230345   0.269   4.871   2.067
 9816SOL     OW30346   6.462   1.759   5.057
 9816SOL    HW130347   6.370   1.799   5.058
 9816SOL    HW230348   6.477   1.712   4.971
 9817SOL     OW30349   2.675   1.498   0.440
 9817SOL    HW130350   2.607   1.493   0.513
 9817SOL    HW230351   2.740   1.423   0.448
 9818SOL     OW30352   0.718   0.491   2.525
 9818SOL    HW130353   0.637   0.465   2.578
 9818SOL    HW230354   0.755   0.410   2.480
 9819SOL     OW30355   5.629   1.363   4.524
 9819SOL    HW130356   5.698   1.430   4.497
 9819SOL    HW230357   5.543   1.384   4.479
 9820SOL     OW30358   3.591   0.397   6.507
 9820SOL    HW130359   3.586   0.360   6.600
 9820SOL    HW230360   3.557   0.491   6.507
 9821SOL     OW30361   4.904   3.822   6.866
 9821SOL    HW130362   4.840   3.755   6.902
 9821SOL    HW230363   4.933   3.794   6.774
 9822SOL     OW30364   2.968   5.647   4.013
 9822SOL    HW130365   3.060   5.610   3.998
 9822SOL    HW230366   2.957   5.729   3.957
 9823SOL     OW30367   4.558   5.861   3.476
 9823SOL    HW130368   4.559   5.772   3.521
 9823SOL    HW230369   4.620   5.924   3.523
 9824SOL     OW30370   1.212   5.779   5.684
 9824SOL    HW130371   1.170   5.733   5.763
 9824SOL    HW230372   1.141   5.801   5.617
 9825SOL     OW30373   0.921   6.318   4.707
 9825SOL    HW130374   1.000   6.356   4.753
 9825SOL    HW230375   0.842   6.320   4.768
 9826SOL     OW30376   1.876   5.821   5.953
 9826SOL    HW130377   1.867   5.783   5.861
 9826SOL    HW230378   1.950   5.774   6.002
 9827SOL     OW30379   1.417   4.808   1.967
 9827SOL    HW130380   1.354   4.847   2.035
 9827SOL    HW230381   1.372   4.805   1.878
 9828SOL     OW30382   5.017   2.291   4.254
 9828SOL    HW130383   4.950   2.364   4.241
 9828SOL    HW230384   4.969   2.204   4.265
 9829SOL     OW30385   5.602   4.325   5.518
 9829SOL    HW130386   5.680   4.265   5.528
 9829SOL    HW230387   5.582   4.339   5.420
 9830SOL     OW30388   6.120   1.172   2.848
 9830SOL    HW130389   6.187   1.133   2.911
 9830SOL    HW230390   6.072   1.098   2.800
 9831SOL     OW30391   0.914   5.041   1.525
 9831SOL    HW130392   0.995   5.066   1.472
 9831SOL    HW230393   0.923   4.946   1.556
 9832SOL     OW30394   5.104   5.497   5.126
 9832SOL    HW130395   5.098   5.531   5.032
 9832SOL    HW230396   5.178   5.544   5.174
 9833SOL     OW30397   3.505   2.891   4.194
 9833SOL    HW130398   3.548   2.875   4.105
 9833SOL    HW230399   3.576   2.893   4.265
 9834SOL     OW30400   3.466   5.868   6.249
 9834SOL    HW130401   3.501   5.961   6.258
 9834SOL    HW230402   3.430   5.854   6.157
 9835SOL     OW30403   3.755   3.266   3.599
 9835SOL    HW130404   3.656   3.279   3.587
 9835SOL    HW230405   3.798   3.354   3.619
 9836SOL     OW30406   6.449   2.758   6.110
 9836SOL    HW130407   6.509   2.708   6.047
 9836SOL    HW230408   6.361   2.712   6.114
 9837SOL     OW30409   6.452   0.815   4.164
 9837SOL    HW130410   6.537   0.824   4.216
 9837SOL    HW230411   6.464   0.859   4.074
 9838SOL     OW30412   0.835   5.988   1.038
 9838SOL    HW130413   0.816   5.998   1.136
 9838SOL    HW230414   0.882   5.902   1.022
 9839SOL     OW30415   3.843   6.305   3.615
 9839SOL    HW130416   3.909   6.366   3.659
 9839SOL    HW230417   3.792   6.255   3.684
 9840SOL     OW30418   6.288   2.307   6.408
 9840SOL    HW130419   6.324   2.275   6.496
 9840SOL    HW230420   6.303   2.405   6.400
 9841SOL     OW30421   0.125   5.757   2.493
 9841SOL    HW130422   0.220   5.745   2.463
 9841SOL    HW230423   0.089   5.670   2.525
 9842SOL     OW30424   3.768   0.313   0.296
 9842SOL    HW130425   3.821   0.373   0.236
 9842SOL    HW230426   3.749   0.227   0.249
 9843SOL     OW30427   0.391   0.231   0.576
 9843SOL    HW130428   0.452   0.260   0.650
 9843SOL    HW230429   0.417   0.140   0.544
 9844SOL     OW30430   5.026   0.956   4.542
 9844SOL    HW130431   5.095   1.025   4.567
 9844SOL    HW230432   5.045   0.871   4.592
 9845SOL     OW30433   0.955   3.688   2.294
 9845SOL    HW130434   0.874   3.731   2.254
 9845SOL    HW230435   0.989   3.617   2.232
 9846SOL     OW30436   5.871   2.331   2.706
 9846SOL    HW130437   5.931   2.252   2.723
 9846SOL    HW230438   5.927   2.413   2.691
 9847SOL     OW30439   4.005   4.333   0.047
 9847SOL    HW130440   3.998   4.240   0.011
 9847SOL    HW230441   4.008   4.330   0.147
 9848SOL     OW30442   2.980   3.533   5.848
 9848SOL    HW130443   3.024   3.566   5.932
 9848SOL    HW230444   2.906   3.595   5.822
 9849SOL     OW30445   1.537   2.116   2.065
 9849SOL    HW130446   1.490   2.056   2.130
 9849SOL    HW230447   1.473   2.183   2.028
 9850SOL     OW30448   1.818   0.812   4.006
 9850SOL    HW130449   1.720   0.794   4.015
 9850SOL    HW230450   1.832   0.906   3.975
 9851SOL     OW30451   3.104   5.347   3.456
 9851SOL    HW130452   3.055   5.376   3.539
 9851SOL    HW230453   3.200   5.333   3.477
 9852SOL     OW30454   2.309   0.211   6.958
 9852SOL    HW130455   2.278   0.144   0.010
 9852SOL    HW230456   2.403   0.191   6.932
 9853SOL     OW30457   0.319   3.594   4.183
 9853SOL    HW130458   0.227   3.633   4.185
 9853SOL    HW230459   0.312   3.495   4.174
 9854SOL     OW30460   6.217   4.224   6.853
 9854SOL    HW130461   6.227   4.125   6.849
 9854SOL    HW230462   6.261   4.259   6.935
 9855SOL     OW30463   1.250   6.158   0.720
 9855SOL    HW130464   1.311   6.119   0.651
 9855SOL    HW230465   1.305   6.201   0.792
 9856SOL     OW30466   4.903   4.718   3.158
 9856SOL    HW130467   4.960   4.643   3.125
 9856SOL    HW230468   4.835   4.683   3.221
 9857SOL     OW30469   5.097   0.134   5.495
 9857SOL    HW130470   5.127   0.224   5.463
 9857SOL    HW230471   5.102   0.131   5.594
 9858SOL     OW30472   0.087   5.162   2.796
 9858SOL    HW130473   0.138   5.224   2.855
 9858SOL    HW230474   7.004   5.179   2.806
 9859SOL     OW30475   0.345   5.544   2.743
 9859SOL    HW130476   0.381   5.477   2.807
 9859SOL    HW230477   0.305   5.621   2.793
 9860SOL     OW30478   1.535   3.172   3.354
 9860SOL    HW130479   1.548   3.271   3.340
 9860SOL    HW230480   1.574   3.146   3.442
 9861SOL     OW30481   3.657   2.109   4.141
 9861SOL    HW130482   3.636   2.092   4.045
 9861SOL    HW230483   3.756   2.107   4.154
 9862SOL     OW30484   1.950   2.474   6.719
 9862SOL    HW130485   1.854   2.500   6.710
 9862SOL    HW230486   1.986   2.510   6.805
 9863SOL     OW30487   3.744   5.857   1.621
 9863SOL    HW130488   3.777   5.944   1.656
 9863SOL    HW230489   3.647   5.864   1.599
 9864SOL     OW30490   2.900   5.929   4.888
 9864SOL    HW130491   2.828   5.906   4.955
 9864SOL    HW230492   2.933   6.021   4.906
 9865SOL     OW30493   2.452   5.807   5.879
 9865SOL    HW130494   2.477   5.754   5.961
 9865SOL    HW230495   2.463   5.749   5.798
 9866SOL     OW30496   0.340   5.775   5.709
 9866SOL    HW130497   0.417   5.836   5.691
 9866SOL    HW230498   0.303   5.793   5.800
 9867SOL     OW30499   4.903   0.911   2.544
 9867SOL    HW130500   4.806   0.925   2.522
 9867SOL    HW230501   4.910   0.853   2.625
 9868SOL     OW30502   2.392   4.371   3.240
 9868SOL    HW130503   2.341   4.312   3.177
 9868SOL    HW230504   2.358   4.357   3.333
 9869SOL     OW30505   5.378   2.077   2.687
 9869SOL    HW130506   5.477   2.083   2.672
 9869SOL    HW230507   5.342   1.997   2.639
 9870SOL     OW30508   2.019   2.885   2.724
 9870SOL    HW130509   1.948   2.818   2.703
 9870SOL    HW230510   2.088   2.885   2.652
 9871SOL     OW30511   5.809   5.333   3.443
 9871SOL    HW130512   5.794   5.248   3.392
 9871SOL    HW230513   5.886   5.321   3.506
 9872SOL     OW30514   0.946   6.194   5.096
 9872SOL    HW130515   1.040   6.179   5.068
 9872SOL    HW230516   0.903   6.106   5.117
 9873SOL     OW30517   0.506   0.808   5.035
 9873SOL    HW130518   0.550   0.891   5.001
 9873SOL    HW230519   0.428   0.786   4.977
 9874SOL     OW30520   6.710   1.678   3.626
 9874SOL    HW130521   6.743   1.649   3.716
 9874SOL    HW230522   6.641   1.613   3.594
 9875SOL     OW30523   5.935   5.992   1.094
 9875SOL    HW130524   6.028   5.995   1.058
 9875SOL    HW230525   5.937   5.979   1.193
 9876SOL     OW30526   0.608   0.421   3.387
 9876SOL    HW130527   0.538   0.418   3.316
 9876SOL    HW230528   0.689   0.371   3.354
 9877SOL     OW30529   1.655   5.936   4.855
 9877SOL    HW130530   1.571   5.954   4.906
 9877SOL    HW230531   1.694   5.849   4.886
 9878SOL     OW30532   4.286   3.821   0.258
 9878SOL    HW130533   4.213   3.774   0.209
 9878SOL    HW230534   4.277   3.805   0.356
 9879SOL     OW30535   5.528   5.358   4.461
 9879SOL    HW130536   5.570   5.310   4.538
 9879SOL    HW230537   5.558   5.317   4.375
 9880SOL     OW30538   2.744   1.311   0.996
 9880SOL    HW130539   2.697   1.238   1.045
 9880SOL    HW230540   2.734   1.397   1.046
 9881SOL     OW30541   6.616   7.000   2.703
 9881SOL    HW130542   6.685   6.969   2.768
 9881SOL    HW230543   6.545   6.931   2.694
 9882SOL     OW30544   3.460   4.091   4.269
 9882SOL    HW130545   3.471   4.080   4.171
 9882SOL    HW230546   3.427   4.005   4.309
 9883SOL     OW30547   1.492   6.154   2.735
 9883SOL    HW130548   1.468   6.057   2.732
 9883SOL    HW230549   1.591   6.164   2.734
 9884SOL     OW30550   3.062   2.460   5.423
 9884SOL    HW130551   3.145   2.509   5.447
 9884SOL    HW230552   3.072   2.421   5.331
 9885SOL     OW30553   4.961   2.072   4.979
 9885SOL    HW130554   5.020   2.143   5.016
 9885SOL    HW230555   4.976   1.987   5.030
 9886SOL     OW30556   2.674   6.363   1.436
 9886SOL    HW130557   2.759   6.364   1.384
 9886SOL    HW230558   2.625   6.449   1.421
 9887SOL     OW30559   3.663   1.120   0.084
 9887SOL    HW130560   3.748   1.115   0.031
 9887SOL    HW230561   3.645   1.031   0.127
 9888SOL     OW30562   6.296   6.609   4.141
 9888SOL    HW130563   6.213   6.663   4.126
 9888SOL    HW230564   6.376   6.666   4.123
 9889SOL     OW30565   6.707   5.870   2.211
 9889SOL    HW130566   6.697   5.964   2.178
 9889SOL    HW230567   6.758   5.816   2.144
 9890SOL     OW30568   1.673   3.187   3.085
 9890SOL    HW130569   1.759   3.139   3.065
 9890SOL    HW230570   1.635   3.152   3.170
 9891SOL     OW30571   3.551   0.254   1.699
 9891SOL    HW130572   3.645   0.284   1.684
 9891SOL    HW230573   3.550   0.183   1.769
 9892SOL     OW30574   1.955   5.948   3.139
 9892SOL    HW130575   2.023   6.020   3.125
 9892SOL    HW230576   1.863   5.987   3.131
 9893SOL     OW30577   5.736   4.677   4.963
 9893SOL    HW130578   5.823   4.728   4.961
 9893SOL    HW230579   5.713   4.647   4.870
 9894SOL     OW30580   4.305   4.023   5.627
 9894SOL    HW130581   4.381   4.035   5.564
 9894SOL    HW230582   4.221   4.059   5.586
 9895SOL     OW30583   4.982   2.368   5.940
 9895SOL    HW130584   4.883   2.368   5.921
 9895SOL    HW230585   5.006   2.286   5.991
 9896SOL     OW30586   4.308   3.980   6.889
 9896SOL    HW130587   4.284   3.890   6.853
 9896SOL    HW230588   4.380   3.971   6.958
 9897SOL     OW30589   1.427   1.395   2.373
 9897SOL    HW130590   1.375   1.460   2.318
 9897SOL    HW230591   1.402   1.404   2.469
 9898SOL     OW30592   0.031   5.446   0.091
 9898SOL    HW130593   0.131   5.448   0.097
 9898SOL    HW230594   7.010   5.381   0.157
 9899SOL     OW30595   4.402   5.607   1.075
 9899SOL    HW130596   4.480   5.556   1.041
 9899SOL    HW230597   4.326   5.599   1.011
 9900SOL     OW30598   1.956   5.716   2.961
 9900SOL    HW130599   1.974   5.794   3.020
 9900SOL    HW230600   2.019   5.641   2.983
 9901SOL     OW30601   2.980   1.123   5.973
 9901SOL    HW130602   2.924   1.115   6.056
 9901SOL    HW230603   2.992   1.219   5.950
 9902SOL     OW30604   4.271   4.398   0.359
 9902SOL    HW130605   4.225   4.479   0.323
 9902SOL    HW230606   4.206   4.322   0.365
 9903SOL     OW30607   2.437   1.183   1.011
 9903SOL    HW130608   2.397   1.091   1.006
 9903SOL    HW230609   2.417   1.233   0.927
 9904SOL     OW30610   6.490   6.186   2.256
 9904SOL    HW130611   6.444   6.275   2.267
 9904SOL    HW230612   6.584   6.192   2.288
 9905SOL     OW30613   2.407   6.724   0.079
 9905SOL    HW130614   2.384   6.627   0.081
 9905SOL    HW230615   2.438   6.753   0.169
 9906SOL     OW30616   3.866   3.870   6.157
 9906SOL    HW130617   3.804   3.947   6.143
 9906SOL    HW230618   3.856   3.836   6.250
 9907SOL     OW30619   0.777   6.353   3.203
 9907SOL    HW130620   0.792   6.338   3.301
 9907SOL    HW230621   0.817   6.278   3.151
 9908SOL     OW30622   6.585   2.802   5.776
 9908SOL    HW130623   6.590   2.895   5.812
 9908SOL    HW230624   6.657   2.746   5.816
 9909SOL     OW30625   2.173   6.109   3.117
 9909SOL    HW130626   2.211   6.173   3.184
 9909SOL    HW230627   2.230   6.028   3.112
 9910SOL     OW30628   1.285   5.482   0.957
 9910SOL    HW130629   1.315   5.561   1.010
 9910SOL    HW230630   1.327   5.486   0.866
 9911SOL     OW30631   3.175   4.837   1.995
 9911SOL    HW130632   3.261   4.814   2.042
 9911SOL    HW230633   3.153   4.767   1.928
 9912SOL     OW30634   5.558   6.776   0.020
 9912SOL    HW130635   5.635   6.766   0.084
 9912SOL    HW230636   5.588   6.828   6.956
 9913SOL     OW30637   6.274   1.751   2.787
 9913SOL    HW130638   6.175   1.761   2.783
 9913SOL    HW230639   6.317   1.829   2.741
 9914SOL     OW30640   1.640   5.425   3.669
 9914SOL    HW130641   1.602   5.392   3.755
 9914SOL    HW230642   1.567   5.433   3.601
 9915SOL     OW30643   6.427   4.717   4.437
 9915SOL    HW130644   6.446   4.801   4.387
 9915SOL    HW230645   6.350   4.669   4.395
 9916SOL     OW30646   1.997   3.414   0.721
 9916SOL    HW130647   1.925   3.352   0.752
 9916SOL    HW230648   1.965   3.509   0.730
 9917SOL     OW30649   1.825   3.847   4.495
 9917SOL    HW130650   1.800   3.937   4.531
 9917SOL    HW230651   1.808   3.777   4.565
 9918SOL     OW30652   2.046   1.889   4.535
 9918SOL    HW130653   2.000   1.837   4.463
 9918SOL    HW230654   1.980   1.945   4.584
 9919SOL     OW30655   0.737   6.090   1.309
 9919SOL    HW130656   0.800   6.142   1.367
 9919SOL    HW230657   0.644   6.125   1.323
 9920SOL     OW30658   2.643   0.721   3.438
 9920SOL    HW130659   2.645   0.819   3.418
 9920SOL    HW230660   2.635   0.670   3.352
 9921SOL     OW30661   5.003   0.575   2.287
 9921SOL    HW130662   4.986   0.579   2.188
 9921SOL    HW230663   4.916   0.562   2.335
 9922SOL     OW30664   6.275   3.005   2.244
 9922SOL    HW130665   6.175   3.008   2.241
 9922SOL    HW230666   6.307   2.915   2.215
 9923SOL     OW30667   5.603   0.076   6.853
 9923SOL    HW130668   5.586   0.105   6.759
 9923SOL    HW230669   5.524   0.024   6.886
 9924SOL     OW30670   5.684   0.392   3.346
 9924SOL    HW130671   5.720   0.451   3.274
 9924SOL    HW230672   5.620   0.326   3.307
 9925SOL     OW30673   4.157   2.130   4.985
 9925SOL    HW130674   4.165   2.228   4.968
 9925SOL    HW230675   4.105   2.114   5.069
 9926SOL     OW30676   2.250   0.956   5.838
 9926SOL    HW130677   2.226   1.050   5.816
 9926SOL    HW230678   2.232   0.897   5.759
 9927SOL     OW30679   1.801   3.716   4.014
 9927SOL    HW130680   1.766   3.764   4.094
 9927SOL    HW230681   1.845   3.782   3.953
 9928SOL     OW30682   6.493   2.980   2.809
 9928SOL    HW130683   6.577   3.033   2.822
 9928SOL    HW230684   6.421   3.016   2.868
 9929SOL     OW30685   1.494   5.162   4.875
 9929SOL    HW130686   1.564   5.153   4.946
 9929SOL    HW230687   1.404   5.168   4.918
 9930SOL     OW30688   0.065   5.966   6.478
 9930SOL    HW130689   6.991   5.993   6.512
 9930SOL    HW230690   0.057   5.881   6.426
 9931SOL     OW30691   2.003   4.334   0.034
 9931SOL    HW130692   2.033   4.242   0.009
 9931SOL    HW230693   1.991   4.389   6.968
 9932SOL     OW30694   1.994   2.203   1.255
 9932SOL    HW130695   1.951   2.269   1.194
 9932SOL    HW230696   1.925   2.138   1.288
 9933SOL     OW30697   1.252   1.873   3.333
 9933SOL    HW130698   1.310   1.830   3.263
 9933SOL    HW230699   1.218   1.961   3.298
 9934SOL     OW30700   5.003   0.343   5.852
 9934SOL    HW130701   4.983   0.441   5.856
 9934SOL    HW230702   4.950   0.295   5.922
 9935SOL     OW30703   3.304   2.961   0.368
 9935SOL    HW130704   3.332   2.880   0.316
 9935SOL    HW230705   3.247   3.020   0.311
 9936SOL     OW30706   4.721   5.769   0.269
 9936SOL    HW130707   4.799   5.735   0.216
 9936SOL    HW230708   4.647   5.795   0.207
 9937SOL     OW30709   1.581   0.202   4.822
 9937SOL    HW130710   1.554   0.129   4.886
 9937SOL    HW230711   1.635   0.163   4.748
 9938SOL     OW30712   0.710   1.746   3.245
 9938SOL    HW130713   0.671   1.789   3.326
 9938SOL    HW230714   0.646   1.753   3.168
 9939SOL     OW30715   3.007   3.810   1.088
 9939SOL    HW130716   3.049   3.722   1.110
 9939SOL    HW230717   3.034   3.837   0.996
 9940SOL     OW30718   6.636   0.868   2.704
 9940SOL    HW130719   6.537   0.875   2.695
 9940SOL    HW230720   6.677   0.955   2.677
 9941SOL     OW30721   5.770   3.583   0.605
 9941SOL    HW130722   5.732   3.543   0.522
 9941SOL    HW230723   5.842   3.524   0.640
 9942SOL     OW30724   6.175   5.361   2.463
 9942SOL    HW130725   6.194   5.456   2.435
 9942SOL    HW230726   6.148   5.360   2.559
 9943SOL     OW30727   1.201   4.607   4.988
 9943SOL    HW130728   1.221   4.626   4.892
 9943SOL    HW230729   1.127   4.667   5.020
 9944SOL     OW30730   2.349   5.711   6.351
 9944SOL    HW130731   2.308   5.619   6.353
 9944SOL    HW230732   2.417   5.719   6.423
 9945SOL     OW30733   6.217   2.934   5.518
 9945SOL    HW130734   6.274   2.860   5.554
 9945SOL    HW230735   6.204   3.003   5.589
 9946SOL     OW30736   5.804   1.516   0.907
 9946SOL    HW130737   5.808   1.565   0.820
 9946SOL    HW230738   5.723   1.545   0.959
 9947SOL     OW30739   0.850   0.279   3.297
 9947SOL    HW130740   0.835   0.183   3.274
 9947SOL    HW230741   0.865   0.331   3.213
 9948SOL     OW30742   4.955   0.825   5.147
 9948SOL    HW130743   4.867   0.797   5.183
 9948SOL    HW230744   4.949   0.833   5.047
 9949SOL     OW30745   6.665   2.978   2.546
 9949SOL    HW130746   6.602   2.966   2.623
 9949SOL    HW230747   6.684   3.075   2.534
 9950SOL     OW30748   5.267   4.582   6.381
 9950SOL    HW130749   5.255   4.680   6.396
 9950SOL    HW230750   5.207   4.552   6.307
 9951SOL     OW30751   6.906   2.005   2.700
 9951SOL    HW130752   6.970   2.076   2.673
 9951SOL    HW230753   6.945   1.952   2.775
 9952SOL     OW30754   1.456   4.615   1.289
 9952SOL    HW130755   1.489   4.683   1.224
 9952SOL    HW230756   1.515   4.615   1.370
 9953SOL     OW30757   6.028   4.510   4.841
 9953SOL    HW130758   5.935   4.482   4.817
 9953SOL    HW230759   6.027   4.604   4.876
 9954SOL     OW30760   4.179   1.921   1.561
 9954SOL    HW130761   4.112   1.856   1.597
 9954SOL    HW230762   4.203   1.897   1.467
 9955SOL     OW30763   6.348   5.524   1.413
 9955SOL    HW130764   6.267   5.575   1.441
 9955SOL    HW230765   6.380   5.467   1.489
 9956SOL     OW30766   1.619   3.761   3.408
 9956SOL    HW130767   1.576   3.791   3.493
 9956SOL    HW230768   1.716   3.744   3.423
 9957SOL     OW30769   5.778   6.727   0.171
 9957SOL    HW130770   5.802   6.790   0.245
 9957SOL    HW230771   5.844   6.652   0.169
 9958SOL     OW30772   6.630   6.093   5.414
 9958SOL    HW130773   6.540   6.065   5.445
 9958SOL    HW230774   6.641   6.071   5.317
 9959SOL     OW30775   6.544   5.857   6.790
 9959SOL    HW130776   6.553   5.851   6.690
 9959SOL    HW230777   6.635   5.855   6.832
 9960SOL     OW30778   6.276   0.284   6.256
 9960SOL    HW130779   6.226   0.227   6.191
 9960SOL    HW230780   6.241   0.268   6.348
 9961SOL     OW30781   3.040   6.477   0.387
 9961SOL    HW130782   2.967   6.544   0.401
 9961SOL    HW230783   3.013   6.389   0.427
 9962SOL     OW30784   3.459   0.636   1.354
 9962SOL    HW130785   3.547   0.630   1.308
 9962SOL    HW230786   3.422   0.544   1.369
 9963SOL     OW30787   0.699   0.431   6.418
 9963SOL    HW130788   0.650   0.424   6.505
 9963SOL    HW230789   0.762   0.354   6.409
 9964SOL     OW30790   4.758   5.107   5.674
 9964SOL    HW130791   4.662   5.126   5.695
 9964SOL    HW230792   4.817   5.153   5.741
 9965SOL     OW30793   2.017   5.399   4.642
 9965SOL    HW130794   2.042   5.322   4.583
 9965SOL    HW230795   2.098   5.428   4.694
 9966SOL     OW30796   1.691   4.602   1.773
 9966SOL    HW130797   1.614   4.602   1.836
 9966SOL    HW230798   1.776   4.606   1.825
 9967SOL     OW30799   6.668   0.340   2.355
 9967SOL    HW130800   6.680   0.243   2.335
 9967SOL    HW230801   6.593   0.376   2.300
 9968SOL     OW30802   4.962   6.274   0.383
 9968SOL    HW130803   4.915   6.261   0.296
 9968SOL    HW230804   5.007   6.188   0.410
 9969SOL     OW30805   0.241   6.192   3.118
 9969SOL    HW130806   0.334   6.203   3.082
 9969SOL    HW230807   0.175   6.227   3.051
 9970SOL     OW30808   0.118   3.423   1.436
 9970SOL    HW130809   0.137   3.516   1.404
 9970SOL    HW230810   0.181   3.401   1.511
 9971SOL     OW30811   6.902   5.383   5.642
 9971SOL    HW130812   6.938   5.334   5.562
 9971SOL    HW230813   6.937   5.341   5.726
 9972SOL     OW30814   2.920   4.232   5.904
 9972SOL    HW130815   2.993   4.246   5.836
 9972SOL    HW230816   2.836   4.277   5.872
 9973SOL     OW30817   2.741   2.245   2.892
 9973SOL    HW130818   2.794   2.208   2.815
 9973SOL    HW230819   2.644   2.236   2.872
 9974SOL     OW30820   0.811   3.251   3.500
 9974SOL    HW130821   0.823   3.221   3.405
 9974SOL    HW230822   0.717   3.283   3.514
 9975SOL     OW30823   0.832   4.714   0.164
 9975SOL    HW130824   0.841   4.799   0.216
 9975SOL    HW230825   0.764   4.726   0.092
 9976SOL     OW30826   4.598   6.160   5.221
 9976SOL    HW130827   4.627   6.092   5.288
 9976SOL    HW230828   4.679   6.201   5.179
 9977SOL     OW30829   4.385   6.932   5.660
 9977SOL    HW130830   4.361   6.835   5.652
 9977SOL    HW230831   4.476   6.947   5.621
 9978SOL     OW30832   6.678   2.663   0.360
 9978SOL    HW130833   6.691   2.677   0.458
 9978SOL    HW230834   6.582   2.638   0.342
 9979SOL     OW30835   3.643   4.136   3.706
 9979SOL    HW130836   3.557   4.086   3.715
 9979SOL    HW230837   3.646   4.210   3.773
 9980SOL     OW30838   0.157   6.976   6.944
 9980SOL    HW130839   0.104   6.904   6.899
 9980SOL    HW230840   0.247   6.941   6.968
 9981SOL     OW30841   5.567   1.283   1.227
 9981SOL    HW130842   5.481   1.310   1.271
 9981SOL    HW230843   5.641   1.286   1.293
 9982SOL     OW30844   2.739   1.990   4.908
 9982SOL    HW130845   2.670   1.949   4.850
 9982SOL    HW230846   2.738   1.946   4.998
 9983SOL     OW30847   0.369   2.906   2.032
 9983SOL    HW130848   0.327   2.897   1.942
 9983SOL    HW230849   0.297   2.905   2.102
 9984SOL     OW30850   1.237   4.677   1.116
 9984SOL    HW130851   1.321   4.635   1.151
 9984SOL    HW230852   1.248   4.776   1.111
 9985SOL     OW30853   4.590   4.380   5.865
 9985SOL    HW130854   4.650   4.301   5.852
 9985SOL    HW230855   4.496   4.348   5.879
 9986SOL     OW30856   5.869   4.056   6.859
 9986SOL    HW130857   5.807   4.128   6.887
 9986SOL    HW230858   5.818   3.972   6.840
 9987SOL     OW30859   5.141   2.088   0.608
 9987SOL    HW130860   5.221   2.138   0.574
 9987SOL    HW230861   5.097   2.142   0.681
 9988SOL     OW30862   5.621   6.481   3.591
 9988SOL    HW130863   5.707   6.461   3.639
 9988SOL    HW230864   5.611   6.580   3.580
 9989SOL     OW30865   6.318   5.828   2.283
 9989SOL    HW130866   6.324   5.918   2.327
 9989SOL    HW230867   6.387   5.767   2.323
 9990SOL     OW30868   0.205   5.659   2.992
 9990SOL    HW130869   0.278   5.691   3.052
 9990SOL    HW230870   0.124   5.638   3.046
 9991SOL     OW30871   1.951   3.461   1.895
 9991SOL    HW130872   1.953   3.380   1.836
 9991SOL    HW230873   2.044   3.481   1.927
 9992SOL     OW30874   2.219   4.523   0.173
 9992SOL    HW130875   2.281   4.507   0.250
 9992SOL    HW230876   2.156   4.446   0.164
 9993SOL     OW30877   3.432   0.155   4.167
 9993SOL    HW130878   3.375   0.081   4.200
 9993SOL    HW230879   3.426   0.159   4.067
 9994SOL     OW30880   5.863   4.971   5.226
 9994SOL    HW130881   5.806   4.976   5.144
 9994SOL    HW230882   5.910   4.883   5.229
 9995SOL     OW30883   4.139   1.429   5.823
 9995SOL    HW130884   4.111   1.429   5.727
 9995SOL    HW230885   4.227   1.382   5.832
 9996SOL     OW30886   2.956   4.796   0.821
 9996SOL    HW130887   3.055   4.808   0.826
 9996SOL    HW230888   2.926   4.737   0.896
 9997SOL     OW30889   5.713   0.646   2.552
 9997SOL    HW130890   5.662   0.642   2.638
 9997SOL    HW230891   5.785   0.578   2.553
 9998SOL     OW30892   5.214   3.701   2.209
 9998SOL    HW130893   5.119   3.670   2.214
 9998SOL    HW230894   5.231   3.768   2.281
 9999SOL     OW30895   0.332   0.019   5.196
 9999SOL    HW130896   0.410   6.972   5.202
 9999SOL    HW230897   0.273   7.007   5.120
10000SOL     OW30898   4.693   3.401   1.539
10000SOL    HW130899   4.721   3.326   1.598
10000SOL    HW230900   4.703   3.373   1.443
10001SOL     OW30901   3.768   6.959   1.588
10001SOL    HW130902   3.671   6.980   1.572
10001SOL    HW230903   3.792   6.986   1.681
10002SOL     OW30904   1.911   6.681   2.700
10002SOL    HW130905   1.814   6.696   2.718
10002SOL    HW230906   1.930   6.698   2.603
10003SOL     OW30907   0.689   1.136   2.797
10003SOL    HW130908   0.634   1.085   2.864
10003SOL    HW230909   0.632   1.207   2.755
10004SOL     OW30910   0.028   3.078   3.174
10004SOL    HW130911   0.016   3.173   3.202
10004SOL    HW230912   0.083   3.075   3.090
10005SOL     OW30913   2.372   5.798   2.685
10005SOL    HW130914   2.281   5.771   2.654
10005SOL    HW230915   2.375   5.798   2.785
10006SOL     OW30916   5.742   2.005   6.116
10006SOL    HW130917   5.660   2.039   6.163
10006SOL    HW230918   5.766   1.916   6.153
10007SOL     OW30919   1.343   4.887   3.628
10007SOL    HW130920   1.355   4.827   3.549
10007SOL    HW230921   1.329   4.981   3.596
10008SOL     OW30922   3.832   0.608   5.682
10008SOL    HW130923   3.866   0.667   5.609
10008SOL    HW230924   3.909   0.573   5.736
10009SOL     OW30925   1.551   5.226   1.830
10009SOL    HW130926   1.487   5.229   1.907
10009SOL    HW230927   1.603   5.312   1.828
10010SOL     OW30928   2.097   4.805   0.609
10010SOL    HW130929   2.015   4.747   0.612
10010SOL    HW230930   2.103   4.849   0.520
10011SOL     OW30931   3.435   3.571   6.947
10011SOL    HW130932   3.524   3.612   6.965
10011SOL    HW230933   3.431   3.481   6.990
10012SOL     OW30934   5.815   2.082   3.054
10012SOL    HW130935   5.855   2.173   3.055
10012SOL    HW230936   5.873   2.019   3.108
10013SOL     OW30937   0.418   6.336   5.484
10013SOL    HW130938   0.488   6.354   5.552
10013SOL    HW230939   0.455   6.274   5.414
10014SOL     OW30940   1.772   1.014   3.110
10014SOL    HW130941   1.759   1.065   3.025
10014SOL    HW230942   1.833   1.065   3.171
10015SOL     OW30943   4.350   0.551   6.792
10015SOL    HW130944   4.398   0.476   6.747
10015SOL    HW230945   4.305   0.608   6.723
10016SOL     OW30946   3.193   1.070   4.772
10016SOL    HW130947   3.264   1.035   4.711
10016SOL    HW230948   3.103   1.054   4.731
10017SOL     OW30949   3.210   1.203   3.063
10017SOL    HW130950   3.230   1.287   3.115
10017SOL    HW230951   3.216   1.222   2.965
10018SOL     OW30952   0.530   5.136   5.961
10018SOL    HW130953   0.449   5.106   6.013
10018SOL    HW230954   0.525   5.100   5.868
10019SOL     OW30955   0.079   1.774   2.789
10019SOL    HW130956   0.007   1.736   2.847
10019SOL    HW230957   0.118   1.702   2.732
10020SOL     OW30958   6.595   0.600   2.787
10020SOL    HW130959   6.615   0.696   2.764
10020SOL    HW230960   6.652   0.540   2.732
10021SOL     OW30961   1.820   3.459   1.506
10021SOL    HW130962   1.902   3.511   1.528
10021SOL    HW230963   1.845   3.370   1.470
10022SOL     OW30964   1.067   6.575   5.958
10022SOL    HW130965   1.074   6.476   5.975
10022SOL    HW230966   1.065   6.624   6.046
10023SOL     OW30967   1.139   1.528   5.319
10023SOL    HW130968   1.080   1.516   5.399
10023SOL    HW230969   1.223   1.474   5.330
10024SOL     OW30970   2.275   4.319   3.490
10024SOL    HW130971   2.184   4.326   3.450
10024SOL    HW230972   2.285   4.232   3.537
10025SOL     OW30973   0.541   2.923   1.100
10025SOL    HW130974   0.493   3.008   1.078
10025SOL    HW230975   0.590   2.891   1.019
10026SOL     OW30976   6.864   1.016   4.590
10026SOL    HW130977   6.778   0.974   4.561
10026SOL    HW230978   6.861   1.037   4.687
10027SOL     OW30979   3.335   0.941   5.724
10027SOL    HW130980   3.385   0.905   5.803
10027SOL    HW230981   3.366   0.895   5.641
10028SOL     OW30982   3.932   6.753   2.668
10028SOL    HW130983   3.960   6.672   2.617
10028SOL    HW230984   3.872   6.726   2.743
10029SOL     OW30985   6.904   5.032   4.175
10029SOL    HW130986   6.963   4.958   4.142
10029SOL    HW230987   6.856   5.002   4.257
10030SOL     OW30988   2.907   0.158   4.275
10030SOL    HW130989   2.921   0.078   4.334
10030SOL    HW230990   2.972   0.155   4.200
10031SOL     OW30991   1.977   6.703   3.877
10031SOL    HW130992   1.994   6.792   3.835
10031SOL    HW230993   1.954   6.716   3.974
10032SOL     OW30994   2.882   5.921   4.218
10032SOL    HW130995   2.973   5.925   4.176
10032SOL    HW230996   2.843   5.830   4.203
10033SOL     OW30997   2.648   1.145   4.898
10033SOL    HW130998   2.590   1.119   4.976
10033SOL    HW230999   2.714   1.072   4.880
10034SOL     OW31000   2.227   1.211   1.769
10034SOL    HW131001   2.226   1.168   1.859
10034SOL    HW231002   2.320   1.243   1.748
10035SOL     OW31003   0.396   3.205   2.411
10035SOL    HW131004   0.384   3.252   2.323
10035SOL    HW231005   0.424   3.272   2.480
10036SOL     OW31006   0.155   1.700   6.780
10036SOL    HW131007   0.212   1.626   6.818
10036SOL    HW231008   0.117   1.671   6.692
10037SOL     OW31009   5.993   0.570   5.850
10037SOL    HW131010   6.050   0.610   5.778
10037SOL    HW231011   6.040   0.491   5.890
10038SOL     OW31012   5.044   6.668   6.888
10038SOL    HW131013   4.995   6.581   6.887
10038SOL    HW231014   5.131   6.656   6.936
10039SOL     OW31015   0.273   5.005   1.549
10039SOL    HW131016   0.320   5.088   1.581
10039SOL    HW231017   0.289   4.931   1.614
10040SOL     OW31018   2.533   0.088   0.234
10040SOL    HW131019   2.498   0.174   0.197
10040SOL    HW231020   2.619   0.105   0.284
10041SOL     OW31021   5.490   4.774   5.490
10041SOL    HW131022   5.496   4.860   5.540
10041SOL    HW231023   5.574   4.759   5.438
10042SOL     OW31024   6.276   0.827   5.339
10042SOL    HW131025   6.222   0.889   5.283
10042SOL    HW231026   6.217   0.783   5.407
10043SOL     OW31027   0.879   0.448   2.836
10043SOL    HW131028   0.946   0.409   2.772
10043SOL    HW231029   0.812   0.502   2.785
10044SOL     OW31030   3.195   2.327   6.870
10044SOL    HW131031   3.165   2.404   6.812
10044SOL    HW231032   3.288   2.301   6.845
10045SOL     OW31033   4.175   0.060   4.365
10045SOL    HW131034   4.152   0.018   4.453
10045SOL    HW231035   4.105   0.127   4.341
10046SOL     OW31036   6.719   2.095   1.664
10046SOL    HW131037   6.786   2.081   1.737
10046SOL    HW231038   6.657   2.016   1.660
10047SOL     OW31039   1.377   2.844   3.036
10047SOL    HW131040   1.290   2.809   3.071
10047SOL    HW231041   1.453   2.797   3.081
10048SOL     OW31042   3.487   2.475   1.674
10048SOL    HW131043   3.479   2.573   1.693
10048SOL    HW231044   3.552   2.434   1.737
10049SOL     OW31045   1.572   5.516   4.638
10049SOL    HW131046   1.669   5.540   4.631
10049SOL    HW231047   1.554   5.479   4.729
10050SOL     OW31048   5.865   1.665   4.848
10050SOL    HW131049   5.768   1.643   4.843
10050SOL    HW231050   5.912   1.625   4.769
10051SOL     OW31051   6.301   1.854   0.658
10051SOL    HW131052   6.344   1.799   0.729
10051SOL    HW231053   6.212   1.887   0.691
10052SOL     OW31054   1.968   5.137   0.961
10052SOL    HW131055   1.959   5.073   0.884
10052SOL    HW231056   1.882   5.187   0.973
10053SOL     OW31057   2.879   6.308   3.394
10053SOL    HW131058   2.939   6.290   3.316
10053SOL    HW231059   2.932   6.305   3.479
10054SOL     OW31060   4.654   5.316   3.705
10054SOL    HW131061   4.643   5.310   3.804
10054SOL    HW231062   4.578   5.268   3.660
10055SOL     OW31063   5.002   3.121   0.057
10055SOL    HW131064   5.065   3.115   6.995
10055SOL    HW231065   5.042   3.180   0.127
10056SOL     OW31066   5.104   4.029   2.693
10056SOL    HW131067   5.104   4.113   2.747
10056SOL    HW231068   5.013   4.013   2.657
10057SOL     OW31069   2.555   2.530   3.048
10057SOL    HW131070   2.472   2.484   3.017
10057SOL    HW231071   2.616   2.547   2.971
10058SOL     OW31072   0.979   5.231   4.091
10058SOL    HW131073   1.014   5.289   4.164
10058SOL    HW231074   0.883   5.253   4.073
10059SOL     OW31075   4.676   6.449   1.812
10059SOL    HW131076   4.638   6.452   1.905
10059SOL    HW231077   4.703   6.541   1.785
10060SOL     OW31078   2.379   2.743   2.241
10060SOL    HW131079   2.437   2.669   2.275
10060SOL    HW231080   2.433   2.827   2.232
10061SOL     OW31081   6.782   1.955   5.710
10061SOL    HW131082   6.737   2.041   5.683
10061SOL    HW231083   6.720   1.879   5.695
10062SOL     OW31084   4.795   5.915   2.921
10062SOL    HW131085   4.798   5.901   3.020
10062SOL    HW231086   4.862   5.856   2.877
10063SOL     OW31087   0.807   2.632   2.193
10063SOL    HW131088   0.782   2.697   2.122
10063SOL    HW231089   0.731   2.622   2.257
10064SOL     OW31090   4.914   4.883   5.674
10064SOL    HW131091   4.875   4.801   5.633
10064SOL    HW231092   4.855   4.962   5.652
10065SOL     OW31093   0.491   0.430   2.687
10065SOL    HW131094   0.420   0.427   2.758
10065SOL    HW231095   0.457   0.386   2.604
10066SOL     OW31096   0.328   0.891   3.978
10066SOL    HW131097   0.290   0.969   3.929
10066SOL    HW231098   0.357   0.920   4.070
10067SOL     OW31099   4.958   6.463   3.683
10067SOL    HW131100   4.866   6.470   3.644
10067SOL    HW231101   4.961   6.390   3.751
10068SOL     OW31102   5.182   3.405   5.610
10068SOL    HW131103   5.120   3.328   5.598
10068SOL    HW231104   5.210   3.440   5.521
10069SOL     OW31105   5.382   1.476   3.960
10069SOL    HW131106   5.385   1.551   4.026
10069SOL    HW231107   5.299   1.423   3.974
10070SOL     OW31108   1.384   0.098   4.378
10070SOL    HW131109   1.449   0.074   4.306
10070SOL    HW231110   1.315   0.025   4.387
10071SOL     OW31111   4.943   4.592   5.330
10071SOL    HW131112   4.924   4.545   5.416
10071SOL    HW231113   5.040   4.619   5.327
10072SOL     OW31114   0.994   6.699   4.071
10072SOL    HW131115   0.906   6.698   4.119
10072SOL    HW231116   0.979   6.718   3.974
10073SOL     OW31117   0.019   5.682   6.301
10073SOL    HW131118   0.042   5.606   6.240
10073SOL    HW231119   6.957   5.732   6.263
10074SOL     OW31120   2.418   6.888   4.817
10074SOL    HW131121   2.345   6.887   4.886
10074SOL    HW231122   2.381   6.924   4.731
10075SOL     OW31123   1.497   2.675   4.487
10075SOL    HW131124   1.449   2.658   4.573
10075SOL    HW231125   1.593   2.648   4.496
10076SOL     OW31126   5.698   0.266   3.602
10076SOL    HW131127   5.761   0.290   3.676
10076SOL    HW231128   5.717   0.323   3.522
10077SOL     OW31129   3.256   1.705   6.194
10077SOL    HW131130   3.295   1.623   6.233
10077SOL    HW231131   3.161   1.715   6.225
10078SOL     OW31132   5.338   5.942   5.622
10078SOL    HW131133   5.401   5.953   5.545
10078SOL    HW231134   5.370   5.869   5.682
10079SOL     OW31135   0.145   2.588   6.115
10079SOL    HW131136   0.119   2.676   6.076
10079SOL    HW231137   0.089   2.568   6.195
10080SOL     OW31138   1.300   2.828   5.548
10080SOL    HW131139   1.280   2.732   5.567
10080SOL    HW231140   1.388   2.853   5.589
10081SOL     OW31141   0.449   1.367   0.175
10081SOL    HW131142   0.541   1.401   0.156
10081SOL    HW231143   0.455   1.281   0.225
10082SOL     OW31144   6.833   0.506   0.252
10082SOL    HW131145   6.858   0.577   0.318
10082SOL    HW231146   6.754   0.455   0.287
10083SOL     OW31147   5.453   1.379   4.255
10083SOL    HW131148   5.374   1.360   4.197
10083SOL    HW231149   5.520   1.433   4.204
10084SOL     OW31150   2.640   0.489   6.477
10084SOL    HW131151   2.639   0.580   6.517
10084SOL    HW231152   2.729   0.473   6.435
10085SOL     OW31153   1.159   4.820   2.649
10085SOL    HW131154   1.249   4.857   2.668
10085SOL    HW231155   1.097   4.842   2.724
10086SOL     OW31156   6.994   3.597   1.913
10086SOL    HW131157   6.934   3.601   1.833
10086SOL    HW231158   6.946   3.553   1.989
10087SOL     OW31159   1.976   0.885   3.260
10087SOL    HW131160   1.979   0.857   3.164
10087SOL    HW231161   1.942   0.978   3.267
10088SOL     OW31162   5.962   0.044   4.705
10088SOL    HW131163   5.946   0.040   4.607
10088SOL    HW231164   6.025   0.118   4.726
10089SOL     OW31165   2.074   2.439   1.939
10089SOL    HW131166   2.140   2.475   2.005
10089SOL    HW231167   2.058   2.342   1.958
10090SOL     OW31168   0.709   5.313   1.855
10090SOL    HW131169   0.726   5.284   1.761
10090SOL    HW231170   0.610   5.313   1.872
10091SOL     OW31171   0.388   1.724   3.984
10091SOL    HW131172   0.304   1.764   3.947
10091SOL    HW231173   0.364   1.649   4.046
10092SOL     OW31174   1.816   2.994   5.317
10092SOL    HW131175   1.775   3.085   5.321
10092SOL    HW231176   1.751   2.930   5.277
10093SOL     OW31177   0.032   6.308   6.211
10093SOL    HW131178   0.046   6.284   6.115
10093SOL    HW231179   7.002   6.397   6.216
10094SOL     OW31180   1.429   0.548   1.573
10094SOL    HW131181   1.513   0.602   1.575
10094SOL    HW231182   1.431   0.484   1.496
10095SOL     OW31183   6.827   2.176   4.988
10095SOL    HW131184   6.927   2.172   4.977
10095SOL    HW231185   6.800   2.118   5.065
10096SOL     OW31186   6.851   5.813   3.141
10096SOL    HW131187   6.772   5.874   3.150
10096SOL    HW231188   6.861   5.784   3.046
10097SOL     OW31189   1.186   2.545   5.657
10097SOL    HW131190   1.095   2.505   5.662
10097SOL    HW231191   1.250   2.478   5.619
10098SOL     OW31192   3.818   5.214   6.519
10098SOL    HW131193   3.896   5.195   6.578
10098SOL    HW231194   3.750   5.267   6.571
10099SOL     OW31195   0.367   4.461   4.637
10099SOL    HW131196   0.327   4.551   4.652
10099SOL    HW231197   0.402   4.455   4.543
10100SOL     OW31198   4.608   0.367   5.520
10100SOL    HW131199   4.636   0.380   5.615
10100SOL    HW231200   4.540   0.437   5.496
10101SOL     OW31201   6.895   4.969   2.705
10101SOL    HW131202   6.983   4.956   2.660
10101SOL    HW231203   6.881   4.896   2.773
10102SOL     OW31204   3.836   0.490   4.219
10102SOL    HW131205   3.764   0.455   4.278
10102SOL    HW231206   3.850   0.588   4.236
10103SOL     OW31207   0.792   2.615   0.490
10103SOL    HW131208   0.692   2.605   0.489
10103SOL    HW231209   0.833   2.528   0.517
10104SOL     OW31210   1.915   6.058   5.644
10104SOL    HW131211   1.975   5.978   5.658
10104SOL    HW231212   1.938   6.129   5.710
10105SOL     OW31213   3.520   0.322   0.034
10105SOL    HW131214   3.451   0.358   0.096
10105SOL    HW231215   3.608   0.366   0.052
10106SOL     OW31216   4.975   5.085   1.302
10106SOL    HW131217   5.072   5.088   1.279
10106SOL    HW231218   4.939   4.994   1.281
10107SOL     OW31219   5.530   0.987   5.818
10107SOL    HW131220   5.548   1.004   5.721
10107SOL    HW231221   5.570   0.899   5.845
10108SOL     OW31222   5.603   6.400   6.631
10108SOL    HW131223   5.631   6.447   6.548
10108SOL    HW231224   5.681   6.393   6.694
10109SOL     OW31225   4.610   5.611   3.246
10109SOL    HW131226   4.703   5.630   3.276
10109SOL    HW231227   4.613   5.554   3.163
10110SOL     OW31228   3.429   1.573   5.961
10110SOL    HW131229   3.348   1.554   6.016
10110SOL    HW231230   3.411   1.548   5.866
10111SOL     OW31231   6.859   2.455   2.069
10111SOL    HW131232   6.815   2.542   2.048
10111SOL    HW231233   6.956   2.459   2.047
10112SOL     OW31234   4.846   3.171   6.264
10112SOL    HW131235   4.782   3.244   6.239
10112SOL    HW231236   4.810   3.120   6.342
10113SOL     OW31237   4.154   6.784   0.989
10113SOL    HW131238   4.179   6.727   0.910
10113SOL    HW231239   4.234   6.838   1.017
10114SOL     OW31240   4.572   1.215   2.217
10114SOL    HW131241   4.572   1.306   2.173
10114SOL    HW231242   4.507   1.216   2.293
10115SOL     OW31243   1.195   1.943   4.791
10115SOL    HW131244   1.235   1.942   4.699
10115SOL    HW231245   1.133   1.866   4.802
10116SOL     OW31246   0.594   0.336   1.021
10116SOL    HW131247   0.662   0.268   1.050
10116SOL    HW231248   0.583   0.404   1.093
10117SOL     OW31249   4.604   6.995   5.547
10117SOL    HW131250   4.701   6.972   5.545
10117SOL    HW231251   4.581   0.035   5.467
10118SOL     OW31252   6.127   5.656   2.494
10118SOL    HW131253   6.072   5.708   2.429
10118SOL    HW231254   6.168   5.719   2.560
10119SOL     OW31255   2.023   6.813   6.198
10119SOL    HW131256   1.938   6.859   6.171
10119SOL    HW231257   2.070   6.778   6.117
10120SOL     OW31258   5.599   3.248   3.324
10120SOL    HW131259   5.687   3.285   3.355
10120SOL    HW231260   5.578   3.164   3.376
10121SOL     OW31261   5.948   4.686   3.614
10121SOL    HW131262   5.888   4.742   3.557
10121SOL    HW231263   5.980   4.740   3.692
10122SOL     OW31264   5.271   2.744   0.348
10122SOL    HW131265   5.357   2.732   0.300
10122SOL    HW231266   5.247   2.841   0.349
10123SOL     OW31267   0.029   0.050   0.160
10123SOL    HW131268   0.046   0.034   0.062
10123SOL    HW231269   0.031   0.148   0.178
10124SOL     OW31270   3.104   4.394   0.978
10124SOL    HW131271   3.006   4.414   0.980
10124SOL    HW231272   3.127   4.330   1.051
10125SOL     OW31273   2.085   0.552   0.499
10125SOL    HW131274   2.050   0.539   0.592
10125SOL    HW231275   2.155   0.483   0.480
10126SOL     OW31276   5.580   5.443   6.539
10126SOL    HW131277   5.590   5.419   6.635
10126SOL    HW231278   5.655   5.504   6.512
10127SOL     OW31279   3.714   4.939   5.101
10127SOL    HW131280   3.744   4.861   5.157
10127SOL    HW231281   3.735   5.024   5.149
10128SOL     OW31282   1.050   1.453   0.959
10128SOL    HW131283   1.099   1.508   1.027
10128SOL    HW231284   1.101   1.456   0.873
10129SOL     OW31285   5.144   2.411   3.028
10129SOL    HW131286   5.091   2.469   2.966
10129SOL    HW231287   5.096   2.325   3.043
10130SOL     OW31288   6.222   5.887   1.570
10130SOL    HW131289   6.228   5.939   1.486
10130SOL    HW231290   6.195   5.947   1.645
10131SOL     OW31291   0.556   0.072   0.028
10131SOL    HW131292   0.495   0.140   0.068
10131SOL    HW231293   0.641   0.069   0.080
10132SOL     OW31294   2.823   6.671   2.427
10132SOL    HW131295   2.734   6.625   2.433
10132SOL    HW231296   2.829   6.742   2.498
10133SOL     OW31297   6.128   4.762   2.549
10133SOL    HW131298   6.107   4.698   2.623
10133SOL    HW231299   6.218   4.801   2.563
10134SOL     OW31300   0.569   1.584   1.897
10134SOL    HW131301   0.549   1.505   1.955
10134SOL    HW231302   0.530   1.569   1.806
10135SOL     OW31303   3.024   6.034   2.928
10135SOL    HW131304   3.119   6.018   2.902
10135SOL    HW231305   2.965   6.017   2.849
10136SOL     OW31306   6.546   6.427   2.499
10136SOL    HW131307   6.556   6.492   2.423
10136SOL    HW231308   6.449   6.411   2.517
10137SOL     OW31309   5.787   5.153   4.410
10137SOL    HW131310   5.732   5.156   4.494
10137SOL    HW231311   5.870   5.101   4.426
10138SOL     OW31312   6.082   3.154   5.922
10138SOL    HW131313   6.103   3.178   5.827
10138SOL    HW231314   6.113   3.061   5.939
10139SOL     OW31315   3.827   3.054   3.434
10139SOL    HW131316   3.824   3.129   3.501
10139SOL    HW231317   3.920   3.045   3.399
10140SOL     OW31318   1.144   4.862   4.153
10140SOL    HW131319   1.194   4.877   4.239
10140SOL    HW231320   1.152   4.944   4.096
10141SOL     OW31321   2.158   0.481   3.926
10141SOL    HW131322   2.218   0.546   3.972
10141SOL    HW231323   2.212   0.408   3.885
10142SOL     OW31324   5.361   5.569   4.389
10142SOL    HW131325   5.415   5.496   4.431
10142SOL    HW231326   5.267   5.539   4.377
10143SOL     OW31327   4.575   6.171   1.119
10143SOL    HW131328   4.514   6.244   1.087
10143SOL    HW231329   4.564   6.090   1.060
10144SOL     OW31330   2.762   4.716   3.310
10144SOL    HW131331   2.761   4.689   3.406
10144SOL    HW231332   2.706   4.653   3.257
10145SOL     OW31333   2.693   0.019   6.204
10145SOL    HW131334   2.600   0.021   6.240
10145SOL    HW231335   2.753   0.072   6.265
10146SOL     OW31336   4.999   4.480   4.390
10146SOL    HW131337   4.925   4.451   4.450
10146SOL    HW231338   5.085   4.438   4.420
10147SOL     OW31339   5.143   5.801   4.294
10147SOL    HW131340   5.099   5.720   4.332
10147SOL    HW231341   5.116   5.813   4.198
10148SOL     OW31342   6.154   5.510   0.734
10148SOL    HW131343   6.225   5.465   0.789
10148SOL    HW231344   6.092   5.441   0.697
10149SOL     OW31345   4.466   3.222   1.301
10149SOL    HW131346   4.423   3.234   1.391
10149SOL    HW231347   4.540   3.156   1.308
10150SOL     OW31348   5.521   4.106   0.742
10150SOL    HW131349   5.585   4.178   0.770
10150SOL    HW231350   5.571   4.032   0.698
10151SOL     OW31351   0.639   5.748   5.619
10151SOL    HW131352   0.725   5.698   5.626
10151SOL    HW231353   0.622   5.799   5.704
10152SOL     OW31354   0.735   5.744   4.413
10152SOL    HW131355   0.640   5.729   4.384
10152SOL    HW231356   0.754   5.842   4.414
10153SOL     OW31357   5.244   5.322   4.013
10153SOL    HW131358   5.159   5.376   4.012
10153SOL    HW231359   5.320   5.379   3.980
10154SOL     OW31360   0.030   5.862   5.998
10154SOL    HW131361   0.008   5.895   5.906
10154SOL    HW231362   6.992   5.913   6.066
10155SOL     OW31363   3.790   0.903   6.095
10155SOL    HW131364   3.783   0.811   6.057
10155SOL    HW231365   3.742   0.968   6.036
10156SOL     OW31366   5.916   0.467   2.566
10156SOL    HW131367   5.945   0.433   2.476
10156SOL    HW231368   5.874   0.393   2.618
10157SOL     OW31369   5.045   0.577   3.917
10157SOL    HW131370   5.140   0.549   3.931
10157SOL    HW231371   4.984   0.516   3.967
10158SOL     OW31372   4.940   3.288   5.895
10158SOL    HW131373   4.897   3.206   5.934
10158SOL    HW231374   4.877   3.365   5.902
10159SOL     OW31375   1.721   1.117   6.342
10159SOL    HW131376   1.741   1.058   6.420
10159SOL    HW231377   1.622   1.135   6.338
10160SOL     OW31378   0.561   6.029   3.378
10160SOL    HW131379   0.649   6.060   3.413
10160SOL    HW231380   0.553   5.930   3.390
10161SOL     OW31381   2.619   5.835   4.986
10161SOL    HW131382   2.597   5.852   4.890
10161SOL    HW231383   2.568   5.755   5.018
10162SOL     OW31384   3.247   2.846   6.786
10162SOL    HW131385   3.318   2.916   6.774
10162SOL    HW231386   3.194   2.838   6.702
10163SOL     OW31387   0.457   3.180   5.929
10163SOL    HW131388   0.418   3.198   6.019
10163SOL    HW231389   0.547   3.223   5.922
10164SOL     OW31390   1.366   2.674   6.152
10164SOL    HW131391   1.342   2.685   6.055
10164SOL    HW231392   1.333   2.586   6.185
10165SOL     OW31393   0.325   1.783   3.249
10165SOL    HW131394   0.277   1.796   3.161
10165SOL    HW231395   0.296   1.854   3.313
10166SOL     OW31396   0.627   1.224   1.930
10166SOL    HW131397   0.647   1.126   1.937
10166SOL    HW231398   0.599   1.258   2.020
10167SOL     OW31399   5.054   1.005   0.626
10167SOL    HW131400   5.006   0.938   0.569
10167SOL    HW231401   5.067   0.967   0.717
10168SOL     OW31402   6.628   4.553   4.733
10168SOL    HW131403   6.623   4.588   4.827
10168SOL    HW231404   6.681   4.469   4.730
10169SOL     OW31405   6.761   4.316   4.750
10169SOL    HW131406   6.716   4.299   4.662
10169SOL    HW231407   6.718   4.260   4.820
10170SOL     OW31408   1.311   3.960   4.816
10170SOL    HW131409   1.297   3.889   4.747
10170SOL    HW231410   1.407   3.964   4.841
10171SOL     OW31411   5.854   2.891   6.464
10171SOL    HW131412   5.926   2.870   6.399
10171SOL    HW231413   5.772   2.838   6.442
10172SOL     OW31414   4.716   0.651   4.229
10172SOL    HW131415   4.804   0.680   4.267
10172SOL    HW231416   4.713   0.672   4.131
10173SOL     OW31417   2.278   2.356   2.730
10173SOL    HW131418   2.271   2.453   2.751
10173SOL    HW231419   2.225   2.303   2.797
10174SOL     OW31420   6.177   4.330   1.063
10174SOL    HW131421   6.122   4.251   1.092
10174SOL    HW231422   6.123   4.384   0.998
10175SOL     OW31423   5.495   2.763   5.670
10175SOL    HW131424   5.408   2.715   5.680
10175SOL    HW231425   5.496   2.842   5.732
10176SOL     OW31426   2.134   3.262   0.517
10176SOL    HW131427   2.072   3.302   0.585
10176SOL    HW231428   2.187   3.335   0.473
10177SOL     OW31429   2.062   0.156   5.397
10177SOL    HW131430   2.162   0.163   5.402
10177SOL    HW231431   2.030   0.191   5.310
10178SOL     OW31432   5.047   2.838   5.282
10178SOL    HW131433   4.959   2.871   5.248
10178SOL    HW231434   5.114   2.912   5.278
10179SOL     OW31435   0.139   3.429   6.912
10179SOL    HW131436   0.173   3.480   6.991
10179SOL    HW231437   0.125   3.491   6.835
10180SOL     OW31438   1.910   6.808   5.885
10180SOL    HW131439   1.823   6.779   5.845
10180SOL    HW231440   1.896   6.893   5.937
10181SOL     OW31441   5.998   3.533   1.981
10181SOL    HW131442   5.931   3.505   2.050
10181SOL    HW231443   5.958   3.523   1.890
10182SOL     OW31444   4.364   1.311   0.276
10182SOL    HW131445   4.451   1.319   0.226
10182SOL    HW231446   4.373   1.359   0.364
10183SOL     OW31447   2.245   1.502   6.545
10183SOL    HW131448   2.201   1.429   6.597
10183SOL    HW231449   2.193   1.587   6.554
10184SOL     OW31450   4.839   0.642   6.904
10184SOL    HW131451   4.811   0.712   6.837
10184SOL    HW231452   4.820   0.551   6.867
10185SOL     OW31453   4.648   1.274   0.180
10185SOL    HW131454   4.714   1.342   0.148
10185SOL    HW231455   4.637   1.204   0.109
10186SOL     OW31456   4.937   2.188   2.827
10186SOL    HW131457   4.944   2.288   2.834
10186SOL    HW231458   4.857   2.157   2.878
10187SOL     OW31459   0.938   2.022   2.578
10187SOL    HW131460   0.847   2.015   2.537
10187SOL    HW231461   0.931   2.064   2.669
10188SOL     OW31462   4.132   5.099   0.294
10188SOL    HW131463   4.142   5.024   0.360
10188SOL    HW231464   4.104   5.182   0.342
10189SOL     OW31465   1.369   6.961   5.133
10189SOL    HW131466   1.380   0.045   5.126
10189SOL    HW231467   1.308   6.930   5.060
10190SOL     OW31468   5.124   2.895   6.909
10190SOL    HW131469   5.113   2.797   6.891
10190SOL    HW231470   5.120   2.911   7.007
10191SOL     OW31471   6.917   4.823   6.500
10191SOL    HW131472   6.997   4.870   6.537
10191SOL    HW231473   6.835   4.853   6.549
10192SOL     OW31474   3.586   1.830   0.206
10192SOL    HW131475   3.648   1.764   0.248
10192SOL    HW231476   3.639   1.899   0.156
10193SOL     OW31477   4.561   4.198   0.557
10193SOL    HW131478   4.500   4.125   0.525
10193SOL    HW231479   4.618   4.163   0.632
10194SOL     OW31480   4.568   2.807   5.131
10194SOL    HW131481   4.477   2.780   5.163
10194SOL    HW231482   4.636   2.740   5.161
10195SOL     OW31483   5.850   4.223   1.808
10195SOL    HW131484   5.765   4.169   1.813
10195SOL    HW231485   5.919   4.181   1.868
10196SOL     OW31486   6.958   1.844   4.402
10196SOL    HW131487   6.996   1.903   4.472
10196SOL    HW231488   6.921   1.900   4.328
10197SOL     OW31489   5.586   0.592   6.978
10197SOL    HW131490   5.507   0.639   6.938
10197SOL    HW231491   5.575   0.584   0.061
10198SOL     OW31492   4.085   6.768   3.708
10198SOL    HW131493   4.067   6.706   3.631
10198SOL    HW231494   4.072   6.718   3.794
10199SOL     OW31495   0.624   2.213   5.452
10199SOL    HW131496   0.538   2.228   5.402
10199SOL    HW231497   0.603   2.171   5.541
10200SOL     OW31498   5.066   2.077   1.827
10200SOL    HW131499   5.022   2.104   1.741
10200SOL    HW231500   5.002   2.022   1.881
10201SOL     OW31501   1.576   3.693   0.903
10201SOL    HW131502   1.639   3.721   0.831
10201SOL    HW231503   1.501   3.758   0.909
10202SOL     OW31504   5.362   0.449   3.596
10202SOL    HW131505   5.287   0.515   3.591
10202SOL    HW231506   5.352   0.394   3.678
10203SOL     OW31507   0.175   2.663   4.965
10203SOL    HW131508   0.139   2.679   4.873
10203SOL    HW231509   0.232   2.580   4.965
10204SOL     OW31510   5.802   4.753   6.350
10204SOL    HW131511   5.856   4.788   6.274
10204SOL    HW231512   5.832   4.796   6.435
10205SOL     OW31513   0.111   1.599   6.527
10205SOL    HW131514   0.143   1.505   6.531
10205SOL    HW231515   0.020   1.602   6.485
10206SOL     OW31516   2.004   1.524   4.571
10206SOL    HW131517   1.945   1.604   4.557
10206SOL    HW231518   2.068   1.517   4.495
10207SOL     OW31519   2.475   2.289   5.817
10207SOL    HW131520   2.562   2.244   5.795
10207SOL    HW231521   2.414   2.284   5.738
10208SOL     OW31522   0.114   6.681   5.769
10208SOL    HW131523   0.140   6.595   5.812
10208SOL    HW231524   0.100   6.666   5.671
10209SOL     OW31525   6.585   6.599   5.650
10209SOL    HW131526   6.553   6.694   5.651
10209SOL    HW231527   6.647   6.584   5.727
10210SOL     OW31528   3.646   0.540   1.753
10210SOL    HW131529   3.568   0.578   1.803
10210SOL    HW231530   3.662   0.592   1.669
10211SOL     OW31531   5.175   5.380   6.096
10211SOL    HW131532   5.199   5.320   6.173
10211SOL    HW231533   5.252   5.385   6.032
10212SOL     OW31534   0.442   0.862   6.722
10212SOL    HW131535   0.412   0.948   6.764
10212SOL    HW231536   0.457   0.794   6.793
10213SOL     OW31537   6.802   2.661   1.253
10213SOL    HW131538   6.782   2.667   1.155
10213SOL    HW231539   6.900   2.642   1.265
10214SOL     OW31540   1.836   2.866   6.972
10214SOL    HW131541   1.819   2.813   6.889
10214SOL    HW231542   1.825   2.964   6.952
10215SOL     OW31543   3.448   4.103   3.039
10215SOL    HW131544   3.534   4.058   3.014
10215SOL    HW231545   3.459   4.151   3.126
10216SOL     OW31546   0.534   6.079   2.050
10216SOL    HW131547   0.542   6.162   1.996
10216SOL    HW231548   0.467   6.092   2.123
10217SOL     OW31549   4.496   1.665   5.234
10217SOL    HW131550   4.411   1.708   5.265
10217SOL    HW231551   4.499   1.666   5.134
10218SOL     OW31552   1.053   2.752   2.929
10218SOL    HW131553   1.039   2.832   2.870
10218SOL    HW231554   1.080   2.783   3.020
10219SOL     OW31555   6.906   6.039   2.923
10219SOL    HW131556   6.942   6.006   2.835
10219SOL    HW231557   6.832   5.979   2.953
10220SOL     OW31558   3.488   3.266   6.957
10220SOL    HW131559   3.505   3.218   0.028
10220SOL    HW231560   3.391   3.256   6.933
10221SOL     OW31561   1.160   5.100   3.133
10221SOL    HW131562   1.100   5.097   3.213
10221SOL    HW231563   1.137   5.181   3.078
10222SOL     OW31564   3.037   3.775   3.651
10222SOL    HW131565   2.983   3.729   3.581
10222SOL    HW231566   3.132   3.744   3.646
10223SOL     OW31567   2.584   6.774   0.711
10223SOL    HW131568   2.489   6.746   0.697
10223SOL    HW231569   2.617   6.735   0.797
10224SOL     OW31570   0.025   3.491   3.025
10224SOL    HW131571   0.066   3.466   3.113
10224SOL    HW231572   0.041   3.588   3.008
10225SOL     OW31573   1.534   3.824   5.656
10225SOL    HW131574   1.439   3.821   5.624
10225SOL    HW231575   1.570   3.916   5.644
10226SOL     OW31576   4.633   4.419   7.000
10226SOL    HW131577   4.711   4.435   0.046
10226SOL    HW231578   4.563   4.367   0.032
10227SOL     OW31579   5.659   3.962   1.451
10227SOL    HW131580   5.745   3.919   1.475
10227SOL    HW231581   5.630   4.025   1.523
10228SOL     OW31582   5.505   0.532   0.804
10228SOL    HW131583   5.478   0.475   0.882
10228SOL    HW231584   5.578   0.487   0.753
10229SOL     OW31585   0.283   2.112   4.814
10229SOL    HW131586   0.320   2.165   4.738
10229SOL    HW231587   0.357   2.091   4.878
10230SOL     OW31588   6.797   6.219   1.742
10230SOL    HW131589   6.849   6.142   1.780
10230SOL    HW231590   6.782   6.288   1.814
10231SOL     OW31591   0.303   3.975   2.272
10231SOL    HW131592   0.274   4.013   2.360
10231SOL    HW231593   0.400   3.949   2.277
10232SOL     OW31594   4.330   4.992   2.531
10232SOL    HW131595   4.379   4.905   2.530
10232SOL    HW231596   4.329   5.028   2.624
10233SOL     OW31597   3.110   3.880   5.838
10233SOL    HW131598   3.011   3.890   5.849
10233SOL    HW231599   3.153   3.875   5.928
10234SOL     OW31600   0.534   0.907   2.119
10234SOL    HW131601   0.456   0.859   2.160
10234SOL    HW231602   0.551   0.991   2.170
10235SOL     OW31603   1.561   1.173   3.163
10235SOL    HW131604   1.484   1.154   3.225
10235SOL    HW231605   1.601   1.087   3.133
10236SOL     OW31606   0.612   0.658   2.770
10236SOL    HW131607   0.567   0.575   2.737
10236SOL    HW231608   0.550   0.736   2.759
10237SOL     OW31609   0.205   3.249   5.652
10237SOL    HW131610   0.300   3.217   5.646
10237SOL    HW231611   0.189   3.318   5.581
10238SOL     OW31612   2.773   6.653   1.152
10238SOL    HW131613   2.725   6.738   1.127
10238SOL    HW231614   2.862   6.675   1.191
10239SOL     OW31615   1.439   2.679   5.151
10239SOL    HW131616   1.475   2.647   5.238
10239SOL    HW231617   1.344   2.649   5.142
10240SOL     OW31618   2.270   5.818   1.415
10240SOL    HW131619   2.174   5.842   1.397
10240SOL    HW231620   2.325   5.835   1.334
10241SOL     OW31621   4.361   3.748   1.547
10241SOL    HW131622   4.263   3.757   1.529
10241SOL    HW231623   4.392   3.656   1.523
10242SOL     OW31624   0.102   3.538   0.974
10242SOL    HW131625   0.185   3.547   1.029
10242SOL    HW231626   0.023   3.571   1.027
10243SOL     OW31627   3.269   5.420   2.196
10243SOL    HW131628   3.353   5.448   2.149
10243SOL    HW231629   3.283   5.329   2.236
10244SOL     OW31630   2.739   4.908   1.449
10244SOL    HW131631   2.756   4.895   1.352
10244SOL    HW231632   2.758   4.822   1.498
10245SOL     OW31633   5.822   4.228   1.103
10245SOL    HW131634   5.843   4.306   1.161
10245SOL    HW231635   5.814   4.257   1.008
10246SOL     OW31636   3.342   3.338   3.739
10246SOL    HW131637   3.245   3.336   3.715
10246SOL    HW231638   3.391   3.396   3.674
10247SOL     OW31639   0.547   2.913   4.562
10247SOL    HW131640   0.645   2.925   4.550
10247SOL    HW231641   0.521   2.818   4.542
10248SOL     OW31642   0.279   1.600   5.183
10248SOL    HW131643   0.216   1.541   5.234
10248SOL    HW231644   0.276   1.577   5.086
10249SOL     OW31645   2.634   4.763   5.907
10249SOL    HW131646   2.695   4.735   5.981
10249SOL    HW231647   2.656   4.712   5.824
10250SOL     OW31648   2.936   3.044   0.626
10250SOL    HW131649   2.919   3.109   0.552
10250SOL    HW231650   2.850   2.999   0.650
10251SOL     OW31651   1.179   0.902   4.549
10251SOL    HW131652   1.211   0.808   4.563
10251SOL    HW231653   1.096   0.900   4.493
10252SOL     OW31654   4.763   4.587   5.873
10252SOL    HW131655   4.723   4.652   5.938
10252SOL    HW231656   4.711   4.502   5.874
10253SOL     OW31657   3.852   5.827   6.887
10253SOL    HW131658   3.887   5.911   6.844
10253SOL    HW231659   3.915   5.799   6.960
10254SOL     OW31660   6.418   1.310   5.881
10254SOL    HW131661   6.435   1.350   5.791
10254SOL    HW231662   6.411   1.211   5.873
10255SOL     OW31663   4.027   4.579   1.698
10255SOL    HW131664   4.102   4.542   1.752
10255SOL    HW231665   4.006   4.516   1.623
10256SOL     OW31666   2.925   1.502   4.607
10256SOL    HW131667   2.957   1.566   4.538
10256SOL    HW231668   2.882   1.423   4.563
10257SOL     OW31669   3.337   5.658   2.722
10257SOL    HW131670   3.411   5.722   2.702
10257SOL    HW231671   3.346   5.577   2.665
10258SOL     OW31672   2.541   1.426   2.378
10258SOL    HW131673   2.504   1.515   2.354
10258SOL    HW231674   2.582   1.384   2.297
10259SOL     OW31675   1.420   3.879   3.909
10259SOL    HW131676   1.440   3.824   3.990
10259SOL    HW231677   1.447   3.974   3.926
10260SOL     OW31678   0.969   0.386   3.530
10260SOL    HW131679   0.952   0.341   3.442
10260SOL    HW231680   0.926   0.476   3.531
10261SOL     OW31681   6.907   4.025   1.104
10261SOL    HW131682   6.839   4.070   1.162
10261SOL    HW231683   6.979   4.091   1.082
10262SOL     OW31684   3.754   0.701   0.020
10262SOL    HW131685   3.657   0.700   0.046
10262SOL    HW231686   3.782   0.610   7.008
10263SOL     OW31687   5.625   0.145   2.946
10263SOL    HW131688   5.617   0.113   3.040
10263SOL    HW231689   5.538   0.132   2.899
10264SOL     OW31690   6.333   0.336   5.984
10264SOL    HW131691   6.350   0.303   6.077
10264SOL    HW231692   6.417   0.332   5.930
10265SOL     OW31693   2.041   1.445   1.746
10265SOL    HW131694   2.000   1.471   1.833
10265SOL    HW231695   2.084   1.356   1.755
10266SOL     OW31696   2.768   3.507   1.373
10266SOL    HW131697   2.791   3.554   1.458
10266SOL    HW231698   2.812   3.417   1.372
10267SOL     OW31699   6.555   0.259   0.850
10267SOL    HW131700   6.521   0.165   0.841
10267SOL    HW231701   6.479   0.320   0.874
10268SOL     OW31702   2.816   5.417   2.348
10268SOL    HW131703   2.767   5.499   2.321
10268SOL    HW231704   2.782   5.338   2.296
10269SOL     OW31705   2.286   1.416   0.074
10269SOL    HW131706   2.219   1.432   0.002
10269SOL    HW231707   2.292   1.318   0.093
10270SOL     OW31708   2.783   0.341   4.017
10270SOL    HW131709   2.827   0.253   4.002
10270SOL    HW231710   2.721   0.335   4.095
10271SOL     OW31711   1.707   0.936   6.803
10271SOL    HW131712   1.669   0.955   6.712
10271SOL    HW231713   1.807   0.928   6.796
10272SOL     OW31714   6.135   6.512   4.660
10272SOL    HW131715   6.193   6.531   4.740
10272SOL    HW231716   6.071   6.587   4.648
10273SOL     OW31717   1.737   5.360   3.266
10273SOL    HW131718   1.766   5.265   3.254
10273SOL    HW231719   1.815   5.415   3.295
10274SOL     OW31720   1.030   3.599   5.383
10274SOL    HW131721   0.936   3.616   5.352
10274SOL    HW231722   1.092   3.605   5.305
10275SOL     OW31723   6.801   1.023   2.085
10275SOL    HW131724   6.831   1.092   2.019
10275SOL    HW231725   6.843   1.040   2.174
10276SOL     OW31726   3.117   5.261   5.136
10276SOL    HW131727   3.151   5.270   5.230
10276SOL    HW231728   3.020   5.238   5.139
10277SOL     OW31729   1.038   5.160   3.821
10277SOL    HW131730   1.009   5.176   3.915
10277SOL    HW231731   0.985   5.218   3.759
10278SOL     OW31732   6.322   0.221   4.594
10278SOL    HW131733   6.395   0.176   4.645
10278SOL    HW231734   6.358   0.258   4.508
10279SOL     OW31735   1.293   4.666   3.979
10279SOL    HW131736   1.218   4.634   3.922
10279SOL    HW231737   1.266   4.750   4.026
10280SOL     OW31738   5.995   5.588   0.431
10280SOL    HW131739   5.952   5.532   0.502
10280SOL    HW231740   6.039   5.667   0.474
10281SOL     OW31741   6.107   0.687   4.138
10281SOL    HW131742   6.080   0.734   4.222
10281SOL    HW231743   6.087   0.590   4.146
10282SOL     OW31744   4.510   2.462   3.384
10282SOL    HW131745   4.533   2.453   3.287
10282SOL    HW231746   4.513   2.558   3.411
10283SOL     OW31747   0.310   2.200   1.092
10283SOL    HW131748   0.352   2.211   1.182
10283SOL    HW231749   0.381   2.198   1.021
10284SOL     OW31750   0.643   4.786   4.684
10284SOL    HW131751   0.699   4.868   4.691
10284SOL    HW231752   0.547   4.811   4.685
10285SOL     OW31753   0.111   6.770   6.636
10285SOL    HW131754   0.076   6.835   6.569
10285SOL    HW231755   0.035   6.714   6.671
10286SOL     OW31756   2.800   0.863   2.388
10286SOL    HW131757   2.841   0.884   2.300
10286SOL    HW231758   2.768   0.768   2.389
10287SOL     OW31759   0.565   5.881   2.731
10287SOL    HW131760   0.629   5.886   2.654
10287SOL    HW231761   0.616   5.886   2.817
10288SOL     OW31762   3.494   5.974   4.325
10288SOL    HW131763   3.429   5.901   4.306
10288SOL    HW231764   3.523   5.969   4.420
10289SOL     OW31765   4.071   6.177   0.124
10289SOL    HW131766   4.135   6.252   0.137
10289SOL    HW231767   4.120   6.095   0.094
10290SOL     OW31768   2.834   3.433   2.227
10290SOL    HW131769   2.891   3.351   2.216
10290SOL    HW231770   2.742   3.406   2.254
10291SOL     OW31771   2.919   1.781   2.171
10291SOL    HW131772   2.874   1.831   2.244
10291SOL    HW231773   2.984   1.841   2.124
10292SOL     OW31774   6.983   0.133   5.946
10292SOL    HW131775   0.026   0.054   5.932
10292SOL    HW231776   0.023   0.216   5.950
10293SOL     OW31777   1.080   3.284   5.232
10293SOL    HW131778   0.992   3.328   5.212
10293SOL    HW231779   1.109   3.309   5.325
10294SOL     OW31780   2.019   0.078   2.254
10294SOL    HW131781   2.100   0.071   2.312
10294SOL    HW231782   2.044   0.059   2.159
10295SOL     OW31783   1.588   1.490   0.562
10295SOL    HW131784   1.618   1.408   0.612
10295SOL    HW231785   1.666   1.551   0.550
10296SOL     OW31786   6.417   2.359   5.727
10296SOL    HW131787   6.327   2.335   5.689
10296SOL    HW231788   6.458   2.432   5.672
10297SOL     OW31789   4.890   0.902   1.162
10297SOL    HW131790   4.864   0.812   1.126
10297SOL    HW231791   4.832   0.972   1.120
10298SOL     OW31792   1.256   1.763   1.997
10298SOL    HW131793   1.270   1.853   1.957
10298SOL    HW231794   1.179   1.718   1.952
10299SOL     OW31795   4.916   0.437   2.813
10299SOL    HW131796   4.873   0.418   2.901
10299SOL    HW231797   4.858   0.400   2.740
10300SOL     OW31798   1.449   3.115   0.954
10300SOL    HW131799   1.475   3.020   0.971
10300SOL    HW231800   1.461   3.136   0.857
10301SOL     OW31801   3.989   1.130   0.148
10301SOL    HW131802   4.083   1.100   0.166
10301SOL    HW231803   3.973   1.217   0.194
10302SOL     OW31804   3.511   6.197   5.464
10302SOL    HW131805   3.514   6.225   5.368
10302SOL    HW231806   3.417   6.198   5.497
10303SOL     OW31807   0.615   4.234   4.812
10303SOL    HW131808   0.577   4.256   4.902
10303SOL    HW231809   0.622   4.318   4.758
10304SOL     OW31810   5.485   6.427   1.123
10304SOL    HW131811   5.483   6.440   1.222
10304SOL    HW231812   5.481   6.516   1.077
10305SOL     OW31813   2.771   3.846   5.254
10305SOL    HW131814   2.866   3.837   5.285
10305SOL    HW231815   2.762   3.812   5.161
10306SOL     OW31816   4.270   1.067   1.057
10306SOL    HW131817   4.222   1.116   1.130
10306SOL    HW231818   4.258   1.117   0.971
10307SOL     OW31819   2.015   0.230   5.131
10307SOL    HW131820   1.983   0.168   5.059
10307SOL    HW231821   2.092   0.283   5.096
10308SOL     OW31822   3.091   4.431   1.626
10308SOL    HW131823   3.176   4.379   1.643
10308SOL    HW231824   3.026   4.413   1.700
10309SOL     OW31825   0.167   1.027   5.742
10309SOL    HW131826   0.207   1.079   5.666
10309SOL    HW231827   0.226   0.950   5.764
10310SOL     OW31828   3.223   3.833   6.102
10310SOL    HW131829   3.313   3.819   6.060
10310SOL    HW231830   3.213   3.929   6.128
10311SOL     OW31831   5.855   6.037   0.011
10311SOL    HW131832   5.890   6.110   0.071
10311SOL    HW231833   5.929   5.971   7.009
10312SOL     OW31834   2.877   6.865   2.207
10312SOL    HW131835   2.812   6.939   2.223
10312SOL    HW231836   2.858   6.791   2.272
10313SOL     OW31837   4.885   6.655   2.777
10313SOL    HW131838   4.894   6.577   2.838
10313SOL    HW231839   4.972   6.705   2.775
10314SOL     OW31840   0.699   6.957   0.760
10314SOL    HW131841   0.777   6.914   0.714
10314SOL    HW231842   0.626   6.890   0.773
10315SOL     OW31843   5.047   4.970   3.682
10315SOL    HW131844   4.948   4.960   3.678
10315SOL    HW231845   5.075   4.997   3.774
10316SOL     OW31846   0.721   1.968   0.226
10316SOL    HW131847   0.736   2.063   0.252
10316SOL    HW231848   0.635   1.960   0.175
10317SOL     OW31849   3.814   6.080   4.973
10317SOL    HW131850   3.739   6.056   4.911
10317SOL    HW231851   3.860   5.997   5.004
10318SOL     OW31852   6.281   0.085   0.306
10318SOL    HW131853   6.355   0.098   0.240
10318SOL    HW231854   6.281   7.006   0.337
10319SOL     OW31855   0.490   4.340   4.045
10319SOL    HW131856   0.460   4.268   4.107
10319SOL    HW231857   0.447   4.326   3.955
10320SOL     OW31858   6.729   0.406   2.634
10320SOL    HW131859   6.662   0.358   2.689
10320SOL    HW231860   6.724   0.374   2.539
10321SOL     OW31861   5.795   2.677   2.880
10321SOL    HW131862   5.866   2.635   2.824
10321SOL    HW231863   5.820   2.672   2.976
10322SOL     OW31864   4.617   4.323   4.796
10322SOL    HW131865   4.646   4.291   4.706
10322SOL    HW231866   4.526   4.287   4.816
10323SOL     OW31867   1.235   4.540   6.092
10323SOL    HW131868   1.264   4.612   6.155
10323SOL    HW231869   1.310   4.475   6.078
10324SOL     OW31870   2.904   3.507   2.900
10324SOL    HW131871   2.926   3.584   2.840
10324SOL    HW231872   2.911   3.421   2.849
10325SOL     OW31873   5.814   6.091   4.872
10325SOL    HW131874   5.756   6.159   4.828
10325SOL    HW231875   5.767   6.052   4.951
10326SOL     OW31876   5.800   3.063   6.708
10326SOL    HW131877   5.823   2.994   6.639
10326SOL    HW231878   5.744   3.022   6.779
10327SOL     OW31879   1.686   5.862   6.348
10327SOL    HW131880   1.724   5.940   6.299
10327SOL    HW231881   1.733   5.779   6.319
10328SOL     OW31882   5.516   2.567   2.195
10328SOL    HW131883   5.452   2.625   2.145
10328SOL    HW231884   5.466   2.501   2.251
10329SOL     OW31885   3.418   1.735   2.148
10329SOL    HW131886   3.409   1.799   2.072
10329SOL    HW231887   3.369   1.650   2.127
10330SOL     OW31888   5.326   0.023   2.108
10330SOL    HW131889   5.240   0.070   2.089
10330SOL    HW231890   5.344   6.972   2.036
10331SOL     OW31891   5.337   5.610   5.697
10331SOL    HW131892   5.361   5.687   5.757
10331SOL    HW231893   5.239   5.614   5.676
10332SOL     OW31894   1.641   1.873   6.699
10332SOL    HW131895   1.577   1.825   6.639
10332SOL    HW231896   1.711   1.918   6.643
10333SOL     OW31897   1.417   3.466   4.457
10333SOL    HW131898   1.397   3.424   4.369
10333SOL    HW231899   1.461   3.400   4.517
10334SOL     OW31900   3.315   1.792   4.088
10334SOL    HW131901   3.327   1.693   4.074
10334SOL    HW231902   3.384   1.842   4.036
10335SOL     OW31903   2.001   2.859   5.130
10335SOL    HW131904   2.096   2.891   5.140
10335SOL    HW231905   1.940   2.919   5.182
10336SOL     OW31906   5.323   6.533   3.232
10336SOL    HW131907   5.347   6.606   3.168
10336SOL    HW231908   5.379   6.453   3.213
10337SOL     OW31909   6.559   6.109   6.939
10337SOL    HW131910   6.516   6.052   6.869
10337SOL    HW231911   6.582   6.053   0.003
10338SOL     OW31912   1.140   6.613   1.898
10338SOL    HW131913   1.207   6.685   1.879
10338SOL    HW231914   1.049   6.654   1.908
10339SOL     OW31915   5.667   2.730   5.945
10339SOL    HW131916   5.693   2.823   5.918
10339SOL    HW231917   5.687   2.667   5.870
10340SOL     OW31918   2.268   4.065   6.444
10340SOL    HW131919   2.341   4.006   6.408
10340SOL    HW231920   2.191   4.008   6.474
10341SOL     OW31921   2.388   4.596   3.674
10341SOL    HW131922   2.360   4.524   3.609
10341SOL    HW231923   2.476   4.570   3.715
10342SOL     OW31924   0.639   1.093   4.093
10342SOL    HW131925   0.657   1.027   4.020
10342SOL    HW231926   0.573   1.055   4.158
10343SOL     OW31927   3.934   5.262   1.819
10343SOL    HW131928   4.019   5.228   1.859
10343SOL    HW231929   3.935   5.244   1.720
10344SOL     OW31930   4.749   6.918   6.645
10344SOL    HW131931   4.733   6.841   6.583
10344SOL    HW231932   4.829   6.900   6.702
10345SOL     OW31933   1.615   4.291   4.791
10345SOL    HW131934   1.670   4.369   4.763
10345SOL    HW231935   1.675   4.214   4.814
10346SOL     OW31936   0.441   5.985   0.173
10346SOL    HW131937   0.440   5.996   0.074
10346SOL    HW231938   0.350   5.959   0.204
10347SOL     OW31939   5.593   2.126   5.119
10347SOL    HW131940   5.631   2.204   5.169
10347SOL    HW231941   5.561   2.056   5.184
10348SOL     OW31942   0.162   5.120   1.044
10348SOL    HW131943   0.162   5.052   1.117
10348SOL    HW231944   0.222   5.196   1.068
10349SOL     OW31945   6.932   6.843   6.372
10349SOL    HW131946   7.004   6.775   6.388
10349SOL    HW231947   6.886   6.823   6.286
10350SOL     OW31948   3.467   0.329   6.025
10350SOL    HW131949   3.405   0.343   6.102
10350SOL    HW231950   3.561   0.318   6.059
10351SOL     OW31951   4.114   5.427   6.242
10351SOL    HW131952   4.125   5.518   6.200
10351SOL    HW231953   4.202   5.394   6.275
10352SOL     OW31954   4.039   4.497   6.245
10352SOL    HW131955   3.989   4.421   6.205
10352SOL    HW231956   3.977   4.574   6.261
10353SOL     OW31957   0.568   3.253   5.219
10353SOL    HW131958   0.496   3.306   5.264
10353SOL    HW231959   0.545   3.156   5.223
10354SOL     OW31960   5.641   2.127   0.762
10354SOL    HW131961   5.734   2.153   0.787
10354SOL    HW231962   5.643   2.076   0.676
10355SOL     OW31963   1.286   4.246   3.146
10355SOL    HW131964   1.277   4.344   3.128
10355SOL    HW231965   1.320   4.231   3.238
10356SOL     OW31966   0.440   2.464   4.937
10356SOL    HW131967   0.483   2.471   5.027
10356SOL    HW231968   0.452   2.550   4.888
10357SOL     OW31969   3.203   3.064   6.335
10357SOL    HW131970   3.114   3.095   6.300
10357SOL    HW231971   3.226   3.113   6.418
10358SOL     OW31972   0.313   0.830   2.246
10358SOL    HW131973   0.258   0.754   2.212
10358SOL    HW231974   0.346   0.808   2.338
10359SOL     OW31975   0.484   1.516   0.789
10359SOL    HW131976   0.411   1.545   0.851
10359SOL    HW231977   0.564   1.574   0.804
10360SOL     OW31978   0.004   4.496   3.773
10360SOL    HW131979   7.002   4.456   3.683
10360SOL    HW231980   7.003   4.594   3.770
10361SOL     OW31981   2.658   5.129   0.597
10361SOL    HW131982   2.637   5.218   0.637
10361SOL    HW231983   2.722   5.080   0.657
10362SOL     OW31984   1.398   4.506   5.146
10362SOL    HW131985   1.333   4.542   5.079
10362SOL    HW231986   1.431   4.417   5.115
10363SOL     OW31987   5.596   6.781   3.583
10363SOL    HW131988   5.646   6.868   3.580
10363SOL    HW231989   5.517   6.786   3.521
10364SOL     OW31990   1.319   4.327   0.902
10364SOL    HW131991   1.406   4.375   0.889
10364SOL    HW231992   1.250   4.367   0.842
10365SOL     OW31993   5.067   5.192   0.103
10365SOL    HW131994   5.165   5.199   0.119
10365SOL    HW231995   5.038   5.097   0.117
10366SOL     OW31996   3.869   6.766   3.961
10366SOL    HW131997   3.928   6.686   3.947
10366SOL    HW231998   3.925   6.848   3.970
10367SOL     OW31999   6.544   1.149   2.997
10367SOL    HW132000   6.511   1.192   2.913
10367SOL    HW232001   6.635   1.185   3.019
10368SOL     OW32002   2.364   0.169   1.057
10368SOL    HW132003   2.287   0.122   1.099
10368SOL    HW232004   2.397   0.115   0.979
10369SOL     OW32005   3.878   2.821   6.814
10369SOL    HW132006   3.858   2.827   6.716
10369SOL    HW232007   3.976   2.839   6.829
10370SOL     OW32008   3.335   0.985   5.362
10370SOL    HW132009   3.245   1.006   5.402
10370SOL    HW232010   3.390   0.935   5.429
10371SOL     OW32011   4.826   6.598   5.508
10371SOL    HW132012   4.903   6.633   5.456
10371SOL    HW232013   4.787   6.519   5.460
10372SOL     OW32014   0.686   0.915   3.891
10372SOL    HW132015   0.602   0.875   3.854
10372SOL    HW232016   0.741   0.844   3.934
10373SOL     OW32017   1.451   5.774   5.174
10373SOL    HW132018   1.442   5.712   5.096
10373SOL    HW232019   1.486   5.724   5.253
10374SOL     OW32020   3.439   1.811   3.242
10374SOL    HW132021   3.418   1.892   3.297
10374SOL    HW232022   3.374   1.738   3.264
10375SOL     OW32023   0.284   1.854   1.603
10375SOL    HW132024   0.354   1.826   1.669
10375SOL    HW232025   0.248   1.773   1.557
10376SOL     OW32026   6.053   0.180   3.659
10376SOL    HW132027   6.017   0.273   3.664
10376SOL    HW232028   5.992   0.124   3.602
10377SOL     OW32029   0.082   6.185   3.805
10377SOL    HW132030   0.168   6.234   3.791
10377SOL    HW232031   0.086   6.133   3.890
10378SOL     OW32032   6.044   6.215   5.651
10378SOL    HW132033   6.144   6.208   5.647
10378SOL    HW232034   6.006   6.199   5.560
10379SOL     OW32035   4.501   1.710   4.126
10379SOL    HW132036   4.498   1.613   4.105
10379SOL    HW232037   4.596   1.742   4.123
10380SOL     OW32038   3.479   0.758   3.873
10380SOL    HW132039   3.546   0.832   3.878
10380SOL    HW232040   3.524   0.676   3.836
10381SOL     OW32041   3.406   5.362   4.629
10381SOL    HW132042   3.368   5.442   4.675
10381SOL    HW232043   3.332   5.300   4.604
10382SOL     OW32044   0.355   5.723   0.811
10382SOL    HW132045   0.292   5.724   0.888
10382SOL    HW232046   0.355   5.812   0.765
10383SOL     OW32047   5.429   2.999   0.454
10383SOL    HW132048   5.483   2.946   0.388
10383SOL    HW232049   5.409   2.941   0.533
10384SOL     OW32050   5.828   1.090   6.503
10384SOL    HW132051   5.741   1.081   6.454
10384SOL    HW232052   5.815   1.065   6.599
10385SOL     OW32053   0.344   2.853   6.706
10385SOL    HW132054   0.403   2.824   6.630
10385SOL    HW232055   0.335   2.952   6.705
10386SOL     OW32056   6.919   2.078   6.141
10386SOL    HW132057   6.956   2.042   6.055
10386SOL    HW232058   6.932   2.177   6.143
10387SOL     OW32059   1.626   3.938   2.833
10387SOL    HW132060   1.573   3.858   2.860
10387SOL    HW232061   1.695   3.912   2.766
10388SOL     OW32062   1.485   4.440   2.197
10388SOL    HW132063   1.536   4.358   2.223
10388SOL    HW232064   1.437   4.476   2.278
10389SOL     OW32065   0.914   5.341   3.665
10389SOL    HW132066   0.945   5.435   3.655
10389SOL    HW232067   0.842   5.336   3.734
10390SOL     OW32068   2.098   3.523   3.248
10390SOL    HW132069   2.117   3.512   3.346
10390SOL    HW232070   2.110   3.619   3.223
10391SOL     OW32071   4.001   5.881   4.302
10391SOL    HW132072   3.979   5.979   4.302
10391SOL    HW232073   3.994   5.846   4.208
10392SOL     OW32074   6.372   5.641   6.106
10392SOL    HW132075   6.333   5.550   6.092
10392SOL    HW232076   6.305   5.710   6.082
10393SOL     OW32077   0.434   1.572   4.658
10393SOL    HW132078   0.499   1.551   4.585
10393SOL    HW232079   0.403   1.667   4.648
10394SOL     OW32080   2.866   0.287   0.821
10394SOL    HW132081   2.957   0.280   0.860
10394SOL    HW232082   2.829   0.195   0.805
10395SOL     OW32083   1.323   0.625   4.069
10395SOL    HW132084   1.227   0.653   4.066
10395SOL    HW232085   1.339   0.551   4.004
10396SOL     OW32086   0.269   6.902   4.831
10396SOL    HW132087   0.331   6.835   4.871
10396SOL    HW232088   0.191   6.855   4.789
10397SOL     OW32089   4.368   2.390   2.205
10397SOL    HW132090   4.458   2.361   2.236
10397SOL    HW232091   4.298   2.333   2.247
10398SOL     OW32092   6.873   3.045   2.122
10398SOL    HW132093   6.880   2.968   2.059
10398SOL    HW232094   6.835   3.013   2.209
10399SOL     OW32095   6.705   3.326   5.873
10399SOL    HW132096   6.805   3.326   5.868
10399SOL    HW232097   6.676   3.383   5.949
10400SOL     OW32098   1.569   5.318   2.205
10400SOL    HW132099   1.518   5.236   2.228
10400SOL    HW232100   1.664   5.294   2.181
10401SOL     OW32101   1.449   5.652   1.264
10401SOL    HW132102   1.473   5.688   1.174
10401SOL    HW232103   1.447   5.726   1.331
10402SOL     OW32104   1.250   2.099   4.991
10402SOL    HW132105   1.251   2.061   4.898
10402SOL    HW232106   1.312   2.046   5.049
10403SOL     OW32107   5.407   1.037   3.025
10403SOL    HW132108   5.404   1.132   3.058
10403SOL    HW232109   5.443   0.978   3.098
10404SOL     OW32110   6.436   0.159   4.092
10404SOL    HW132111   6.502   0.122   4.027
10404SOL    HW232112   6.350   0.178   4.044
10405SOL     OW32113   3.264   6.785   6.831
10405SOL    HW132114   3.347   6.834   6.857
10405SOL    HW232115   3.243   6.805   6.735
10406SOL     OW32116   1.598   5.990   5.370
10406SOL    HW132117   1.610   5.892   5.384
10406SOL    HW232118   1.523   6.023   5.427
10407SOL     OW32119   3.003   0.794   6.591
10407SOL    HW132120   3.028   0.707   6.549
10407SOL    HW232121   3.018   0.868   6.525
10408SOL     OW32122   3.673   6.851   3.102
10408SOL    HW132123   3.622   6.926   3.062
10408SOL    HW232124   3.754   6.886   3.149
10409SOL     OW32125   0.125   4.987   2.582
10409SOL    HW132126   0.132   5.046   2.662
10409SOL    HW232127   0.203   4.924   2.579
10410SOL     OW32128   5.125   5.990   0.719
10410SOL    HW132129   5.103   6.036   0.633
10410SOL    HW232130   5.070   5.908   0.729
10411SOL     OW32131   2.313   5.026   2.060
10411SOL    HW132132   2.354   4.947   2.014
10411SOL    HW232133   2.219   5.005   2.086
10412SOL     OW32134   0.612   3.219   6.648
10412SOL    HW132135   0.548   3.294   6.664
10412SOL    HW232136   0.569   3.150   6.590
10413SOL     OW32137   6.454   1.489   4.593
10413SOL    HW132138   6.424   1.581   4.567
10413SOL    HW232139   6.446   1.478   4.692
10414SOL     OW32140   5.711   6.008   5.382
10414SOL    HW132141   5.720   5.941   5.456
10414SOL    HW232142   5.657   6.086   5.415
10415SOL     OW32143   0.136   4.729   3.488
10415SOL    HW132144   0.178   4.817   3.465
10415SOL    HW232145   0.119   4.725   3.587
10416SOL     OW32146   4.916   0.768   0.279
10416SOL    HW132147   4.833   0.718   0.305
10416SOL    HW232148   4.996   0.719   0.312
10417SOL     OW32149   5.123   4.486   4.842
10417SOL    HW132150   5.106   4.532   4.930
10417SOL    HW232151   5.186   4.409   4.857
10418SOL     OW32152   6.184   3.348   0.521
10418SOL    HW132153   6.177   3.248   0.517
10418SOL    HW232154   6.130   3.382   0.598
10419SOL     OW32155   1.196   0.137   4.757
10419SOL    HW132156   1.100   0.160   4.740
10419SOL    HW232157   1.253   0.217   4.737
10420SOL     OW32158   6.256   3.961   3.988
10420SOL    HW132159   6.157   3.952   3.974
10420SOL    HW232160   6.274   3.982   4.084
10421SOL     OW32161   0.209   3.589   4.575
10421SOL    HW132162   0.195   3.545   4.487
10421SOL    HW232163   0.303   3.575   4.605
10422SOL     OW32164   5.819   2.896   5.247
10422SOL    HW132165   5.854   2.952   5.172
10422SOL    HW232166   5.890   2.832   5.277
10423SOL     OW32167   2.127   5.635   2.123
10423SOL    HW132168   2.187   5.619   2.201
10423SOL    HW232169   2.130   5.731   2.097
10424SOL     OW32170   4.738   0.952   1.840
10424SOL    HW132171   4.682   1.004   1.904
10424SOL    HW232172   4.679   0.907   1.773
10425SOL     OW32173   0.663   4.283   0.507
10425SOL    HW132174   0.731   4.338   0.458
10425SOL    HW232175   0.625   4.215   0.444
10426SOL     OW32176   6.310   1.956   0.152
10426SOL    HW132177   6.377   1.886   0.174
10426SOL    HW232178   6.347   2.046   0.175
10427SOL     OW32179   6.195   0.400   4.031
10427SOL    HW132180   6.285   0.442   4.046
10427SOL    HW232181   6.162   0.423   3.939
10428SOL     OW32182   1.685   0.127   4.585
10428SOL    HW132183   1.689   0.124   4.485
10428SOL    HW232184   1.650   0.040   4.619
10429SOL     OW32185   2.119   4.724   1.612
10429SOL    HW132186   2.084   4.678   1.693
10429SOL    HW232187   2.158   4.813   1.638
10430SOL     OW32188   3.204   1.043   3.711
10430SOL    HW132189   3.173   1.080   3.799
10430SOL    HW232190   3.151   0.960   3.690
10431SOL     OW32191   4.377   2.396   3.665
10431SOL    HW132192   4.398   2.404   3.568
10431SOL    HW232193   4.302   2.331   3.678
10432SOL     OW32194   0.938   4.758   0.928
10432SOL    HW132195   0.866   4.711   0.877
10432SOL    HW232196   0.981   4.694   0.992
10433SOL     OW32197   3.572   6.451   4.629
10433SOL    HW132198   3.661   6.458   4.585
10433SOL    HW232199   3.513   6.389   4.576
10434SOL     OW32200   4.547   1.850   0.202
10434SOL    HW132201   4.642   1.881   0.194
10434SOL    HW232202   4.539   1.791   0.283
10435SOL     OW32203   2.423   1.251   1.435
10435SOL    HW132204   2.500   1.242   1.371
10435SOL    HW232205   2.459   1.258   1.528
10436SOL     OW32206   0.933   3.727   5.647
10436SOL    HW132207   0.944   3.697   5.552
10436SOL    HW232208   0.903   3.822   5.649
10437SOL     OW32209   0.013   6.953   4.625
10437SOL    HW132210   6.982   6.932   4.711
10437SOL    HW232211   6.986   0.016   4.582
10438SOL     OW32212   0.003   5.868   6.754
10438SOL    HW132213   0.053   5.914   6.680
10438SOL    HW232214   0.012   5.769   6.743
10439SOL     OW32215   5.873   5.360   5.013
10439SOL    HW132216   5.903   5.339   4.920
10439SOL    HW232217   5.774   5.348   5.020
10440SOL     OW32218   6.285   2.658   1.236
10440SOL    HW132219   6.300   2.688   1.330
10440SOL    HW232220   6.188   2.666   1.213
10441SOL     OW32221   4.783   1.540   6.378
10441SOL    HW132222   4.818   1.490   6.299
10441SOL    HW232223   4.684   1.529   6.383
10442SOL     OW32224   2.169   0.562   5.678
10442SOL    HW132225   2.103   0.578   5.751
10442SOL    HW232226   2.231   0.488   5.705
10443SOL     OW32227   0.517   0.873   0.194
10443SOL    HW132228   0.593   0.825   0.238
10443SOL    HW232229   0.546   0.907   0.104
10444SOL     OW32230   4.400   5.528   3.871
10444SOL    HW132231   4.397   5.428   3.870
10444SOL    HW232232   4.422   5.560   3.964
10445SOL     OW32233   1.372   3.645   3.774
10445SOL    HW132234   1.428   3.724   3.801
10445SOL    HW232235   1.276   3.664   3.795
10446SOL     OW32236   2.778   4.730   4.756
10446SOL    HW132237   2.699   4.678   4.725
10446SOL    HW232238   2.809   4.695   4.845
10447SOL     OW32239   1.535   2.205   2.888
10447SOL    HW132240   1.489   2.287   2.920
10447SOL    HW232241   1.596   2.227   2.812
10448SOL     OW32242   0.830   5.073   2.757
10448SOL    HW132243   0.818   5.123   2.843
10448SOL    HW232244   0.827   5.137   2.680
10449SOL     OW32245   3.694   5.124   4.361
10449SOL    HW132246   3.670   5.197   4.426
10449SOL    HW232247   3.749   5.055   4.408
10450SOL     OW32248   0.506   2.182   4.428
10450SOL    HW132249   0.419   2.203   4.473
10450SOL    HW232250   0.493   2.107   4.363
10451SOL     OW32251   2.332   1.280   4.565
10451SOL    HW132252   2.364   1.269   4.471
10451SOL    HW232253   2.331   1.377   4.589
10452SOL     OW32254   6.640   2.742   4.495
10452SOL    HW132255   6.678   2.829   4.527
10452SOL    HW232256   6.541   2.750   4.486
10453SOL     OW32257   2.743   5.695   4.165
10453SOL    HW132258   2.800   5.656   4.093
10453SOL    HW232259   2.647   5.686   4.140
10454SOL     OW32260   6.661   1.463   0.083
10454SOL    HW132261   6.725   1.507   0.019
10454SOL    HW232262   6.682   1.492   0.176
10455SOL     OW32263   0.815   5.670   2.553
10455SOL    HW132264   0.807   5.752   2.496
10455SOL    HW232265   0.854   5.695   2.641
10456SOL     OW32266   1.286   5.636   6.364
10456SOL    HW132267   1.307   5.540   6.347
10456SOL    HW232268   1.195   5.643   6.404
10457SOL     OW32269   4.093   1.310   0.859
10457SOL    HW132270   4.162   1.354   0.801
10457SOL    HW232271   4.013   1.371   0.867
10458SOL     OW32272   1.415   6.948   0.179
10458SOL    HW132273   1.423   6.990   0.270
10458SOL    HW232274   1.357   6.866   0.185
10459SOL     OW32275   5.358   6.207   0.987
10459SOL    HW132276   5.381   6.296   1.026
10459SOL    HW232277   5.411   6.135   1.031
10460SOL     OW32278   6.455   1.063   6.326
10460SOL    HW132279   6.444   1.154   6.366
10460SOL    HW232280   6.366   1.016   6.326
10461SOL     OW32281   6.921   3.890   5.693
10461SOL    HW132282   6.921   3.974   5.747
10461SOL    HW232283   7.014   3.866   5.667
10462SOL     OW32284   4.044   3.744   0.130
10462SOL    HW132285   4.019   3.739   0.033
10462SOL    HW232286   4.028   3.836   0.164
10463SOL     OW32287   4.756   2.354   5.117
10463SOL    HW132288   4.794   2.336   5.025
10463SOL    HW232289   4.806   2.300   5.184
10464SOL     OW32290   6.437   4.816   2.023
10464SOL    HW132291   6.510   4.885   2.020
10464SOL    HW232292   6.348   4.862   2.030
10465SOL     OW32293   5.369   4.393   0.969
10465SOL    HW132294   5.280   4.438   0.975
10465SOL    HW232295   5.356   4.294   0.975
10466SOL     OW32296   6.212   3.607   5.373
10466SOL    HW132297   6.212   3.554   5.457
10466SOL    HW232298   6.192   3.546   5.296
10467SOL     OW32299   0.467   3.427   6.751
10467SOL    HW132300   0.496   3.404   6.844
10467SOL    HW232301   0.382   3.479   6.754
10468SOL     OW32302   1.285   4.260   3.679
10468SOL    HW132303   1.210   4.245   3.744
10468SOL    HW232304   1.364   4.299   3.727
10469SOL     OW32305   0.949   0.820   4.432
10469SOL    HW132306   0.873   0.771   4.475
10469SOL    HW232307   0.953   0.795   4.335
10470SOL     OW32308   2.501   4.071   1.665
10470SOL    HW132309   2.591   4.110   1.686
10470SOL    HW232310   2.472   4.013   1.742
10471SOL     OW32311   2.188   4.624   5.696
10471SOL    HW132312   2.177   4.525   5.691
10471SOL    HW232313   2.152   4.657   5.783
10472SOL     OW32314   3.982   5.280   5.916
10472SOL    HW132315   4.027   5.351   5.862
10472SOL    HW232316   3.928   5.323   5.989
10473SOL     OW32317   6.355   5.593   0.102
10473SOL    HW132318   6.415   5.637   0.169
10473SOL    HW232319   6.296   5.527   0.148
10474SOL     OW32320   6.032   6.141   5.066
10474SOL    HW132321   6.035   6.142   4.966
10474SOL    HW232322   5.945   6.177   5.098
10475SOL     OW32323   0.436   5.766   1.711
10475SOL    HW132324   0.496   5.812   1.777
10475SOL    HW232325   0.346   5.751   1.753
10476SOL     OW32326   4.987   6.693   1.491
10476SOL    HW132327   4.927   6.628   1.444
10476SOL    HW232328   4.963   6.696   1.588
10477SOL     OW32329   0.049   5.435   3.755
10477SOL    HW132330   0.010   5.422   3.664
10477SOL    HW232331   0.102   5.520   3.756
10478SOL     OW32332   6.792   0.671   6.687
10478SOL    HW132333   6.814   0.601   6.755
10478SOL    HW232334   6.776   0.627   6.599
10479SOL     OW32335   6.911   3.873   2.785
10479SOL    HW132336   6.928   3.857   2.688
10479SOL    HW232337   6.816   3.900   2.799
10480SOL     OW32338   2.222   0.803   2.945
10480SOL    HW132339   2.230   0.709   2.911
10480SOL    HW232340   2.126   0.826   2.959
10481SOL     OW32341   6.428   0.867   1.574
10481SOL    HW132342   6.397   0.830   1.662
10481SOL    HW232343   6.353   0.917   1.531
10482SOL     OW32344   4.777   3.983   3.995
10482SOL    HW132345   4.801   3.911   4.061
10482SOL    HW232346   4.703   4.039   4.033
10483SOL     OW32347   5.849   0.554   6.600
10483SOL    HW132348   5.798   0.510   6.674
10483SOL    HW232349   5.795   0.629   6.562
10484SOL     OW32350   6.120   0.219   1.930
10484SOL    HW132351   6.027   0.236   1.962
10484SOL    HW232352   6.156   0.301   1.886
10485SOL     OW32353   5.544   3.164   5.913
10485SOL    HW132354   5.629   3.215   5.928
10485SOL    HW232355   5.475   3.224   5.872
10486SOL     OW32356   5.923   3.199   2.193
10486SOL    HW132357   5.845   3.139   2.208
10486SOL    HW232358   5.954   3.235   2.281
10487SOL     OW32359   3.529   6.540   2.588
10487SOL    HW132360   3.524   6.469   2.519
10487SOL    HW232361   3.557   6.500   2.675
10488SOL     OW32362   4.136   4.254   6.463
10488SOL    HW132363   4.131   4.164   6.505
10488SOL    HW232364   4.124   4.246   6.364
10489SOL     OW32365   1.974   5.549   5.451
10489SOL    HW132366   2.013   5.484   5.517
10489SOL    HW232367   2.038   5.624   5.437
10490SOL     OW32368   6.265   6.942   4.705
10490SOL    HW132369   6.312   0.009   4.673
10490SOL    HW232370   6.209   6.905   4.630
10491SOL     OW32371   6.381   5.692   4.688
10491SOL    HW132372   6.373   5.608   4.742
10491SOL    HW232373   6.294   5.741   4.690
10492SOL     OW32374   5.328   4.181   5.591
10492SOL    HW132375   5.262   4.238   5.641
10492SOL    HW232376   5.420   4.217   5.605
10493SOL     OW32377   3.183   1.593   0.891
10493SOL    HW132378   3.250   1.567   0.959
10493SOL    HW232379   3.109   1.525   0.888
10494SOL     OW32380   5.418   1.174   5.288
10494SOL    HW132381   5.413   1.142   5.383
10494SOL    HW232382   5.343   1.237   5.270
10495SOL     OW32383   1.512   0.153   6.435
10495SOL    HW132384   1.491   0.087   6.507
10495SOL    HW232385   1.478   0.244   6.461
10496SOL     OW32386   6.532   6.888   5.436
10496SOL    HW132387   6.477   6.874   5.518
10496SOL    HW232388   6.505   6.822   5.366
10497SOL     OW32389   1.976   1.337   6.673
10497SOL    HW132390   2.037   1.267   6.636
10497SOL    HW232391   1.948   1.400   6.601
10498SOL     OW32392   3.262   5.237   5.797
10498SOL    HW132393   3.185   5.174   5.785
10498SOL    HW232394   3.228   5.330   5.810
10499SOL     OW32395   2.655   5.659   2.823
10499SOL    HW132396   2.657   5.689   2.918
10499SOL    HW232397   2.560   5.645   2.794
10500SOL     OW32398   2.388   2.046   6.985
10500SOL    HW132399   2.322   2.091   6.925
10500SOL    HW232400   2.433   1.972   6.935
10501SOL     OW32401   1.859   4.010   3.383
10501SOL    HW132402   1.831   3.914   3.393
10501SOL    HW232403   1.896   4.025   3.292
10502SOL     OW32404   3.155   5.967   4.443
10502SOL    HW132405   3.149   6.026   4.362
10502SOL    HW232406   3.064   5.941   4.472
10503SOL     OW32407   2.048   3.051   6.478
10503SOL    HW132408   2.030   3.041   6.576
10503SOL    HW232409   2.131   3.106   6.466
10504SOL     OW32410   2.234   3.537   0.658
10504SOL    HW132411   2.235   3.535   0.558
10504SOL    HW232412   2.157   3.483   0.691
10505SOL     OW32413   0.849   6.411   6.876
10505SOL    HW132414   0.839   6.470   6.796
10505SOL    HW232415   0.912   6.336   6.855
10506SOL     OW32416   6.951   5.008   5.704
10506SOL    HW132417   7.008   5.011   5.622
10506SOL    HW232418   6.986   4.938   5.767
10507SOL     OW32419   2.645   0.570   3.211
10507SOL    HW132420   2.709   0.499   3.182
10507SOL    HW232421   2.552   0.536   3.203
10508SOL     OW32422   5.742   4.274   2.401
10508SOL    HW132423   5.655   4.323   2.407
10508SOL    HW232424   5.803   4.323   2.338
10509SOL     OW32425   2.330   1.057   5.342
10509SOL    HW132426   2.344   1.128   5.410
10509SOL    HW232427   2.289   1.097   5.260
10510SOL     OW32428   5.678   0.748   6.517
10510SOL    HW132429   5.583   0.775   6.526
10510SOL    HW232430   5.695   0.715   6.424
10511SOL     OW32431   6.927   2.778   1.967
10511SOL    HW132432   6.882   2.769   1.878
10511SOL    HW232433   7.012   2.724   1.967
10512SOL     OW32434   2.235   0.126   6.644
10512SOL    HW132435   2.138   0.125   6.620
10512SOL    HW232436   2.255   0.207   6.700
10513SOL     OW32437   7.006   2.177   0.731
10513SOL    HW132438   6.933   2.239   0.758
10513SOL    HW232439   7.006   2.166   0.631
10514SOL     OW32440   1.355   3.178   1.610
10514SOL    HW132441   1.434   3.132   1.570
10514SOL    HW232442   1.368   3.277   1.605
10515SOL     OW32443   0.150   3.060   5.202
10515SOL    HW132444   0.136   2.986   5.268
10515SOL    HW232445   0.072   3.065   5.140
10516SOL     OW32446   2.379   6.786   1.078
10516SOL    HW132447   2.469   6.828   1.078
10516SOL    HW232448   2.373   6.718   1.150
10517SOL     OW32449   0.695   2.630   3.203
10517SOL    HW132450   0.711   2.532   3.205
10517SOL    HW232451   0.717   2.670   3.292
10518SOL     OW32452   0.544   6.318   3.316
10518SOL    HW132453   0.630   6.345   3.274
10518SOL    HW232454   0.520   6.225   3.288
10519SOL     OW32455   4.477   2.615   5.757
10519SOL    HW132456   4.400   2.623   5.820
10519SOL    HW232457   4.447   2.634   5.663
10520SOL     OW32458   3.058   4.977   6.201
10520SOL    HW132459   3.108   5.060   6.226
10520SOL    HW232460   2.967   4.978   6.244
10521SOL     OW32461   6.772   5.515   2.178
10521SOL    HW132462   6.810   5.437   2.128
10521SOL    HW232463   6.687   5.545   2.133
10522SOL     OW32464   6.835   6.926   2.473
10522SOL    HW132465   6.833   6.826   2.469
10522SOL    HW232466   6.930   6.958   2.468
10523SOL     OW32467   6.231   6.512   6.294
10523SOL    HW132468   6.175   6.577   6.244
10523SOL    HW232469   6.184   6.486   6.379
10524SOL     OW32470   4.760   0.823   4.577
10524SOL    HW132471   4.858   0.844   4.574
10524SOL    HW232472   4.711   0.883   4.513
10525SOL     OW32473   2.638   0.011   4.884
10525SOL    HW132474   2.699   0.026   4.806
10525SOL    HW232475   2.570   6.957   4.861
10526SOL     OW32476   4.283   6.196   2.644
10526SOL    HW132477   4.346   6.179   2.720
10526SOL    HW232478   4.191   6.169   2.671
10527SOL     OW32479   2.016   2.646   4.471
10527SOL    HW132480   2.021   2.618   4.567
10527SOL    HW232481   2.095   2.703   4.449
10528SOL     OW32482   6.034   5.014   5.890
10528SOL    HW132483   6.063   5.108   5.905
10528SOL    HW232484   5.996   4.976   5.975
10529SOL     OW32485   0.045   5.585   5.034
10529SOL    HW132486   0.011   5.678   5.049
10529SOL    HW232487   0.088   5.579   4.944
10530SOL     OW32488   1.569   2.063   5.280
10530SOL    HW132489   1.617   2.111   5.207
10530SOL    HW232490   1.536   1.975   5.246
10531SOL     OW32491   2.142   2.478   4.642
10531SOL    HW132492   2.137   2.421   4.559
10531SOL    HW232493   2.228   2.529   4.641
10532SOL     OW32494   3.229   3.415   4.795
10532SOL    HW132495   3.325   3.441   4.792
10532SOL    HW232496   3.203   3.373   4.708
10533SOL     OW32497   3.523   0.618   6.216
10533SOL    HW132498   3.592   0.614   6.145
10533SOL    HW232499   3.434   0.595   6.178
10534SOL     OW32500   5.997   4.822   1.477
10534SOL    HW132501   6.051   4.825   1.393
10534SOL    HW232502   6.046   4.871   1.549
10535SOL     OW32503   0.303   1.290   1.737
10535SOL    HW132504   0.310   1.294   1.836
10535SOL    HW232505   0.209   1.267   1.711
10536SOL     OW32506   5.667   5.539   3.585
10536SOL    HW132507   5.568   5.535   3.599
10536SOL    HW232508   5.700   5.449   3.557
10537SOL     OW32509   6.462   5.660   1.709
10537SOL    HW132510   6.393   5.730   1.693
10537SOL    HW232511   6.420   5.570   1.702
10538SOL     OW32512   4.238   3.360   6.826
10538SOL    HW132513   4.326   3.397   6.798
10538SOL    HW232514   4.164   3.418   6.790
10539SOL     OW32515   0.935   3.017   4.792
10539SOL    HW132516   0.836   3.032   4.794
10539SOL    HW232517   0.981   3.102   4.766
10540SOL     OW32518   3.601   0.890   0.209
10540SOL    HW132519   3.546   0.830   0.151
10540SOL    HW232520   3.658   0.834   0.270
10541SOL     OW32521   3.737   2.792   1.746
10541SOL    HW132522   3.650   2.778   1.793
10541SOL    HW232523   3.723   2.854   1.669
10542SOL     OW32524   1.578   2.090   0.568
10542SOL    HW132525   1.647   2.039   0.619
10542SOL    HW232526   1.486   2.064   0.600
10543SOL     OW32527   2.400   0.495   4.573
10543SOL    HW132528   2.444   0.479   4.661
10543SOL    HW232529   2.468   0.529   4.507
10544SOL     OW32530   0.292   2.088   1.785
10544SOL    HW132531   0.309   2.021   1.712
10544SOL    HW232532   0.209   2.139   1.764
10545SOL     OW32533   4.448   1.525   2.985
10545SOL    HW132534   4.474   1.446   2.930
10545SOL    HW232535   4.348   1.528   2.994
10546SOL     OW32536   4.814   0.817   5.542
10546SOL    HW132537   4.816   0.734   5.487
10546SOL    HW232538   4.861   0.890   5.493
10547SOL     OW32539   4.788   6.145   1.815
10547SOL    HW132540   4.789   6.127   1.913
10547SOL    HW232541   4.717   6.212   1.795
10548SOL     OW32542   4.534   3.975   5.460
10548SOL    HW132543   4.587   3.897   5.429
10548SOL    HW232544   4.587   4.028   5.526
10549SOL     OW32545   0.925   1.504   1.678
10549SOL    HW132546   0.837   1.543   1.651
10549SOL    HW232547   0.993   1.521   1.607
10550SOL     OW32548   4.496   6.727   5.091
10550SOL    HW132549   4.569   6.780   5.047
10550SOL    HW232550   4.486   6.757   5.186
10551SOL     OW32551   1.341   3.141   6.305
10551SOL    HW132552   1.386   3.082   6.238
10551SOL    HW232553   1.264   3.187   6.263
10552SOL     OW32554   3.488   1.530   5.162
10552SOL    HW132555   3.427   1.476   5.219
10552SOL    HW232556   3.455   1.529   5.068
10553SOL     OW32557   2.823   5.378   6.240
10553SOL    HW132558   2.914   5.349   6.268
10553SOL    HW232559   2.792   5.453   6.299
10554SOL     OW32560   6.196   3.592   6.146
10554SOL    HW132561   6.135   3.548   6.079
10554SOL    HW232562   6.290   3.585   6.114
10555SOL     OW32563   3.539   2.914   1.542
10555SOL    HW132564   3.489   2.990   1.583
10555SOL    HW232565   3.477   2.862   1.483
10556SOL     OW32566   1.123   4.194   3.885
10556SOL    HW132567   1.177   4.168   3.965
10556SOL    HW232568   1.044   4.248   3.914
10557SOL     OW32569   5.356   1.483   3.258
10557SOL    HW132570   5.288   1.479   3.185
10557SOL    HW232571   5.341   1.407   3.321
10558SOL     OW32572   5.566   5.712   5.436
10558SOL    HW132573   5.568   5.783   5.506
10558SOL    HW232574   5.659   5.692   5.405
10559SOL     OW32575   4.109   2.761   0.651
10559SOL    HW132576   4.098   2.718   0.561
10559SOL    HW232577   4.030   2.740   0.708
10560SOL     OW32578   6.272   2.160   4.231
10560SOL    HW132579   6.274   2.094   4.306
10560SOL    HW232580   6.195   2.223   4.243
10561SOL     OW32581   2.304   3.746   6.784
10561SOL    HW132582   2.278   3.656   6.749
10561SOL    HW232583   2.282   3.752   6.881
10562SOL     OW32584   4.011   1.903   0.425
10562SOL    HW132585   4.107   1.920   0.401
10562SOL    HW232586   4.004   1.894   0.524
10563SOL     OW32587   1.168   2.153   2.780
10563SOL    HW132588   1.235   2.203   2.725
10563SOL    HW232589   1.078   2.194   2.767
10564SOL     OW32590   0.021   1.774   2.272
10564SOL    HW132591   0.070   1.719   2.204
10564SOL    HW232592   0.067   1.764   2.361
10565SOL     OW32593   5.041   1.463   5.088
10565SOL    HW132594   5.113   1.528   5.062
10565SOL    HW232595   4.968   1.512   5.135
10566SOL     OW32596   4.628   5.207   6.511
10566SOL    HW132597   4.686   5.287   6.492
10566SOL    HW232598   4.679   5.123   6.490
10567SOL     OW32599   2.485   5.607   5.065
10567SOL    HW132600   2.473   5.515   5.028
10567SOL    HW232601   2.401   5.659   5.053
10568SOL     OW32602   3.299   1.505   3.060
10568SOL    HW132603   3.369   1.495   3.131
10568SOL    HW232604   3.322   1.583   3.002
10569SOL     OW32605   6.701   2.305   3.972
10569SOL    HW132606   6.655   2.374   3.916
10569SOL    HW232607   6.632   2.247   4.017
10570SOL     OW32608   1.098   3.970   0.973
10570SOL    HW132609   1.035   4.030   0.923
10570SOL    HW232610   1.052   3.883   0.992
10571SOL     OW32611   6.509   6.776   4.643
10571SOL    HW132612   6.534   6.801   4.549
10571SOL    HW232613   6.440   6.840   4.677
10572SOL     OW32614   6.514   3.975   1.838
10572SOL    HW132615   6.608   3.959   1.869
10572SOL    HW232616   6.478   3.891   1.798
10573SOL     OW32617   6.315   5.493   5.625
10573SOL    HW132618   6.235   5.438   5.604
10573SOL    HW232619   6.396   5.435   5.626
10574SOL     OW32620   0.707   1.883   2.776
10574SOL    HW132621   0.713   1.823   2.696
10574SOL    HW232622   0.796   1.887   2.822
10575SOL     OW32623   0.231   6.874   6.290
10575SOL    HW132624   0.318   6.851   6.334
10575SOL    HW232625   0.213   6.972   6.302
10576SOL     OW32626   1.150   5.696   3.236
10576SOL    HW132627   1.176   5.719   3.330
10576SOL    HW232628   1.203   5.752   3.173
10577SOL     OW32629   0.331   2.368   6.093
10577SOL    HW132630   0.268   2.446   6.102
10577SOL    HW232631   0.302   2.311   6.016
10578SOL     OW32632   4.922   0.515   5.452
10578SOL    HW132633   4.827   0.483   5.447
10578SOL    HW232634   4.984   0.438   5.442
10579SOL     OW32635   5.602   6.979   0.844
10579SOL    HW132636   5.620   0.044   0.787
10579SOL    HW232637   5.545   6.914   0.793
10580SOL     OW32638   0.649   5.562   0.154
10580SOL    HW132639   0.645   5.464   0.176
10580SOL    HW232640   0.572   5.586   0.095
10581SOL     OW32641   4.364   2.350   3.072
10581SOL    HW132642   4.325   2.340   2.980
10581SOL    HW232643   4.449   2.402   3.066
10582SOL     OW32644   3.437   4.288   6.917
10582SOL    HW132645   3.455   4.313   6.822
10582SOL    HW232646   3.425   4.189   6.924
10583SOL     OW32647   4.795   1.161   1.386
10583SOL    HW132648   4.845   1.179   1.302
10583SOL    HW232649   4.721   1.228   1.396
10584SOL     OW32650   5.895   6.695   1.469
10584SOL    HW132651   5.886   6.679   1.371
10584SOL    HW232652   5.992   6.697   1.494
10585SOL     OW32653   2.809   4.402   6.139
10585SOL    HW132654   2.897   4.362   6.114
10585SOL    HW232655   2.736   4.336   6.122
10586SOL     OW32656   4.616   1.931   1.444
10586SOL    HW132657   4.559   1.910   1.524
10586SOL    HW232658   4.700   1.877   1.448
10587SOL     OW32659   6.924   3.104   0.308
10587SOL    HW132660   6.975   3.180   0.347
10587SOL    HW232661   6.982   3.022   0.306
10588SOL     OW32662   1.468   4.750   3.297
10588SOL    HW132663   1.517   4.688   3.236
10588SOL    HW232664   1.448   4.703   3.383
10589SOL     OW32665   6.091   1.059   4.114
10589SOL    HW132666   6.053   1.139   4.160
10589SOL    HW232667   6.016   1.004   4.077
10590SOL     OW32668   1.704   0.305   5.019
10590SOL    HW132669   1.802   0.290   5.014
10590SOL    HW232670   1.660   0.271   4.936
10591SOL     OW32671   1.701   2.259   1.776
10591SOL    HW132672   1.702   2.332   1.707
10591SOL    HW232673   1.621   2.270   1.835
10592SOL     OW32674   5.584   1.085   6.379
10592SOL    HW132675   5.584   1.173   6.330
10592SOL    HW232676   5.615   1.013   6.318
10593SOL     OW32677   1.469   3.811   2.080
10593SOL    HW132678   1.481   3.739   2.011
10593SOL    HW232679   1.493   3.775   2.170
10594SOL     OW32680   1.184   1.331   4.710
10594SOL    HW132681   1.137   1.244   4.698
10594SOL    HW232682   1.117   1.405   4.706
10595SOL     OW32683   1.674   5.912   4.588
10595SOL    HW132684   1.615   5.835   4.565
10595SOL    HW232685   1.689   5.914   4.687
10596SOL     OW32686   2.796   1.036   1.319
10596SOL    HW132687   2.777   1.125   1.279
10596SOL    HW232688   2.711   0.983   1.323
10597SOL     OW32689   1.554   0.849   4.032
10597SOL    HW132690   1.516   0.767   4.074
10597SOL    HW232691   1.557   0.922   4.100
10598SOL     OW32692   2.555   0.575   0.567
10598SOL    HW132693   2.589   0.610   0.654
10598SOL    HW232694   2.507   0.488   0.582
10599SOL     OW32695   4.676   0.105   6.478
10599SOL    HW132696   4.741   0.087   6.403
10599SOL    HW232697   4.702   0.051   6.557
10600SOL     OW32698   1.865   3.256   5.065
10600SOL    HW132699   1.863   3.276   5.163
10600SOL    HW232700   1.795   3.309   5.019
10601SOL     OW32701   3.947   6.279   5.400
10601SOL    HW132702   3.914   6.281   5.306
10601SOL    HW232703   3.974   6.372   5.427
10602SOL     OW32704   4.735   2.147   2.111
10602SOL    HW132705   4.721   2.208   2.033
10602SOL    HW232706   4.676   2.175   2.186
10603SOL     OW32707   0.465   5.439   4.898
10603SOL    HW132708   0.391   5.381   4.931
10603SOL    HW232709   0.512   5.481   4.976
10604SOL     OW32710   0.545   4.137   6.127
10604SOL    HW132711   0.618   4.204   6.138
10604SOL    HW232712   0.460   4.173   6.167
10605SOL     OW32713   1.245   5.133   6.366
10605SOL    HW132714   1.210   5.223   6.341
10605SOL    HW232715   1.208   5.106   6.455
10606SOL     OW32716   1.100   1.326   2.096
10606SOL    HW132717   1.159   1.251   2.125
10606SOL    HW232718   1.009   1.314   2.136
10607SOL     OW32719   5.832   3.810   6.494
10607SOL    HW132720   5.916   3.864   6.489
10607SOL    HW232721   5.819   3.761   6.407
10608SOL     OW32722   5.478   6.393   2.350
10608SOL    HW132723   5.483   6.491   2.331
10608SOL    HW232724   5.411   6.376   2.422
10609SOL     OW32725   4.143   6.741   2.844
10609SOL    HW132726   4.109   6.738   2.750
10609SOL    HW232727   4.071   6.777   2.904
10610SOL     OW32728   2.036   4.489   4.962
10610SOL    HW132729   2.032   4.587   4.981
10610SOL    HW232730   2.119   4.451   5.002
10611SOL     OW32731   5.167   2.179   5.694
10611SOL    HW132732   5.098   2.126   5.743
10611SOL    HW232733   5.128   2.267   5.667
10612SOL     OW32734   2.017   0.358   1.558
10612SOL    HW132735   1.968   0.443   1.542
10612SOL    HW232736   2.085   0.344   1.486
10613SOL     OW32737   1.069   6.208   7.015
10613SOL    HW132738   1.037   6.119   6.983
10613SOL    HW232739   1.030   6.226   0.090
10614SOL     OW32740   0.423   0.934   2.759
10614SOL    HW132741   0.334   0.906   2.796
10614SOL    HW232742   0.467   0.998   2.822
10615SOL     OW32743   0.069   6.909   5.130
10615SOL    HW132744   0.115   6.836   5.079
10615SOL    HW232745   0.004   6.869   5.194
10616SOL     OW32746   3.521   5.912   1.277
10616SOL    HW132747   3.509   5.962   1.192
10616SOL    HW232748   3.535   5.815   1.257
10617SOL     OW32749   6.856   1.646   6.549
10617SOL    HW132750   6.790   1.576   6.575
10617SOL    HW232751   6.874   1.705   6.628
10618SOL     OW32752   6.601   3.927   0.826
10618SOL    HW132753   6.675   3.984   0.789
10618SOL    HW232754   6.584   3.953   0.921
10619SOL     OW32755   0.154   2.926   3.602
10619SOL    HW132756   0.236   2.932   3.546
10619SOL    HW232757   0.160   2.991   3.678
10620SOL     OW32758   1.626   5.472   4.117
10620SOL    HW132759   1.623   5.428   4.027
10620SOL    HW232760   1.583   5.411   4.184
10621SOL     OW32761   3.633   6.926   1.088
10621SOL    HW132762   3.625   6.876   1.174
10621SOL    HW232763   3.725   6.912   1.050
10622SOL     OW32764   4.055   1.845   0.700
10622SOL    HW132765   4.090   1.912   0.766
10622SOL    HW232766   4.002   1.775   0.748
10623SOL     OW32767   0.316   1.519   4.932
10623SOL    HW132768   0.375   1.540   4.854
10623SOL    HW232769   0.313   1.421   4.946
10624SOL     OW32770   2.723   1.287   4.255
10624SOL    HW132771   2.629   1.261   4.233
10624SOL    HW232772   2.729   1.308   4.353
10625SOL     OW32773   0.663   2.957   0.848
10625SOL    HW132774   0.675   2.862   0.819
10625SOL    HW232775   0.686   3.018   0.772
10626SOL     OW32776   0.032   2.076   3.258
10626SOL    HW132777   0.035   2.071   3.158
10626SOL    HW232778   0.012   2.170   3.286
10627SOL     OW32779   4.621   5.646   4.659
10627SOL    HW132780   4.579   5.588   4.729
10627SOL    HW232781   4.561   5.650   4.579
10628SOL     OW32782   6.826   6.568   5.108
10628SOL    HW132783   6.802   6.592   5.014
10628SOL    HW232784   6.855   6.650   5.156
10629SOL     OW32785   2.705   3.993   6.223
10629SOL    HW132786   2.679   4.083   6.189
10629SOL    HW232787   2.742   4.002   6.316
10630SOL     OW32788   5.649   1.402   1.807
10630SOL    HW132789   5.563   1.402   1.857
10630SOL    HW232790   5.643   1.464   1.729
10631SOL     OW32791   1.245   6.874   4.450
10631SOL    HW132792   1.176   6.902   4.382
10631SOL    HW232793   1.282   6.785   4.425
10632SOL     OW32794   0.266   3.021   0.172
10632SOL    HW132795   0.310   3.052   0.256
10632SOL    HW232796   0.187   2.964   0.194
10633SOL     OW32797   1.447   5.387   6.948
10633SOL    HW132798   1.413   5.457   6.885
10633SOL    HW232799   1.545   5.398   6.960
10634SOL     OW32800   3.363   6.885   2.220
10634SOL    HW132801   3.435   6.938   2.265
10634SOL    HW232802   3.368   6.790   2.251
10635SOL     OW32803   1.367   1.027   1.352
10635SOL    HW132804   1.365   1.025   1.252
10635SOL    HW232805   1.288   1.079   1.386
10636SOL     OW32806   5.130   1.883   6.929
10636SOL    HW132807   5.035   1.853   6.932
10636SOL    HW232808   5.165   1.894   0.007
10637SOL     OW32809   3.007   3.554   6.449
10637SOL    HW132810   3.050   3.516   6.367
10637SOL    HW232811   3.074   3.554   6.524
10638SOL     OW32812   6.375   0.875   5.711
10638SOL    HW132813   6.342   0.969   5.717
10638SOL    HW232814   6.315   0.822   5.651
10639SOL     OW32815   3.737   2.156   5.180
10639SOL    HW132816   3.740   2.134   5.082
10639SOL    HW232817   3.697   2.079   5.230
10640SOL     OW32818   4.492   6.792   0.383
10640SOL    HW132819   4.524   6.874   0.430
10640SOL    HW232820   4.560   6.719   0.392
10641SOL     OW32821   3.559   6.478   6.924
10641SOL    HW132822   3.569   6.573   6.953
10641SOL    HW232823   3.464   6.461   6.896
10642SOL     OW32824   0.720   5.808   1.380
10642SOL    HW132825   0.709   5.906   1.362
10642SOL    HW232826   0.772   5.794   1.464
10643SOL     OW32827   3.472   3.440   5.562
10643SOL    HW132828   3.374   3.462   5.558
10643SOL    HW232829   3.522   3.502   5.502
10644SOL     OW32830   3.607   1.149   5.639
10644SOL    HW132831   3.509   1.161   5.655
10644SOL    HW232832   3.657   1.224   5.682
10645SOL     OW32833   1.777   0.361   4.146
10645SOL    HW132834   1.833   0.442   4.160
10645SOL    HW232835   1.783   0.332   4.050
10646SOL     OW32836   6.627   5.502   6.521
10646SOL    HW132837   6.535   5.520   6.557
10646SOL    HW232838   6.692   5.565   6.562
10647SOL     OW32839   6.868   5.971   0.896
10647SOL    HW132840   6.951   5.919   0.880
10647SOL    HW232841   6.877   6.025   0.979
10648SOL     OW32842   5.129   3.864   6.200
10648SOL    HW132843   5.148   3.926   6.124
10648SOL    HW232844   5.058   3.904   6.259
10649SOL     OW32845   6.844   5.123   6.511
10649SOL    HW132846   6.784   5.064   6.565
10649SOL    HW232847   6.918   5.069   6.473
10650SOL     OW32848   2.107   0.057   5.877
10650SOL    HW132849   2.009   0.075   5.874
10650SOL    HW232850   2.126   6.982   5.838
10651SOL     OW32851   1.618   0.760   5.109
10651SOL    HW132852   1.623   0.670   5.152
10651SOL    HW232853   1.711   0.790   5.086
10652SOL     OW32854   4.942   0.762   0.655
10652SOL    HW132855   4.937   0.721   0.746
10652SOL    HW232856   4.964   0.691   0.587
10653SOL     OW32857   6.222   4.039   4.551
10653SOL    HW132858   6.206   4.069   4.645
10653SOL    HW232859   6.138   4.000   4.514
10654SOL     OW32860   4.678   0.279   1.384
10654SOL    HW132861   4.734   0.318   1.458
10654SOL    HW232862   4.644   0.353   1.326
10655SOL     OW32863   2.424   5.809   1.156
10655SOL    HW132864   2.518   5.785   1.131
10655SOL    HW232865   2.361   5.766   1.091
10656SOL     OW32866   6.618   3.177   6.148
10656SOL    HW132867   6.631   3.104   6.215
10656SOL    HW232868   6.694   3.242   6.155
10657SOL     OW32869   6.237   0.200   0.641
10657SOL    HW132870   6.151   0.228   0.598
10657SOL    HW232871   6.259   0.106   0.615
10658SOL     OW32872   6.950   5.987   3.715
10658SOL    HW132873   7.000   6.064   3.755
10658SOL    HW232874   6.860   5.980   3.758
10659SOL     OW32875   5.362   1.073   1.615
10659SOL    HW132876   5.351   0.981   1.652
10659SOL    HW232877   5.287   1.092   1.551
10660SOL     OW32878   5.070   4.939   5.380
10660SOL    HW132879   5.082   4.958   5.478
10660SOL    HW232880   5.069   4.840   5.366
10661SOL     OW32881   0.062   1.171   1.646
10661SOL    HW132882   0.058   1.233   1.567
10661SOL    HW232883   0.103   1.085   1.618
10662SOL     OW32884   0.037   1.862   0.803
10662SOL    HW132885   0.125   1.834   0.765
10662SOL    HW232886   0.032   1.961   0.807
10663SOL     OW32887   0.471   2.451   1.877
10663SOL    HW132888   0.563   2.486   1.861
10663SOL    HW232889   0.430   2.499   1.955
10664SOL     OW32890   2.309   5.589   6.061
10664SOL    HW132891   2.317   5.490   6.070
10664SOL    HW232892   2.387   5.633   6.106
10665SOL     OW32893   5.477   1.752   0.161
10665SOL    HW132894   5.520   1.826   0.109
10665SOL    HW232895   5.386   1.780   0.191
10666SOL     OW32896   0.345   6.763   0.428
10666SOL    HW132897   0.390   6.850   0.407
10666SOL    HW232898   0.371   6.695   0.360
10667SOL     OW32899   3.209   2.067   6.015
10667SOL    HW132900   3.184   2.033   5.924
10667SOL    HW232901   3.308   2.080   6.019
10668SOL     OW32902   1.396   0.609   6.354
10668SOL    HW132903   1.435   0.696   6.386
10668SOL    HW232904   1.411   0.538   6.423
10669SOL     OW32905   2.035   5.859   6.474
10669SOL    HW132906   2.106   5.848   6.405
10669SOL    HW232907   1.989   5.947   6.462
10670SOL     OW32908   5.591   4.300   4.829
10670SOL    HW132909   5.684   4.265   4.813
10670SOL    HW232910   5.565   4.360   4.754
10671SOL     OW32911   2.112   2.987   3.328
10671SOL    HW132912   2.181   2.922   3.361
10671SOL    HW232913   2.041   2.938   3.278
10672SOL     OW32914   6.757   2.377   0.794
10672SOL    HW132915   6.804   2.400   0.708
10672SOL    HW232916   6.661   2.403   0.786
10673SOL     OW32917   3.425   4.168   3.921
10673SOL    HW132918   3.389   4.143   3.831
10673SOL    HW232919   3.352   4.160   3.989
10674SOL     OW32920   4.429   1.577   2.685
10674SOL    HW132921   4.341   1.531   2.697
10674SOL    HW232922   4.500   1.524   2.733
10675SOL     OW32923   1.470   1.532   5.823
10675SOL    HW132924   1.374   1.534   5.795
10675SOL    HW232925   1.486   1.602   5.893
10676SOL     OW32926   6.360   0.686   6.982
10676SOL    HW132927   6.261   0.697   6.983
10676SOL    HW232928   6.393   0.671   0.060
10677SOL     OW32929   5.375   1.309   0.198
10677SOL    HW132930   5.292   1.271   0.159
10677SOL    HW232931   5.386   1.277   0.292
10678SOL     OW32932   1.304   5.229   3.811
10678SOL    HW132933   1.265   5.282   3.736
10678SOL    HW232934   1.231   5.185   3.863
10679SOL     OW32935   5.762   5.216   3.776
10679SOL    HW132936   5.833   5.166   3.727
10679SOL    HW232937   5.674   5.202   3.731
10680SOL     OW32938   0.070   2.640   4.026
10680SOL    HW132939   0.107   2.579   4.097
10680SOL    HW232940   0.143   2.667   3.964
10681SOL     OW32941   0.841   3.432   6.951
10681SOL    HW132942   0.850   3.455   0.032
10681SOL    HW232943   0.777   3.356   6.940
10682SOL     OW32944   6.324   1.999   3.628
10682SOL    HW132945   6.421   1.975   3.628
10682SOL    HW232946   6.313   2.092   3.663
10683SOL     OW32947   0.592   0.316   3.822
10683SOL    HW132948   0.583   0.328   3.921
10683SOL    HW232949   0.609   0.219   3.801
10684SOL     OW32950   5.268   6.206   0.721
10684SOL    HW132951   5.299   6.223   0.814
10684SOL    HW232952   5.204   6.129   0.721
10685SOL     OW32953   6.241   3.079   3.111
10685SOL    HW132954   6.297   3.139   3.054
10685SOL    HW232955   6.165   3.042   3.057
10686SOL     OW32956   4.649   4.476   1.492
10686SOL    HW132957   4.643   4.469   1.591
10686SOL    HW232958   4.564   4.442   1.451
10687SOL     OW32959   0.047   5.479   0.883
10687SOL    HW132960   7.005   5.412   0.931
10687SOL    HW232961   0.066   5.446   0.791
10688SOL     OW32962   1.571   4.378   0.834
10688SOL    HW132963   1.608   4.451   0.891
10688SOL    HW232964   1.553   4.412   0.742
10689SOL     OW32965   0.414   0.188   0.882
10689SOL    HW132966   0.476   0.246   0.934
10689SOL    HW232967   0.426   0.093   0.910
10690SOL     OW32968   3.469   0.362   3.218
10690SOL    HW132969   3.491   0.293   3.287
10690SOL    HW232970   3.467   0.453   3.260
10691SOL     OW32971   5.380   1.596   1.504
10691SOL    HW132972   5.474   1.623   1.482
10691SOL    HW232973   5.317   1.669   1.480
10692SOL     OW32974   5.891   6.401   3.725
10692SOL    HW132975   5.875   6.336   3.651
10692SOL    HW232976   5.919   6.352   3.807
10693SOL     OW32977   4.816   2.479   4.248
10693SOL    HW132978   4.795   2.574   4.225
10693SOL    HW232979   4.751   2.418   4.204
10694SOL     OW32980   2.332   5.951   6.901
10694SOL    HW132981   2.292   5.948   6.809
10694SOL    HW232982   2.427   5.981   6.895
10695SOL     OW32983   5.975   2.879   5.959
10695SOL    HW132984   6.015   2.816   5.892
10695SOL    HW232985   5.880   2.898   5.935
10696SOL     OW32986   6.294   0.164   0.931
10696SOL    HW132987   6.331   0.074   0.907
10696SOL    HW232988   6.247   0.203   0.852
10697SOL     OW32989   2.315   5.787   2.967
10697SOL    HW132990   2.352   5.694   2.972
10697SOL    HW232991   2.336   5.835   3.052
10698SOL     OW32992   3.528   0.322   3.793
10698SOL    HW132993   3.585   0.328   3.875
10698SOL    HW232994   3.454   0.257   3.808
10699SOL     OW32995   0.560   3.248   3.592
10699SOL    HW132996   0.601   3.314   3.655
10699SOL    HW232997   0.528   3.168   3.643
10700SOL     OW32998   1.308   3.046   2.733
10700SOL    HW132999   1.227   2.988   2.723
10700SOL    HW233000   1.320   3.069   2.830
10701SOL     OW33001   2.650   6.906   1.167
10701SOL    HW133002   2.716   6.979   1.153
10701SOL    HW233003   2.580   6.936   1.232
10702SOL     OW33004   4.649   2.216   0.720
10702SOL    HW133005   4.687   2.161   0.646
10702SOL    HW233006   4.676   2.178   0.808
10703SOL     OW33007   3.950   4.008   4.006
10703SOL    HW133008   3.852   4.008   3.986
10703SOL    HW233009   3.964   3.996   4.104
10704SOL     OW33010   5.331   5.698   1.665
10704SOL    HW133011   5.278   5.666   1.744
10704SOL    HW233012   5.299   5.652   1.582
10705SOL     OW33013   1.560   3.028   6.826
10705SOL    HW133014   1.460   3.024   6.823
10705SOL    HW233015   1.596   3.041   6.733
10706SOL     OW33016   3.337   3.764   0.506
10706SOL    HW133017   3.252   3.720   0.536
10706SOL    HW233018   3.330   3.862   0.520
10707SOL     OW33019   5.961   0.370   6.452
10707SOL    HW133020   5.896   0.433   6.494
10707SOL    HW233021   5.954   0.376   6.353
10708SOL     OW33022   4.468   2.517   1.460
10708SOL    HW133023   4.431   2.426   1.440
10708SOL    HW233024   4.399   2.571   1.510
10709SOL     OW33025   0.764   1.142   6.373
10709SOL    HW133026   0.796   1.060   6.421
10709SOL    HW233027   0.835   1.174   6.311
10710SOL     OW33028   0.155   6.907   3.287
10710SOL    HW133029   0.164   7.006   3.281
10710SOL    HW233030   0.245   6.866   3.299
10711SOL     OW33031   1.697   4.035   5.599
10711SOL    HW133032   1.641   4.116   5.583
10711SOL    HW233033   1.788   4.050   5.559
10712SOL     OW33034   3.603   1.700   6.313
10712SOL    HW133035   3.642   1.691   6.221
10712SOL    HW233036   3.574   1.610   6.345
10713SOL     OW33037   2.850   0.266   0.194
10713SOL    HW133038   2.827   0.221   0.280
10713SOL    HW233039   2.910   0.206   0.141
10714SOL     OW33040   4.789   5.475   4.517
10714SOL    HW133041   4.726   5.521   4.580
10714SOL    HW233042   4.783   5.376   4.530
10715SOL     OW33043   5.722   0.050   2.703
10715SOL    HW133044   5.688   0.117   2.636
10715SOL    HW233045   5.710   0.087   2.795
10716SOL     OW33046   7.012   1.997   2.117
10716SOL    HW133047   7.014   2.077   2.177
10716SOL    HW233048   0.019   1.915   2.170
10717SOL     OW33049   0.797   6.388   1.791
10717SOL    HW133050   0.805   6.486   1.808
10717SOL    HW233051   0.840   6.337   1.867
10718SOL     OW33052   6.654   4.803   5.210
10718SOL    HW133053   6.558   4.820   5.188
10718SOL    HW233054   6.687   4.874   5.272
10719SOL     OW33055   3.277   6.378   3.598
10719SOL    HW133056   3.342   6.315   3.639
10719SOL    HW233057   3.323   6.435   3.530
10720SOL     OW33058   0.551   2.772   5.857
10720SOL    HW133059   0.598   2.804   5.775
10720SOL    HW233060   0.617   2.731   5.920
10721SOL     OW33061   5.710   1.431   3.946
10721SOL    HW133062   5.696   1.339   3.983
10721SOL    HW233063   5.628   1.460   3.896
10722SOL     OW33064   0.792   5.344   0.601
10722SOL    HW133065   0.785   5.307   0.509
10722SOL    HW233066   0.888   5.343   0.630
10723SOL     OW33067   0.226   3.861   6.164
10723SOL    HW133068   0.189   3.916   6.089
10723SOL    HW233069   0.317   3.828   6.140
10724SOL     OW33070   4.089   6.296   5.698
10724SOL    HW133071   4.026   6.225   5.727
10724SOL    HW233072   4.039   6.367   5.648
10725SOL     OW33073   0.197   0.449   5.179
10725SOL    HW133074   0.159   0.541   5.189
10725SOL    HW233075   0.123   0.382   5.188
10726SOL     OW33076   6.750   0.573   3.399
10726SOL    HW133077   6.695   0.528   3.469
10726SOL    HW233078   6.695   0.588   3.317
10727SOL     OW33079   4.855   6.089   6.437
10727SOL    HW133080   4.927   6.048   6.381
10727SOL    HW233081   4.897   6.141   6.511
10728SOL     OW33082   5.469   5.835   4.327
10728SOL    HW133083   5.497   5.829   4.231
10728SOL    HW233084   5.445   5.744   4.360
10729SOL     OW33085   6.607   2.927   4.218
10729SOL    HW133086   6.520   2.936   4.267
10729SOL    HW233087   6.663   3.008   4.233
10730SOL     OW33088   1.566   6.363   4.285
10730SOL    HW133089   1.473   6.344   4.252
10730SOL    HW233090   1.627   6.288   4.258
10731SOL     OW33091   5.127   3.907   4.940
10731SOL    HW133092   5.060   3.879   5.008
10731SOL    HW233093   5.083   3.965   4.871
10732SOL     OW33094   5.513   5.582   2.694
10732SOL    HW133095   5.588   5.554   2.635
10732SOL    HW233096   5.428   5.585   2.641
10733SOL     OW33097   0.513   1.837   5.643
10733SOL    HW133098   0.432   1.814   5.697
10733SOL    HW233099   0.488   1.839   5.546
10734SOL     OW33100   0.525   0.732   4.326
10734SOL    HW133101   0.513   0.683   4.239
10734SOL    HW233102   0.466   0.692   4.395
10735SOL     OW33103   6.999   0.837   1.991
10735SOL    HW133104   6.918   0.896   1.989
10735SOL    HW233105   0.063   0.892   2.017
10736SOL     OW33106   5.801   5.480   3.948
10736SOL    HW133107   5.739   5.404   3.929
10736SOL    HW233108   5.887   5.466   3.900
10737SOL     OW33109   6.434   0.721   0.462
10737SOL    HW133110   6.459   0.731   0.559
10737SOL    HW233111   6.492   0.780   0.406
10738SOL     OW33112   1.129   6.365   2.042
10738SOL    HW133113   1.206   6.305   2.019
10738SOL    HW233114   1.130   6.444   1.982
10739SOL     OW33115   4.969   2.635   3.933
10739SOL    HW133116   4.889   2.583   3.902
10739SOL    HW233117   4.956   2.732   3.912
10740SOL     OW33118   2.718   0.820   6.467
10740SOL    HW133119   2.748   0.777   6.382
10740SOL    HW233120   2.792   0.819   6.533
10741SOL     OW33121   2.116   2.642   4.138
10741SOL    HW133122   2.196   2.592   4.171
10741SOL    HW233123   2.096   2.718   4.201
10742SOL     OW33124   0.306   0.248   2.184
10742SOL    HW133125   0.269   0.256   2.091
10742SOL    HW233126   0.251   0.182   2.235
10743SOL     OW33127   3.953   2.727   6.143
10743SOL    HW133128   3.974   2.682   6.057
10743SOL    HW233129   3.966   2.663   6.218
10744SOL     OW33130   1.335   1.662   0.589
10744SOL    HW133131   1.354   1.723   0.512
10744SOL    HW233132   1.411   1.599   0.602
10745SOL     OW33133   3.548   5.558   1.589
10745SOL    HW133134   3.619   5.576   1.521
10745SOL    HW233135   3.489   5.484   1.557
10746SOL     OW33136   2.563   6.056   5.789
10746SOL    HW133137   2.503   5.977   5.803
10746SOL    HW233138   2.656   6.033   5.816
10747SOL     OW33139   6.927   0.249   4.472
10747SOL    HW133140   6.919   0.247   4.572
10747SOL    HW233141   6.984   0.327   4.445
10748SOL     OW33142   2.964   6.307   2.574
10748SOL    HW133143   2.975   6.347   2.483
10748SOL    HW233144   3.005   6.216   2.575
10749SOL     OW33145   4.757   2.748   2.471
10749SOL    HW133146   4.766   2.819   2.541
10749SOL    HW233147   4.794   2.782   2.384
10750SOL     OW33148   3.107   1.436   4.365
10750SOL    HW133149   3.128   1.432   4.267
10750SOL    HW233150   3.065   1.524   4.387
10751SOL     OW33151   5.975   6.009   3.811
10751SOL    HW133152   5.919   5.979   3.733
10751SOL    HW233153   5.951   6.103   3.835
10752SOL     OW33154   0.332   6.218   6.593
10752SOL    HW133155   0.365   6.124   6.581
10752SOL    HW233156   0.241   6.227   6.552
10753SOL     OW33157   5.373   6.563   5.111
10753SOL    HW133158   5.437   6.609   5.050
10753SOL    HW233159   5.282   6.560   5.068
10754SOL     OW33160   6.959   5.915   2.414
10754SOL    HW133161   6.897   5.863   2.356
10754SOL    HW233162   0.028   5.862   2.428
10755SOL     OW33163   1.028   1.780   2.377
10755SOL    HW133164   0.999   1.852   2.440
10755SOL    HW233165   0.979   1.789   2.291
10756SOL     OW33166   0.565   0.427   6.680
10756SOL    HW133167   0.622   0.365   6.733
10756SOL    HW233168   0.474   0.432   6.721
10757SOL     OW33169   0.271   2.572   1.746
10757SOL    HW133170   0.347   2.511   1.770
10757SOL    HW233171   0.300   2.667   1.758
10758SOL     OW33172   0.415   1.759   0.357
10758SOL    HW133173   0.381   1.719   0.272
10758SOL    HW233174   0.474   1.693   0.404
10759SOL     OW33175   3.539   5.261   5.193
10759SOL    HW133176   3.510   5.326   5.264
10759SOL    HW233177   3.460   5.207   5.164
10760SOL     OW33178   0.914   4.918   0.336
10760SOL    HW133179   1.013   4.923   0.318
10760SOL    HW233180   0.878   5.011   0.346
10761SOL     OW33181   1.467   1.533   6.559
10761SOL    HW133182   1.504   1.583   6.637
10761SOL    HW233183   1.417   1.453   6.591
10762SOL     OW33184   1.849   5.989   1.194
10762SOL    HW133185   1.752   6.000   1.215
10762SOL    HW233186   1.874   6.049   1.118
10763SOL     OW33187   4.808   1.231   2.577
10763SOL    HW133188   4.775   1.299   2.512
10763SOL    HW233189   4.798   1.140   2.538
10764SOL     OW33190   5.168   6.127   4.569
10764SOL    HW133191   5.204   6.102   4.479
10764SOL    HW233192   5.212   6.071   4.639
10765SOL     OW33193   6.635   3.006   1.475
10765SOL    HW133194   6.718   2.997   1.530
10765SOL    HW233195   6.612   2.919   1.434
10766SOL     OW33196   3.373   5.271   6.756
10766SOL    HW133197   3.349   5.342   6.823
10766SOL    HW233198   3.466   5.287   6.722
10767SOL     OW33199   1.646   5.001   6.480
10767SOL    HW133200   1.583   4.947   6.424
10767SOL    HW233201   1.596   5.038   6.559
10768SOL     OW33202   6.035   6.230   0.152
10768SOL    HW133203   6.078   6.181   0.228
10768SOL    HW233204   6.100   6.239   0.077
10769SOL     OW33205   3.379   3.815   4.709
10769SOL    HW133206   3.335   3.839   4.796
10769SOL    HW233207   3.475   3.794   4.726
10770SOL     OW33208   4.318   6.871   4.249
10770SOL    HW133209   4.286   6.949   4.302
10770SOL    HW233210   4.284   6.786   4.291
10771SOL     OW33211   4.924   6.223   5.831
10771SOL    HW133212   4.935   6.160   5.754
10771SOL    HW233213   5.013   6.238   5.874
10772SOL     OW33214   5.180   3.536   3.951
10772SOL    HW133215   5.081   3.532   3.953
10772SOL    HW233216   5.214   3.566   4.040
10773SOL     OW33217   1.196   4.633   0.618
10773SOL    HW133218   1.220   4.698   0.689
10773SOL    HW233219   1.157   4.551   0.660
10774SOL     OW33220   6.957   2.973   0.633
10774SOL    HW133221   7.006   3.055   0.663
10774SOL    HW233222   7.006   2.891   0.665
10775SOL     OW33223   2.248   4.506   6.035
10775SOL    HW133224   2.316   4.574   6.006
10775SOL    HW233225   2.156   4.544   6.022
10776SOL     OW33226   0.263   3.702   3.082
10776SOL    HW133227   0.200   3.706   3.005
10776SOL    HW233228   0.215   3.728   3.166
10777SOL     OW33229   0.879   6.260   2.006
10777SOL    HW133230   0.843   6.205   2.081
10777SOL    HW233231   0.974   6.284   2.025
10778SOL     OW33232   4.922   6.811   3.973
10778SOL    HW133233   4.840   6.858   3.939
10778SOL    HW233234   4.931   6.722   3.928
10779SOL     OW33235   5.725   2.977   5.821
10779SOL    HW133236   5.760   2.977   5.727
10779SOL    HW233237   5.633   3.015   5.822
10780SOL     OW33238   0.875   5.306   4.736
10780SOL    HW133239   0.945   5.237   4.756
10780SOL    HW233240   0.828   5.331   4.821
10781SOL     OW33241   6.084   2.505   5.903
10781SOL    HW133242   6.110   2.571   5.832
10781SOL    HW233243   6.135   2.523   5.986
10782SOL     OW33244   1.314   3.297   5.051
10782SOL    HW133245   1.229   3.290   5.104
10782SOL    HW233246   1.384   3.240   5.094
10783SOL     OW33247   1.490   4.136   3.969
10783SOL    HW133248   1.486   4.201   3.893
10783SOL    HW233249   1.526   4.182   4.050
10784SOL     OW33250   4.654   5.239   3.956
10784SOL    HW133251   4.662   5.283   4.046
10784SOL    HW233252   4.740   5.191   3.936
10785SOL     OW33253   1.754   5.423   1.634
10785SOL    HW133254   1.714   5.339   1.599
10785SOL    HW233255   1.845   5.436   1.594
10786SOL     OW33256   5.131   1.552   2.553
10786SOL    HW133257   5.171   1.503   2.631
10786SOL    HW233258   5.175   1.641   2.543
10787SOL     OW33259   3.206   1.730   3.602
10787SOL    HW133260   3.236   1.647   3.648
10787SOL    HW233261   3.127   1.768   3.650
10788SOL     OW33262   1.430   3.213   0.048
10788SOL    HW133263   1.462   3.125   0.014
10788SOL    HW233264   1.410   3.205   0.146
10789SOL     OW33265   6.583   2.260   2.594
10789SOL    HW133266   6.542   2.283   2.506
10789SOL    HW233267   6.529   2.189   2.639
10790SOL     OW33268   6.898   2.554   5.297
10790SOL    HW133269   6.956   2.633   5.276
10790SOL    HW233270   6.950   2.470   5.288
10791SOL     OW33271   1.938   2.848   3.112
10791SOL    HW133272   1.893   2.872   3.198
10791SOL    HW233273   1.909   2.912   3.041
10792SOL     OW33274   3.796   1.429   2.020
10792SOL    HW133275   3.846   1.515   2.030
10792SOL    HW233276   3.860   1.354   2.007
10793SOL     OW33277   3.989   2.213   4.086
10793SOL    HW133278   3.936   2.173   4.011
10793SOL    HW233279   3.972   2.312   4.089
10794SOL     OW33280   4.141   2.868   6.874
10794SOL    HW133281   4.187   2.805   6.812
10794SOL    HW233282   4.150   2.961   6.840
10795SOL     OW33283   6.083   2.934   2.907
10795SOL    HW133284   6.045   2.991   2.834
10795SOL    HW233285   6.103   2.843   2.871
10796SOL     OW33286   6.869   1.954   6.357
10796SOL    HW133287   6.856   1.861   6.323
10796SOL    HW233288   6.891   2.015   6.281
10797SOL     OW33289   5.754   4.458   6.547
10797SOL    HW133290   5.665   4.423   6.574
10797SOL    HW233291   5.755   4.475   6.449
10798SOL     OW33292   2.454   5.732   0.406
10798SOL    HW133293   2.437   5.830   0.412
10798SOL    HW233294   2.546   5.716   0.372
10799SOL     OW33295   1.909   1.185   3.262
10799SOL    HW133296   1.839   1.240   3.309
10799SOL    HW233297   1.990   1.241   3.247
10800SOL     OW33298   1.249   0.683   5.197
10800SOL    HW133299   1.255   0.586   5.174
10800SOL    HW233300   1.296   0.737   5.127
10801SOL     OW33301   3.014   6.175   6.722
10801SOL    HW133302   2.990   6.079   6.737
10801SOL    HW233303   2.960   6.233   6.783
10802SOL     OW33304   0.259   4.481   3.532
10802SOL    HW133305   0.171   4.518   3.503
10802SOL    HW233306   0.301   4.431   3.457
10803SOL     OW33307   0.152   4.246   5.018
10803SOL    HW133308   0.201   4.232   4.932
10803SOL    HW233309   0.081   4.314   5.005
10804SOL     OW33310   4.107   4.896   6.529
10804SOL    HW133311   4.154   4.820   6.486
10804SOL    HW233312   4.126   4.980   6.479
10805SOL     OW33313   5.073   6.035   0.439
10805SOL    HW133314   5.029   5.957   0.393
10805SOL    HW233315   5.171   6.033   0.421
10806SOL     OW33316   5.995   2.928   5.000
10806SOL    HW133317   6.082   2.941   4.953
10806SOL    HW233318   5.980   2.831   5.017
10807SOL     OW33319   4.380   2.667   5.252
10807SOL    HW133320   4.355   2.679   5.348
10807SOL    HW233321   4.305   2.621   5.204
10808SOL     OW33322   0.728   2.602   1.166
10808SOL    HW133323   0.717   2.680   1.228
10808SOL    HW233324   0.823   2.572   1.167
10809SOL     OW33325   1.238   1.010   3.180
10809SOL    HW133326   1.171   0.937   3.194
10809SOL    HW233327   1.283   0.997   3.092
10810SOL     OW33328   1.787   2.017   6.369
10810SOL    HW133329   1.885   2.015   6.355
10810SOL    HW233330   1.767   2.034   6.466
10811SOL     OW33331   3.786   5.634   6.650
10811SOL    HW133332   3.810   5.664   6.743
10811SOL    HW233333   3.716   5.695   6.613
10812SOL     OW33334   6.863   3.416   2.484
10812SOL    HW133335   6.901   3.422   2.576
10812SOL    HW233336   6.781   3.358   2.485
10813SOL     OW33337   3.293   6.255   2.043
10813SOL    HW133338   3.279   6.289   2.136
10813SOL    HW233339   3.300   6.332   1.980
10814SOL     OW33340   1.690   5.861   4.241
10814SOL    HW133341   1.686   5.960   4.247
10814SOL    HW233342   1.622   5.821   4.303
10815SOL     OW33343   5.379   2.911   5.934
10815SOL    HW133344   5.342   2.869   6.016
10815SOL    HW233345   5.405   3.006   5.953
10816SOL     OW33346   2.471   2.526   1.017
10816SOL    HW133347   2.384   2.574   1.007
10816SOL    HW233348   2.455   2.428   1.015
10817SOL     OW33349   3.857   1.901   1.755
10817SOL    HW133350   3.768   1.929   1.720
10817SOL    HW233351   3.928   1.962   1.719
10818SOL     OW33352   4.622   3.470   5.753
10818SOL    HW133353   4.583   3.422   5.675
10818SOL    HW233354   4.592   3.565   5.753
10819SOL     OW33355   2.122   3.197   4.996
10819SOL    HW133356   2.037   3.200   5.047
10819SOL    HW233357   2.149   3.101   4.981
10820SOL     OW33358   0.849   6.666   5.375
10820SOL    HW133359   0.834   6.747   5.319
10820SOL    HW233360   0.794   6.672   5.458
10821SOL     OW33361   0.023   0.448   6.956
10821SOL    HW133362   6.955   0.504   6.961
10821SOL    HW233363   0.036   0.400   0.027
10822SOL     OW33364   0.438   5.531   5.798
10822SOL    HW133365   0.402   5.614   5.755
10822SOL    HW233366   0.480   5.473   5.729
10823SOL     OW33367   2.522   2.298   0.718
10823SOL    HW133368   2.611   2.308   0.764
10823SOL    HW233369   2.494   2.387   0.682
10824SOL     OW33370   4.989   1.544   4.583
10824SOL    HW133371   4.988   1.643   4.579
10824SOL    HW233372   5.010   1.514   4.676
10825SOL     OW33373   3.714   1.311   1.786
10825SOL    HW133374   3.721   1.368   1.869
10825SOL    HW233375   3.746   1.363   1.707
10826SOL     OW33376   0.345   3.536   1.131
10826SOL    HW133377   0.385   3.627   1.137
10826SOL    HW233378   0.387   3.476   1.199
10827SOL     OW33379   6.998   2.359   4.654
10827SOL    HW133380   6.914   2.319   4.617
10827SOL    HW233381   6.984   2.457   4.668
10828SOL     OW33382   2.511   4.318   6.866
10828SOL    HW133383   2.529   4.416   6.872
10828SOL    HW233384   2.494   4.293   6.770
10829SOL     OW33385   2.258   3.640   1.293
10829SOL    HW133386   2.189   3.577   1.259
10829SOL    HW233387   2.259   3.638   1.393
10830SOL     OW33388   6.227   0.169   3.899
10830SOL    HW133389   6.166   0.147   3.823
10830SOL    HW233390   6.191   0.247   3.950
10831SOL     OW33391   5.491   2.949   2.163
10831SOL    HW133392   5.406   2.920   2.206
10831SOL    HW233393   5.532   2.871   2.115
10832SOL     OW33394   1.732   2.992   1.981
10832SOL    HW133395   1.731   3.090   1.961
10832SOL    HW233396   1.672   2.974   2.059
10833SOL     OW33397   3.272   6.938   4.771
10833SOL    HW133398   3.214   6.956   4.850
10833SOL    HW233399   3.278   6.839   4.756
10834SOL     OW33400   6.984   2.329   5.763
10834SOL    HW133401   0.031   2.386   5.710
10834SOL    HW233402   6.901   2.311   5.709
10835SOL     OW33403   0.640   1.617   0.417
10835SOL    HW133404   0.649   1.615   0.318
10835SOL    HW233405   0.699   1.688   0.455
10836SOL     OW33406   0.419   1.912   1.285
10836SOL    HW133407   0.340   1.859   1.314
10836SOL    HW233408   0.454   1.965   1.362
10837SOL     OW33409   1.608   5.339   0.516
10837SOL    HW133410   1.537   5.356   0.584
10837SOL    HW233411   1.602   5.244   0.485
10838SOL     OW33412   6.736   5.810   1.220
10838SOL    HW133413   6.728   5.909   1.213
10838SOL    HW233414   6.683   5.778   1.298
10839SOL     OW33415   2.660   1.849   6.486
10839SOL    HW133416   2.707   1.815   6.568
10839SOL    HW233417   2.661   1.949   6.486
10840SOL     OW33418   1.375   1.161   3.388
10840SOL    HW133419   1.290   1.139   3.340
10840SOL    HW233420   1.362   1.244   3.441
10841SOL     OW33421   4.751   4.201   0.210
10841SOL    HW133422   4.767   4.102   0.206
10841SOL    HW233423   4.830   4.246   0.252
10842SOL     OW33424   5.864   1.976   1.868
10842SOL    HW133425   5.842   2.021   1.781
10842SOL    HW233426   5.782   1.971   1.925
10843SOL     OW33427   1.071   2.235   1.436
10843SOL    HW133428   1.041   2.144   1.464
10843SOL    HW233429   1.171   2.241   1.441
10844SOL     OW33430   4.788   6.561   4.109
10844SOL    HW133431   4.733   6.478   4.109
10844SOL    HW233432   4.846   6.563   4.028
10845SOL     OW33433   2.526   3.798   1.476
10845SOL    HW133434   2.543   3.783   1.574
10845SOL    HW233435   2.442   3.852   1.465
10846SOL     OW33436   3.466   2.729   1.771
10846SOL    HW133437   3.378   2.760   1.809
10846SOL    HW233438   3.474   2.760   1.677
10847SOL     OW33439   5.129   1.758   5.381
10847SOL    HW133440   5.205   1.696   5.360
10847SOL    HW233441   5.104   1.810   5.299
10848SOL     OW33442   1.980   0.456   6.873
10848SOL    HW133443   2.063   0.500   6.906
10848SOL    HW233444   1.995   0.424   6.779
10849SOL     OW33445   0.818   3.974   4.953
10849SOL    HW133446   0.770   3.986   4.866
10849SOL    HW233447   0.916   3.990   4.940
10850SOL     OW33448   5.757   0.576   2.958
10850SOL    HW133449   5.742   0.593   3.056
10850SOL    HW233450   5.679   0.609   2.906
10851SOL     OW33451   4.595   2.771   0.301
10851SOL    HW133452   4.496   2.776   0.285
10851SOL    HW233453   4.631   2.864   0.314
10852SOL     OW33454   6.023   1.391   5.859
10852SOL    HW133455   5.976   1.479   5.868
10852SOL    HW233456   6.009   1.337   5.942
10853SOL     OW33457   2.425   0.004   5.623
10853SOL    HW133458   2.331   6.985   5.620
10853SOL    HW233459   2.452   0.018   5.718
10854SOL     OW33460   5.774   0.428   6.863
10854SOL    HW133461   5.772   0.330   6.882
10854SOL    HW233462   5.700   0.473   6.912
10855SOL     OW33463   0.908   5.894   7.004
10855SOL    HW133464   0.821   5.858   0.022
10855SOL    HW233465   0.973   5.900   0.064
10856SOL     OW33466   4.760   6.921   6.108
10856SOL    HW133467   4.791   6.840   6.058
10856SOL    HW233468   4.830   6.948   6.173
10857SOL     OW33469   6.669   6.730   4.860
10857SOL    HW133470   6.610   6.654   4.888
10857SOL    HW233471   6.674   6.734   4.761
10858SOL     OW33472   2.004   2.628   0.610
10858SOL    HW133473   1.984   2.717   0.650
10858SOL    HW233474   2.016   2.561   0.684
10859SOL     OW33475   2.467   5.236   1.716
10859SOL    HW133476   2.472   5.252   1.814
10859SOL    HW233477   2.490   5.141   1.696
10860SOL     OW33478   5.532   1.705   1.800
10860SOL    HW133479   5.607   1.717   1.734
10860SOL    HW233480   5.481   1.790   1.809
10861SOL     OW33481   2.450   4.611   0.613
10861SOL    HW133482   2.530   4.595   0.555
10861SOL    HW233483   2.386   4.671   0.565
10862SOL     OW33484   3.785   4.777   5.305
10862SOL    HW133485   3.714   4.754   5.371
10862SOL    HW233486   3.868   4.726   5.326
10863SOL     OW33487   0.262   7.013   3.885
10863SOL    HW133488   0.184   6.976   3.835
10863SOL    HW233489   0.243   7.011   3.983
10864SOL     OW33490   2.899   3.691   2.396
10864SOL    HW133491   2.889   3.773   2.340
10864SOL    HW233492   2.837   3.620   2.363
10865SOL     OW33493   3.233   2.060   2.313
10865SOL    HW133494   3.326   2.091   2.290
10865SOL    HW233495   3.186   2.030   2.230
10866SOL     OW33496   0.483   3.705   5.175
10866SOL    HW133497   0.433   3.754   5.104
10866SOL    HW233498   0.575   3.683   5.141
10867SOL     OW33499   4.886   3.266   0.455
10867SOL    HW133500   4.959   3.329   0.428
10867SOL    HW233501   4.807   3.319   0.487
10868SOL     OW33502   0.174   6.613   6.362
10868SOL    HW133503   0.270   6.593   6.380
10868SOL    HW233504   0.165   6.707   6.328
10869NA      NA33505   6.726   0.905   6.768
10870NA      NA33506   4.747   4.506   4.931
10871NA      NA33507   0.832   4.489   2.898
10872NA      NA33508   6.443   3.491   3.758
10873NA      NA33509   4.265   2.347   5.324
10874NA      NA33510   2.414   3.413   7.007
10875NA      NA33511   1.844   5.510   0.096
10876NA      NA33512   4.191   5.040   2.073
10877NA      NA33513   5.454   3.659   1.183
10878NA      NA33514   3.605   1.937   0.619
10879NA      NA33515   5.104   6.320   1.518
10880NA      NA33516   2.700   6.350   4.580
10881NA      NA33517   2.957   5.492   2.526
10882NA      NA33518   4.281   4.979   6.114
   7.01573   7.01573   7.01573
