Generated by trjconv : CNT in water t= 585.00000
33518
    1C        C    1   2.842   2.768   4.746
    1C        C    2   2.898   2.720   4.866
    1C        C    3   2.842   2.769   4.984
    1C        C    4   2.838   2.766   4.259
    1C        C    5   2.891   2.716   4.380
    1C        C    6   2.839   2.765   4.502
    1C        C    7   3.005   2.634   4.623
    1C        C    8   2.890   2.715   4.624
    1C        C    9   3.074   2.605   4.743
    1C        C   10   3.014   2.639   4.866
    1C        C   11   3.177   2.491   4.970
    1C        C   12   3.055   2.560   4.974
    1C        C   13   2.843   2.764   3.771
    1C        C   14   2.891   2.713   3.893
    1C        C   15   2.837   2.764   4.014
    1C        C   16   3.011   2.643   4.136
    1C        C   17   2.894   2.723   4.136
    1C        C   18   3.072   2.609   4.259
    1C        C   19   3.012   2.642   4.382
    1C        C   20   3.207   2.556   4.503
    1C        C   21   3.074   2.604   4.503
    1C        C   22   3.276   2.534   4.623
    1C        C   23   3.205   2.549   4.744
    1C        C   24   3.412   2.482   4.860
    1C        C   25   3.270   2.502   4.862
    1C        C   26   3.488   2.480   4.977
    1C        C   27   2.842   2.762   3.279
    1C        C   28   2.894   2.717   3.402
    1C        C   29   2.843   2.766   3.525
    1C        C   30   3.011   2.639   3.650
    1C        C   31   2.893   2.717   3.648
    1C        C   32   3.073   2.600   3.771
    1C        C   33   3.008   2.632   3.892
    1C        C   34   3.201   2.547   4.016
    1C        C   35   3.071   2.603   4.015
    1C        C   36   3.272   2.533   4.137
    1C        C   37   3.204   2.560   4.258
    1C        C   38   3.414   2.520   4.377
    1C        C   39   3.274   2.539   4.379
    1C        C   40   3.485   2.511   4.499
    1C        C   41   3.415   2.508   4.621
    1C        C   42   3.629   2.479   4.741
    1C        C   43   3.487   2.482   4.740
    1C        C   44   3.705   2.485   4.860
    1C        C   45   3.627   2.478   4.977
    1C        C   46   2.832   2.744   2.792
    1C        C   47   2.890   2.702   2.914
    1C        C   48   2.836   2.751   3.035
    1C        C   49   3.007   2.628   3.164
    1C        C   50   2.890   2.707   3.158
    1C        C   51   3.072   2.597   3.285
    1C        C   52   3.010   2.635   3.406
    1C        C   53   3.204   2.551   3.527
    1C        C   54   3.073   2.602   3.528
    1C        C   55   3.273   2.531   3.649
    1C        C   56   3.207   2.554   3.771
    1C        C   57   3.411   2.508   3.894
    1C        C   58   3.272   2.533   3.895
    1C        C   59   3.484   2.497   4.014
    1C        C   60   3.411   2.507   4.135
    1C        C   61   3.625   2.503   4.255
    1C        C   62   3.484   2.505   4.256
    1C        C   63   3.695   2.516   4.377
    1C        C   64   3.626   2.505   4.500
    1C        C   65   3.835   2.539   4.618
    1C        C   66   3.699   2.504   4.621
    1C        C   67   3.905   2.562   4.739
    1C        C   68   3.840   2.527   4.860
    1C        C   69   4.050   2.586   4.978
    1C        C   70   3.918   2.540   4.975
    1C        C   71   2.820   2.731   2.308
    1C        C   72   2.880   2.689   2.429
    1C        C   73   2.828   2.739   2.551
    1C        C   74   3.004   2.617   2.675
    1C        C   75   2.886   2.694   2.671
    1C        C   76   3.068   2.583   2.796
    1C        C   77   3.009   2.626   2.917
    1C        C   78   3.202   2.549   3.039
    1C        C   79   3.069   2.596   3.041
    1C        C   80   3.271   2.529   3.160
    1C        C   81   3.204   2.546   3.284
    1C        C   82   3.411   2.501   3.401
    1C        C   83   3.272   2.527   3.406
    1C        C   84   3.480   2.496   3.524
    1C        C   85   3.411   2.500   3.648
    1C        C   86   3.621   2.503   3.767
    1C        C   87   3.480   2.497   3.771
    1C        C   88   3.693   2.516   3.888
    1C        C   89   3.625   2.504   4.011
    1C        C   90   3.832   2.551   4.135
    1C        C   91   3.696   2.512   4.133
    1C        C   92   3.902   2.573   4.255
    1C        C   93   3.832   2.552   4.376
    1C        C   94   4.030   2.630   4.498
    1C        C   95   3.902   2.570   4.498
    1C        C   96   4.090   2.673   4.618
    1C        C   97   4.031   2.627   4.738
    1C        C   98   4.186   2.765   4.860
    1C        C   99   4.099   2.652   4.861
    1C        C  100   4.214   2.845   4.972
    1C        C  101   2.814   2.724   2.070
    1C        C  102   2.989   2.592   2.190
    1C        C  103   2.874   2.678   2.188
    1C        C  104   3.059   2.571   2.312
    1C        C  105   2.999   2.613   2.432
    1C        C  106   3.197   2.531   2.552
    1C        C  107   3.065   2.582   2.553
    1C        C  108   3.270   2.518   2.672
    1C        C  109   3.202   2.538   2.795
    1C        C  110   3.409   2.497   2.914
    1C        C  111   3.270   2.523   2.917
    1C        C  112   3.482   2.495   3.035
    1C        C  113   3.410   2.505   3.157
    1C        C  114   3.622   2.504   3.277
    1C        C  115   3.481   2.495   3.279
    1C        C  116   3.690   2.514   3.401
    1C        C  117   3.621   2.504   3.524
    1C        C  118   3.829   2.548   3.644
    1C        C  119   3.693   2.511   3.645
    1C        C  120   3.895   2.574   3.766
    1C        C  121   3.829   2.555   3.890
    1C        C  122   4.024   2.640   4.012
    1C        C  123   3.895   2.581   4.012
    1C        C  124   4.090   2.672   4.132
    1C        C  125   4.026   2.639   4.254
    1C        C  126   4.196   2.764   4.377
    1C        C  127   4.090   2.670   4.376
    1C        C  128   4.246   2.817   4.497
    1C        C  129   4.198   2.764   4.619
    1C        C  130   4.329   2.932   4.740
    1C        C  131   4.244   2.818   4.742
    1C        C  132   4.360   3.002   4.858
    1C        C  133   4.292   2.959   4.973
    1C        C  134   3.171   2.466   2.081
    1C        C  135   3.037   2.506   2.086
    1C        C  136   3.255   2.475   2.193
    1C        C  137   3.190   2.515   2.312
    1C        C  138   3.403   2.479   2.429
    1C        C  139   3.264   2.501   2.431
    1C        C  140   3.479   2.478   2.548
    1C        C  141   3.409   2.492   2.670
    1C        C  142   3.621   2.500   2.786
    1C        C  143   3.480   2.494   2.792
    1C        C  144   3.690   2.507   2.909
    1C        C  145   3.623   2.500   3.033
    1C        C  146   3.831   2.540   3.152
    1C        C  147   3.694   2.508   3.155
    1C        C  148   3.895   2.568   3.275
    1C        C  149   3.827   2.548   3.398
    1C        C  150   4.025   2.622   3.519
    1C        C  151   3.894   2.568   3.520
    1C        C  152   4.083   2.664   3.641
    1C        C  153   4.023   2.633   3.765
    1C        C  154   4.195   2.758   3.886
    1C        C  155   4.081   2.674   3.887
    1C        C  156   4.244   2.811   4.008
    1C        C  157   4.198   2.763   4.132
    1C        C  158   4.342   2.917   4.251
    1C        C  159   4.252   2.808   4.255
    1C        C  160   4.379   2.981   4.372
    1C        C  161   4.333   2.928   4.494
    1C        C  162   4.435   3.113   4.612
    1C        C  163   4.368   2.989   4.617
    1C        C  164   4.474   3.179   4.731
    1C        C  165   4.440   3.117   4.854
    1C        C  166   4.513   3.320   4.971
    1C        C  167   4.478   3.185   4.970
    1C        C  168   3.470   2.436   2.073
    1C        C  169   3.395   2.459   2.189
    1C        C  170   3.615   2.465   2.303
    1C        C  171   3.473   2.465   2.307
    1C        C  172   3.690   2.485   2.421
    1C        C  173   3.620   2.485   2.544
    1C        C  174   3.828   2.541   2.664
    1C        C  175   3.691   2.506   2.664
    1C        C  176   3.896   2.559   2.787
    1C        C  177   3.827   2.539   2.909
    1C        C  178   4.024   2.623   3.029
    1C        C  179   3.897   2.561   3.029
    1C        C  180   4.085   2.660   3.151
    1C        C  181   4.023   2.628   3.274
    1C        C  182   4.193   2.750   3.396
    1C        C  183   4.086   2.657   3.397
    1C        C  184   4.242   2.799   3.518
    1C        C  185   4.196   2.749   3.642
    1C        C  186   4.336   2.911   3.762
    1C        C  187   4.249   2.799   3.763
    1C        C  188   4.378   2.972   3.882
    1C        C  189   4.338   2.917   4.007
    1C        C  190   4.447   3.099   4.126
    1C        C  191   4.383   2.973   4.128
    1C        C  192   4.471   3.170   4.246
    1C        C  193   4.443   3.107   4.369
    1C        C  194   4.503   3.314   4.487
    1C        C  195   4.464   3.178   4.490
    1C        C  196   4.522   3.384   4.608
    1C        C  197   4.510   3.316   4.732
    1C        C  198   4.546   3.533   4.851
    1C        C  199   4.529   3.391   4.852
    1C        C  200   4.582   3.617   4.961
    1C        C  201   3.609   2.418   2.073
    1C        C  202   3.824   2.513   2.177
    1C        C  203   3.690   2.463   2.182
    1C        C  204   3.894   2.540   2.297
    1C        C  205   3.827   2.520   2.420
    1C        C  206   4.022   2.614   2.540
    1C        C  207   3.894   2.553   2.540
    1C        C  208   4.082   2.653   2.662
    1C        C  209   4.023   2.621   2.786
    1C        C  210   4.199   2.742   2.907
    1C        C  211   4.083   2.661   2.907
    1C        C  212   4.251   2.793   3.028
    1C        C  213   4.198   2.745   3.150
    1C        C  214   4.341   2.900   3.271
    1C        C  215   4.247   2.794   3.273
    1C        C  216   4.379   2.961   3.392
    1C        C  217   4.332   2.908   3.514
    1C        C  218   4.433   3.094   3.636
    1C        C  219   4.370   2.967   3.637
    1C        C  220   4.462   3.163   3.756
    1C        C  221   4.441   3.098   3.879
    1C        C  222   4.502   3.300   4.000
    1C        C  223   4.471   3.162   4.002
    1C        C  224   4.514   3.375   4.119
    1C        C  225   4.508   3.306   4.242
    1C        C  226   4.514   3.521   4.364
    1C        C  227   4.516   3.380   4.363
    1C        C  228   4.515   3.593   4.485
    1C        C  229   4.529   3.525   4.608
    1C        C  230   4.497   3.739   4.727
    1C        C  231   4.529   3.600   4.727
    1C        C  232   4.491   3.815   4.846
    1C        C  233   4.543   3.751   4.960
    1C        C  234   4.020   2.606   2.061
    1C        C  235   3.896   2.542   2.060
    1C        C  236   4.088   2.639   2.179
    1C        C  237   4.021   2.604   2.298
    1C        C  238   4.197   2.734   2.421
    1C        C  239   4.082   2.650   2.417
    1C        C  240   4.255   2.778   2.541
    1C        C  241   4.197   2.735   2.662
    1C        C  242   4.335   2.899   2.784
    1C        C  243   4.250   2.786   2.783
    1C        C  244   4.383   2.955   2.904
    1C        C  245   4.342   2.901   3.028
    1C        C  246   4.444   3.088   3.147
    1C        C  247   4.381   2.961   3.150
    1C        C  248   4.462   3.156   3.270
    1C        C  249   4.435   3.091   3.393
    1C        C  250   4.492   3.297   3.511
    1C        C  251   4.458   3.160   3.513
    1C        C  252   4.505   3.368   3.632
    1C        C  253   4.495   3.300   3.756
    1C        C  254   4.517   3.511   3.878
    1C        C  255   4.509   3.370   3.878
    1C        C  256   4.514   3.586   3.998
    1C        C  257   4.516   3.516   4.121
    1C        C  258   4.485   3.730   4.240
    1C        C  259   4.507   3.590   4.241
    1C        C  260   4.471   3.799   4.362
    1C        C  261   4.483   3.731   4.486
    1C        C  262   4.422   3.938   4.602
    1C        C  263   4.467   3.804   4.606
    1C        C  264   4.396   4.007   4.722
    1C        C  265   4.426   3.940   4.843
    1C        C  266   4.314   4.126   4.959
    1C        C  267   4.383   4.005   4.960
    1C        C  268   4.260   2.774   2.060
    1C        C  269   4.198   2.727   2.177
    1C        C  270   4.344   2.885   2.297
    1C        C  271   4.249   2.780   2.298
    1C        C  272   4.382   2.948   2.418
    1C        C  273   4.343   2.889   2.540
    1C        C  274   4.445   3.077   2.661
    1C        C  275   4.378   2.953   2.661
    1C        C  276   4.474   3.148   2.780
    1C        C  277   4.448   3.081   2.901
    1C        C  278   4.499   3.288   3.023
    1C        C  279   4.471   3.149   3.023
    1C        C  280   4.503   3.361   3.144
    1C        C  281   4.496   3.293   3.268
    1C        C  282   4.508   3.507   3.389
    1C        C  283   4.502   3.366   3.388
    1C        C  284   4.508   3.578   3.511
    1C        C  285   4.507   3.509   3.634
    1C        C  286   4.489   3.721   3.751
    1C        C  287   4.509   3.582   3.755
    1C        C  288   4.471   3.791   3.873
    1C        C  289   4.491   3.725   3.997
    1C        C  290   4.424   3.930   4.115
    1C        C  291   4.473   3.798   4.117
    1C        C  292   4.388   3.994   4.236
    1C        C  293   4.419   3.930   4.358
    1C        C  294   4.323   4.122   4.477
    1C        C  295   4.390   3.998   4.478
    1C        C  296   4.281   4.185   4.596
    1C        C  297   4.322   4.128   4.719
    1C        C  298   4.201   4.310   4.836
    1C        C  299   4.279   4.190   4.839
    1C        C  300   4.165   4.395   4.946
    1C        C  301   4.346   2.883   2.060
    1C        C  302   4.469   3.063   2.176
    1C        C  303   4.399   2.938   2.177
    1C        C  304   4.488   3.134   2.298
    1C        C  305   4.458   3.068   2.418
    1C        C  306   4.498   3.279   2.535
    1C        C  307   4.479   3.139   2.538
    1C        C  308   4.513   3.352   2.655
    1C        C  309   4.505   3.285   2.779
    1C        C  310   4.518   3.497   2.896
    1C        C  311   4.516   3.356   2.901
    1C        C  312   4.509   3.569   3.017
    1C        C  313   4.510   3.502   3.141
    1C        C  314   4.478   3.710   3.262
    1C        C  315   4.507   3.572   3.264
    1C        C  316   4.465   3.783   3.382
    1C        C  317   4.490   3.718   3.506
    1C        C  318   4.422   3.919   3.627
    1C        C  319   4.474   3.788   3.628
    1C        C  320   4.393   3.987   3.748
    1C        C  321   4.422   3.924   3.871
    1C        C  322   4.317   4.111   3.989
    1C        C  323   4.390   3.990   3.991
    1C        C  324   4.280   4.172   4.110
    1C        C  325   4.318   4.117   4.235
    1C        C  326   4.181   4.282   4.351
    1C        C  327   4.277   4.178   4.355
    1C        C  328   4.132   4.335   4.472
    1C        C  329   4.188   4.291   4.594
    1C        C  330   4.025   4.433   4.710
    1C        C  331   4.141   4.351   4.713
    1C        C  332   3.972   4.493   4.826
    1C        C  333   4.053   4.478   4.940
    1C        C  334   4.553   3.264   2.062
    1C        C  335   4.534   3.125   2.065
    1C        C  336   4.536   3.346   2.174
    1C        C  337   4.515   3.274   2.294
    1C        C  338   4.515   3.491   2.410
    1C        C  339   4.512   3.349   2.413
    1C        C  340   4.506   3.564   2.530
    1C        C  341   4.512   3.493   2.652
    1C        C  342   4.487   3.705   2.770
    1C        C  343   4.514   3.567   2.773
    1C        C  344   4.469   3.776   2.891
    1C        C  345   4.479   3.708   3.014
    1C        C  346   4.415   3.907   3.137
    1C        C  347   4.459   3.773   3.137
    1C        C  348   4.384   3.976   3.257
    1C        C  349   4.421   3.917   3.380
    1C        C  350   4.317   4.099   3.499
    1C        C  351   4.393   3.980   3.503
    1C        C  352   4.273   4.161   3.619
    1C        C  353   4.316   4.105   3.741
    1C        C  354   4.178   4.265   3.864
    1C        C  355   4.272   4.160   3.864
    1C        C  356   4.126   4.319   3.984
    1C        C  357   4.178   4.270   4.106
    1C        C  358   4.014   4.407   4.226
    1C        C  359   4.127   4.322   4.227
    1C        C  360   3.956   4.449   4.347
    1C        C  361   4.020   4.421   4.470
    1C        C  362   3.828   4.520   4.589
    1C        C  363   3.956   4.460   4.590
    1C        C  364   3.763   4.546   4.712
    1C        C  365   3.840   4.542   4.830
    1C        C  366   3.629   4.588   4.943
    1C        C  367   3.767   4.572   4.946
    1C        C  368   4.507   3.560   2.050
    1C        C  369   4.522   3.486   2.168
    1C        C  370   4.497   3.702   2.287
    1C        C  371   4.513   3.561   2.287
    1C        C  372   4.480   3.774   2.407
    1C        C  373   4.496   3.705   2.529
    1C        C  374   4.419   3.906   2.647
    1C        C  375   4.474   3.776   2.649
    1C        C  376   4.388   3.973   2.768
    1C        C  377   4.420   3.909   2.890
    1C        C  378   4.319   4.093   3.009
    1C        C  379   4.393   3.972   3.013
    1C        C  380   4.272   4.152   3.128
    1C        C  381   4.311   4.096   3.252
    1C        C  382   4.177   4.256   3.377
    1C        C  383   4.274   4.153   3.376
    1C        C  384   4.123   4.307   3.497
    1C        C  385   4.174   4.261   3.621
    1C        C  386   4.008   4.394   3.739
    1C        C  387   4.123   4.312   3.743
    1C        C  388   3.946   4.432   3.861
    1C        C  389   4.010   4.399   3.982
    1C        C  390   3.820   4.493   4.105
    1C        C  391   3.951   4.439   4.104
    1C        C  392   3.754   4.518   4.227
    1C        C  393   3.825   4.502   4.347
    1C        C  394   3.616   4.544   4.471
    1C        C  395   3.757   4.530   4.468
    1C        C  396   3.546   4.555   4.593
    1C        C  397   3.623   4.556   4.712
    1C        C  398   3.409   4.544   4.837
    1C        C  399   3.547   4.571   4.830
    1C        C  400   3.339   4.504   4.952
    1C        C  401   4.499   3.699   2.049
    1C        C  402   4.453   3.911   2.166
    1C        C  403   4.491   3.775   2.166
    1C        C  404   4.411   3.977   2.284
    1C        C  405   4.432   3.907   2.405
    1C        C  406   4.318   4.091   2.522
    1C        C  407   4.394   3.972   2.524
    1C        C  408   4.274   4.149   2.643
    1C        C  409   4.312   4.092   2.766
    1C        C  410   4.173   4.250   2.885
    1C        C  411   4.271   4.148   2.889
    1C        C  412   4.120   4.297   3.008
    1C        C  413   4.170   4.250   3.132
    1C        C  414   4.002   4.376   3.252
    1C        C  415   4.117   4.294   3.255
    1C        C  416   3.940   4.413   3.373
    1C        C  417   4.005   4.384   3.495
    1C        C  418   3.817   4.483   3.617
    1C        C  419   3.946   4.426   3.617
    1C        C  420   3.748   4.506   3.738
    1C        C  421   3.813   4.481   3.861
    1C        C  422   3.610   4.535   3.983
    1C        C  423   3.749   4.509   3.984
    1C        C  424   3.544   4.540   4.108
    1C        C  425   3.615   4.544   4.230
    1C        C  426   3.401   4.540   4.354
    1C        C  427   3.542   4.548   4.351
    1C        C  428   3.330   4.539   4.476
    1C        C  429   3.405   4.547   4.595
    1C        C  430   3.195   4.510   4.720
    1C        C  431   3.336   4.531   4.717
    1C        C  432   3.126   4.492   4.843
    1C        C  433   3.200   4.499   4.962
    1C        C  434   4.377   4.116   2.047
    1C        C  435   4.442   3.991   2.052
    1C        C  436   4.296   4.155   2.157
    1C        C  437   4.328   4.092   2.281
    1C        C  438   4.179   4.250   2.400
    1C        C  439   4.279   4.150   2.400
    1C        C  440   4.120   4.293   2.521
    1C        C  441   4.177   4.252   2.643
    1C        C  442   4.005   4.380   2.763
    1C        C  443   4.122   4.300   2.763
    1C        C  444   3.940   4.410   2.884
    1C        C  445   4.001   4.373   3.006
    1C        C  446   3.810   4.462   3.127
    1C        C  447   3.940   4.408   3.129
    1C        C  448   3.747   4.487   3.251
    1C        C  449   3.809   4.466   3.376
    1C        C  450   3.605   4.526   3.496
    1C        C  451   3.744   4.498   3.497
    1C        C  452   3.536   4.537   3.619
    1C        C  453   3.609   4.532   3.739
    1C        C  454   3.397   4.537   3.868
    1C        C  455   3.539   4.538   3.861
    1C        C  456   3.329   4.527   3.991
    1C        C  457   3.402   4.535   4.111
    1C        C  458   3.193   4.492   4.235
    1C        C  459   3.331   4.525   4.232
    1C        C  460   3.127   4.477   4.359
    1C        C  461   3.192   4.508   4.480
    1C        C  462   2.993   4.431   4.602
    1C        C  463   3.122   4.491   4.601
    1C        C  464   2.929   4.398   4.723
    1C        C  465   2.992   4.440   4.843
    1C        C  466   2.801   4.340   4.957
    1C        C  467   2.906   4.432   4.957
    1C        C  468   4.118   4.284   2.040
    1C        C  469   4.186   4.247   2.157
    1C        C  470   4.005   4.371   2.275
    1C        C  471   4.126   4.295   2.277
    1C        C  472   3.940   4.405   2.395
    1C        C  473   4.001   4.369   2.518
    1C        C  474   3.814   4.467   2.642
    1C        C  475   3.943   4.410   2.640
    1C        C  476   3.744   4.493   2.762
    1C        C  477   3.813   4.470   2.884
    1C        C  478   3.605   4.516   3.005
    1C        C  479   3.743   4.488   3.005
    1C        C  480   3.537   4.523   3.129
    1C        C  481   3.608   4.514   3.251
    1C        C  482   3.396   4.531   3.373
    1C        C  483   3.537   4.529   3.372
    1C        C  484   3.327   4.518   3.496
    1C        C  485   3.395   4.528   3.619
    1C        C  486   3.192   4.491   3.743
    1C        C  487   3.329   4.526   3.745
    1C        C  488   3.127   4.465   3.866
    1C        C  489   3.193   4.489   3.989
    1C        C  490   3.003   4.404   4.113
    1C        C  491   3.127   4.471   4.112
    1C        C  492   2.940   4.377   4.237
    1C        C  493   2.998   4.419   4.359
    1C        C  494   2.826   4.296   4.482
    1C        C  495   2.937   4.383   4.481
    1C        C  496   2.769   4.255   4.605
    1C        C  497   2.816   4.312   4.725
    1C        C  498   2.662   4.164   4.842
    1C        C  499   2.748   4.276   4.844
    1C        C  500   2.598   4.111   4.954
    1C        C  501   4.000   4.357   2.035
    1C        C  502   3.814   4.464   2.153
    1C        C  503   3.941   4.403   2.154
    1C        C  504   3.742   4.481   2.274
    1C        C  505   3.809   4.459   2.396
    1C        C  506   3.605   4.505   2.516
    1C        C  507   3.744   4.481   2.519
    1C        C  508   3.535   4.512   2.639
    1C        C  509   3.605   4.515   2.761
    1C        C  510   3.393   4.521   2.883
    1C        C  511   3.534   4.526   2.883
    1C        C  512   3.324   4.515   3.007
    1C        C  513   3.396   4.521   3.128
    1C        C  514   3.190   4.482   3.254
    1C        C  515   3.326   4.519   3.251
    1C        C  516   3.122   4.461   3.376
    1C        C  517   3.190   4.484   3.498
    1C        C  518   2.998   4.403   3.624
    1C        C  519   3.124   4.467   3.622
    1C        C  520   2.939   4.366   3.747
    1C        C  521   3.003   4.399   3.869
    1C        C  522   2.831   4.277   3.995
    1C        C  523   2.945   4.361   3.992
    1C        C  524   2.783   4.233   4.120
    1C        C  525   2.830   4.288   4.241
    1C        C  526   2.686   4.132   4.362
    1C        C  527   2.776   4.240   4.362
    1C        C  528   2.647   4.076   4.485
    1C        C  529   2.684   4.142   4.604
    1C        C  530   2.577   3.959   4.727
    1C        C  531   2.637   4.088   4.726
    1C        C  532   2.536   3.898   4.849
    1C        C  533   2.527   3.990   4.958
    1C        C  534   3.615   4.550   2.034
    1C        C  535   3.748   4.507   2.037
    1C        C  536   3.534   4.530   2.151
    1C        C  537   3.604   4.515   2.273
    1C        C  538   3.391   4.515   2.396
    1C        C  539   3.532   4.516   2.395
    1C        C  540   3.322   4.508   2.518
    1C        C  541   3.394   4.510   2.640
    1C        C  542   3.184   4.482   2.762
    1C        C  543   3.322   4.509   2.761
    1C        C  544   3.121   4.462   2.887
    1C        C  545   3.188   4.479   3.011
    1C        C  546   2.998   4.388   3.131
    1C        C  547   3.124   4.450   3.133
    1C        C  548   2.939   4.356   3.256
    1C        C  549   2.995   4.399   3.378
    1C        C  550   2.825   4.278   3.502
    1C        C  551   2.937   4.364   3.502
    1C        C  552   2.776   4.229   3.625
    1C        C  553   2.828   4.279   3.747
    1C        C  554   2.696   4.118   3.874
    1C        C  555   2.780   4.232   3.871
    1C        C  556   2.656   4.060   3.997
    1C        C  557   2.691   4.125   4.117
    1C        C  558   2.589   3.942   4.244
    1C        C  559   2.653   4.067   4.240
    1C        C  560   2.561   3.879   4.367
    1C        C  561   2.590   3.946   4.488
    1C        C  562   2.529   3.744   4.611
    1C        C  563   2.563   3.881   4.610
    1C        C  564   2.509   3.678   4.734
    1C        C  565   2.513   3.757   4.852
    1C        C  566   2.524   3.545   4.976
    1C        C  567   2.517   3.684   4.972
    1C        C  568   3.325   4.467   2.038
    1C        C  569   3.394   4.505   2.154
    1C        C  570   3.181   4.474   2.277
    1C        C  571   3.319   4.509   2.274
    1C        C  572   3.115   4.456   2.400
    1C        C  573   3.184   4.477   2.522
    1C        C  574   2.985   4.398   2.643
    1C        C  575   3.113   4.458   2.642
    1C        C  576   2.931   4.359   2.767
    1C        C  577   2.997   4.395   2.887
    1C        C  578   2.823   4.270   3.013
    1C        C  579   2.936   4.354   3.009
    1C        C  580   2.774   4.221   3.136
    1C        C  581   2.826   4.271   3.257
    1C        C  582   2.692   4.110   3.381
    1C        C  583   2.775   4.225   3.381
    1C        C  584   2.658   4.052   3.505
    1C        C  585   2.694   4.114   3.627
    1C        C  586   2.595   3.933   3.752
    1C        C  587   2.656   4.060   3.752
    1C        C  588   2.566   3.870   3.876
    1C        C  589   2.592   3.934   3.999
    1C        C  590   2.526   3.737   4.124
    1C        C  591   2.566   3.872   4.123
    1C        C  592   2.518   3.668   4.247
    1C        C  593   2.531   3.741   4.367
    1C        C  594   2.511   3.531   4.494
    1C        C  595   2.521   3.672   4.490
    1C        C  596   2.513   3.462   4.618
    1C        C  597   2.516   3.536   4.738
    1C        C  598   2.530   3.325   4.860
    1C        C  599   2.524   3.466   4.861
    1C        C  600   2.533   3.249   4.977
    1C        C  601   3.194   4.424   2.041
    1C        C  602   2.982   4.390   2.158
    1C        C  603   3.116   4.441   2.155
    1C        C  604   2.924   4.352   2.283
    1C        C  605   2.989   4.393   2.402
    1C        C  606   2.814   4.268   2.526
    1C        C  607   2.924   4.357   2.522
    1C        C  608   2.765   4.218   2.648
    1C        C  609   2.825   4.266   2.767
    1C        C  610   2.686   4.109   2.892
    1C        C  611   2.772   4.221   2.890
    1C        C  612   2.647   4.050   3.015
    1C        C  613   2.685   4.112   3.137
    1C        C  614   2.584   3.927   3.260
    1C        C  615   2.648   4.053   3.260
    1C        C  616   2.559   3.866   3.385
    1C        C  617   2.596   3.925   3.507
    1C        C  618   2.533   3.727   3.635
    1C        C  619   2.573   3.862   3.632
    1C        C  620   2.515   3.661   3.759
    1C        C  621   2.527   3.734   3.879
    1C        C  622   2.508   3.524   4.007
    1C        C  623   2.515   3.666   4.002
    1C        C  624   2.511   3.453   4.128
    1C        C  625   2.516   3.526   4.249
    1C        C  626   2.537   3.319   4.377
    1C        C  627   2.516   3.458   4.373
    1C        C  628   2.552   3.250   4.499
    1C        C  629   2.538   3.323   4.619
    1C        C  630   2.593   3.116   4.740
    1C        C  631   2.548   3.251   4.740
    1C        C  632   2.614   3.047   4.863
    1C        C  633   2.562   3.111   4.980
    1C        C  634   2.783   4.298   2.050
    1C        C  635   2.892   4.386   2.047
    1C        C  636   2.745   4.228   2.165
    1C        C  637   2.807   4.272   2.284
    1C        C  638   2.672   4.107   2.406
    1C        C  639   2.759   4.219   2.406
    1C        C  640   2.634   4.048   2.528
    1C        C  641   2.678   4.107   2.649
    1C        C  642   2.583   3.920   2.774
    1C        C  643   2.643   4.048   2.772
    1C        C  644   2.556   3.855   2.896
    1C        C  645   2.584   3.924   3.016
    1C        C  646   2.526   3.722   3.143
    1C        C  647   2.557   3.859   3.139
    1C        C  648   2.523   3.653   3.267
    1C        C  649   2.531   3.727   3.387
    1C        C  650   2.522   3.518   3.515
    1C        C  651   2.525   3.659   3.511
    1C        C  652   2.519   3.452   3.640
    1C        C  653   2.507   3.520   3.763
    1C        C  654   2.539   3.312   3.887
    1C        C  655   2.513   3.451   3.886
    1C        C  656   2.551   3.245   4.011
    1C        C  657   2.532   3.313   4.133
    1C        C  658   2.601   3.114   4.255
    1C        C  659   2.552   3.247   4.256
    1C        C  660   2.631   3.050   4.378
    1C        C  661   2.599   3.117   4.498
    1C        C  662   2.707   2.934   4.623
    1C        C  663   2.629   3.051   4.620
    1C        C  664   2.747   2.874   4.745
    1C        C  665   2.695   2.929   4.865
    1C        C  666   2.737   2.861   4.979
    1C        C  667   2.673   4.023   2.049
    1C        C  668   2.681   4.102   2.164
    1C        C  669   2.586   3.911   2.289
    1C        C  670   2.638   4.043   2.285
    1C        C  671   2.553   3.847   2.410
    1C        C  672   2.574   3.920   2.529
    1C        C  673   2.521   3.716   2.655
    1C        C  674   2.553   3.854   2.653
    1C        C  675   2.510   3.646   2.777
    1C        C  676   2.521   3.719   2.898
    1C        C  677   2.506   3.510   3.023
    1C        C  678   2.509   3.651   3.022
    1C        C  679   2.513   3.442   3.147
    1C        C  680   2.508   3.513   3.269
    1C        C  681   2.535   3.308   3.398
    1C        C  682   2.512   3.447   3.394
    1C        C  683   2.553   3.240   3.521
    1C        C  684   2.539   3.312   3.641
    1C        C  685   2.597   3.110   3.766
    1C        C  686   2.548   3.243   3.764
    1C        C  687   2.632   3.050   3.889
    1C        C  688   2.599   3.112   4.011
    1C        C  689   2.704   2.928   4.135
    1C        C  690   2.629   3.048   4.134
    1C        C  691   2.746   2.873   4.258
    1C        C  692   2.703   2.929   4.381
    1C        C  693   2.745   2.871   4.502
    1C        C  694   2.620   3.893   2.051
    1C        C  695   2.532   3.701   2.173
    1C        C  696   2.571   3.837   2.169
    1C        C  697   2.507   3.636   2.295
    1C        C  698   2.515   3.711   2.415
    1C        C  699   2.492   3.500   2.539
    1C        C  700   2.503   3.641   2.537
    1C        C  701   2.501   3.431   2.662
    1C        C  702   2.503   3.505   2.782
    1C        C  703   2.521   3.294   2.908
    1C        C  704   2.502   3.434   2.904
    1C        C  705   2.542   3.229   3.032
    1C        C  706   2.530   3.302   3.153
    1C        C  707   2.596   3.103   3.276
    1C        C  708   2.550   3.237   3.277
    1C        C  709   2.629   3.044   3.399
    1C        C  710   2.601   3.107   3.523
    1C        C  711   2.708   2.926   3.647
    1C        C  712   2.630   3.044   3.646
    1C        C  713   2.755   2.874   3.770
    1C        C  714   2.708   2.931   3.890
    1C        C  715   2.743   2.869   4.012
    1C        C  716   2.456   3.500   2.057
    1C        C  717   2.487   3.636   2.057
    1C        C  718   2.466   3.422   2.177
    1C        C  719   2.481   3.496   2.297
    1C        C  720   2.511   3.286   2.421
    1C        C  721   2.490   3.425   2.419
    1C        C  722   2.533   3.220   2.545
    1C        C  723   2.519   3.291   2.666
    1C        C  724   2.589   3.091   2.787
    1C        C  725   2.536   3.222   2.787
    1C        C  726   2.624   3.034   2.911
    1C        C  727   2.594   3.098   3.033
    1C        C  728   2.704   2.917   3.154
    1C        C  729   2.627   3.036   3.156
    1C        C  730   2.751   2.870   3.279
    1C        C  731   2.706   2.926   3.401
    1C        C  732   2.749   2.871   3.524
    1C        C  733   2.495   3.194   2.070
    1C        C  734   2.491   3.281   2.180
    1C        C  735   2.584   3.084   2.302
    1C        C  736   2.527   3.215   2.300
    1C        C  737   2.609   3.018   2.425
    1C        C  738   2.586   3.089   2.544
    1C        C  739   2.693   2.904   2.668
    1C        C  740   2.621   3.025   2.666
    1C        C  741   2.739   2.850   2.790
    1C        C  742   2.697   2.913   2.910
    1C        C  743   2.746   2.860   3.032
    1C        C  744   2.545   3.065   2.070
    1C        C  745   2.681   2.893   2.184
    1C        C  746   2.614   3.017   2.182
    1C        C  747   2.727   2.838   2.306
    1C        C  748   2.684   2.899   2.427
    1C        C  749   2.732   2.843   2.547
    1C        C  750   2.724   2.830   2.066
    1C        C  751   3.645   2.311   1.977
    1C        O  752   3.670   2.192   2.009
    1C        O  753   3.667   2.342   1.842
    1C        C  754   4.632   3.052   1.981
    1C        O  755   4.620   3.055   1.856
    1C        O  756   4.727   2.974   2.047
    1C        C  757   4.438   4.207   1.947
    1C        O  758   4.556   4.250   1.952
    1C        O  759   4.377   4.218   1.822
    1C        C  760   3.575   4.650   1.933
    1C        O  761   3.622   4.767   1.932
    1C        O  762   3.565   4.617   1.797
    1C        C  763   2.857   4.513   1.980
    1C        O  764   2.823   4.512   1.858
    1C        O  765   2.829   4.626   2.057
    1C        C  766   2.346   3.478   1.960
    1C        O  767   2.383   3.437   1.847
    1C        O  768   2.207   3.475   1.974
    1C        C  769   4.707   3.604   5.039
    1C        O  770   4.703   3.560   5.157
    1C        O  771   4.827   3.613   4.966
    1C        C  772   4.276   4.434   5.035
    1C        O  773   4.272   4.413   5.159
    1C        O  774   4.382   4.519   5.000
    1C        C  775   4.139   2.530   5.083
    1C        O  776   4.175   2.410   5.067
    1C        O  777   4.135   2.561   5.219
    1C        C  778   2.863   4.550   5.035
    1C        O  779   2.807   4.648   4.980
    1C        O  780   2.874   4.553   5.175
    1C        C  781   2.483   3.034   5.079
    1C        O  782   2.385   2.959   5.053
    1C        O  783   2.542   3.014   5.203
    1C        C  784   2.399   4.006   5.031
    1C        O  785   2.294   4.029   4.965
    1C        O  786   2.386   4.002   5.170
    1C        C  787   2.945   2.413   2.016
    1C        O  788   2.897   2.442   1.903
    1C        O  789   2.948   2.277   2.045
    1C        C  790   3.182   2.378   5.066
    1C        O  791   3.153   2.260   5.033
    1C        O  792   3.167   2.407   5.202
    1C        H  793   4.275   3.032   5.050
    1C        H  794   4.222   2.787   5.062
    1C        H  795   4.518   3.129   5.053
    1C        H  796   4.571   3.344   5.058
    1C        H  797   4.571   3.809   5.045
    1C        H  798   4.409   3.967   5.057
    1C        H  799   4.255   4.144   5.046
    1C        H  800   4.046   4.554   5.015
    1C        H  801   3.815   4.596   5.039
    1C        H  802   3.582   4.609   5.036
    1C        H  803   3.395   4.460   5.031
    1C        H  804   3.157   4.477   5.057
    1C        H  805   3.898   2.462   5.046
    1C        H  806   3.660   2.408   5.051
    1C        H  807   2.998   2.552   5.064
    1C        H  808   3.443   2.497   5.073
    1C        H  809   2.883   2.747   5.081
    1C        H  810   2.666   2.853   5.059
    1C        H  811   2.465   3.283   5.052
    1C        H  812   2.574   3.504   5.062
    1C        H  813   2.472   3.732   5.056
    1C        H  814   2.570   4.180   5.031
    1C        H  815   2.785   4.297   5.054
    1C        H  816   2.751   2.902   1.991
    1C        H  817   2.804   2.658   1.986
    1C        H  818   3.195   2.408   1.994
    1C        H  819   3.421   2.427   1.978
    1C        H  820   3.854   2.524   1.963
    1C        H  821   4.064   2.631   1.967
    1C        H  822   4.270   2.707   1.977
    1C        H  823   4.346   2.945   1.973
    1C        H  824   4.562   3.313   1.967
    1C        H  825   4.482   3.509   1.959
    1C        H  826   4.526   3.747   1.958
    1C        H  827   3.812   4.535   1.955
    1C        H  828   3.933   4.324   1.959
    1C        H  829   4.166   4.277   1.944
    1C        H  830   4.500   3.967   1.965
    1C        H  831   2.662   3.829   1.976
    1C        H  832   2.650   4.077   1.960
    1C        H  833   2.722   4.291   1.962
    1C        H  834   3.385   4.431   1.956
    1C        H  835   3.175   4.342   1.975
    1C        H  836   2.478   2.999   2.018
    1C        H  837   2.432   3.229   1.990
    1C        H  838   2.436   3.698   1.986
    2V3OU   H29  839   2.802   3.550   6.426
    2V3OU   C27  840   2.776   3.498   6.522
    2V3OU   H27  841   2.720   3.575   6.581
    2V3OU   H28  842   2.723   3.403   6.494
    2V3OU   O11  843   2.905   3.465   6.573
    2V3OU   C15  844   2.915   3.395   6.692
    2V3OU   C13  845   3.048   3.374   6.733
    2V3OU   C14  846   3.073   3.267   6.819
    2V3OU   C16  847   2.969   3.183   6.859
    2V3OU    H6  848   2.990   3.095   6.922
    2V3OU   C12  849   3.211   3.223   6.848
    2V3OU    O2  850   3.235   3.124   6.920
    2V3OU   C10  851   3.321   3.297   6.784
    2V3OU    C8  852   3.454   3.265   6.808
    2V3OU   O10  853   3.482   3.157   6.886
    2V3OU   H26  854   3.397   3.118   6.911
    2V3OU    C6  855   3.563   3.343   6.758
    2V3OU    C5  856   3.533   3.464   6.696
    2V3OU    C4  857   3.700   3.286   6.766
    2V3OU    H4  858   3.720   3.224   6.858
    2V3OU    H5  859   3.713   3.221   6.674
    2V3OU    C2  860   3.810   3.393   6.761
    2V3OU    O6  861   3.806   3.466   6.884
    2V3OU   H21  862   3.769   3.552   6.860
    2V3OU    C3  863   3.782   3.491   6.647
    2V3OU    H2  864   3.866   3.564   6.647
    2V3OU    H3  865   3.784   3.438   6.549
    2V3OU   C25  866   3.946   3.324   6.751
    2V3OU    O7  867   4.004   3.302   6.644
    2V3OU   C26  868   4.031   3.288   6.872
    2V3OU   H22  869   4.061   3.386   6.918
    2V3OU   H23  870   4.118   3.225   6.840
    2V3OU    O8  871   3.959   3.204   6.959
    2V3OU   H24  872   3.923   3.262   0.010
    2V3OU    C1  873   3.646   3.558   6.665
    2V3OU    H1  874   3.623   3.615   6.571
    2V3OU    O3  875   3.662   3.653   6.771
    2V3OU   C19  876   3.618   3.788   6.757
    2V3OU    H9  877   3.517   3.801   6.708
    2V3OU    O4  878   3.713   3.844   6.668
    2V3OU   C20  879   3.842   3.871   6.725
    2V3OU   H10  880   3.894   3.772   6.738
    2V3OU   C24  881   3.603   3.850   6.896
    2V3OU   H16  882   3.528   3.792   6.956
    2V3OU   H17  883   3.567   3.955   6.887
    2V3OU   C23  884   3.743   3.867   6.956
    2V3OU   H15  885   3.790   3.766   6.979
    2V3OU    N1  886   3.735   3.952   0.055
    2V3OU   H19  887   3.798   3.920   0.125
    2V3OU   H20  888   3.647   3.928   0.097
    2V3OU   C21  889   3.841   3.942   6.861
    2V3OU   H11  890   3.945   3.922   6.900
    2V3OU    O5  891   3.833   4.084   6.857
    2V3OU   H18  892   3.777   4.105   6.934
    2V3OU   C22  893   3.911   3.943   6.610
    2V3OU   H12  894   3.865   4.044   6.593
    2V3OU   H13  895   3.896   3.888   6.514
    2V3OU   H14  896   4.019   3.954   6.636
    2V3OU   C11  897   3.155   3.469   6.699
    2V3OU    O1  898   3.130   3.583   6.655
    2V3OU    C9  899   3.293   3.421   6.721
    2V3OU    C7  900   3.397   3.504   6.680
    2V3OU    O9  901   3.380   3.611   6.595
    2V3OU   H25  902   3.283   3.616   6.584
    2V3OU   C17  903   2.813   3.310   6.738
    2V3OU    H7  904   2.709   3.340   6.728
    2V3OU   C18  905   2.837   3.199   6.819
    2V3OU    H8  906   2.753   3.153   6.873
    3SOL     OW  907   2.957   3.676   5.162
    3SOL    HW1  908   2.936   3.675   5.260
    3SOL    HW2  909   2.980   3.769   5.133
    4SOL     OW  910   1.218   0.365   0.340
    4SOL    HW1  911   1.143   0.304   0.366
    4SOL    HW2  912   1.201   0.457   0.376
    5SOL     OW  913   3.919   1.895   0.608
    5SOL    HW1  914   3.999   1.882   0.549
    5SOL    HW2  915   3.933   1.974   0.667
    6SOL     OW  916   3.015   2.015   1.985
    6SOL    HW1  917   3.006   2.107   2.023
    6SOL    HW2  918   3.064   2.020   1.898
    7SOL     OW  919   1.516   3.128   4.540
    7SOL    HW1  920   1.534   3.224   4.561
    7SOL    HW2  921   1.602   3.076   4.539
    8SOL     OW  922   1.120   1.950   6.039
    8SOL    HW1  923   1.066   2.030   6.063
    8SOL    HW2  924   1.061   1.869   6.038
    9SOL     OW  925   1.926   2.359   5.487
    9SOL    HW1  926   1.842   2.317   5.521
    9SOL    HW2  927   1.905   2.419   5.410
   10SOL     OW  928   5.715   4.766   1.025
   10SOL    HW1  929   5.796   4.809   0.987
   10SOL    HW2  930   5.738   4.724   1.113
   11SOL     OW  931   2.848   1.352   0.965
   11SOL    HW1  932   2.947   1.354   0.970
   11SOL    HW2  933   2.809   1.398   1.045
   12SOL     OW  934   5.591   5.076   1.384
   12SOL    HW1  935   5.543   5.003   1.336
   12SOL    HW2  936   5.549   5.090   1.473
   13SOL     OW  937   4.419   5.597   1.758
   13SOL    HW1  938   4.361   5.588   1.677
   13SOL    HW2  939   4.362   5.592   1.840
   14SOL     OW  940   4.487   5.880   0.503
   14SOL    HW1  941   4.585   5.901   0.504
   14SOL    HW2  942   4.475   5.781   0.499
   15SOL     OW  943   0.440   0.355   6.565
   15SOL    HW1  944   0.374   0.285   6.536
   15SOL    HW2  945   0.481   0.398   6.485
   16SOL     OW  946   1.786   5.006   5.609
   16SOL    HW1  947   1.708   4.956   5.646
   16SOL    HW2  948   1.758   5.057   5.528
   17SOL     OW  949   0.050   2.448   4.141
   17SOL    HW1  950   0.009   2.538   4.155
   17SOL    HW2  951   0.005   2.402   4.065
   18SOL     OW  952   2.408   0.195   5.448
   18SOL    HW1  953   2.495   0.198   5.399
   18SOL    HW2  954   2.409   0.119   5.513
   19SOL     OW  955   4.402   6.146   3.081
   19SOL    HW1  956   4.472   6.075   3.090
   19SOL    HW2  957   4.329   6.130   3.147
   20SOL     OW  958   0.088   1.910   4.401
   20SOL    HW1  959   0.024   1.987   4.403
   20SOL    HW2  960   0.036   1.824   4.392
   21SOL     OW  961   2.093   3.078   1.796
   21SOL    HW1  962   2.095   3.026   1.711
   21SOL    HW2  963   2.000   3.082   1.831
   22SOL     OW  964   0.434   0.533   0.263
   22SOL    HW1  965   0.524   0.574   0.277
   22SOL    HW2  966   0.369   0.604   0.238
   23SOL     OW  967   0.408   5.622   0.400
   23SOL    HW1  968   0.454   5.626   0.489
   23SOL    HW2  969   0.309   5.612   0.415
   24SOL     OW  970   4.308   0.699   6.800
   24SOL    HW1  971   4.348   0.724   6.888
   24SOL    HW2  972   4.249   0.773   6.767
   25SOL     OW  973   1.874   0.612   5.666
   25SOL    HW1  974   1.894   0.562   5.582
   25SOL    HW2  975   1.905   0.559   5.745
   26SOL     OW  976   2.108   6.271   5.237
   26SOL    HW1  977   2.087   6.256   5.333
   26SOL    HW2  978   2.044   6.336   5.198
   27SOL     OW  979   0.021   0.210   2.338
   27SOL    HW1  980   0.055   0.288   2.286
   27SOL    HW2  981   0.063   0.209   2.429
   28SOL     OW  982   1.957   0.730   5.261
   28SOL    HW1  983   1.969   0.635   5.291
   28SOL    HW2  984   1.990   0.740   5.167
   29SOL     OW  985   5.271   0.419   1.916
   29SOL    HW1  986   5.252   0.362   1.836
   29SOL    HW2  987   5.195   0.412   1.981
   30SOL     OW  988   5.049   0.081   4.492
   30SOL    HW1  989   5.066   7.004   4.519
   30SOL    HW2  990   5.109   0.141   4.545
   31SOL     OW  991   5.942   3.842   4.535
   31SOL    HW1  992   5.938   3.765   4.599
   31SOL    HW2  993   5.896   3.816   4.450
   32SOL     OW  994   3.599   1.491   1.844
   32SOL    HW1  995   3.503   1.464   1.851
   32SOL    HW2  996   3.654   1.412   1.819
   33SOL     OW  997   1.803   4.554   5.078
   33SOL    HW1  998   1.897   4.584   5.095
   33SOL    HW2  999   1.773   4.495   5.153
   34SOL     OW 1000   2.455   6.981   5.676
   34SOL    HW1 1001   2.554   6.992   5.685
   34SOL    HW2 1002   2.419   6.938   5.759
   35SOL     OW 1003   1.133   3.630   4.613
   35SOL    HW1 1004   1.101   3.543   4.578
   35SOL    HW2 1005   1.212   3.661   4.560
   36SOL     OW 1006   5.489   1.118   4.518
   36SOL    HW1 1007   5.399   1.161   4.515
   36SOL    HW2 1008   5.532   1.123   4.428
   37SOL     OW 1009   1.282   5.639   3.954
   37SOL    HW1 1010   1.209   5.582   3.993
   37SOL    HW2 1011   1.369   5.615   3.996
   38SOL     OW 1012   0.768   3.363   1.573
   38SOL    HW1 1013   0.750   3.375   1.671
   38SOL    HW2 1014   0.843   3.298   1.561
   39SOL     OW 1015   6.210   5.462   1.219
   39SOL    HW1 1016   6.140   5.392   1.229
   39SOL    HW2 1017   6.215   5.492   1.123
   40SOL     OW 1018   4.210   0.695   5.974
   40SOL    HW1 1019   4.258   0.607   5.968
   40SOL    HW2 1020   4.277   0.769   5.982
   41SOL     OW 1021   0.270   3.735   1.130
   41SOL    HW1 1022   0.349   3.734   1.069
   41SOL    HW2 1023   0.299   3.766   1.221
   42SOL     OW 1024   2.530   3.502   0.857
   42SOL    HW1 1025   2.480   3.477   0.940
   42SOL    HW2 1026   2.573   3.420   0.819
   43SOL     OW 1027   5.065   0.514   3.533
   43SOL    HW1 1028   5.062   0.424   3.490
   43SOL    HW2 1029   4.973   0.550   3.543
   44SOL     OW 1030   6.945   1.051   6.781
   44SOL    HW1 1031   6.941   1.143   6.742
   44SOL    HW2 1032   6.899   1.050   6.870
   45SOL     OW 1033   2.062   3.711   5.363
   45SOL    HW1 1034   1.999   3.754   5.299
   45SOL    HW2 1035   2.155   3.742   5.343
   46SOL     OW 1036   0.720   5.170   4.347
   46SOL    HW1 1037   0.647   5.234   4.373
   46SOL    HW2 1038   0.806   5.201   4.387
   47SOL     OW 1039   0.170   3.826   5.917
   47SOL    HW1 1040   0.234   3.764   5.871
   47SOL    HW2 1041   0.099   3.773   5.963
   48SOL     OW 1042   0.531   4.393   0.192
   48SOL    HW1 1043   0.571   4.480   0.220
   48SOL    HW2 1044   0.434   4.392   0.216
   49SOL     OW 1045   3.696   0.336   0.001
   49SOL    HW1 1046   3.619   0.314   0.061
   49SOL    HW2 1047   3.756   0.257   7.011
   50SOL     OW 1048   4.658   1.821   5.871
   50SOL    HW1 1049   4.684   1.869   5.786
   50SOL    HW2 1050   4.610   1.885   5.931
   51SOL     OW 1051   0.937   6.407   1.947
   51SOL    HW1 1052   0.960   6.320   1.992
   51SOL    HW2 1053   0.992   6.417   1.864
   52SOL     OW 1054   5.042   2.979   2.931
   52SOL    HW1 1055   5.065   3.017   2.842
   52SOL    HW2 1056   5.117   2.922   2.964
   53SOL     OW 1057   4.136   6.680   1.505
   53SOL    HW1 1058   4.213   6.744   1.512
   53SOL    HW2 1059   4.052   6.731   1.493
   54SOL     OW 1060   1.092   1.397   6.158
   54SOL    HW1 1061   1.080   1.488   6.198
   54SOL    HW2 1062   1.017   1.338   6.187
   55SOL     OW 1063   2.483   3.729   6.347
   55SOL    HW1 1064   2.485   3.736   6.447
   55SOL    HW2 1065   2.551   3.790   6.307
   56SOL     OW 1066   2.075   1.990   6.993
   56SOL    HW1 1067   2.143   1.916   6.996
   56SOL    HW2 1068   2.092   2.046   6.911
   57SOL     OW 1069   4.113   5.759   1.601
   57SOL    HW1 1070   4.067   5.670   1.606
   57SOL    HW2 1071   4.195   5.751   1.544
   58SOL     OW 1072   0.530   0.386   7.014
   58SOL    HW1 1073   0.541   0.468   0.051
   58SOL    HW2 1074   0.619   0.347   6.993
   59SOL     OW 1075   4.378   3.388   0.166
   59SOL    HW1 1076   4.433   3.399   0.249
   59SOL    HW2 1077   4.291   3.435   0.178
   60SOL     OW 1078   6.374   2.593   2.044
   60SOL    HW1 1079   6.353   2.690   2.052
   60SOL    HW2 1080   6.406   2.558   2.132
   61SOL     OW 1081   1.377   5.099   2.804
   61SOL    HW1 1082   1.426   5.070   2.722
   61SOL    HW2 1083   1.295   5.151   2.778
   62SOL     OW 1084   4.879   3.453   3.014
   62SOL    HW1 1085   4.882   3.377   2.949
   62SOL    HW2 1086   4.857   3.417   3.105
   63SOL     OW 1087   3.992   6.969   6.306
   63SOL    HW1 1088   4.051   7.000   6.232
   63SOL    HW2 1089   3.939   6.889   6.276
   64SOL     OW 1090   2.634   1.876   6.743
   64SOL    HW1 1091   2.622   1.889   6.644
   64SOL    HW2 1092   2.544   1.874   6.787
   65SOL     OW 1093   0.723   5.268   5.031
   65SOL    HW1 1094   0.806   5.230   5.071
   65SOL    HW2 1095   0.681   5.332   5.095
   66SOL     OW 1096   4.390   1.540   1.370
   66SOL    HW1 1097   4.321   1.612   1.364
   66SOL    HW2 1098   4.450   1.544   1.291
   67SOL     OW 1099   0.233   2.959   2.520
   67SOL    HW1 1100   0.286   2.907   2.588
   67SOL    HW2 1101   0.287   3.035   2.486
   68SOL     OW 1102   0.303   1.200   6.202
   68SOL    HW1 1103   0.335   1.261   6.274
   68SOL    HW2 1104   0.337   1.108   6.218
   69SOL     OW 1105   1.875   1.322   5.957
   69SOL    HW1 1106   1.876   1.283   5.865
   69SOL    HW2 1107   1.808   1.397   5.961
   70SOL     OW 1108   5.028   5.171   2.994
   70SOL    HW1 1109   5.125   5.149   3.003
   70SOL    HW2 1110   4.994   5.206   3.081
   71SOL     OW 1111   5.297   1.472   5.637
   71SOL    HW1 1112   5.274   1.374   5.636
   71SOL    HW2 1113   5.321   1.501   5.544
   72SOL     OW 1114   7.006   1.806   2.995
   72SOL    HW1 1115   0.006   1.850   3.082
   72SOL    HW2 1116   7.010   1.707   3.006
   73SOL     OW 1117   2.689   1.127   0.897
   73SOL    HW1 1118   2.743   1.209   0.915
   73SOL    HW2 1119   2.662   1.126   0.800
   74SOL     OW 1120   2.430   0.826   0.511
   74SOL    HW1 1121   2.411   0.924   0.502
   74SOL    HW2 1122   2.358   0.783   0.564
   75SOL     OW 1123   2.895   3.092   1.128
   75SOL    HW1 1124   2.921   3.057   1.039
   75SOL    HW2 1125   2.821   3.159   1.117
   76SOL     OW 1126   2.665   5.247   6.250
   76SOL    HW1 1127   2.608   5.226   6.329
   76SOL    HW2 1128   2.712   5.334   6.265
   77SOL     OW 1129   0.504   4.853   5.167
   77SOL    HW1 1130   0.519   4.785   5.095
   77SOL    HW2 1131   0.531   4.943   5.134
   78SOL     OW 1132   4.931   1.571   0.828
   78SOL    HW1 1133   5.022   1.577   0.786
   78SOL    HW2 1134   4.939   1.531   0.919
   79SOL     OW 1135   2.299   4.482   4.007
   79SOL    HW1 1136   2.200   4.485   4.019
   79SOL    HW2 1137   2.340   4.427   4.080
   80SOL     OW 1138   4.029   2.120   5.255
   80SOL    HW1 1139   3.932   2.103   5.275
   80SOL    HW2 1140   4.065   2.042   5.203
   81SOL     OW 1141   2.569   4.518   2.725
   81SOL    HW1 1142   2.481   4.478   2.697
   81SOL    HW2 1143   2.563   4.546   2.821
   82SOL     OW 1144   2.671   0.574   1.552
   82SOL    HW1 1145   2.718   0.620   1.476
   82SOL    HW2 1146   2.573   0.568   1.531
   83SOL     OW 1147   6.131   2.239   3.575
   83SOL    HW1 1148   6.211   2.296   3.556
   83SOL    HW2 1149   6.054   2.270   3.518
   84SOL     OW 1150   5.122   2.209   2.380
   84SOL    HW1 1151   5.057   2.283   2.396
   84SOL    HW2 1152   5.147   2.168   2.468
   85SOL     OW 1153   2.019   5.298   2.835
   85SOL    HW1 1154   1.940   5.261   2.785
   85SOL    HW2 1155   1.987   5.369   2.898
   86SOL     OW 1156   4.212   1.249   6.087
   86SOL    HW1 1157   4.261   1.264   6.173
   86SOL    HW2 1158   4.277   1.249   6.011
   87SOL     OW 1159   3.170   2.334   6.705
   87SOL    HW1 1160   3.134   2.243   6.726
   87SOL    HW2 1161   3.234   2.362   6.776
   88SOL     OW 1162   1.182   2.191   0.502
   88SOL    HW1 1163   1.253   2.238   0.555
   88SOL    HW2 1164   1.128   2.132   0.563
   89SOL     OW 1165   3.881   3.705   5.980
   89SOL    HW1 1166   3.881   3.791   5.929
   89SOL    HW2 1167   3.807   3.647   5.948
   90SOL     OW 1168   6.939   3.962   1.676
   90SOL    HW1 1169   6.956   3.889   1.610
   90SOL    HW2 1170   6.989   3.944   1.760
   91SOL     OW 1171   5.359   4.981   0.597
   91SOL    HW1 1172   5.317   5.012   0.683
   91SOL    HW2 1173   5.454   4.955   0.615
   92SOL     OW 1174   6.459   6.584   6.910
   92SOL    HW1 1175   6.507   6.672   6.910
   92SOL    HW2 1176   6.442   6.555   6.816
   93SOL     OW 1177   2.989   3.236   2.532
   93SOL    HW1 1178   3.008   3.148   2.489
   93SOL    HW2 1179   3.072   3.293   2.528
   94SOL     OW 1180   3.558   1.176   4.156
   94SOL    HW1 1181   3.506   1.169   4.071
   94SOL    HW2 1182   3.522   1.251   4.211
   95SOL     OW 1183   1.149   6.609   4.307
   95SOL    HW1 1184   1.199   6.590   4.391
   95SOL    HW2 1185   1.191   6.687   4.260
   96SOL     OW 1186   0.421   6.601   0.345
   96SOL    HW1 1187   0.454   6.508   0.330
   96SOL    HW2 1188   0.321   6.601   0.342
   97SOL     OW 1189   3.540   5.078   4.466
   97SOL    HW1 1190   3.618   5.106   4.409
   97SOL    HW2 1191   3.573   5.054   4.557
   98SOL     OW 1192   6.680   1.993   4.925
   98SOL    HW1 1193   6.611   2.063   4.902
   98SOL    HW2 1194   6.671   1.916   4.862
   99SOL     OW 1195   4.818   4.563   4.954
   99SOL    HW1 1196   4.886   4.614   4.902
   99SOL    HW2 1197   4.860   4.481   4.993
  100SOL     OW 1198   2.171   2.181   5.572
  100SOL    HW1 1199   2.124   2.269   5.575
  100SOL    HW2 1200   2.160   2.141   5.481
  101SOL     OW 1201   5.148   2.890   2.211
  101SOL    HW1 1202   5.201   2.972   2.227
  101SOL    HW2 1203   5.060   2.897   2.259
  102SOL     OW 1204   4.935   6.431   1.120
  102SOL    HW1 1205   4.936   6.510   1.058
  102SOL    HW2 1206   4.875   6.360   1.082
  103SOL     OW 1207   2.479   2.099   0.929
  103SOL    HW1 1208   2.540   2.045   0.871
  103SOL    HW2 1209   2.404   2.041   0.962
  104SOL     OW 1210   0.960   3.626   1.766
  104SOL    HW1 1211   0.891   3.554   1.768
  104SOL    HW2 1212   0.945   3.684   1.686
  105SOL     OW 1213   0.276   1.871   4.590
  105SOL    HW1 1214   0.200   1.879   4.526
  105SOL    HW2 1215   0.273   1.947   4.655
  106SOL     OW 1216   5.522   3.804   1.263
  106SOL    HW1 1217   5.488   3.872   1.328
  106SOL    HW2 1218   5.464   3.722   1.266
  107SOL     OW 1219   4.572   0.360   2.653
  107SOL    HW1 1220   4.518   0.444   2.665
  107SOL    HW2 1221   4.638   0.353   2.728
  108SOL     OW 1222   3.847   1.090   4.989
  108SOL    HW1 1223   3.800   1.135   4.914
  108SOL    HW2 1224   3.858   1.155   5.065
  109SOL     OW 1225   2.123   1.777   4.628
  109SOL    HW1 1226   2.132   1.737   4.536
  109SOL    HW2 1227   2.202   1.751   4.683
  110SOL     OW 1228   3.971   5.058   5.365
  110SOL    HW1 1229   4.012   5.004   5.438
  110SOL    HW2 1230   3.915   5.131   5.405
  111SOL     OW 1231   0.166   3.508   0.576
  111SOL    HW1 1232   0.226   3.436   0.541
  111SOL    HW2 1233   0.089   3.521   0.514
  112SOL     OW 1234   3.377   6.237   4.709
  112SOL    HW1 1235   3.422   6.284   4.634
  112SOL    HW2 1236   3.284   6.210   4.682
  113SOL     OW 1237   1.416   5.077   2.527
  113SOL    HW1 1238   1.506   5.110   2.498
  113SOL    HW2 1239   1.369   5.037   2.448
  114SOL     OW 1240   6.710   2.452   2.125
  114SOL    HW1 1241   6.633   2.401   2.162
  114SOL    HW2 1242   6.682   2.497   2.040
  115SOL     OW 1243   4.422   1.026   3.256
  115SOL    HW1 1244   4.509   1.021   3.305
  115SOL    HW2 1245   4.347   1.007   3.319
  116SOL     OW 1246   5.969   5.823   6.633
  116SOL    HW1 1247   5.905   5.846   6.707
  116SOL    HW2 1248   5.992   5.725   6.639
  117SOL     OW 1249   2.029   1.456   0.262
  117SOL    HW1 1250   2.062   1.543   0.298
  117SOL    HW2 1251   2.016   1.392   0.337
  118SOL     OW 1252   1.286   2.782   1.368
  118SOL    HW1 1253   1.305   2.727   1.449
  118SOL    HW2 1254   1.202   2.749   1.324
  119SOL     OW 1255   5.185   5.177   4.441
  119SOL    HW1 1256   5.246   5.101   4.463
  119SOL    HW2 1257   5.231   5.263   4.459
  120SOL     OW 1258   4.682   1.402   4.025
  120SOL    HW1 1259   4.661   1.484   4.078
  120SOL    HW2 1260   4.599   1.346   4.015
  121SOL     OW 1261   6.726   4.845   5.517
  121SOL    HW1 1262   6.644   4.841   5.575
  121SOL    HW2 1263   6.807   4.847   5.575
  122SOL     OW 1264   0.062   5.268   5.566
  122SOL    HW1 1265   0.090   5.283   5.471
  122SOL    HW2 1266   0.143   5.248   5.621
  123SOL     OW 1267   0.963   2.058   0.891
  123SOL    HW1 1268   1.013   2.089   0.971
  123SOL    HW2 1269   0.866   2.047   0.915
  124SOL     OW 1270   2.138   3.544   6.368
  124SOL    HW1 1271   2.127   3.625   6.426
  124SOL    HW2 1272   2.235   3.520   6.362
  125SOL     OW 1273   4.045   3.271   1.614
  125SOL    HW1 1274   4.026   3.184   1.661
  125SOL    HW2 1275   4.030   3.259   1.516
  126SOL     OW 1276   3.771   3.335   5.315
  126SOL    HW1 1277   3.730   3.380   5.395
  126SOL    HW2 1278   3.725   3.248   5.300
  127SOL     OW 1279   0.230   4.061   6.063
  127SOL    HW1 1280   0.213   3.976   6.012
  127SOL    HW2 1281   0.321   4.095   6.040
  128SOL     OW 1282   4.805   4.329   6.013
  128SOL    HW1 1283   4.755   4.334   5.926
  128SOL    HW2 1284   4.803   4.234   6.046
  129SOL     OW 1285   0.767   5.395   2.312
  129SOL    HW1 1286   0.768   5.388   2.412
  129SOL    HW2 1287   0.858   5.423   2.281
  130SOL     OW 1288   6.466   4.387   4.627
  130SOL    HW1 1289   6.545   4.373   4.566
  130SOL    HW2 1290   6.498   4.394   4.722
  131SOL     OW 1291   0.451   3.046   1.812
  131SOL    HW1 1292   0.542   3.006   1.800
  131SOL    HW2 1293   0.387   3.003   1.748
  132SOL     OW 1294   3.887   3.919   2.393
  132SOL    HW1 1295   3.893   3.827   2.432
  132SOL    HW2 1296   3.962   3.931   2.327
  133SOL     OW 1297   4.256   4.180   5.678
  133SOL    HW1 1298   4.297   4.201   5.767
  133SOL    HW2 1299   4.162   4.214   5.677
  134SOL     OW 1300   0.195   2.121   0.147
  134SOL    HW1 1301   0.241   2.044   0.104
  134SOL    HW2 1302   0.100   2.126   0.115
  135SOL     OW 1303   4.551   4.976   3.726
  135SOL    HW1 1304   4.454   4.985   3.705
  135SOL    HW2 1305   4.564   4.902   3.792
  136SOL     OW 1306   3.667   5.928   6.496
  136SOL    HW1 1307   3.653   5.978   6.581
  136SOL    HW2 1308   3.764   5.934   6.469
  137SOL     OW 1309   1.931   4.499   6.941
  137SOL    HW1 1310   2.001   4.565   6.916
  137SOL    HW2 1311   1.956   4.455   0.009
  138SOL     OW 1312   0.338   6.482   1.651
  138SOL    HW1 1313   0.296   6.392   1.653
  138SOL    HW2 1314   0.422   6.478   1.596
  139SOL     OW 1315   1.194   0.101   1.207
  139SOL    HW1 1316   1.182   0.124   1.110
  139SOL    HW2 1317   1.274   0.043   1.219
  140SOL     OW 1318   2.915   0.071   3.129
  140SOL    HW1 1319   2.979   0.033   3.196
  140SOL    HW2 1320   2.933   0.169   3.118
  141SOL     OW 1321   2.353   1.830   0.247
  141SOL    HW1 1322   2.338   1.825   0.148
  141SOL    HW2 1323   2.282   1.888   0.287
  142SOL     OW 1324   1.769   4.532   6.268
  142SOL    HW1 1325   1.774   4.496   6.361
  142SOL    HW2 1326   1.750   4.458   6.203
  143SOL     OW 1327   5.030   6.357   2.429
  143SOL    HW1 1328   5.091   6.283   2.400
  143SOL    HW2 1329   4.966   6.379   2.356
  144SOL     OW 1330   2.594   4.866   3.005
  144SOL    HW1 1331   2.690   4.836   2.999
  144SOL    HW2 1332   2.544   4.832   2.925
  145SOL     OW 1333   6.248   6.354   2.734
  145SOL    HW1 1334   6.290   6.426   2.789
  145SOL    HW2 1335   6.151   6.347   2.758
  146SOL     OW 1336   6.595   1.537   4.272
  146SOL    HW1 1337   6.647   1.466   4.320
  146SOL    HW2 1338   6.509   1.499   4.239
  147SOL     OW 1339   6.018   0.070   5.468
  147SOL    HW1 1340   5.947   0.139   5.467
  147SOL    HW2 1341   5.977   6.997   5.467
  148SOL     OW 1342   1.795   0.028   3.548
  148SOL    HW1 1343   1.814   0.068   3.637
  148SOL    HW2 1344   1.769   6.950   3.559
  149SOL     OW 1345   1.692   2.280   4.822
  149SOL    HW1 1346   1.778   2.232   4.803
  149SOL    HW2 1347   1.634   2.278   4.741
  150SOL     OW 1348   5.100   3.027   4.756
  150SOL    HW1 1349   5.004   3.044   4.732
  150SOL    HW2 1350   5.106   2.940   4.805
  151SOL     OW 1351   6.026   2.726   1.688
  151SOL    HW1 1352   6.095   2.754   1.622
  151SOL    HW2 1353   5.944   2.784   1.677
  152SOL     OW 1354   6.207   1.675   6.989
  152SOL    HW1 1355   6.273   1.605   7.017
  152SOL    HW2 1356   6.253   1.744   6.933
  153SOL     OW 1357   1.969   2.082   3.818
  153SOL    HW1 1358   2.015   2.017   3.758
  153SOL    HW2 1359   1.886   2.114   3.774
  154SOL     OW 1360   0.116   2.237   3.565
  154SOL    HW1 1361   0.212   2.234   3.589
  154SOL    HW2 1362   0.075   2.321   3.601
  155SOL     OW 1363   5.983   5.123   3.633
  155SOL    HW1 1364   5.910   5.061   3.662
  155SOL    HW2 1365   5.987   5.201   3.695
  156SOL     OW 1366   4.714   6.892   1.110
  156SOL    HW1 1367   4.674   6.953   1.042
  156SOL    HW2 1368   4.644   6.861   1.173
  157SOL     OW 1369   5.101   0.891   0.598
  157SOL    HW1 1370   5.113   0.809   0.541
  157SOL    HW2 1371   5.072   0.968   0.541
  158SOL     OW 1372   1.237   2.700   5.513
  158SOL    HW1 1373   1.312   2.761   5.539
  158SOL    HW2 1374   1.159   2.755   5.482
  159SOL     OW 1375   0.095   4.993   6.495
  159SOL    HW1 1376   0.080   4.903   6.454
  159SOL    HW2 1377   0.088   5.063   6.424
  160SOL     OW 1378   3.921   6.874   1.809
  160SOL    HW1 1379   3.949   6.949   1.749
  160SOL    HW2 1380   3.882   6.911   1.893
  161SOL     OW 1381   5.831   6.260   1.209
  161SOL    HW1 1382   5.890   6.230   1.285
  161SOL    HW2 1383   5.749   6.203   1.206
  162SOL     OW 1384   4.219   0.116   5.263
  162SOL    HW1 1385   4.125   0.082   5.268
  162SOL    HW2 1386   4.223   0.195   5.202
  163SOL     OW 1387   1.236   3.308   2.814
  163SOL    HW1 1388   1.200   3.236   2.873
  163SOL    HW2 1389   1.196   3.300   2.723
  164SOL     OW 1390   1.690   2.675   1.954
  164SOL    HW1 1391   1.678   2.642   2.047
  164SOL    HW2 1392   1.732   2.603   1.898
  165SOL     OW 1393   0.427   5.850   5.073
  165SOL    HW1 1394   0.388   5.888   4.989
  165SOL    HW2 1395   0.524   5.871   5.077
  166SOL     OW 1396   0.777   5.357   3.826
  166SOL    HW1 1397   0.864   5.389   3.790
  166SOL    HW2 1398   0.720   5.324   3.751
  167SOL     OW 1399   0.550   1.588   3.391
  167SOL    HW1 1400   0.482   1.599   3.464
  167SOL    HW2 1401   0.508   1.542   3.313
  168SOL     OW 1402   3.379   4.173   4.643
  168SOL    HW1 1403   3.313   4.172   4.569
  168SOL    HW2 1404   3.334   4.145   4.728
  169SOL     OW 1405   4.718   3.130   5.724
  169SOL    HW1 1406   4.809   3.141   5.765
  169SOL    HW2 1407   4.649   3.138   5.796
  170SOL     OW 1408   6.034   5.255   2.697
  170SOL    HW1 1409   6.102   5.183   2.706
  170SOL    HW2 1410   5.953   5.220   2.649
  171SOL     OW 1411   3.733   3.210   0.931
  171SOL    HW1 1412   3.825   3.249   0.925
  171SOL    HW2 1413   3.731   3.121   0.885
  172SOL     OW 1414   1.957   1.002   0.347
  172SOL    HW1 1415   1.871   1.030   0.304
  172SOL    HW2 1416   1.937   0.948   0.429
  173SOL     OW 1417   5.454   0.724   4.898
  173SOL    HW1 1418   5.470   0.819   4.873
  173SOL    HW2 1419   5.476   0.710   4.995
  174SOL     OW 1420   6.138   4.930   4.034
  174SOL    HW1 1421   6.190   4.999   3.983
  174SOL    HW2 1422   6.175   4.922   4.126
  175SOL     OW 1423   0.639   5.173   2.217
  175SOL    HW1 1424   0.602   5.166   2.124
  175SOL    HW2 1425   0.665   5.268   2.236
  176SOL     OW 1426   6.004   3.797   0.484
  176SOL    HW1 1427   5.979   3.737   0.408
  176SOL    HW2 1428   5.992   3.892   0.458
  177SOL     OW 1429   5.293   2.460   3.505
  177SOL    HW1 1430   5.322   2.366   3.485
  177SOL    HW2 1431   5.274   2.508   3.419
  178SOL     OW 1432   1.569   5.122   4.252
  178SOL    HW1 1433   1.586   5.211   4.209
  178SOL    HW2 1434   1.475   5.094   4.235
  179SOL     OW 1435   3.046   3.795   2.086
  179SOL    HW1 1436   2.973   3.754   2.140
  179SOL    HW2 1437   3.114   3.837   2.147
  180SOL     OW 1438   4.866   0.449   5.787
  180SOL    HW1 1439   4.922   0.452   5.704
  180SOL    HW2 1440   4.890   0.526   5.847
  181SOL     OW 1441   3.483   6.333   5.586
  181SOL    HW1 1442   3.417   6.258   5.591
  181SOL    HW2 1443   3.479   6.387   5.670
  182SOL     OW 1444   3.160   2.587   5.393
  182SOL    HW1 1445   3.254   2.619   5.402
  182SOL    HW2 1446   3.153   2.526   5.314
  183SOL     OW 1447   1.766   0.972   2.623
  183SOL    HW1 1448   1.741   1.007   2.713
  183SOL    HW2 1449   1.797   0.877   2.631
  184SOL     OW 1450   5.878   6.650   3.868
  184SOL    HW1 1451   5.781   6.629   3.857
  184SOL    HW2 1452   5.922   6.580   3.924
  185SOL     OW 1453   0.561   5.981   5.472
  185SOL    HW1 1454   0.580   6.031   5.556
  185SOL    HW2 1455   0.501   6.036   5.414
  186SOL     OW 1456   3.206   5.301   0.907
  186SOL    HW1 1457   3.238   5.319   1.000
  186SOL    HW2 1458   3.285   5.278   0.849
  187SOL     OW 1459   3.996   5.529   0.225
  187SOL    HW1 1460   4.085   5.512   0.182
  187SOL    HW2 1461   3.982   5.628   0.235
  188SOL     OW 1462   1.313   4.378   3.815
  188SOL    HW1 1463   1.289   4.376   3.718
  188SOL    HW2 1464   1.363   4.463   3.834
  189SOL     OW 1465   6.218   3.814   5.760
  189SOL    HW1 1466   6.244   3.809   5.857
  189SOL    HW2 1467   6.190   3.907   5.737
  190SOL     OW 1468   6.135   6.473   6.858
  190SOL    HW1 1469   6.079   6.548   6.894
  190SOL    HW2 1470   6.123   6.392   6.916
  191SOL     OW 1471   2.259   3.752   6.165
  191SOL    HW1 1472   2.337   3.727   6.222
  191SOL    HW2 1473   2.176   3.752   6.221
  192SOL     OW 1474   0.902   6.681   0.549
  192SOL    HW1 1475   0.966   6.708   0.477
  192SOL    HW2 1476   0.844   6.607   0.515
  193SOL     OW 1477   2.817   6.774   1.899
  193SOL    HW1 1478   2.886   6.824   1.847
  193SOL    HW2 1479   2.729   6.820   1.890
  194SOL     OW 1480   4.196   6.368   3.666
  194SOL    HW1 1481   4.244   6.300   3.610
  194SOL    HW2 1482   4.126   6.413   3.610
  195SOL     OW 1483   3.115   1.443   1.375
  195SOL    HW1 1484   3.019   1.471   1.370
  195SOL    HW2 1485   3.121   1.357   1.426
  196SOL     OW 1486   3.786   3.018   1.561
  196SOL    HW1 1487   3.766   3.105   1.515
  196SOL    HW2 1488   3.881   3.017   1.590
  197SOL     OW 1489   0.743   6.981   1.164
  197SOL    HW1 1490   0.714   6.887   1.181
  197SOL    HW2 1491   0.795   7.015   1.242
  198SOL     OW 1492   6.075   0.349   5.326
  198SOL    HW1 1493   6.167   0.310   5.331
  198SOL    HW2 1494   6.065   0.419   5.396
  199SOL     OW 1495   1.603   0.943   2.893
  199SOL    HW1 1496   1.610   0.853   2.850
  199SOL    HW2 1497   1.509   0.978   2.882
  200SOL     OW 1498   1.775   3.233   3.581
  200SOL    HW1 1499   1.721   3.296   3.525
  200SOL    HW2 1500   1.822   3.168   3.521
  201SOL     OW 1501   5.323   1.131   6.796
  201SOL    HW1 1502   5.372   1.218   6.795
  201SOL    HW2 1503   5.379   1.061   6.752
  202SOL     OW 1504   4.121   0.701   2.852
  202SOL    HW1 1505   4.068   0.742   2.926
  202SOL    HW2 1506   4.158   0.773   2.793
  203SOL     OW 1507   5.619   2.967   0.863
  203SOL    HW1 1508   5.560   3.007   0.793
  203SOL    HW2 1509   5.715   2.980   0.837
  204SOL     OW 1510   2.290   5.890   0.562
  204SOL    HW1 1511   2.304   5.876   0.660
  204SOL    HW2 1512   2.366   5.943   0.525
  205SOL     OW 1513   5.233   0.594   1.188
  205SOL    HW1 1514   5.213   0.508   1.140
  205SOL    HW2 1515   5.310   0.581   1.250
  206SOL     OW 1516   0.219   5.899   1.464
  206SOL    HW1 1517   0.313   5.880   1.435
  206SOL    HW2 1518   0.212   5.888   1.563
  207SOL     OW 1519   6.326   2.646   5.959
  207SOL    HW1 1520   6.329   2.744   5.944
  207SOL    HW2 1521   6.273   2.602   5.886
  208SOL     OW 1522   5.103   3.530   1.392
  208SOL    HW1 1523   5.129   3.478   1.310
  208SOL    HW2 1524   5.012   3.503   1.421
  209SOL     OW 1525   6.382   0.771   4.129
  209SOL    HW1 1526   6.451   0.775   4.057
  209SOL    HW2 1527   6.401   0.842   4.197
  210SOL     OW 1528   5.062   2.418   6.839
  210SOL    HW1 1529   4.990   2.377   6.783
  210SOL    HW2 1530   5.132   2.457   6.780
  211SOL     OW 1531   0.224   4.633   2.130
  211SOL    HW1 1532   0.143   4.622   2.073
  211SOL    HW2 1533   0.306   4.627   2.073
  212SOL     OW 1534   1.045   5.405   5.197
  212SOL    HW1 1535   1.144   5.391   5.197
  212SOL    HW2 1536   1.023   5.488   5.249
  213SOL     OW 1537   4.212   2.140   1.264
  213SOL    HW1 1538   4.254   2.223   1.301
  213SOL    HW2 1539   4.168   2.090   1.339
  214SOL     OW 1540   0.169   5.377   3.884
  214SOL    HW1 1541   0.196   5.361   3.978
  214SOL    HW2 1542   0.238   5.342   3.822
  215SOL     OW 1543   4.061   3.473   3.630
  215SOL    HW1 1544   3.979   3.471   3.686
  215SOL    HW2 1545   4.049   3.412   3.551
  216SOL     OW 1546   3.949   6.602   4.579
  216SOL    HW1 1547   3.870   6.641   4.532
  216SOL    HW2 1548   3.956   6.641   4.671
  217SOL     OW 1549   6.215   2.087   4.769
  217SOL    HW1 1550   6.192   1.995   4.800
  217SOL    HW2 1551   6.272   2.081   4.687
  218SOL     OW 1552   2.309   4.349   5.606
  218SOL    HW1 1553   2.338   4.390   5.693
  218SOL    HW2 1554   2.372   4.377   5.534
  219SOL     OW 1555   3.750   6.593   6.582
  219SOL    HW1 1556   3.790   6.569   6.494
  219SOL    HW2 1557   3.821   6.626   6.644
  220SOL     OW 1558   0.992   5.385   0.053
  220SOL    HW1 1559   1.062   5.316   0.033
  220SOL    HW2 1560   1.012   5.469   0.003
  221SOL     OW 1561   6.253   4.435   4.449
  221SOL    HW1 1562   6.212   4.526   4.436
  221SOL    HW2 1563   6.326   4.442   4.518
  222SOL     OW 1564   1.296   0.358   4.653
  222SOL    HW1 1565   1.303   0.260   4.639
  222SOL    HW2 1566   1.268   0.377   4.747
  223SOL     OW 1567   5.601   5.550   1.686
  223SOL    HW1 1568   5.509   5.563   1.650
  223SOL    HW2 1569   5.659   5.511   1.615
  224SOL     OW 1570   5.383   4.009   2.528
  224SOL    HW1 1571   5.381   3.925   2.582
  224SOL    HW2 1572   5.348   4.085   2.583
  225SOL     OW 1573   4.327   6.205   1.489
  225SOL    HW1 1574   4.313   6.303   1.498
  225SOL    HW2 1575   4.239   6.159   1.480
  226SOL     OW 1576   1.661   5.421   2.584
  226SOL    HW1 1577   1.601   5.410   2.504
  226SOL    HW2 1578   1.608   5.458   2.660
  227SOL     OW 1579   0.807   3.676   3.068
  227SOL    HW1 1580   0.736   3.743   3.089
  227SOL    HW2 1581   0.786   3.632   2.980
  228SOL     OW 1582   3.854   5.457   3.353
  228SOL    HW1 1583   3.787   5.388   3.383
  228SOL    HW2 1584   3.829   5.546   3.392
  229SOL     OW 1585   5.642   6.093   2.372
  229SOL    HW1 1586   5.629   6.186   2.409
  229SOL    HW2 1587   5.739   6.080   2.352
  230SOL     OW 1588   1.349   4.567   5.135
  230SOL    HW1 1589   1.269   4.556   5.076
  230SOL    HW2 1590   1.419   4.618   5.086
  231SOL     OW 1591   0.073   1.906   6.930
  231SOL    HW1 1592   0.158   1.926   6.880
  231SOL    HW2 1593   0.085   1.822   6.983
  232SOL     OW 1594   1.620   3.277   0.233
  232SOL    HW1 1595   1.670   3.205   0.281
  232SOL    HW2 1596   1.624   3.362   0.285
  233SOL     OW 1597   3.589   0.142   0.861
  233SOL    HW1 1598   3.577   0.046   0.835
  233SOL    HW2 1599   3.555   0.201   0.787
  234SOL     OW 1600   1.351   5.239   0.504
  234SOL    HW1 1601   1.329   5.223   0.600
  234SOL    HW2 1602   1.280   5.200   0.446
  235SOL     OW 1603   4.247   3.207   5.771
  235SOL    HW1 1604   4.205   3.249   5.690
  235SOL    HW2 1605   4.194   3.127   5.798
  236SOL     OW 1606   0.066   0.434   6.517
  236SOL    HW1 1607   7.011   0.476   6.464
  236SOL    HW2 1608   0.032   0.411   6.609
  237SOL     OW 1609   5.926   0.590   2.438
  237SOL    HW1 1610   5.979   0.559   2.517
  237SOL    HW2 1611   5.847   0.642   2.469
  238SOL     OW 1612   0.436   2.386   3.356
  238SOL    HW1 1613   0.348   2.386   3.308
  238SOL    HW2 1614   0.449   2.299   3.403
  239SOL     OW 1615   6.566   4.902   6.273
  239SOL    HW1 1616   6.485   4.854   6.307
  239SOL    HW2 1617   6.537   4.981   6.218
  240SOL     OW 1618   0.341   2.678   4.330
  240SOL    HW1 1619   0.369   2.617   4.405
  240SOL    HW2 1620   0.335   2.772   4.364
  241SOL     OW 1621   6.119   2.747   4.184
  241SOL    HW1 1622   6.209   2.772   4.220
  241SOL    HW2 1623   6.056   2.729   4.260
  242SOL     OW 1624   2.569   2.413   3.450
  242SOL    HW1 1625   2.651   2.355   3.452
  242SOL    HW2 1626   2.549   2.446   3.542
  243SOL     OW 1627   4.877   1.096   6.598
  243SOL    HW1 1628   4.847   1.037   6.523
  243SOL    HW2 1629   4.954   1.054   6.645
  244SOL     OW 1630   1.623   0.507   5.854
  244SOL    HW1 1631   1.601   0.510   5.757
  244SOL    HW2 1632   1.674   0.589   5.880
  245SOL     OW 1633   5.168   1.910   4.547
  245SOL    HW1 1634   5.186   1.987   4.607
  245SOL    HW2 1635   5.244   1.900   4.482
  246SOL     OW 1636   5.536   3.851   4.474
  246SOL    HW1 1637   5.521   3.950   4.482
  246SOL    HW2 1638   5.542   3.826   4.377
  247SOL     OW 1639   1.833   0.225   2.779
  247SOL    HW1 1640   1.882   0.159   2.835
  247SOL    HW2 1641   1.882   0.239   2.693
  248SOL     OW 1642   6.577   2.412   3.206
  248SOL    HW1 1643   6.508   2.340   3.210
  248SOL    HW2 1644   6.601   2.431   3.111
  249SOL     OW 1645   1.890   6.394   4.434
  249SOL    HW1 1646   1.854   6.302   4.448
  249SOL    HW2 1647   1.983   6.389   4.398
  250SOL     OW 1648   5.844   2.905   6.961
  250SOL    HW1 1649   5.918   2.843   6.934
  250SOL    HW2 1650   5.758   2.873   6.922
  251SOL     OW 1651   2.372   0.195   2.561
  251SOL    HW1 1652   2.457   0.218   2.608
  251SOL    HW2 1653   2.386   0.204   2.462
  252SOL     OW 1654   6.797   3.233   6.591
  252SOL    HW1 1655   6.855   3.256   6.670
  252SOL    HW2 1656   6.704   3.265   6.608
  253SOL     OW 1657   1.924   4.365   5.359
  253SOL    HW1 1658   1.855   4.431   5.386
  253SOL    HW2 1659   2.015   4.406   5.367
  254SOL     OW 1660   4.952   3.435   7.004
  254SOL    HW1 1661   4.873   3.420   0.045
  254SOL    HW2 1662   4.995   3.347   6.982
  255SOL     OW 1663   4.196   2.275   1.939
  255SOL    HW1 1664   4.098   2.265   1.923
  255SOL    HW2 1665   4.239   2.316   1.858
  256SOL     OW 1666   0.460   6.118   1.128
  256SOL    HW1 1667   0.523   6.177   1.078
  256SOL    HW2 1668   0.377   6.170   1.152
  257SOL     OW 1669   3.214   5.860   6.218
  257SOL    HW1 1670   3.264   5.924   6.276
  257SOL    HW2 1671   3.173   5.910   6.141
  258SOL     OW 1672   4.909   5.460   4.366
  258SOL    HW1 1673   4.996   5.500   4.397
  258SOL    HW2 1674   4.835   5.525   4.382
  259SOL     OW 1675   6.864   1.172   1.821
  259SOL    HW1 1676   6.895   1.247   1.879
  259SOL    HW2 1677   6.833   1.096   1.877
  260SOL     OW 1678   6.164   6.886   5.861
  260SOL    HW1 1679   6.233   6.833   5.811
  260SOL    HW2 1680   6.205   6.923   5.945
  261SOL     OW 1681   0.323   1.179   3.111
  261SOL    HW1 1682   0.240   1.141   3.152
  261SOL    HW2 1683   0.305   1.205   3.017
  262SOL     OW 1684   1.846   5.475   0.782
  262SOL    HW1 1685   1.918   5.506   0.720
  262SOL    HW2 1686   1.869   5.502   0.876
  263SOL     OW 1687   1.183   5.009   5.078
  263SOL    HW1 1688   1.183   4.995   5.177
  263SOL    HW2 1689   1.266   5.057   5.051
  264SOL     OW 1690   4.015   4.034   0.823
  264SOL    HW1 1691   4.041   3.956   0.880
  264SOL    HW2 1692   4.020   4.008   0.727
  265SOL     OW 1693   4.245   5.838   3.996
  265SOL    HW1 1694   4.214   5.756   3.948
  265SOL    HW2 1695   4.195   5.847   4.082
  266SOL     OW 1696   4.478   3.920   0.036
  266SOL    HW1 1697   4.512   3.998   7.002
  266SOL    HW2 1698   4.525   3.916   0.124
  267SOL     OW 1699   2.482   2.389   6.283
  267SOL    HW1 1700   2.547   2.317   6.259
  267SOL    HW2 1701   2.473   2.453   6.207
  268SOL     OW 1702   1.591   3.902   2.447
  268SOL    HW1 1703   1.567   3.982   2.393
  268SOL    HW2 1704   1.646   3.930   2.526
  269SOL     OW 1705   2.868   1.492   5.694
  269SOL    HW1 1706   2.777   1.533   5.699
  269SOL    HW2 1707   2.890   1.472   5.598
  270SOL     OW 1708   5.366   5.380   4.489
  270SOL    HW1 1709   5.386   5.474   4.515
  270SOL    HW2 1710   5.423   5.318   4.543
  271SOL     OW 1711   2.527   0.675   0.206
  271SOL    HW1 1712   2.581   0.758   0.221
  271SOL    HW2 1713   2.431   0.699   0.197
  272SOL     OW 1714   5.554   4.377   0.020
  272SOL    HW1 1715   5.551   4.443   6.964
  272SOL    HW2 1716   5.521   4.421   0.104
  273SOL     OW 1717   0.371   5.675   4.070
  273SOL    HW1 1718   0.339   5.681   3.975
  273SOL    HW2 1719   0.469   5.655   4.069
  274SOL     OW 1720   5.224   3.206   2.313
  274SOL    HW1 1721   5.166   3.286   2.297
  274SOL    HW2 1722   5.319   3.229   2.289
  275SOL     OW 1723   5.791   4.981   5.749
  275SOL    HW1 1724   5.802   5.066   5.697
  275SOL    HW2 1725   5.709   4.933   5.718
  276SOL     OW 1726   0.746   0.509   4.697
  276SOL    HW1 1727   0.692   0.533   4.616
  276SOL    HW2 1728   0.843   0.509   4.673
  277SOL     OW 1729   3.962   3.358   5.938
  277SOL    HW1 1730   3.938   3.265   5.910
  277SOL    HW2 1731   3.939   3.422   5.865
  278SOL     OW 1732   6.246   5.016   1.846
  278SOL    HW1 1733   6.166   5.062   1.807
  278SOL    HW2 1734   6.246   5.028   1.945
  279SOL     OW 1735   6.394   3.311   4.095
  279SOL    HW1 1736   6.486   3.347   4.108
  279SOL    HW2 1737   6.372   3.246   4.168
  280SOL     OW 1738   4.365   1.145   2.414
  280SOL    HW1 1739   4.307   1.223   2.389
  280SOL    HW2 1740   4.319   1.061   2.388
  281SOL     OW 1741   5.181   5.750   5.874
  281SOL    HW1 1742   5.218   5.711   5.958
  281SOL    HW2 1743   5.107   5.813   5.898
  282SOL     OW 1744   0.699   1.593   0.152
  282SOL    HW1 1745   0.757   1.668   0.186
  282SOL    HW2 1746   0.756   1.521   0.115
  283SOL     OW 1747   6.184   3.959   2.009
  283SOL    HW1 1748   6.161   4.056   2.004
  283SOL    HW2 1749   6.198   3.932   2.104
  284SOL     OW 1750   5.868   6.918   2.719
  284SOL    HW1 1751   5.863   7.004   2.770
  284SOL    HW2 1752   5.814   6.925   2.635
  285SOL     OW 1753   4.957   5.890   6.137
  285SOL    HW1 1754   4.958   5.931   6.228
  285SOL    HW2 1755   4.925   5.796   6.142
  286SOL     OW 1756   3.718   5.699   5.293
  286SOL    HW1 1757   3.622   5.684   5.313
  286SOL    HW2 1758   3.764   5.610   5.285
  287SOL     OW 1759   4.143   6.618   1.083
  287SOL    HW1 1760   4.102   6.647   0.997
  287SOL    HW2 1761   4.125   6.686   1.153
  288SOL     OW 1762   3.286   0.610   0.384
  288SOL    HW1 1763   3.210   0.583   0.443
  288SOL    HW2 1764   3.288   0.709   0.375
  289SOL     OW 1765   5.180   5.317   4.817
  289SOL    HW1 1766   5.081   5.325   4.809
  289SOL    HW2 1767   5.212   5.361   4.900
  290SOL     OW 1768   2.805   1.042   4.653
  290SOL    HW1 1769   2.744   1.089   4.717
  290SOL    HW2 1770   2.888   1.013   4.702
  291SOL     OW 1771   6.034   1.280   4.983
  291SOL    HW1 1772   6.055   1.182   4.975
  291SOL    HW2 1773   5.957   1.292   5.046
  292SOL     OW 1774   2.011   0.553   3.818
  292SOL    HW1 1775   2.049   0.574   3.728
  292SOL    HW2 1776   2.071   0.590   3.889
  293SOL     OW 1777   5.689   0.944   3.278
  293SOL    HW1 1778   5.608   0.939   3.220
  293SOL    HW2 1779   5.717   0.851   3.304
  294SOL     OW 1780   6.713   0.751   6.535
  294SOL    HW1 1781   6.630   0.711   6.573
  294SOL    HW2 1782   6.699   0.848   6.516
  295SOL     OW 1783   0.643   1.023   5.153
  295SOL    HW1 1784   0.583   1.099   5.179
  295SOL    HW2 1785   0.652   0.960   5.230
  296SOL     OW 1786   6.868   1.439   6.936
  296SOL    HW1 1787   6.835   1.358   6.984
  296SOL    HW2 1788   6.950   1.416   6.884
  297SOL     OW 1789   5.321   4.515   3.039
  297SOL    HW1 1790   5.346   4.585   3.106
  297SOL    HW2 1791   5.221   4.509   3.033
  298SOL     OW 1792   4.119   6.639   5.339
  298SOL    HW1 1793   4.111   6.733   5.305
  298SOL    HW2 1794   4.033   6.611   5.381
  299SOL     OW 1795   0.037   1.256   6.147
  299SOL    HW1 1796   0.117   1.208   6.182
  299SOL    HW2 1797   7.010   1.304   6.222
  300SOL     OW 1798   4.004   6.343   4.309
  300SOL    HW1 1799   3.931   6.410   4.298
  300SOL    HW2 1800   4.070   6.353   4.235
  301SOL     OW 1801   6.490   6.940   5.050
  301SOL    HW1 1802   6.411   6.997   5.029
  301SOL    HW2 1803   6.467   6.875   5.122
  302SOL     OW 1804   0.779   6.768   2.028
  302SOL    HW1 1805   0.823   6.707   1.962
  302SOL    HW2 1806   0.845   6.838   2.057
  303SOL     OW 1807   4.895   5.503   2.638
  303SOL    HW1 1808   4.801   5.472   2.650
  303SOL    HW2 1809   4.909   5.588   2.688
  304SOL     OW 1810   1.452   1.569   5.082
  304SOL    HW1 1811   1.378   1.509   5.052
  304SOL    HW2 1812   1.527   1.513   5.118
  305SOL     OW 1813   2.803   1.668   0.907
  305SOL    HW1 1814   2.736   1.708   0.968
  305SOL    HW2 1815   2.803   1.569   0.917
  306SOL     OW 1816   0.660   6.608   2.849
  306SOL    HW1 1817   0.664   6.678   2.920
  306SOL    HW2 1818   0.753   6.582   2.822
  307SOL     OW 1819   4.071   3.503   4.796
  307SOL    HW1 1820   4.162   3.469   4.772
  307SOL    HW2 1821   4.008   3.488   4.720
  308SOL     OW 1822   6.150   2.966   0.595
  308SOL    HW1 1823   6.165   2.882   0.543
  308SOL    HW2 1824   6.235   2.992   0.641
  309SOL     OW 1825   1.944   5.129   0.251
  309SOL    HW1 1826   2.024   5.170   0.207
  309SOL    HW2 1827   1.914   5.188   0.327
  310SOL     OW 1828   4.956   6.118   5.651
  310SOL    HW1 1829   4.923   6.209   5.678
  310SOL    HW2 1830   5.038   6.128   5.595
  311SOL     OW 1831   1.844   6.155   2.004
  311SOL    HW1 1832   1.870   6.124   2.096
  311SOL    HW2 1833   1.857   6.254   1.997
  312SOL     OW 1834   3.327   0.300   4.567
  312SOL    HW1 1835   3.296   0.349   4.649
  312SOL    HW2 1836   3.427   0.293   4.569
  313SOL     OW 1837   3.393   2.891   3.468
  313SOL    HW1 1838   3.364   2.987   3.469
  313SOL    HW2 1839   3.390   2.855   3.561
  314SOL     OW 1840   2.176   4.391   6.411
  314SOL    HW1 1841   2.197   4.407   6.508
  314SOL    HW2 1842   2.143   4.476   6.370
  315SOL     OW 1843   5.939   6.952   4.615
  315SOL    HW1 1844   5.953   6.914   4.524
  315SOL    HW2 1845   5.958   0.032   4.614
  316SOL     OW 1846   4.128   1.151   4.875
  316SOL    HW1 1847   4.126   1.063   4.828
  316SOL    HW2 1848   4.048   1.205   4.849
  317SOL     OW 1849   0.478   1.077   2.114
  317SOL    HW1 1850   0.503   1.003   2.052
  317SOL    HW2 1851   0.386   1.060   2.149
  318SOL     OW 1852   1.025   1.775   3.900
  318SOL    HW1 1853   1.066   1.848   3.845
  318SOL    HW2 1854   1.000   1.811   3.989
  319SOL     OW 1855   0.322   2.167   2.072
  319SOL    HW1 1856   0.242   2.169   2.012
  319SOL    HW2 1857   0.368   2.079   2.062
  320SOL     OW 1858   5.153   1.014   6.601
  320SOL    HW1 1859   5.150   0.916   6.621
  320SOL    HW2 1860   5.205   1.060   6.673
  321SOL     OW 1861   4.235   3.451   1.243
  321SOL    HW1 1862   4.301   3.479   1.313
  321SOL    HW2 1863   4.253   3.357   1.215
  322SOL     OW 1864   3.185   2.052   0.387
  322SOL    HW1 1865   3.118   1.979   0.375
  322SOL    HW2 1866   3.260   2.019   0.445
  323SOL     OW 1867   0.377   4.491   1.698
  323SOL    HW1 1868   0.442   4.451   1.634
  323SOL    HW2 1869   0.284   4.461   1.675
  324SOL     OW 1870   6.647   0.505   3.690
  324SOL    HW1 1871   6.659   0.577   3.622
  324SOL    HW2 1872   6.726   0.503   3.751
  325SOL     OW 1873   6.659   2.732   0.464
  325SOL    HW1 1874   6.648   2.657   0.530
  325SOL    HW2 1875   6.738   2.714   0.405
  326SOL     OW 1876   5.949   5.947   6.153
  326SOL    HW1 1877   5.863   5.986   6.183
  326SOL    HW2 1878   5.945   5.927   6.055
  327SOL     OW 1879   3.993   5.918   6.361
  327SOL    HW1 1880   4.076   5.865   6.377
  327SOL    HW2 1881   4.003   6.010   6.400
  328SOL     OW 1882   2.287   4.221   3.368
  328SOL    HW1 1883   2.198   4.265   3.357
  328SOL    HW2 1884   2.290   4.138   3.313
  329SOL     OW 1885   3.228   2.989   2.999
  329SOL    HW1 1886   3.305   2.926   3.004
  329SOL    HW2 1887   3.187   2.984   2.908
  330SOL     OW 1888   1.886   3.941   6.590
  330SOL    HW1 1889   1.793   3.916   6.617
  330SOL    HW2 1890   1.883   4.011   6.519
  331SOL     OW 1891   4.911   5.802   4.178
  331SOL    HW1 1892   5.000   5.758   4.172
  331SOL    HW2 1893   4.842   5.744   4.135
  332SOL     OW 1894   6.082   2.196   2.818
  332SOL    HW1 1895   6.066   2.223   2.913
  332SOL    HW2 1896   6.011   2.236   2.760
  333SOL     OW 1897   3.166   6.246   3.795
  333SOL    HW1 1898   3.114   6.165   3.767
  333SOL    HW2 1899   3.170   6.250   3.895
  334SOL     OW 1900   3.767   3.250   4.309
  334SOL    HW1 1901   3.789   3.185   4.237
  334SOL    HW2 1902   3.826   3.233   4.388
  335SOL     OW 1903   4.437   1.458   0.008
  335SOL    HW1 1904   4.422   1.482   0.104
  335SOL    HW2 1905   4.349   1.456   6.979
  336SOL     OW 1906   3.663   1.927   4.865
  336SOL    HW1 1907   3.742   1.987   4.860
  336SOL    HW2 1908   3.592   1.959   4.802
  337SOL     OW 1909   1.316   1.686   5.302
  337SOL    HW1 1910   1.359   1.644   5.223
  337SOL    HW2 1911   1.309   1.785   5.288
  338SOL     OW 1912   5.110   1.390   1.594
  338SOL    HW1 1913   5.154   1.461   1.648
  338SOL    HW2 1914   5.074   1.431   1.509
  339SOL     OW 1915   3.231   5.052   5.528
  339SOL    HW1 1916   3.313   5.097   5.491
  339SOL    HW2 1917   3.240   5.045   5.628
  340SOL     OW 1918   5.458   4.143   4.785
  340SOL    HW1 1919   5.558   4.152   4.786
  340SOL    HW2 1920   5.419   4.202   4.856
  341SOL     OW 1921   6.136   0.281   1.989
  341SOL    HW1 1922   6.203   0.321   2.051
  341SOL    HW2 1923   6.049   0.329   1.998
  342SOL     OW 1924   4.795   0.744   1.357
  342SOL    HW1 1925   4.740   0.810   1.409
  342SOL    HW2 1926   4.759   0.738   1.264
  343SOL     OW 1927   5.506   0.413   2.108
  343SOL    HW1 1928   5.480   0.472   2.032
  343SOL    HW2 1929   5.438   0.342   2.120
  344SOL     OW 1930   6.483   2.853   1.638
  344SOL    HW1 1931   6.444   2.774   1.685
  344SOL    HW2 1932   6.410   2.909   1.600
  345SOL     OW 1933   0.207   3.200   3.593
  345SOL    HW1 1934   0.168   3.141   3.523
  345SOL    HW2 1935   0.150   3.281   3.604
  346SOL     OW 1936   0.477   0.466   3.722
  346SOL    HW1 1937   0.381   0.442   3.736
  346SOL    HW2 1938   0.535   0.403   3.773
  347SOL     OW 1939   1.809   4.183   1.608
  347SOL    HW1 1940   1.816   4.166   1.706
  347SOL    HW2 1941   1.730   4.133   1.571
  348SOL     OW 1942   5.943   4.857   0.938
  348SOL    HW1 1943   5.976   4.870   0.845
  348SOL    HW2 1944   6.013   4.811   0.992
  349SOL     OW 1945   6.068   5.317   6.770
  349SOL    HW1 1946   6.154   5.269   6.753
  349SOL    HW2 1947   6.053   5.322   6.869
  350SOL     OW 1948   2.825   0.380   0.858
  350SOL    HW1 1949   2.851   0.477   0.857
  350SOL    HW2 1950   2.767   0.362   0.937
  351SOL     OW 1951   3.478   4.242   1.079
  351SOL    HW1 1952   3.561   4.277   1.122
  351SOL    HW2 1953   3.437   4.171   1.136
  352SOL     OW 1954   3.868   0.645   2.526
  352SOL    HW1 1955   3.917   0.563   2.556
  352SOL    HW2 1956   3.770   0.632   2.540
  353SOL     OW 1957   2.557   6.138   0.372
  353SOL    HW1 1958   2.502   6.174   0.297
  353SOL    HW2 1959   2.574   6.210   0.438
  354SOL     OW 1960   2.238   2.237   0.611
  354SOL    HW1 1961   2.279   2.275   0.693
  354SOL    HW2 1962   2.241   2.304   0.537
  355SOL     OW 1963   0.135   2.592   2.377
  355SOL    HW1 1964   0.083   2.576   2.294
  355SOL    HW2 1965   0.097   2.670   2.426
  356SOL     OW 1966   2.675   0.048   6.153
  356SOL    HW1 1967   2.617   6.996   6.111
  356SOL    HW2 1968   2.754   0.005   6.196
  357SOL     OW 1969   6.344   6.095   4.558
  357SOL    HW1 1970   6.403   6.105   4.638
  357SOL    HW2 1971   6.270   6.032   4.578
  358SOL     OW 1972   3.513   6.198   0.031
  358SOL    HW1 1973   3.536   6.104   0.055
  358SOL    HW2 1974   3.518   6.256   0.112
  359SOL     OW 1975   1.920   2.246   0.680
  359SOL    HW1 1976   1.931   2.232   0.582
  359SOL    HW2 1977   1.936   2.342   0.703
  360SOL     OW 1978   1.894   4.233   2.647
  360SOL    HW1 1979   1.941   4.259   2.562
  360SOL    HW2 1980   1.807   4.189   2.624
  361SOL     OW 1981   6.355   3.079   2.448
  361SOL    HW1 1982   6.274   3.042   2.401
  361SOL    HW2 1983   6.354   3.179   2.442
  362SOL     OW 1984   4.043   3.784   2.785
  362SOL    HW1 1985   3.957   3.835   2.793
  362SOL    HW2 1986   4.101   3.827   2.717
  363SOL     OW 1987   4.605   5.724   1.401
  363SOL    HW1 1988   4.599   5.627   1.375
  363SOL    HW2 1989   4.699   5.746   1.426
  364SOL     OW 1990   1.106   0.724   0.200
  364SOL    HW1 1991   1.177   0.740   0.130
  364SOL    HW2 1992   1.150   0.700   0.286
  365SOL     OW 1993   5.016   0.443   3.999
  365SOL    HW1 1994   5.053   0.479   3.913
  365SOL    HW2 1995   5.035   0.507   4.073
  366SOL     OW 1996   5.543   1.291   6.982
  366SOL    HW1 1997   5.614   1.360   6.993
  366SOL    HW2 1998   5.577   1.203   7.017
  367SOL     OW 1999   6.189   0.122   6.899
  367SOL    HW1 2000   6.198   0.066   6.817
  367SOL    HW2 2001   6.132   0.074   6.966
  368SOL     OW 2002   2.742   1.167   5.463
  368SOL    HW1 2003   2.829   1.118   5.449
  368SOL    HW2 2004   2.752   1.261   5.430
  369SOL     OW 2005   4.891   3.907   6.987
  369SOL    HW1 2006   4.963   3.838   6.976
  369SOL    HW2 2007   4.901   3.978   6.917
  370SOL     OW 2008   1.585   2.021   3.816
  370SOL    HW1 2009   1.515   2.004   3.747
  370SOL    HW2 2010   1.662   2.069   3.775
  371SOL     OW 2011   2.793   4.822   0.690
  371SOL    HW1 2012   2.866   4.784   0.633
  371SOL    HW2 2013   2.708   4.824   0.638
  372SOL     OW 2014   2.939   6.025   5.769
  372SOL    HW1 2015   3.027   6.071   5.775
  372SOL    HW2 2016   2.875   6.070   5.832
  373SOL     OW 2017   5.374   4.303   2.828
  373SOL    HW1 2018   5.371   4.370   2.902
  373SOL    HW2 2019   5.305   4.232   2.843
  374SOL     OW 2020   2.492   2.505   2.417
  374SOL    HW1 2021   2.556   2.486   2.343
  374SOL    HW2 2022   2.412   2.552   2.380
  375SOL     OW 2023   6.953   5.066   4.101
  375SOL    HW1 2024   6.948   5.010   4.018
  375SOL    HW2 2025   0.030   5.083   4.124
  376SOL     OW 2026   4.713   0.602   3.224
  376SOL    HW1 2027   4.774   0.528   3.252
  376SOL    HW2 2028   4.761   0.689   3.232
  377SOL     OW 2029   2.489   3.388   6.059
  377SOL    HW1 2030   2.413   3.449   6.034
  377SOL    HW2 2031   2.563   3.398   5.994
  378SOL     OW 2032   4.145   0.810   1.289
  378SOL    HW1 2033   4.180   0.749   1.218
  378SOL    HW2 2034   4.054   0.842   1.264
  379SOL     OW 2035   3.364   3.730   0.656
  379SOL    HW1 2036   3.308   3.730   0.739
  379SOL    HW2 2037   3.354   3.643   0.609
  380SOL     OW 2038   5.065   1.434   0.017
  380SOL    HW1 2039   4.991   1.485   0.060
  380SOL    HW2 2040   5.066   1.453   6.937
  381SOL     OW 2041   0.359   3.315   1.864
  381SOL    HW1 2042   0.284   3.314   1.930
  381SOL    HW2 2043   0.379   3.221   1.835
  382SOL     OW 2044   6.442   0.241   0.899
  382SOL    HW1 2045   6.474   0.273   0.988
  382SOL    HW2 2046   6.404   0.150   0.908
  383SOL     OW 2047   5.392   3.089   1.134
  383SOL    HW1 2048   5.367   3.035   1.054
  383SOL    HW2 2049   5.473   3.144   1.113
  384SOL     OW 2050   1.031   3.078   4.680
  384SOL    HW1 2051   1.056   2.998   4.735
  384SOL    HW2 2052   1.114   3.119   4.641
  385SOL     OW 2053   4.879   3.075   0.041
  385SOL    HW1 2054   4.830   2.989   0.044
  385SOL    HW2 2055   4.824   3.144   7.012
  386SOL     OW 2056   3.276   6.196   5.139
  386SOL    HW1 2057   3.352   6.211   5.076
  386SOL    HW2 2058   3.282   6.103   5.176
  387SOL     OW 2059   1.741   6.535   3.724
  387SOL    HW1 2060   1.836   6.505   3.721
  387SOL    HW2 2061   1.690   6.489   3.652
  388SOL     OW 2062   1.371   5.559   5.773
  388SOL    HW1 2063   1.335   5.636   5.721
  388SOL    HW2 2064   1.420   5.592   5.853
  389SOL     OW 2065   3.948   2.044   6.765
  389SOL    HW1 2066   3.962   1.953   6.804
  389SOL    HW2 2067   3.852   2.069   6.772
  390SOL     OW 2068   3.202   1.616   3.915
  390SOL    HW1 2069   3.186   1.537   3.857
  390SOL    HW2 2070   3.177   1.594   4.009
  391SOL     OW 2071   0.656   1.096   0.637
  391SOL    HW1 2072   0.614   1.180   0.604
  391SOL    HW2 2073   0.744   1.117   0.680
  392SOL     OW 2074   4.146   5.336   4.215
  392SOL    HW1 2075   4.227   5.302   4.168
  392SOL    HW2 2076   4.064   5.303   4.168
  393SOL     OW 2077   5.802   3.015   5.925
  393SOL    HW1 2078   5.888   2.968   5.945
  393SOL    HW2 2079   5.754   2.967   5.851
  394SOL     OW 2080   1.817   1.138   6.579
  394SOL    HW1 2081   1.851   1.115   6.488
  394SOL    HW2 2082   1.823   1.237   6.593
  395SOL     OW 2083   0.036   3.285   1.078
  395SOL    HW1 2084   0.071   3.205   1.128
  395SOL    HW2 2085   7.006   3.254   0.996
  396SOL     OW 2086   4.099   2.749   5.527
  396SOL    HW1 2087   4.186   2.703   5.508
  396SOL    HW2 2088   4.058   2.780   5.441
  397SOL     OW 2089   4.727   0.006   6.464
  397SOL    HW1 2090   4.668   0.052   6.398
  397SOL    HW2 2091   4.670   6.970   6.526
  398SOL     OW 2092   6.002   4.085   2.246
  398SOL    HW1 2093   5.911   4.047   2.231
  398SOL    HW2 2094   6.030   4.136   2.165
  399SOL     OW 2095   2.722   5.977   1.416
  399SOL    HW1 2096   2.821   5.972   1.427
  399SOL    HW2 2097   2.700   5.993   1.320
  400SOL     OW 2098   2.070   4.483   5.608
  400SOL    HW1 2099   2.160   4.440   5.616
  400SOL    HW2 2100   2.055   4.546   5.684
  401SOL     OW 2101   6.198   1.281   1.381
  401SOL    HW1 2102   6.138   1.235   1.447
  401SOL    HW2 2103   6.257   1.345   1.430
  402SOL     OW 2104   0.342   5.541   0.721
  402SOL    HW1 2105   0.438   5.561   0.740
  402SOL    HW2 2106   0.294   5.521   0.806
  403SOL     OW 2107   5.190   4.707   0.376
  403SOL    HW1 2108   5.156   4.735   0.466
  403SOL    HW2 2109   5.247   4.779   0.338
  404SOL     OW 2110   0.009   5.849   4.635
  404SOL    HW1 2111   0.037   5.937   4.596
  404SOL    HW2 2112   0.054   5.775   4.584
  405SOL     OW 2113   1.480   1.275   1.712
  405SOL    HW1 2114   1.409   1.342   1.730
  405SOL    HW2 2115   1.559   1.293   1.770
  406SOL     OW 2116   1.139   3.160   3.687
  406SOL    HW1 2117   1.195   3.134   3.609
  406SOL    HW2 2118   1.049   3.189   3.655
  407SOL     OW 2119   3.345   2.024   3.922
  407SOL    HW1 2120   3.285   2.081   3.978
  407SOL    HW2 2121   3.303   2.007   3.833
  408SOL     OW 2122   2.153   0.145   3.657
  408SOL    HW1 2123   2.215   0.142   3.578
  408SOL    HW2 2124   2.143   0.053   3.695
  409SOL     OW 2125   7.007   4.801   4.236
  409SOL    HW1 2126   0.057   4.871   4.215
  409SOL    HW2 2127   7.004   4.787   4.335
  410SOL     OW 2128   2.683   6.423   6.073
  410SOL    HW1 2129   2.634   6.427   5.986
  410SOL    HW2 2130   2.672   6.333   6.114
  411SOL     OW 2131   0.457   4.317   5.497
  411SOL    HW1 2132   0.380   4.327   5.561
  411SOL    HW2 2133   0.517   4.244   5.528
  412SOL     OW 2134   3.579   6.368   2.782
  412SOL    HW1 2135   3.599   6.349   2.686
  412SOL    HW2 2136   3.532   6.291   2.823
  413SOL     OW 2137   2.140   0.428   1.825
  413SOL    HW1 2138   2.129   0.506   1.888
  413SOL    HW2 2139   2.173   0.349   1.876
  414SOL     OW 2140   4.953   4.844   0.778
  414SOL    HW1 2141   4.948   4.815   0.874
  414SOL    HW2 2142   4.862   4.836   0.737
  415SOL     OW 2143   3.840   0.118   3.268
  415SOL    HW1 2144   3.866   0.210   3.295
  415SOL    HW2 2145   3.850   0.108   3.169
  416SOL     OW 2146   3.494   5.739   0.043
  416SOL    HW1 2147   3.565   5.801   0.076
  416SOL    HW2 2148   3.432   5.716   0.119
  417SOL     OW 2149   5.295   5.525   0.879
  417SOL    HW1 2150   5.233   5.553   0.806
  417SOL    HW2 2151   5.254   5.548   0.967
  418SOL     OW 2152   0.102   5.246   6.346
  418SOL    HW1 2153   0.192   5.291   6.350
  418SOL    HW2 2154   0.089   5.207   6.255
  419SOL     OW 2155   4.956   5.561   6.331
  419SOL    HW1 2156   5.028   5.617   6.372
  419SOL    HW2 2157   4.981   5.464   6.338
  420SOL     OW 2158   5.640   4.102   6.705
  420SOL    HW1 2159   5.661   4.048   6.786
  420SOL    HW2 2160   5.598   4.188   6.732
  421SOL     OW 2161   1.524   6.128   6.361
  421SOL    HW1 2162   1.602   6.184   6.334
  421SOL    HW2 2163   1.554   6.033   6.373
  422SOL     OW 2164   6.199   3.812   6.541
  422SOL    HW1 2165   6.241   3.839   6.627
  422SOL    HW2 2166   6.265   3.826   6.466
  423SOL     OW 2167   1.088   3.447   6.427
  423SOL    HW1 2168   1.107   3.544   6.413
  423SOL    HW2 2169   1.023   3.435   6.502
  424SOL     OW 2170   2.099   4.440   6.035
  424SOL    HW1 2171   2.068   4.387   6.114
  424SOL    HW2 2172   2.166   4.508   6.064
  425SOL     OW 2173   2.700   0.740   0.631
  425SOL    HW1 2174   2.754   0.822   0.612
  425SOL    HW2 2175   2.603   0.758   0.614
  426SOL     OW 2176   0.461   3.667   0.130
  426SOL    HW1 2177   0.527   3.617   0.074
  426SOL    HW2 2178   0.486   3.659   0.226
  427SOL     OW 2179   4.363   2.903   0.144
  427SOL    HW1 2180   4.357   2.910   0.244
  427SOL    HW2 2181   4.381   2.993   0.105
  428SOL     OW 2182   3.956   1.017   4.476
  428SOL    HW1 2183   3.931   0.988   4.568
  428SOL    HW2 2184   3.937   1.115   4.465
  429SOL     OW 2185   3.829   6.355   0.353
  429SOL    HW1 2186   3.897   6.354   0.427
  429SOL    HW2 2187   3.746   6.400   0.385
  430SOL     OW 2188   2.761   0.924   4.405
  430SOL    HW1 2189   2.807   0.977   4.476
  430SOL    HW2 2190   2.781   0.963   4.316
  431SOL     OW 2191   3.789   0.992   6.654
  431SOL    HW1 2192   3.750   0.927   6.719
  431SOL    HW2 2193   3.766   1.085   6.683
  432SOL     OW 2194   6.430   1.480   1.056
  432SOL    HW1 2195   6.376   1.563   1.070
  432SOL    HW2 2196   6.376   1.401   1.084
  433SOL     OW 2197   3.740   6.068   4.904
  433SOL    HW1 2198   3.733   5.978   4.946
  433SOL    HW2 2199   3.733   6.060   4.805
  434SOL     OW 2200   6.889   3.470   0.443
  434SOL    HW1 2201   6.898   3.370   0.437
  434SOL    HW2 2202   6.842   3.504   0.361
  435SOL     OW 2203   3.609   3.418   0.828
  435SOL    HW1 2204   3.654   3.344   0.877
  435SOL    HW2 2205   3.574   3.485   0.893
  436SOL     OW 2206   2.434   1.405   1.451
  436SOL    HW1 2207   2.335   1.404   1.466
  436SOL    HW2 2208   2.464   1.314   1.421
  437SOL     OW 2209   6.006   6.674   6.208
  437SOL    HW1 2210   6.006   6.664   6.109
  437SOL    HW2 2211   6.026   6.769   6.232
  438SOL     OW 2212   1.620   3.414   0.777
  438SOL    HW1 2213   1.571   3.352   0.839
  438SOL    HW2 2214   1.554   3.475   0.733
  439SOL     OW 2215   6.648   4.954   1.874
  439SOL    HW1 2216   6.596   4.949   1.789
  439SOL    HW2 2217   6.594   4.914   1.948
  440SOL     OW 2218   1.772   2.914   2.421
  440SOL    HW1 2219   1.816   2.917   2.511
  440SOL    HW2 2220   1.829   2.861   2.358
  441SOL     OW 2221   0.161   1.426   3.400
  441SOL    HW1 2222   0.162   1.337   3.446
  441SOL    HW2 2223   0.212   1.492   3.454
  442SOL     OW 2224   1.138   4.934   6.262
  442SOL    HW1 2225   1.230   4.928   6.221
  442SOL    HW2 2226   1.094   4.844   6.256
  443SOL     OW 2227   0.304   4.840   5.823
  443SOL    HW1 2228   0.245   4.784   5.765
  443SOL    HW2 2229   0.249   4.913   5.865
  444SOL     OW 2230   5.470   3.117   6.907
  444SOL    HW1 2231   5.481   3.149   7.001
  444SOL    HW2 2232   5.516   3.029   6.896
  445SOL     OW 2233   1.626   3.355   2.975
  445SOL    HW1 2234   1.636   3.271   2.921
  445SOL    HW2 2235   1.530   3.379   2.982
  446SOL     OW 2236   1.990   4.952   4.269
  446SOL    HW1 2237   1.905   4.986   4.311
  446SOL    HW2 2238   1.979   4.855   4.247
  447SOL     OW 2239   0.769   6.157   0.789
  447SOL    HW1 2240   0.855   6.209   0.787
  447SOL    HW2 2241   0.786   6.065   0.825
  448SOL     OW 2242   4.395   0.793   5.638
  448SOL    HW1 2243   4.348   0.862   5.693
  448SOL    HW2 2244   4.407   0.709   5.692
  449SOL     OW 2245   5.787   0.537   4.693
  449SOL    HW1 2246   5.758   0.527   4.597
  449SOL    HW2 2247   5.726   0.484   4.752
  450SOL     OW 2248   6.578   5.876   2.879
  450SOL    HW1 2249   6.667   5.917   2.859
  450SOL    HW2 2250   6.576   5.847   2.974
  451SOL     OW 2251   6.023   3.957   3.823
  451SOL    HW1 2252   6.090   4.032   3.821
  451SOL    HW2 2253   5.979   3.954   3.913
  452SOL     OW 2254   6.507   4.845   5.689
  452SOL    HW1 2255   6.424   4.798   5.722
  452SOL    HW2 2256   6.586   4.812   5.741
  453SOL     OW 2257   3.458   1.397   6.106
  453SOL    HW1 2258   3.482   1.483   6.152
  453SOL    HW2 2259   3.378   1.412   6.047
  454SOL     OW 2260   0.576   6.221   0.603
  454SOL    HW1 2261   0.647   6.223   0.673
  454SOL    HW2 2262   0.512   6.146   0.621
  455SOL     OW 2263   5.311   1.526   4.775
  455SOL    HW1 2264   5.398   1.575   4.767
  455SOL    HW2 2265   5.277   1.504   4.683
  456SOL     OW 2266   3.918   5.559   0.555
  456SOL    HW1 2267   4.003   5.610   0.559
  456SOL    HW2 2268   3.853   5.607   0.496
  457SOL     OW 2269   0.763   4.460   1.332
  457SOL    HW1 2270   0.752   4.373   1.283
  457SOL    HW2 2271   0.859   4.473   1.356
  458SOL     OW 2272   0.817   0.121   5.819
  458SOL    HW1 2273   0.823   0.038   5.876
  458SOL    HW2 2274   0.815   0.094   5.722
  459SOL     OW 2275   1.107   0.597   3.271
  459SOL    HW1 2276   1.021   0.632   3.308
  459SOL    HW2 2277   1.183   0.626   3.330
  460SOL     OW 2278   6.395   2.203   3.167
  460SOL    HW1 2279   6.391   2.159   3.256
  460SOL    HW2 2280   6.417   2.135   3.097
  461SOL     OW 2281   5.095   4.457   6.066
  461SOL    HW1 2282   5.037   4.506   6.131
  461SOL    HW2 2283   5.088   4.358   6.083
  462SOL     OW 2284   3.275   2.725   0.219
  462SOL    HW1 2285   3.233   2.815   0.209
  462SOL    HW2 2286   3.224   2.671   0.286
  463SOL     OW 2287   5.898   6.069   2.303
  463SOL    HW1 2288   5.938   6.058   2.394
  463SOL    HW2 2289   5.951   6.135   2.250
  464SOL     OW 2290   1.948   1.987   5.915
  464SOL    HW1 2291   1.980   2.044   5.839
  464SOL    HW2 2292   2.026   1.946   5.962
  465SOL     OW 2293   0.724   3.453   6.397
  465SOL    HW1 2294   0.780   3.532   6.372
  465SOL    HW2 2295   0.685   3.412   6.314
  466SOL     OW 2296   1.511   0.578   3.409
  466SOL    HW1 2297   1.580   0.643   3.378
  466SOL    HW2 2298   1.453   0.621   3.477
  467SOL     OW 2299   1.996   1.520   5.218
  467SOL    HW1 2300   2.087   1.528   5.176
  467SOL    HW2 2301   1.932   1.580   5.171
  468SOL     OW 2302   2.978   3.652   3.286
  468SOL    HW1 2303   2.997   3.658   3.384
  468SOL    HW2 2304   2.937   3.563   3.265
  469SOL     OW 2305   3.618   6.890   6.210
  469SOL    HW1 2306   3.608   6.856   6.303
  469SOL    HW2 2307   3.531   6.879   6.161
  470SOL     OW 2308   4.592   0.005   3.415
  470SOL    HW1 2309   4.573   0.091   3.368
  470SOL    HW2 2310   4.678   0.013   3.466
  471SOL     OW 2311   2.557   2.499   4.165
  471SOL    HW1 2312   2.560   2.556   4.083
  471SOL    HW2 2313   2.650   2.487   4.201
  472SOL     OW 2314   4.039   4.338   5.315
  472SOL    HW1 2315   4.100   4.342   5.236
  472SOL    HW2 2316   4.006   4.244   5.327
  473SOL     OW 2317   0.181   4.306   3.975
  473SOL    HW1 2318   0.106   4.240   3.980
  473SOL    HW2 2319   0.148   4.397   3.999
  474SOL     OW 2320   4.937   4.653   5.285
  474SOL    HW1 2321   4.943   4.750   5.264
  474SOL    HW2 2322   5.012   4.604   5.239
  475SOL     OW 2323   2.542   6.647   0.124
  475SOL    HW1 2324   2.636   6.636   0.092
  475SOL    HW2 2325   2.536   6.725   0.186
  476SOL     OW 2326   6.587   5.873   3.146
  476SOL    HW1 2327   6.511   5.934   3.168
  476SOL    HW2 2328   6.571   5.783   3.187
  477SOL     OW 2329   1.720   4.494   4.279
  477SOL    HW1 2330   1.725   4.430   4.203
  477SOL    HW2 2331   1.624   4.514   4.300
  478SOL     OW 2332   1.241   4.962   3.605
  478SOL    HW1 2333   1.297   4.997   3.681
  478SOL    HW2 2334   1.229   4.864   3.616
  479SOL     OW 2335   4.245   1.995   2.029
  479SOL    HW1 2336   4.230   2.090   2.002
  479SOL    HW2 2337   4.246   1.937   1.947
  480SOL     OW 2338   1.618   6.157   3.767
  480SOL    HW1 2339   1.709   6.137   3.729
  480SOL    HW2 2340   1.628   6.214   3.848
  481SOL     OW 2341   2.176   0.481   1.105
  481SOL    HW1 2342   2.093   0.427   1.122
  481SOL    HW2 2343   2.199   0.533   1.187
  482SOL     OW 2344   5.408   5.566   0.532
  482SOL    HW1 2345   5.442   5.581   0.625
  482SOL    HW2 2346   5.384   5.470   0.520
  483SOL     OW 2347   5.477   1.905   2.859
  483SOL    HW1 2348   5.528   1.917   2.774
  483SOL    HW2 2349   5.415   1.982   2.872
  484SOL     OW 2350   6.436   1.521   3.899
  484SOL    HW1 2351   6.474   1.595   3.955
  484SOL    HW2 2352   6.384   1.561   3.823
  485SOL     OW 2353   2.886   6.189   0.418
  485SOL    HW1 2354   2.806   6.145   0.377
  485SOL    HW2 2355   2.938   6.120   0.469
  486SOL     OW 2356   6.981   0.499   6.010
  486SOL    HW1 2357   0.011   0.421   6.049
  486SOL    HW2 2358   6.941   0.474   5.922
  487SOL     OW 2359   6.875   2.476   6.551
  487SOL    HW1 2360   6.807   2.485   6.623
  487SOL    HW2 2361   6.883   2.379   6.525
  488SOL     OW 2362   1.053   4.662   3.088
  488SOL    HW1 2363   1.135   4.646   3.032
  488SOL    HW2 2364   0.997   4.579   3.089
  489SOL     OW 2365   3.230   5.284   5.990
  489SOL    HW1 2366   3.198   5.193   5.965
  489SOL    HW2 2367   3.312   5.276   6.046
  490SOL     OW 2368   5.146   0.528   4.256
  490SOL    HW1 2369   5.243   0.543   4.276
  490SOL    HW2 2370   5.102   0.616   4.238
  491SOL     OW 2371   0.789   2.950   3.372
  491SOL    HW1 2372   0.801   3.005   3.289
  491SOL    HW2 2373   0.873   2.898   3.389
  492SOL     OW 2374   1.866   1.421   4.906
  492SOL    HW1 2375   1.957   1.439   4.942
  492SOL    HW2 2376   1.856   1.466   4.817
  493SOL     OW 2377   6.100   4.213   4.462
  493SOL    HW1 2378   6.079   4.200   4.559
  493SOL    HW2 2379   6.172   4.282   4.453
  494SOL     OW 2380   5.872   0.736   6.654
  494SOL    HW1 2381   5.799   0.668   6.643
  494SOL    HW2 2382   5.895   0.775   6.565
  495SOL     OW 2383   5.014   4.372   0.165
  495SOL    HW1 2384   5.014   4.459   0.215
  495SOL    HW2 2385   5.087   4.313   0.200
  496SOL     OW 2386   6.140   3.238   2.640
  496SOL    HW1 2387   6.110   3.330   2.616
  496SOL    HW2 2388   6.061   3.178   2.649
  497SOL     OW 2389   4.419   6.981   4.420
  497SOL    HW1 2390   4.466   6.929   4.492
  497SOL    HW2 2391   4.439   0.060   4.431
  498SOL     OW 2392   1.455   3.256   0.939
  498SOL    HW1 2393   1.358   3.235   0.926
  498SOL    HW2 2394   1.497   3.184   0.993
  499SOL     OW 2395   3.564   1.395   5.016
  499SOL    HW1 2396   3.578   1.451   4.935
  499SOL    HW2 2397   3.565   1.299   4.991
  500SOL     OW 2398   0.933   4.415   2.564
  500SOL    HW1 2399   0.894   4.470   2.638
  500SOL    HW2 2400   0.958   4.325   2.599
  501SOL     OW 2401   0.527   4.822   6.304
  501SOL    HW1 2402   0.614   4.803   6.349
  501SOL    HW2 2403   0.474   4.887   6.358
  502SOL     OW 2404   2.407   4.682   6.144
  502SOL    HW1 2405   2.458   4.731   6.073
  502SOL    HW2 2406   2.443   4.590   6.154
  503SOL     OW 2407   6.770   5.345   4.539
  503SOL    HW1 2408   6.741   5.264   4.489
  503SOL    HW2 2409   6.699   5.415   4.534
  504SOL     OW 2410   1.463   4.728   4.974
  504SOL    HW1 2411   1.491   4.824   4.980
  504SOL    HW2 2412   1.381   4.722   4.916
  505SOL     OW 2413   3.601   6.783   4.735
  505SOL    HW1 2414   3.612   6.756   4.831
  505SOL    HW2 2415   3.510   6.755   4.704
  506SOL     OW 2416   2.144   3.427   0.618
  506SOL    HW1 2417   2.071   3.419   0.550
  506SOL    HW2 2418   2.156   3.339   0.664
  507SOL     OW 2419   3.833   1.878   4.433
  507SOL    HW1 2420   3.907   1.880   4.366
  507SOL    HW2 2421   3.788   1.789   4.429
  508SOL     OW 2422   6.131   5.249   4.500
  508SOL    HW1 2423   6.211   5.309   4.508
  508SOL    HW2 2424   6.052   5.302   4.468
  509SOL     OW 2425   4.784   3.238   1.709
  509SOL    HW1 2426   4.713   3.196   1.765
  509SOL    HW2 2427   4.744   3.269   1.623
  510SOL     OW 2428   0.647   4.450   4.374
  510SOL    HW1 2429   0.708   4.427   4.299
  510SOL    HW2 2430   0.572   4.383   4.378
  511SOL     OW 2431   0.606   5.952   1.343
  511SOL    HW1 2432   0.610   6.041   1.298
  511SOL    HW2 2433   0.697   5.911   1.345
  512SOL     OW 2434   1.991   4.026   5.689
  512SOL    HW1 2435   2.083   4.032   5.729
  512SOL    HW2 2436   1.955   4.119   5.675
  513SOL     OW 2437   0.426   5.170   4.436
  513SOL    HW1 2438   0.422   5.138   4.531
  513SOL    HW2 2439   0.429   5.091   4.375
  514SOL     OW 2440   5.384   1.770   3.336
  514SOL    HW1 2441   5.426   1.757   3.246
  514SOL    HW2 2442   5.386   1.684   3.387
  515SOL     OW 2443   2.801   5.588   0.143
  515SOL    HW1 2444   2.886   5.587   0.197
  515SOL    HW2 2445   2.819   5.550   0.052
  516SOL     OW 2446   1.397   4.260   3.471
  516SOL    HW1 2447   1.447   4.181   3.435
  516SOL    HW2 2448   1.462   4.325   3.511
  517SOL     OW 2449   4.523   0.287   5.871
  517SOL    HW1 2450   4.529   0.207   5.812
  517SOL    HW2 2451   4.587   0.278   5.947
  518SOL     OW 2452   1.671   1.265   0.075
  518SOL    HW1 2453   1.641   1.298   7.004
  518SOL    HW2 2454   1.746   1.200   0.064
  519SOL     OW 2455   0.909   6.416   0.100
  519SOL    HW1 2456   0.891   6.513   0.084
  519SOL    HW2 2457   0.884   6.364   0.019
  520SOL     OW 2458   5.892   4.474   4.421
  520SOL    HW1 2459   5.832   4.536   4.369
  520SOL    HW2 2460   5.973   4.453   4.366
  521SOL     OW 2461   6.605   0.935   0.014
  521SOL    HW1 2462   6.584   0.891   6.945
  521SOL    HW2 2463   6.608   0.866   0.087
  522SOL     OW 2464   3.079   4.074   5.717
  522SOL    HW1 2465   3.166   4.074   5.666
  522SOL    HW2 2466   3.071   4.161   5.766
  523SOL     OW 2467   6.602   6.955   3.584
  523SOL    HW1 2468   6.545   0.011   3.549
  523SOL    HW2 2469   6.619   6.888   3.512
  524SOL     OW 2470   4.120   0.893   4.759
  524SOL    HW1 2471   4.040   0.848   4.800
  524SOL    HW2 2472   4.184   0.824   4.727
  525SOL     OW 2473   3.719   2.855   6.736
  525SOL    HW1 2474   3.743   2.761   6.763
  525SOL    HW2 2475   3.620   2.862   6.725
  526SOL     OW 2476   4.452   6.510   4.476
  526SOL    HW1 2477   4.394   6.570   4.532
  526SOL    HW2 2478   4.433   6.527   4.379
  527SOL     OW 2479   0.860   1.365   0.175
  527SOL    HW1 2480   0.777   1.318   0.203
  527SOL    HW2 2481   0.910   1.395   0.256
  528SOL     OW 2482   1.299   1.897   6.438
  528SOL    HW1 2483   1.378   1.935   6.389
  528SOL    HW2 2484   1.322   1.889   6.535
  529SOL     OW 2485   6.959   5.171   4.689
  529SOL    HW1 2486   6.879   5.217   4.649
  529SOL    HW2 2487   6.928   5.099   4.751
  530SOL     OW 2488   0.157   2.714   5.456
  530SOL    HW1 2489   0.152   2.717   5.356
  530SOL    HW2 2490   0.087   2.651   5.490
  531SOL     OW 2491   6.962   0.353   6.753
  531SOL    HW1 2492   7.016   0.269   6.762
  531SOL    HW2 2493   6.931   0.383   6.843
  532SOL     OW 2494   2.172   1.060   5.698
  532SOL    HW1 2495   2.112   0.997   5.749
  532SOL    HW2 2496   2.237   1.007   5.643
  533SOL     OW 2497   4.713   0.760   5.704
  533SOL    HW1 2498   4.625   0.804   5.682
  533SOL    HW2 2499   4.740   0.700   5.629
  534SOL     OW 2500   3.081   5.514   2.975
  534SOL    HW1 2501   3.143   5.536   2.900
  534SOL    HW2 2502   3.134   5.494   3.057
  535SOL     OW 2503   6.639   3.851   1.723
  535SOL    HW1 2504   6.553   3.879   1.765
  535SOL    HW2 2505   6.659   3.909   1.644
  536SOL     OW 2506   1.776   6.031   1.341
  536SOL    HW1 2507   1.697   6.025   1.402
  536SOL    HW2 2508   1.765   6.109   1.279
  537SOL     OW 2509   2.508   0.093   3.072
  537SOL    HW1 2510   2.431   0.108   3.010
  537SOL    HW2 2511   2.585   0.054   3.021
  538SOL     OW 2512   1.570   5.332   4.002
  538SOL    HW1 2513   1.628   5.269   3.950
  538SOL    HW2 2514   1.594   5.426   3.978
  539SOL     OW 2515   1.489   5.186   1.492
  539SOL    HW1 2516   1.406   5.239   1.473
  539SOL    HW2 2517   1.482   5.145   1.583
  540SOL     OW 2518   2.657   2.607   1.225
  540SOL    HW1 2519   2.740   2.573   1.268
  540SOL    HW2 2520   2.620   2.683   1.279
  541SOL     OW 2521   4.617   5.680   4.931
  541SOL    HW1 2522   4.538   5.726   4.892
  541SOL    HW2 2523   4.587   5.608   4.993
  542SOL     OW 2524   5.650   0.362   6.432
  542SOL    HW1 2525   5.579   0.400   6.373
  542SOL    HW2 2526   5.738   0.404   6.409
  543SOL     OW 2527   6.400   0.083   2.361
  543SOL    HW1 2528   6.407   0.034   2.274
  543SOL    HW2 2529   6.489   0.080   2.407
  544SOL     OW 2530   0.605   5.560   0.561
  544SOL    HW1 2531   0.690   5.510   0.578
  544SOL    HW2 2532   0.607   5.647   0.610
  545SOL     OW 2533   3.036   1.791   3.671
  545SOL    HW1 2534   2.987   1.744   3.598
  545SOL    HW2 2535   2.998   1.762   3.759
  546SOL     OW 2536   1.533   1.926   6.626
  546SOL    HW1 2537   1.513   2.018   6.593
  546SOL    HW2 2538   1.632   1.909   6.622
  547SOL     OW 2539   3.032   2.124   0.635
  547SOL    HW1 2540   3.091   2.083   0.566
  547SOL    HW2 2541   3.065   2.216   0.657
  548SOL     OW 2542   3.187   3.321   5.377
  548SOL    HW1 2543   3.215   3.253   5.309
  548SOL    HW2 2544   3.087   3.319   5.386
  549SOL     OW 2545   0.774   4.507   0.761
  549SOL    HW1 2546   0.724   4.579   0.809
  549SOL    HW2 2547   0.810   4.442   0.829
  550SOL     OW 2548   6.812   4.770   0.608
  550SOL    HW1 2549   6.798   4.673   0.624
  550SOL    HW2 2550   6.910   4.790   0.606
  551SOL     OW 2551   0.159   0.306   0.440
  551SOL    HW1 2552   0.128   0.397   0.414
  551SOL    HW2 2553   0.223   0.271   0.371
  552SOL     OW 2554   4.889   5.437   0.086
  552SOL    HW1 2555   4.827   5.457   0.011
  552SOL    HW2 2556   4.927   5.522   0.122
  553SOL     OW 2557   1.336   2.180   1.357
  553SOL    HW1 2558   1.408   2.208   1.294
  553SOL    HW2 2559   1.278   2.111   1.312
  554SOL     OW 2560   4.352   5.185   4.435
  554SOL    HW1 2561   4.440   5.202   4.479
  554SOL    HW2 2562   4.307   5.272   4.415
  555SOL     OW 2563   1.248   4.361   5.826
  555SOL    HW1 2564   1.205   4.279   5.787
  555SOL    HW2 2565   1.217   4.442   5.775
  556SOL     OW 2566   6.554   4.128   2.589
  556SOL    HW1 2567   6.468   4.077   2.589
  556SOL    HW2 2568   6.575   4.158   2.682
  557SOL     OW 2569   6.302   5.745   5.515
  557SOL    HW1 2570   6.387   5.798   5.513
  557SOL    HW2 2571   6.322   5.649   5.497
  558SOL     OW 2572   3.833   3.905   5.758
  558SOL    HW1 2573   3.908   3.866   5.705
  558SOL    HW2 2574   3.795   3.983   5.709
  559SOL     OW 2575   5.318   5.152   6.355
  559SOL    HW1 2576   5.266   5.080   6.310
  559SOL    HW2 2577   5.327   5.130   6.453
  560SOL     OW 2578   4.341   6.755   0.629
  560SOL    HW1 2579   4.352   6.680   0.564
  560SOL    HW2 2580   4.406   6.744   0.705
  561SOL     OW 2581   4.887   6.958   2.499
  561SOL    HW1 2582   4.819   7.015   2.544
  561SOL    HW2 2583   4.952   7.016   2.449
  562SOL     OW 2584   6.128   6.921   1.347
  562SOL    HW1 2585   6.042   6.919   1.399
  562SOL    HW2 2586   6.205   6.924   1.411
  563SOL     OW 2587   2.852   0.279   5.199
  563SOL    HW1 2588   2.806   0.366   5.180
  563SOL    HW2 2589   2.814   0.208   5.140
  564SOL     OW 2590   0.845   1.295   5.430
  564SOL    HW1 2591   0.884   1.347   5.506
  564SOL    HW2 2592   0.821   1.357   5.356
  565SOL     OW 2593   4.506   3.700   6.044
  565SOL    HW1 2594   4.557   3.615   6.027
  565SOL    HW2 2595   4.461   3.729   5.959
  566SOL     OW 2596   6.825   4.401   2.012
  566SOL    HW1 2597   6.914   4.374   2.048
  566SOL    HW2 2598   6.753   4.359   2.067
  567SOL     OW 2599   3.898   3.868   6.237
  567SOL    HW1 2600   3.989   3.904   6.254
  567SOL    HW2 2601   3.901   3.803   6.162
  568SOL     OW 2602   2.714   0.798   6.502
  568SOL    HW1 2603   2.718   0.816   6.601
  568SOL    HW2 2604   2.771   0.865   6.454
  569SOL     OW 2605   2.035   4.304   6.740
  569SOL    HW1 2606   2.062   4.386   6.689
  569SOL    HW2 2607   1.973   4.330   6.815
  570SOL     OW 2608   0.256   5.630   6.611
  570SOL    HW1 2609   0.225   5.725   6.604
  570SOL    HW2 2610   0.236   5.595   6.702
  571SOL     OW 2611   4.755   5.933   2.460
  571SOL    HW1 2612   4.779   5.883   2.543
  571SOL    HW2 2613   4.803   6.021   2.458
  572SOL     OW 2614   1.766   3.853   3.766
  572SOL    HW1 2615   1.731   3.832   3.675
  572SOL    HW2 2616   1.835   3.925   3.760
  573SOL     OW 2617   4.142   2.476   0.129
  573SOL    HW1 2618   4.148   2.565   0.084
  573SOL    HW2 2619   4.070   2.421   0.087
  574SOL     OW 2620   2.856   1.991   3.667
  574SOL    HW1 2621   2.807   1.917   3.619
  574SOL    HW2 2622   2.941   1.955   3.704
  575SOL     OW 2623   4.332   2.707   6.088
  575SOL    HW1 2624   4.264   2.645   6.128
  575SOL    HW2 2625   4.394   2.655   6.030
  576SOL     OW 2626   0.780   3.361   3.371
  576SOL    HW1 2627   0.779   3.312   3.458
  576SOL    HW2 2628   0.874   3.389   3.350
  577SOL     OW 2629   4.125   1.991   3.420
  577SOL    HW1 2630   4.206   2.028   3.465
  577SOL    HW2 2631   4.043   2.029   3.462
  578SOL     OW 2632   6.691   3.654   4.649
  578SOL    HW1 2633   6.631   3.690   4.577
  578SOL    HW2 2634   6.766   3.719   4.665
  579SOL     OW 2635   4.224   3.596   0.740
  579SOL    HW1 2636   4.151   3.555   0.685
  579SOL    HW2 2637   4.193   3.604   0.835
  580SOL     OW 2638   0.013   0.061   0.156
  580SOL    HW1 2639   0.039   0.146   0.110
  580SOL    HW2 2640   0.091   0.025   0.208
  581SOL     OW 2641   3.841   3.536   3.755
  581SOL    HW1 2642   3.904   3.550   3.832
  581SOL    HW2 2643   3.789   3.452   3.769
  582SOL     OW 2644   0.263   4.119   0.379
  582SOL    HW1 2645   0.236   4.142   0.473
  582SOL    HW2 2646   0.186   4.133   0.318
  583SOL     OW 2647   2.772   6.869   6.641
  583SOL    HW1 2648   2.865   6.843   6.617
  583SOL    HW2 2649   2.721   6.893   6.558
  584SOL     OW 2650   1.491   5.125   4.636
  584SOL    HW1 2651   1.432   5.206   4.630
  584SOL    HW2 2652   1.491   5.078   4.547
  585SOL     OW 2653   5.430   1.893   5.406
  585SOL    HW1 2654   5.403   1.986   5.429
  585SOL    HW2 2655   5.417   1.878   5.308
  586SOL     OW 2656   3.106   5.576   1.047
  586SOL    HW1 2657   3.198   5.541   1.063
  586SOL    HW2 2658   3.039   5.505   1.070
  587SOL     OW 2659   2.388   2.993   6.191
  587SOL    HW1 2660   2.366   2.992   6.093
  587SOL    HW2 2661   2.304   3.001   6.244
  588SOL     OW 2662   1.951   0.139   1.964
  588SOL    HW1 2663   1.904   0.075   2.025
  588SOL    HW2 2664   2.005   0.088   1.898
  589SOL     OW 2665   4.952   5.207   1.806
  589SOL    HW1 2666   4.921   5.118   1.771
  589SOL    HW2 2667   5.052   5.207   1.811
  590SOL     OW 2668   0.248   4.128   1.893
  590SOL    HW1 2669   0.170   4.073   1.920
  590SOL    HW2 2670   0.270   4.110   1.797
  591SOL     OW 2671   2.349   0.242   2.884
  591SOL    HW1 2672   2.427   0.244   2.821
  591SOL    HW2 2673   2.269   0.205   2.837
  592SOL     OW 2674   5.048   0.409   6.453
  592SOL    HW1 2675   4.998   0.436   6.371
  592SOL    HW2 2676   5.025   0.314   6.476
  593SOL     OW 2677   0.431   0.565   4.633
  593SOL    HW1 2678   0.457   0.521   4.719
  593SOL    HW2 2679   0.332   0.575   4.630
  594SOL     OW 2680   5.407   2.494   1.583
  594SOL    HW1 2681   5.342   2.503   1.658
  594SOL    HW2 2682   5.390   2.408   1.534
  595SOL     OW 2683   2.974   6.871   4.005
  595SOL    HW1 2684   2.888   6.821   4.011
  595SOL    HW2 2685   3.020   6.869   4.093
  596SOL     OW 2686   0.701   4.483   2.383
  596SOL    HW1 2687   0.706   4.496   2.284
  596SOL    HW2 2688   0.793   4.481   2.422
  597SOL     OW 2689   4.585   2.015   5.386
  597SOL    HW1 2690   4.666   1.957   5.387
  597SOL    HW2 2691   4.504   1.959   5.374
  598SOL     OW 2692   3.774   3.704   1.692
  598SOL    HW1 2693   3.776   3.745   1.782
  598SOL    HW2 2694   3.835   3.624   1.690
  599SOL     OW 2695   5.620   5.869   3.578
  599SOL    HW1 2696   5.703   5.828   3.540
  599SOL    HW2 2697   5.576   5.926   3.509
  600SOL     OW 2698   2.809   2.041   0.168
  600SOL    HW1 2699   2.904   2.055   0.138
  600SOL    HW2 2700   2.798   1.946   0.199
  601SOL     OW 2701   1.844   4.915   2.144
  601SOL    HW1 2702   1.865   4.841   2.081
  601SOL    HW2 2703   1.901   4.907   2.226
  602SOL     OW 2704   0.211   0.799   2.761
  602SOL    HW1 2705   0.208   0.762   2.668
  602SOL    HW2 2706   0.121   0.787   2.804
  603SOL     OW 2707   4.325   1.498   3.016
  603SOL    HW1 2708   4.323   1.468   2.921
  603SOL    HW2 2709   4.350   1.421   3.075
  604SOL     OW 2710   1.091   3.218   5.825
  604SOL    HW1 2711   1.185   3.215   5.790
  604SOL    HW2 2712   1.089   3.276   5.907
  605SOL     OW 2713   5.374   0.485   4.579
  605SOL    HW1 2714   5.379   0.504   4.481
  605SOL    HW2 2715   5.337   0.566   4.626
  606SOL     OW 2716   2.137   6.807   2.252
  606SOL    HW1 2717   2.060   6.774   2.197
  606SOL    HW2 2718   2.217   6.819   2.194
  607SOL     OW 2719   3.599   0.250   4.579
  607SOL    HW1 2720   3.691   0.288   4.591
  607SOL    HW2 2721   3.595   0.160   4.622
  608SOL     OW 2722   6.105   2.722   0.923
  608SOL    HW1 2723   6.132   2.690   0.833
  608SOL    HW2 2724   6.120   2.650   0.991
  609SOL     OW 2725   3.581   4.196   5.103
  609SOL    HW1 2726   3.614   4.183   5.196
  609SOL    HW2 2727   3.572   4.293   5.083
  610SOL     OW 2728   6.483   2.151   4.817
  610SOL    HW1 2729   6.383   2.150   4.819
  610SOL    HW2 2730   6.514   2.194   4.732
  611SOL     OW 2731   6.551   6.829   0.435
  611SOL    HW1 2732   6.519   6.808   0.342
  611SOL    HW2 2733   6.597   6.749   0.473
  612SOL     OW 2734   1.780   4.464   6.551
  612SOL    HW1 2735   1.736   4.374   6.558
  612SOL    HW2 2736   1.726   4.531   6.603
  613SOL     OW 2737   3.616   1.110   6.909
  613SOL    HW1 2738   3.660   1.185   6.859
  613SOL    HW2 2739   3.679   1.076   6.979
  614SOL     OW 2740   5.302   2.442   0.675
  614SOL    HW1 2741   5.380   2.442   0.613
  614SOL    HW2 2742   5.292   2.533   0.715
  615SOL     OW 2743   6.121   5.986   0.655
  615SOL    HW1 2744   6.049   5.933   0.700
  615SOL    HW2 2745   6.110   5.979   0.556
  616SOL     OW 2746   4.840   1.545   4.883
  616SOL    HW1 2747   4.865   1.542   4.980
  616SOL    HW2 2748   4.806   1.455   4.854
  617SOL     OW 2749   6.224   0.039   4.971
  617SOL    HW1 2750   6.141   0.007   5.018
  617SOL    HW2 2751   6.226   0.001   4.878
  618SOL     OW 2752   5.274   4.892   0.872
  618SOL    HW1 2753   5.241   4.918   0.963
  618SOL    HW2 2754   5.343   4.820   0.880
  619SOL     OW 2755   1.483   6.913   6.915
  619SOL    HW1 2756   1.540   6.995   6.928
  619SOL    HW2 2757   1.541   6.832   6.918
  620SOL     OW 2758   4.598   1.862   1.775
  620SOL    HW1 2759   4.591   1.943   1.718
  620SOL    HW2 2760   4.685   1.815   1.755
  621SOL     OW 2761   2.056   6.748   6.592
  621SOL    HW1 2762   2.113   6.763   6.673
  621SOL    HW2 2763   2.115   6.725   6.514
  622SOL     OW 2764   0.467   3.246   5.763
  622SOL    HW1 2765   0.557   3.221   5.727
  622SOL    HW2 2766   0.412   3.164   5.776
  623SOL     OW 2767   6.456   1.604   2.849
  623SOL    HW1 2768   6.530   1.561   2.899
  623SOL    HW2 2769   6.492   1.644   2.764
  624SOL     OW 2770   5.978   1.102   6.206
  624SOL    HW1 2771   6.028   1.187   6.223
  624SOL    HW2 2772   6.036   1.024   6.228
  625SOL     OW 2773   3.117   1.163   1.445
  625SOL    HW1 2774   3.115   1.189   1.541
  625SOL    HW2 2775   3.031   1.118   1.420
  626SOL     OW 2776   0.034   6.553   3.846
  626SOL    HW1 2777   6.962   6.509   3.849
  626SOL    HW2 2778   0.087   6.516   3.771
  627SOL     OW 2779   6.678   4.435   6.036
  627SOL    HW1 2780   6.658   4.340   6.012
  627SOL    HW2 2781   6.777   4.451   6.032
  628SOL     OW 2782   3.897   4.283   6.650
  628SOL    HW1 2783   3.975   4.243   6.600
  628SOL    HW2 2784   3.885   4.234   6.736
  629SOL     OW 2785   2.179   0.010   6.748
  629SOL    HW1 2786   2.081   0.022   6.731
  629SOL    HW2 2787   2.201   6.931   6.755
  630SOL     OW 2788   6.359   2.165   0.634
  630SOL    HW1 2789   6.291   2.131   0.699
  630SOL    HW2 2790   6.427   2.220   0.683
  631SOL     OW 2791   1.790   3.523   2.386
  631SOL    HW1 2792   1.874   3.475   2.360
  631SOL    HW2 2793   1.787   3.611   2.339
  632SOL     OW 2794   3.754   4.769   1.440
  632SOL    HW1 2795   3.776   4.749   1.536
  632SOL    HW2 2796   3.777   4.864   1.420
  633SOL     OW 2797   1.197   6.182   6.746
  633SOL    HW1 2798   1.189   6.164   6.844
  633SOL    HW2 2799   1.289   6.158   6.715
  634SOL     OW 2800   2.235   3.455   5.608
  634SOL    HW1 2801   2.167   3.528   5.615
  634SOL    HW2 2802   2.269   3.449   5.514
  635SOL     OW 2803   6.668   6.208   6.577
  635SOL    HW1 2804   6.679   6.246   6.669
  635SOL    HW2 2805   6.623   6.119   6.582
  636SOL     OW 2806   1.635   1.838   4.692
  636SOL    HW1 2807   1.609   1.817   4.786
  636SOL    HW2 2808   1.728   1.874   4.690
  637SOL     OW 2809   6.726   1.797   2.118
  637SOL    HW1 2810   6.780   1.839   2.045
  637SOL    HW2 2811   6.633   1.778   2.084
  638SOL     OW 2812   0.071   3.534   5.575
  638SOL    HW1 2813   7.015   3.601   5.578
  638SOL    HW2 2814   0.080   3.498   5.483
  639SOL     OW 2815   5.704   3.463   1.053
  639SOL    HW1 2816   5.796   3.449   1.091
  639SOL    HW2 2817   5.690   3.561   1.035
  640SOL     OW 2818   6.355   3.634   2.482
  640SOL    HW1 2819   6.307   3.694   2.546
  640SOL    HW2 2820   6.289   3.573   2.438
  641SOL     OW 2821   2.392   5.860   4.558
  641SOL    HW1 2822   2.348   5.770   4.567
  641SOL    HW2 2823   2.486   5.848   4.528
  642SOL     OW 2824   1.045   5.252   4.359
  642SOL    HW1 2825   1.009   5.343   4.339
  642SOL    HW2 2826   1.056   5.240   4.457
  643SOL     OW 2827   4.404   4.864   0.352
  643SOL    HW1 2828   4.448   4.798   0.413
  643SOL    HW2 2829   4.466   4.887   0.277
  644SOL     OW 2830   5.771   0.837   4.678
  644SOL    HW1 2831   5.678   0.864   4.655
  644SOL    HW2 2832   5.779   0.737   4.671
  645SOL     OW 2833   3.921   5.886   2.320
  645SOL    HW1 2834   3.879   5.936   2.244
  645SOL    HW2 2835   4.002   5.935   2.351
  646SOL     OW 2836   3.469   1.382   5.280
  646SOL    HW1 2837   3.370   1.390   5.275
  646SOL    HW2 2838   3.507   1.370   5.189
  647SOL     OW 2839   2.229   2.384   6.605
  647SOL    HW1 2840   2.227   2.483   6.594
  647SOL    HW2 2841   2.248   2.342   6.516
  648SOL     OW 2842   5.023   2.094   3.729
  648SOL    HW1 2843   4.968   2.158   3.675
  648SOL    HW2 2844   5.103   2.141   3.766
  649SOL     OW 2845   4.176   5.801   0.906
  649SOL    HW1 2846   4.217   5.841   0.988
  649SOL    HW2 2847   4.089   5.847   0.887
  650SOL     OW 2848   2.391   3.816   1.438
  650SOL    HW1 2849   2.442   3.801   1.523
  650SOL    HW2 2850   2.439   3.770   1.363
  651SOL     OW 2851   6.855   1.747   3.297
  651SOL    HW1 2852   6.808   1.659   3.300
  651SOL    HW2 2853   6.887   1.771   3.389
  652SOL     OW 2854   3.928   5.901   0.850
  652SOL    HW1 2855   3.886   5.876   0.763
  652SOL    HW2 2856   3.861   5.946   0.908
  653SOL     OW 2857   1.474   0.323   3.012
  653SOL    HW1 2858   1.574   0.324   3.019
  653SOL    HW2 2859   1.447   0.342   2.918
  654SOL     OW 2860   1.330   0.023   6.196
  654SOL    HW1 2861   1.352   0.120   6.196
  654SOL    HW2 2862   1.269   0.003   6.119
  655SOL     OW 2863   1.116   3.862   2.003
  655SOL    HW1 2864   1.119   3.853   1.904
  655SOL    HW2 2865   1.078   3.780   2.044
  656SOL     OW 2866   2.243   0.702   0.211
  656SOL    HW1 2867   2.202   0.642   0.142
  656SOL    HW2 2868   2.236   0.660   0.301
  657SOL     OW 2869   3.733   3.516   4.272
  657SOL    HW1 2870   3.750   3.417   4.272
  657SOL    HW2 2871   3.720   3.548   4.179
  658SOL     OW 2872   2.433   0.597   5.251
  658SOL    HW1 2873   2.482   0.648   5.322
  658SOL    HW2 2874   2.427   0.653   5.168
  659SOL     OW 2875   1.573   5.056   6.850
  659SOL    HW1 2876   1.479   5.088   6.840
  659SOL    HW2 2877   1.622   5.119   6.911
  660SOL     OW 2878   5.708   3.540   2.239
  660SOL    HW1 2879   5.729   3.632   2.272
  660SOL    HW2 2880   5.613   3.536   2.208
  661SOL     OW 2881   4.191   5.567   4.336
  661SOL    HW1 2882   4.190   5.647   4.276
  661SOL    HW2 2883   4.173   5.485   4.282
  662SOL     OW 2884   6.956   3.323   6.818
  662SOL    HW1 2885   6.990   3.416   6.828
  662SOL    HW2 2886   0.014   3.259   6.820
  663SOL     OW 2887   1.560   4.089   6.105
  663SOL    HW1 2888   1.477   4.142   6.085
  663SOL    HW2 2889   1.593   4.048   6.020
  664SOL     OW 2890   1.987   0.126   5.870
  664SOL    HW1 2891   2.032   0.193   5.929
  664SOL    HW2 2892   1.893   0.156   5.851
  665SOL     OW 2893   2.107   4.467   2.812
  665SOL    HW1 2894   2.202   4.465   2.780
  665SOL    HW2 2895   2.099   4.530   2.889
  666SOL     OW 2896   2.988   0.529   0.119
  666SOL    HW1 2897   3.061   0.460   0.127
  666SOL    HW2 2898   2.905   0.494   0.163
  667SOL     OW 2899   1.738   3.129   2.125
  667SOL    HW1 2900   1.644   3.095   2.133
  667SOL    HW2 2901   1.770   3.159   2.215
  668SOL     OW 2902   5.016   0.011   0.777
  668SOL    HW1 2903   4.979   0.078   0.713
  668SOL    HW2 2904   4.996   0.040   0.870
  669SOL     OW 2905   6.363   5.720   2.828
  669SOL    HW1 2906   6.454   5.762   2.835
  669SOL    HW2 2907   6.294   5.786   2.857
  670SOL     OW 2908   3.324   3.995   3.099
  670SOL    HW1 2909   3.343   3.897   3.114
  670SOL    HW2 2910   3.411   4.043   3.085
  671SOL     OW 2911   1.491   0.260   6.958
  671SOL    HW1 2912   1.530   0.181   7.006
  671SOL    HW2 2913   1.430   0.309   0.001
  672SOL     OW 2914   0.710   2.411   3.134
  672SOL    HW1 2915   0.685   2.505   3.111
  672SOL    HW2 2916   0.632   2.366   3.178
  673SOL     OW 2917   5.082   0.793   6.763
  673SOL    HW1 2918   5.035   0.718   6.717
  673SOL    HW2 2919   5.168   0.759   6.801
  674SOL     OW 2920   6.914   2.722   4.618
  674SOL    HW1 2921   6.977   2.653   4.582
  674SOL    HW2 2922   6.877   2.691   4.706
  675SOL     OW 2923   5.921   6.946   3.606
  675SOL    HW1 2924   6.020   6.938   3.595
  675SOL    HW2 2925   5.879   6.956   3.516
  676SOL     OW 2926   3.384   4.930   5.143
  676SOL    HW1 2927   3.401   5.026   5.168
  676SOL    HW2 2928   3.307   4.926   5.080
  677SOL     OW 2929   4.974   6.523   0.519
  677SOL    HW1 2930   5.039   6.477   0.458
  677SOL    HW2 2931   5.023   6.585   0.580
  678SOL     OW 2932   2.459   0.791   6.362
  678SOL    HW1 2933   2.391   0.828   6.425
  678SOL    HW2 2934   2.544   0.774   6.411
  679SOL     OW 2935   6.911   0.241   2.690
  679SOL    HW1 2936   6.880   0.296   2.613
  679SOL    HW2 2937   7.004   0.208   2.673
  680SOL     OW 2938   5.948   3.270   4.216
  680SOL    HW1 2939   6.035   3.316   4.232
  680SOL    HW2 2940   5.935   3.256   4.118
  681SOL     OW 2941   1.054   5.259   3.281
  681SOL    HW1 2942   0.990   5.288   3.210
  681SOL    HW2 2943   1.103   5.339   3.316
  682SOL     OW 2944   0.422   0.013   5.898
  682SOL    HW1 2945   0.466   6.953   5.853
  682SOL    HW2 2946   0.441   0.009   5.996
  683SOL     OW 2947   5.107   1.161   1.420
  683SOL    HW1 2948   5.106   1.242   1.478
  683SOL    HW2 2949   5.096   1.079   1.476
  684SOL     OW 2950   6.499   5.883   6.159
  684SOL    HW1 2951   6.587   5.929   6.160
  684SOL    HW2 2952   6.441   5.922   6.087
  685SOL     OW 2953   6.058   0.559   4.635
  685SOL    HW1 2954   6.080   0.656   4.627
  685SOL    HW2 2955   5.965   0.548   4.669
  686SOL     OW 2956   5.823   4.448   1.027
  686SOL    HW1 2957   5.794   4.353   1.013
  686SOL    HW2 2958   5.922   4.452   1.033
  687SOL     OW 2959   5.528   2.665   6.908
  687SOL    HW1 2960   5.546   2.616   6.993
  687SOL    HW2 2961   5.429   2.673   6.893
  688SOL     OW 2962   6.316   2.720   5.087
  688SOL    HW1 2963   6.295   2.630   5.127
  688SOL    HW2 2964   6.329   2.710   4.988
  689SOL     OW 2965   5.356   4.961   4.521
  689SOL    HW1 2966   5.316   4.875   4.554
  689SOL    HW2 2967   5.431   4.989   4.581
  690SOL     OW 2968   6.806   2.310   4.513
  690SOL    HW1 2969   6.764   2.234   4.562
  690SOL    HW2 2970   6.871   2.276   4.446
  691SOL     OW 2971   1.062   2.845   6.720
  691SOL    HW1 2972   1.115   2.883   6.796
  691SOL    HW2 2973   0.965   2.868   6.732
  692SOL     OW 2974   2.212   0.260   3.947
  692SOL    HW1 2975   2.174   0.172   3.973
  692SOL    HW2 2976   2.246   0.256   3.853
  693SOL     OW 2977   5.953   1.189   3.539
  693SOL    HW1 2978   5.966   1.136   3.622
  693SOL    HW2 2979   5.974   1.285   3.557
  694SOL     OW 2980   1.429   0.397   2.719
  694SOL    HW1 2981   1.462   0.420   2.627
  694SOL    HW2 2982   1.348   0.451   2.740
  695SOL     OW 2983   4.692   5.615   6.391
  695SOL    HW1 2984   4.791   5.620   6.384
  695SOL    HW2 2985   4.665   5.520   6.406
  696SOL     OW 2986   5.480   5.757   2.394
  696SOL    HW1 2987   5.483   5.820   2.472
  696SOL    HW2 2988   5.515   5.802   2.313
  697SOL     OW 2989   1.326   3.961   3.072
  697SOL    HW1 2990   1.317   3.883   3.010
  697SOL    HW2 2991   1.405   4.016   3.046
  698SOL     OW 2992   4.889   6.434   4.601
  698SOL    HW1 2993   4.851   6.350   4.561
  698SOL    HW2 2994   4.954   6.411   4.673
  699SOL     OW 2995   2.078   5.556   6.098
  699SOL    HW1 2996   2.093   5.466   6.058
  699SOL    HW2 2997   2.123   5.625   6.042
  700SOL     OW 2998   1.953   2.219   4.718
  700SOL    HW1 2999   1.958   2.120   4.705
  700SOL    HW2 3000   1.905   2.260   4.641
  701SOL     OW 3001   0.544   4.649   6.105
  701SOL    HW1 3002   0.460   4.595   6.098
  701SOL    HW2 3003   0.540   4.708   6.186
  702SOL     OW 3004   5.942   6.239   5.301
  702SOL    HW1 3005   6.011   6.166   5.311
  702SOL    HW2 3006   5.942   6.271   5.207
  703SOL     OW 3007   5.844   3.655   6.172
  703SOL    HW1 3008   5.872   3.559   6.170
  703SOL    HW2 3009   5.866   3.699   6.085
  704SOL     OW 3010   2.340   6.872   2.051
  704SOL    HW1 3011   2.384   6.962   2.059
  704SOL    HW2 3012   2.349   6.840   1.957
  705SOL     OW 3013   1.280   1.678   4.267
  705SOL    HW1 3014   1.316   1.725   4.348
  705SOL    HW2 3015   1.291   1.737   4.187
  706SOL     OW 3016   5.782   3.669   3.719
  706SOL    HW1 3017   5.742   3.595   3.665
  706SOL    HW2 3018   5.810   3.743   3.658
  707SOL     OW 3019   4.730   2.885   2.985
  707SOL    HW1 3020   4.827   2.904   2.966
  707SOL    HW2 3021   4.684   2.857   2.901
  708SOL     OW 3022   4.941   1.192   1.724
  708SOL    HW1 3023   4.993   1.200   1.809
  708SOL    HW2 3024   4.977   1.256   1.656
  709SOL     OW 3025   1.621   3.870   6.638
  709SOL    HW1 3026   1.540   3.858   6.694
  709SOL    HW2 3027   1.596   3.873   6.542
  710SOL     OW 3028   3.486   3.442   3.535
  710SOL    HW1 3029   3.425   3.461   3.612
  710SOL    HW2 3030   3.511   3.527   3.490
  711SOL     OW 3031   1.375   0.885   3.907
  711SOL    HW1 3032   1.424   0.844   3.830
  711SOL    HW2 3033   1.286   0.842   3.918
  712SOL     OW 3034   6.748   4.688   3.532
  712SOL    HW1 3035   6.691   4.754   3.581
  712SOL    HW2 3036   6.825   4.661   3.590
  713SOL     OW 3037   2.461   3.661   5.484
  713SOL    HW1 3038   2.380   3.715   5.464
  713SOL    HW2 3039   2.533   3.721   5.520
  714SOL     OW 3040   4.558   4.953   4.309
  714SOL    HW1 3041   4.579   4.913   4.398
  714SOL    HW2 3042   4.467   4.925   4.280
  715SOL     OW 3043   6.811   0.083   6.074
  715SOL    HW1 3044   6.804   0.129   6.162
  715SOL    HW2 3045   6.724   0.038   6.052
  716SOL     OW 3046   6.701   5.893   6.635
  716SOL    HW1 3047   6.756   5.810   6.645
  716SOL    HW2 3048   6.648   5.889   6.551
  717SOL     OW 3049   5.830   2.522   6.256
  717SOL    HW1 3050   5.803   2.536   6.351
  717SOL    HW2 3051   5.838   2.610   6.210
  718SOL     OW 3052   3.436   2.989   0.706
  718SOL    HW1 3053   3.530   2.956   0.699
  718SOL    HW2 3054   3.436   3.081   0.746
  719SOL     OW 3055   6.315   4.149   6.556
  719SOL    HW1 3056   6.229   4.141   6.507
  719SOL    HW2 3057   6.297   4.177   6.651
  720SOL     OW 3058   3.756   0.929   5.970
  720SOL    HW1 3059   3.743   0.833   5.945
  720SOL    HW2 3060   3.853   0.952   5.964
  721SOL     OW 3061   1.320   6.820   5.407
  721SOL    HW1 3062   1.304   6.769   5.491
  721SOL    HW2 3063   1.364   6.907   5.429
  722SOL     OW 3064   4.681   1.250   5.495
  722SOL    HW1 3065   4.758   1.212   5.444
  722SOL    HW2 3066   4.674   1.348   5.477
  723SOL     OW 3067   0.285   3.750   1.776
  723SOL    HW1 3068   0.211   3.698   1.733
  723SOL    HW2 3069   0.284   3.844   1.742
  724SOL     OW 3070   0.425   2.428   4.463
  724SOL    HW1 3071   0.432   2.369   4.544
  724SOL    HW2 3072   0.506   2.415   4.406
  725SOL     OW 3073   2.352   5.210   2.327
  725SOL    HW1 3074   2.434   5.154   2.320
  725SOL    HW2 3075   2.274   5.152   2.351
  726SOL     OW 3076   5.655   6.495   6.399
  726SOL    HW1 3077   5.581   6.539   6.450
  726SOL    HW2 3078   5.735   6.555   6.399
  727SOL     OW 3079   1.844   4.932   4.541
  727SOL    HW1 3080   1.855   4.969   4.633
  727SOL    HW2 3081   1.878   4.838   4.539
  728SOL     OW 3082   6.487   1.929   6.265
  728SOL    HW1 3083   6.429   1.864   6.217
  728SOL    HW2 3084   6.577   1.932   6.222
  729SOL     OW 3085   4.083   1.462   0.743
  729SOL    HW1 3086   4.163   1.522   0.749
  729SOL    HW2 3087   4.000   1.515   0.762
  730SOL     OW 3088   6.182   1.103   3.959
  730SOL    HW1 3089   6.188   1.190   4.009
  730SOL    HW2 3090   6.136   1.035   4.017
  731SOL     OW 3091   0.261   2.201   3.892
  731SOL    HW1 3092   0.325   2.237   3.824
  731SOL    HW2 3093   0.309   2.140   3.954
  732SOL     OW 3094   0.291   3.621   3.630
  732SOL    HW1 3095   0.382   3.610   3.590
  732SOL    HW2 3096   0.295   3.606   3.729
  733SOL     OW 3097   5.036   4.552   4.739
  733SOL    HW1 3098   5.125   4.532   4.697
  733SOL    HW2 3099   4.981   4.469   4.741
  734SOL     OW 3100   0.856   6.265   6.866
  734SOL    HW1 3101   0.867   6.165   6.869
  734SOL    HW2 3102   0.819   6.292   6.777
  735SOL     OW 3103   3.759   4.334   7.001
  735SOL    HW1 3104   3.681   4.337   6.938
  735SOL    HW2 3105   3.726   4.333   0.077
  736SOL     OW 3106   5.888   0.990   2.278
  736SOL    HW1 3107   5.804   1.040   2.256
  736SOL    HW2 3108   5.963   1.027   2.224
  737SOL     OW 3109   5.160   3.678   0.237
  737SOL    HW1 3110   5.233   3.743   0.258
  737SOL    HW2 3111   5.133   3.688   0.142
  738SOL     OW 3112   6.201   3.833   4.445
  738SOL    HW1 3113   6.241   3.792   4.527
  738SOL    HW2 3114   6.102   3.824   4.449
  739SOL     OW 3115   4.764   6.143   6.216
  739SOL    HW1 3116   4.786   6.234   6.180
  739SOL    HW2 3117   4.719   6.151   6.304
  740SOL     OW 3118   5.935   6.724   0.499
  740SOL    HW1 3119   5.916   6.657   0.571
  740SOL    HW2 3120   5.954   6.813   0.541
  741SOL     OW 3121   1.650   0.292   3.713
  741SOL    HW1 3122   1.653   0.325   3.618
  741SOL    HW2 3123   1.743   0.272   3.744
  742SOL     OW 3124   1.200   6.262   2.525
  742SOL    HW1 3125   1.202   6.354   2.486
  742SOL    HW2 3126   1.137   6.260   2.603
  743SOL     OW 3127   1.791   3.236   2.348
  743SOL    HW1 3128   1.871   3.214   2.404
  743SOL    HW2 3129   1.749   3.320   2.382
  744SOL     OW 3130   6.872   5.238   0.585
  744SOL    HW1 3131   6.822   5.260   0.668
  744SOL    HW2 3132   6.830   5.284   0.507
  745SOL     OW 3133   1.280   6.584   1.711
  745SOL    HW1 3134   1.201   6.525   1.725
  745SOL    HW2 3135   1.254   6.661   1.652
  746SOL     OW 3136   3.109   6.953   3.326
  746SOL    HW1 3137   3.106   6.871   3.384
  746SOL    HW2 3138   3.195   7.001   3.342
  747SOL     OW 3139   6.948   4.359   0.465
  747SOL    HW1 3140   0.015   4.353   0.517
  747SOL    HW2 3141   6.881   4.295   0.503
  748SOL     OW 3142   3.103   3.023   3.433
  748SOL    HW1 3143   3.055   2.937   3.417
  748SOL    HW2 3144   3.157   3.046   3.352
  749SOL     OW 3145   5.320   2.940   5.686
  749SOL    HW1 3146   5.410   2.910   5.654
  749SOL    HW2 3147   5.252   2.925   5.615
  750SOL     OW 3148   2.948   3.148   2.174
  750SOL    HW1 3149   2.909   3.110   2.090
  750SOL    HW2 3150   2.887   3.220   2.208
  751SOL     OW 3151   5.657   1.056   0.338
  751SOL    HW1 3152   5.597   0.994   0.389
  751SOL    HW2 3153   5.660   1.145   0.384
  752SOL     OW 3154   4.358   0.486   2.199
  752SOL    HW1 3155   4.356   0.514   2.295
  752SOL    HW2 3156   4.273   0.512   2.155
  753SOL     OW 3157   3.724   1.731   1.746
  753SOL    HW1 3158   3.686   1.761   1.658
  753SOL    HW2 3159   3.692   1.639   1.767
  754SOL     OW 3160   5.127   5.142   6.585
  754SOL    HW1 3161   5.137   5.056   6.637
  754SOL    HW2 3162   5.115   5.218   6.649
  755SOL     OW 3163   5.810   4.985   2.288
  755SOL    HW1 3164   5.874   4.972   2.212
  755SOL    HW2 3165   5.753   5.064   2.270
  756SOL     OW 3166   1.926   6.871   4.315
  756SOL    HW1 3167   1.984   6.796   4.283
  756SOL    HW2 3168   1.857   6.891   4.245
  757SOL     OW 3169   0.271   0.860   4.289
  757SOL    HW1 3170   0.246   0.929   4.220
  757SOL    HW2 3171   0.226   0.773   4.267
  758SOL     OW 3172   4.131   1.884   0.452
  758SOL    HW1 3173   4.203   1.891   0.520
  758SOL    HW2 3174   4.148   1.950   0.378
  759SOL     OW 3175   2.282   0.316   1.605
  759SOL    HW1 3176   2.220   0.239   1.587
  759SOL    HW2 3177   2.237   0.382   1.665
  760SOL     OW 3178   4.599   1.636   6.348
  760SOL    HW1 3179   4.542   1.715   6.371
  760SOL    HW2 3180   4.644   1.602   6.431
  761SOL     OW 3181   5.348   0.663   6.803
  761SOL    HW1 3182   5.328   0.572   6.839
  761SOL    HW2 3183   5.424   0.703   6.852
  762SOL     OW 3184   2.534   4.563   4.891
  762SOL    HW1 3185   2.525   4.471   4.853
  762SOL    HW2 3186   2.627   4.573   4.929
  763SOL     OW 3187   0.576   4.704   0.895
  763SOL    HW1 3188   0.492   4.674   0.850
  763SOL    HW2 3189   0.575   4.673   0.990
  764SOL     OW 3190   6.156   1.164   2.475
  764SOL    HW1 3191   6.209   1.199   2.553
  764SOL    HW2 3192   6.172   1.222   2.396
  765SOL     OW 3193   1.009   6.544   2.976
  765SOL    HW1 3194   1.095   6.595   2.985
  765SOL    HW2 3195   0.974   6.555   2.883
  766SOL     OW 3196   0.298   5.753   0.143
  766SOL    HW1 3197   0.371   5.809   0.102
  766SOL    HW2 3198   0.211   5.775   0.098
  767SOL     OW 3199   5.813   6.188   1.480
  767SOL    HW1 3200   5.840   6.163   1.573
  767SOL    HW2 3201   5.766   6.276   1.481
  768SOL     OW 3202   2.647   6.396   4.189
  768SOL    HW1 3203   2.713   6.469   4.200
  768SOL    HW2 3204   2.600   6.379   4.276
  769SOL     OW 3205   3.254   0.367   0.253
  769SOL    HW1 3206   3.267   0.457   0.295
  769SOL    HW2 3207   3.166   0.329   0.284
  770SOL     OW 3208   3.435   5.503   4.980
  770SOL    HW1 3209   3.487   5.571   4.928
  770SOL    HW2 3210   3.498   5.448   5.035
  771SOL     OW 3211   0.456   6.846   4.758
  771SOL    HW1 3212   0.457   6.908   4.837
  771SOL    HW2 3213   0.455   6.751   4.791
  772SOL     OW 3214   0.805   2.973   6.687
  772SOL    HW1 3215   0.797   3.032   6.606
  772SOL    HW2 3216   0.716   2.967   6.733
  773SOL     OW 3217   6.668   3.499   1.857
  773SOL    HW1 3218   6.739   3.566   1.836
  773SOL    HW2 3219   6.709   3.417   1.898
  774SOL     OW 3220   1.221   1.036   1.987
  774SOL    HW1 3221   1.161   1.087   2.048
  774SOL    HW2 3222   1.175   1.022   1.900
  775SOL     OW 3223   1.909   2.823   4.246
  775SOL    HW1 3224   1.896   2.844   4.149
  775SOL    HW2 3225   1.853   2.886   4.301
  776SOL     OW 3226   2.501   1.086   5.539
  776SOL    HW1 3227   2.587   1.131   5.517
  776SOL    HW2 3228   2.432   1.154   5.563
  777SOL     OW 3229   4.037   0.265   6.829
  777SOL    HW1 3230   4.045   0.215   6.743
  777SOL    HW2 3231   4.043   0.364   6.811
  778SOL     OW 3232   4.698   5.928   5.015
  778SOL    HW1 3233   4.650   5.842   4.997
  778SOL    HW2 3234   4.762   5.946   4.940
  779SOL     OW 3235   0.444   0.411   2.489
  779SOL    HW1 3236   0.428   0.483   2.557
  779SOL    HW2 3237   0.403   0.326   2.521
  780SOL     OW 3238   5.572   2.185   5.155
  780SOL    HW1 3239   5.482   2.146   5.171
  780SOL    HW2 3240   5.596   2.248   5.229
  781SOL     OW 3241   1.643   4.086   0.162
  781SOL    HW1 3242   1.613   4.181   0.175
  781SOL    HW2 3243   1.638   4.062   0.065
  782SOL     OW 3244   0.139   5.570   0.547
  782SOL    HW1 3245   0.198   5.562   0.628
  782SOL    HW2 3246   0.106   5.479   0.521
  783SOL     OW 3247   1.539   5.458   0.742
  783SOL    HW1 3248   1.629   5.494   0.716
  783SOL    HW2 3249   1.468   5.518   0.706
  784SOL     OW 3250   5.616   5.443   3.235
  784SOL    HW1 3251   5.603   5.431   3.333
  784SOL    HW2 3252   5.686   5.379   3.202
  785SOL     OW 3253   6.018   2.917   3.258
  785SOL    HW1 3254   6.112   2.945   3.238
  785SOL    HW2 3255   6.008   2.902   3.357
  786SOL     OW 3256   6.284   6.477   1.599
  786SOL    HW1 3257   6.262   6.479   1.502
  786SOL    HW2 3258   6.201   6.456   1.652
  787SOL     OW 3259   4.050   1.351   6.660
  787SOL    HW1 3260   4.021   1.373   6.567
  787SOL    HW2 3261   4.113   1.273   6.658
  788SOL     OW 3262   0.036   4.252   3.374
  788SOL    HW1 3263   0.064   4.237   3.280
  788SOL    HW2 3264   7.003   4.338   3.380
  789SOL     OW 3265   6.240   3.222   0.362
  789SOL    HW1 3266   6.256   3.127   0.386
  789SOL    HW2 3267   6.160   3.229   0.303
  790SOL     OW 3268   2.622   0.494   4.181
  790SOL    HW1 3269   2.677   0.559   4.233
  790SOL    HW2 3270   2.633   0.403   4.221
  791SOL     OW 3271   3.383   0.796   4.249
  791SOL    HW1 3272   3.387   0.735   4.170
  791SOL    HW2 3273   3.300   0.776   4.302
  792SOL     OW 3274   5.550   0.771   3.854
  792SOL    HW1 3275   5.604   0.849   3.882
  792SOL    HW2 3276   5.570   0.748   3.758
  793SOL     OW 3277   0.262   6.880   6.659
  793SOL    HW1 3278   0.317   6.874   6.575
  793SOL    HW2 3279   0.207   6.797   6.668
  794SOL     OW 3280   3.775   5.205   4.780
  794SOL    HW1 3281   3.763   5.106   4.771
  794SOL    HW2 3282   3.850   5.223   4.844
  795SOL     OW 3283   5.067   5.316   6.770
  795SOL    HW1 3284   5.156   5.360   6.781
  795SOL    HW2 3285   5.030   5.291   6.859
  796SOL     OW 3286   0.979   1.683   5.856
  796SOL    HW1 3287   1.003   1.588   5.875
  796SOL    HW2 3288   0.885   1.700   5.885
  797SOL     OW 3289   5.873   3.049   5.492
  797SOL    HW1 3290   5.843   3.144   5.497
  797SOL    HW2 3291   5.868   3.017   5.398
  798SOL     OW 3292   6.211   0.889   4.426
  798SOL    HW1 3293   6.307   0.904   4.400
  798SOL    HW2 3294   6.152   0.912   4.349
  799SOL     OW 3295   6.704   3.800   3.858
  799SOL    HW1 3296   6.679   3.896   3.842
  799SOL    HW2 3297   6.625   3.741   3.841
  800SOL     OW 3298   0.371   2.389   2.697
  800SOL    HW1 3299   0.276   2.361   2.680
  800SOL    HW2 3300   0.432   2.334   2.639
  801SOL     OW 3301   0.511   3.550   3.455
  801SOL    HW1 3302   0.508   3.455   3.485
  801SOL    HW2 3303   0.600   3.589   3.479
  802SOL     OW 3304   6.687   1.291   0.693
  802SOL    HW1 3305   6.700   1.296   0.594
  802SOL    HW2 3306   6.769   1.254   0.736
  803SOL     OW 3307   2.281   6.905   4.232
  803SOL    HW1 3308   2.245   6.856   4.311
  803SOL    HW2 3309   2.358   6.962   4.260
  804SOL     OW 3310   5.790   5.825   0.480
  804SOL    HW1 3311   5.837   5.749   0.524
  804SOL    HW2 3312   5.855   5.875   0.422
  805SOL     OW 3313   2.066   2.684   6.339
  805SOL    HW1 3314   2.041   2.735   6.257
  805SOL    HW2 3315   2.056   2.586   6.322
  806SOL     OW 3316   4.155   6.329   0.330
  806SOL    HW1 3317   4.203   6.247   0.300
  806SOL    HW2 3318   4.152   6.332   0.430
  807SOL     OW 3319   0.375   0.896   3.538
  807SOL    HW1 3320   0.390   0.943   3.451
  807SOL    HW2 3321   0.290   0.844   3.533
  808SOL     OW 3322   5.541   3.809   4.855
  808SOL    HW1 3323   5.461   3.823   4.796
  808SOL    HW2 3324   5.600   3.739   4.814
  809SOL     OW 3325   6.961   5.540   5.789
  809SOL    HW1 3326   6.908   5.580   5.714
  809SOL    HW2 3327   0.036   5.522   5.757
  810SOL     OW 3328   5.739   4.961   6.035
  810SOL    HW1 3329   5.774   4.923   5.950
  810SOL    HW2 3330   5.682   5.041   6.016
  811SOL     OW 3331   3.051   4.878   2.851
  811SOL    HW1 3332   2.983   4.908   2.784
  811SOL    HW2 3333   3.084   4.956   2.904
  812SOL     OW 3334   0.045   0.498   2.895
  812SOL    HW1 3335   0.132   0.449   2.895
  812SOL    HW2 3336   6.988   0.433   2.892
  813SOL     OW 3337   4.859   4.966   1.739
  813SOL    HW1 3338   4.806   4.927   1.815
  813SOL    HW2 3339   4.924   4.898   1.706
  814SOL     OW 3340   5.253   5.303   1.568
  814SOL    HW1 3341   5.174   5.245   1.588
  814SOL    HW2 3342   5.291   5.279   1.479
  815SOL     OW 3343   1.117   1.174   1.427
  815SOL    HW1 3344   1.018   1.185   1.417
  815SOL    HW2 3345   1.163   1.246   1.376
  816SOL     OW 3346   5.753   0.443   1.667
  816SOL    HW1 3347   5.779   0.537   1.690
  816SOL    HW2 3348   5.698   0.406   1.742
  817SOL     OW 3349   0.621   2.472   1.789
  817SOL    HW1 3350   0.569   2.386   1.793
  817SOL    HW2 3351   0.697   2.467   1.855
  818SOL     OW 3352   5.715   1.366   2.839
  818SOL    HW1 3353   5.667   1.420   2.769
  818SOL    HW2 3354   5.759   1.428   2.904
  819SOL     OW 3355   0.209   5.086   2.755
  819SOL    HW1 3356   0.185   5.141   2.835
  819SOL    HW2 3357   0.236   5.146   2.679
  820SOL     OW 3358   2.529   3.155   5.813
  820SOL    HW1 3359   2.598   3.221   5.843
  820SOL    HW2 3360   2.464   3.138   5.888
  821SOL     OW 3361   1.218   4.311   0.659
  821SOL    HW1 3362   1.199   4.288   0.564
  821SOL    HW2 3363   1.300   4.263   0.689
  822SOL     OW 3364   0.314   3.070   5.113
  822SOL    HW1 3365   0.374   3.134   5.161
  822SOL    HW2 3366   0.264   3.015   5.180
  823SOL     OW 3367   3.995   4.267   1.447
  823SOL    HW1 3368   4.065   4.261   1.518
  823SOL    HW2 3369   4.039   4.274   1.357
  824SOL     OW 3370   6.286   2.957   6.472
  824SOL    HW1 3371   6.309   2.987   6.565
  824SOL    HW2 3372   6.345   2.880   6.446
  825SOL     OW 3373   1.993   3.184   1.348
  825SOL    HW1 3374   2.029   3.095   1.320
  825SOL    HW2 3375   1.903   3.198   1.308
  826SOL     OW 3376   1.124   1.864   6.736
  826SOL    HW1 3377   1.058   1.792   6.755
  826SOL    HW2 3378   1.217   1.825   6.738
  827SOL     OW 3379   3.639   4.614   1.012
  827SOL    HW1 3380   3.648   4.531   0.957
  827SOL    HW2 3381   3.544   4.644   1.013
  828SOL     OW 3382   5.801   1.302   5.356
  828SOL    HW1 3383   5.841   1.234   5.294
  828SOL    HW2 3384   5.805   1.269   5.450
  829SOL     OW 3385   4.028   4.263   5.599
  829SOL    HW1 3386   4.044   4.294   5.506
  829SOL    HW2 3387   3.952   4.315   5.639
  830SOL     OW 3388   4.398   3.540   6.468
  830SOL    HW1 3389   4.372   3.634   6.492
  830SOL    HW2 3390   4.328   3.501   6.407
  831SOL     OW 3391   5.262   1.743   5.140
  831SOL    HW1 3392   5.344   1.703   5.100
  831SOL    HW2 3393   5.250   1.836   5.106
  832SOL     OW 3394   2.658   1.451   6.006
  832SOL    HW1 3395   2.669   1.353   5.993
  832SOL    HW2 3396   2.594   1.469   6.080
  833SOL     OW 3397   1.326   0.408   5.249
  833SOL    HW1 3398   1.319   0.504   5.223
  833SOL    HW2 3399   1.320   0.400   5.349
  834SOL     OW 3400   2.914   4.730   5.650
  834SOL    HW1 3401   2.856   4.685   5.717
  834SOL    HW2 3402   2.876   4.717   5.558
  835SOL     OW 3403   3.842   1.847   2.902
  835SOL    HW1 3404   3.771   1.875   2.966
  835SOL    HW2 3405   3.920   1.910   2.910
  836SOL     OW 3406   2.338   0.855   5.522
  836SOL    HW1 3407   2.409   0.926   5.529
  836SOL    HW2 3408   2.297   0.859   5.431
  837SOL     OW 3409   4.140   1.730   4.364
  837SOL    HW1 3410   4.067   1.690   4.421
  837SOL    HW2 3411   4.104   1.810   4.316
  838SOL     OW 3412   0.284   6.548   2.315
  838SOL    HW1 3413   0.206   6.565   2.375
  838SOL    HW2 3414   0.368   6.582   2.359
  839SOL     OW 3415   2.104   1.849   2.083
  839SOL    HW1 3416   2.176   1.896   2.032
  839SOL    HW2 3417   2.015   1.872   2.045
  840SOL     OW 3418   1.688   1.046   5.560
  840SOL    HW1 3419   1.747   0.977   5.518
  840SOL    HW2 3420   1.735   1.134   5.559
  841SOL     OW 3421   0.441   3.758   0.893
  841SOL    HW1 3422   0.522   3.704   0.918
  841SOL    HW2 3423   0.367   3.697   0.867
  842SOL     OW 3424   3.933   4.809   3.886
  842SOL    HW1 3425   4.017   4.784   3.933
  842SOL    HW2 3426   3.862   4.831   3.953
  843SOL     OW 3427   6.826   3.099   1.321
  843SOL    HW1 3428   6.747   3.161   1.325
  843SOL    HW2 3429   6.832   3.058   1.231
  844SOL     OW 3430   5.461   4.848   6.343
  844SOL    HW1 3431   5.441   4.890   6.431
  844SOL    HW2 3432   5.551   4.805   6.347
  845SOL     OW 3433   2.116   5.025   5.541
  845SOL    HW1 3434   2.047   4.955   5.559
  845SOL    HW2 3435   2.081   5.114   5.568
  846SOL     OW 3436   5.007   1.682   0.273
  846SOL    HW1 3437   5.100   1.648   0.290
  846SOL    HW2 3438   4.951   1.668   0.354
  847SOL     OW 3439   4.954   4.398   1.793
  847SOL    HW1 3440   5.049   4.385   1.764
  847SOL    HW2 3441   4.943   4.365   1.886
  848SOL     OW 3442   5.542   0.498   5.787
  848SOL    HW1 3443   5.590   0.438   5.723
  848SOL    HW2 3444   5.443   0.491   5.771
  849SOL     OW 3445   0.921   6.895   3.936
  849SOL    HW1 3446   0.986   6.959   3.896
  849SOL    HW2 3447   0.904   6.920   4.031
  850SOL     OW 3448   3.018   0.866   3.276
  850SOL    HW1 3449   2.953   0.929   3.317
  850SOL    HW2 3450   2.970   0.805   3.212
  851SOL     OW 3451   6.879   1.254   5.917
  851SOL    HW1 3452   6.932   1.218   5.994
  851SOL    HW2 3453   6.927   1.234   5.831
  852SOL     OW 3454   3.331   5.211   4.838
  852SOL    HW1 3455   3.348   5.112   4.841
  852SOL    HW2 3456   3.236   5.229   4.863
  853SOL     OW 3457   0.865   4.141   0.500
  853SOL    HW1 3458   0.766   4.156   0.493
  853SOL    HW2 3459   0.907   4.152   0.410
  854SOL     OW 3460   6.222   5.263   0.942
  854SOL    HW1 3461   6.275   5.348   0.939
  854SOL    HW2 3462   6.130   5.283   0.977
  855SOL     OW 3463   4.492   0.410   0.321
  855SOL    HW1 3464   4.587   0.385   0.307
  855SOL    HW2 3465   4.481   0.509   0.309
  856SOL     OW 3466   1.309   0.708   5.251
  856SOL    HW1 3467   1.397   0.709   5.297
  856SOL    HW2 3468   1.245   0.768   5.300
  857SOL     OW 3469   6.068   4.237   2.031
  857SOL    HW1 3470   6.152   4.285   2.004
  857SOL    HW2 3471   6.019   4.207   1.949
  858SOL     OW 3472   3.339   3.943   1.863
  858SOL    HW1 3473   3.307   3.848   1.869
  858SOL    HW2 3474   3.322   3.989   1.950
  859SOL     OW 3475   6.753   4.378   0.966
  859SOL    HW1 3476   6.745   4.424   1.054
  859SOL    HW2 3477   6.798   4.439   0.900
  860SOL     OW 3478   1.604   4.303   5.688
  860SOL    HW1 3479   1.561   4.348   5.766
  860SOL    HW2 3480   1.562   4.337   5.604
  861SOL     OW 3481   4.372   4.460   6.209
  861SOL    HW1 3482   4.435   4.519   6.159
  861SOL    HW2 3483   4.401   4.454   6.304
  862SOL     OW 3484   4.407   4.713   3.691
  862SOL    HW1 3485   4.394   4.803   3.652
  862SOL    HW2 3486   4.492   4.673   3.656
  863SOL     OW 3487   6.317   3.065   1.519
  863SOL    HW1 3488   6.357   3.157   1.520
  863SOL    HW2 3489   6.240   3.063   1.456
  864SOL     OW 3490   1.055   6.176   1.995
  864SOL    HW1 3491   1.055   6.157   1.897
  864SOL    HW2 3492   1.141   6.146   2.036
  865SOL     OW 3493   1.556   1.319   3.959
  865SOL    HW1 3494   1.490   1.358   3.895
  865SOL    HW2 3495   1.549   1.366   4.047
  866SOL     OW 3496   4.142   1.123   1.731
  866SOL    HW1 3497   4.144   1.184   1.810
  866SOL    HW2 3498   4.235   1.110   1.696
  867SOL     OW 3499   2.935   1.488   6.091
  867SOL    HW1 3500   2.848   1.493   6.042
  867SOL    HW2 3501   2.968   1.581   6.111
  868SOL     OW 3502   4.957   1.916   3.145
  868SOL    HW1 3503   4.862   1.896   3.119
  868SOL    HW2 3504   4.958   1.971   3.228
  869SOL     OW 3505   6.923   3.901   0.642
  869SOL    HW1 3506   6.835   3.862   0.614
  869SOL    HW2 3507   6.993   3.829   0.642
  870SOL     OW 3508   6.045   1.056   0.534
  870SOL    HW1 3509   6.129   1.112   0.540
  870SOL    HW2 3510   6.034   1.005   0.619
  871SOL     OW 3511   6.867   4.565   0.294
  871SOL    HW1 3512   6.796   4.542   0.228
  871SOL    HW2 3513   6.881   4.489   0.357
  872SOL     OW 3514   6.942   1.628   1.834
  872SOL    HW1 3515   6.846   1.606   1.855
  872SOL    HW2 3516   6.951   1.647   1.736
  873SOL     OW 3517   3.972   0.215   4.330
  873SOL    HW1 3518   3.944   0.293   4.274
  873SOL    HW2 3519   4.002   0.140   4.271
  874SOL     OW 3520   1.317   3.756   6.587
  874SOL    HW1 3521   1.248   3.718   6.525
  874SOL    HW2 3522   1.303   3.717   6.678
  875SOL     OW 3523   5.902   6.260   6.226
  875SOL    HW1 3524   5.863   6.313   6.151
  875SOL    HW2 3525   5.986   6.215   6.196
  876SOL     OW 3526   2.953   2.233   1.738
  876SOL    HW1 3527   2.881   2.250   1.670
  876SOL    HW2 3528   2.934   2.286   1.820
  877SOL     OW 3529   6.178   6.091   6.234
  877SOL    HW1 3530   6.163   6.129   6.326
  877SOL    HW2 3531   6.132   6.003   6.227
  878SOL     OW 3532   4.324   3.613   1.010
  878SOL    HW1 3533   4.407   3.560   0.994
  878SOL    HW2 3534   4.273   3.573   1.086
  879SOL     OW 3535   5.177   3.326   3.165
  879SOL    HW1 3536   5.222   3.392   3.106
  879SOL    HW2 3537   5.079   3.347   3.170
  880SOL     OW 3538   4.534   6.869   1.297
  880SOL    HW1 3539   4.536   6.773   1.269
  880SOL    HW2 3540   4.579   6.879   1.386
  881SOL     OW 3541   5.042   5.717   3.171
  881SOL    HW1 3542   5.048   5.721   3.071
  881SOL    HW2 3543   4.966   5.657   3.197
  882SOL     OW 3544   0.858   2.176   4.986
  882SOL    HW1 3545   0.858   2.256   4.926
  882SOL    HW2 3546   0.825   2.097   4.935
  883SOL     OW 3547   3.228   5.005   0.146
  883SOL    HW1 3548   3.131   5.000   0.123
  883SOL    HW2 3549   3.263   4.913   0.165
  884SOL     OW 3550   3.886   4.808   1.081
  884SOL    HW1 3551   3.806   4.760   1.044
  884SOL    HW2 3552   3.935   4.854   1.006
  885SOL     OW 3553   3.685   5.663   6.413
  885SOL    HW1 3554   3.679   5.762   6.424
  885SOL    HW2 3555   3.781   5.637   6.401
  886SOL     OW 3556   4.301   2.403   6.198
  886SOL    HW1 3557   4.223   2.346   6.174
  886SOL    HW2 3558   4.355   2.358   6.270
  887SOL     OW 3559   6.357   6.640   5.058
  887SOL    HW1 3560   6.444   6.591   5.056
  887SOL    HW2 3561   6.360   6.711   5.128
  888SOL     OW 3562   6.643   1.244   3.526
  888SOL    HW1 3563   6.575   1.278   3.461
  888SOL    HW2 3564   6.727   1.297   3.517
  889SOL     OW 3565   0.787   0.763   4.850
  889SOL    HW1 3566   0.757   0.670   4.872
  889SOL    HW2 3567   0.855   0.761   4.777
  890SOL     OW 3568   2.689   3.144   0.473
  890SOL    HW1 3569   2.734   3.195   0.546
  890SOL    HW2 3570   2.628   3.205   0.422
  891SOL     OW 3571   6.078   2.967   5.883
  891SOL    HW1 3572   6.088   3.020   5.799
  891SOL    HW2 3573   6.168   2.932   5.910
  892SOL     OW 3574   1.930   4.669   2.027
  892SOL    HW1 3575   1.905   4.630   1.938
  892SOL    HW2 3576   1.865   4.637   2.097
  893SOL     OW 3577   1.842   0.373   2.080
  893SOL    HW1 3578   1.852   0.453   2.022
  893SOL    HW2 3579   1.853   0.290   2.024
  894SOL     OW 3580   1.316   4.855   4.402
  894SOL    HW1 3581   1.414   4.877   4.396
  894SOL    HW2 3582   1.264   4.917   4.345
  895SOL     OW 3583   2.619   1.410   4.479
  895SOL    HW1 3584   2.708   1.366   4.494
  895SOL    HW2 3585   2.547   1.353   4.516
  896SOL     OW 3586   4.708   0.286   3.481
  896SOL    HW1 3587   4.768   0.220   3.526
  896SOL    HW2 3588   4.696   0.260   3.385
  897SOL     OW 3589   6.247   1.276   6.848
  897SOL    HW1 3590   6.162   1.305   6.804
  897SOL    HW2 3591   6.234   1.186   6.890
  898SOL     OW 3592   4.968   5.826   3.524
  898SOL    HW1 3593   5.007   5.905   3.476
  898SOL    HW2 3594   4.974   5.842   3.623
  899SOL     OW 3595   1.399   4.874   0.129
  899SOL    HW1 3596   1.442   4.891   0.218
  899SOL    HW2 3597   1.459   4.905   0.056
  900SOL     OW 3598   0.241   5.912   3.552
  900SOL    HW1 3599   0.218   5.838   3.489
  900SOL    HW2 3600   0.340   5.923   3.555
  901SOL     OW 3601   6.548   2.170   3.399
  901SOL    HW1 3602   6.561   2.093   3.461
  901SOL    HW2 3603   6.512   2.248   3.450
  902SOL     OW 3604   1.584   6.037   0.009
  902SOL    HW1 3605   1.557   6.089   0.090
  902SOL    HW2 3606   1.645   5.962   0.037
  903SOL     OW 3607   1.142   4.717   6.525
  903SOL    HW1 3608   1.238   4.690   6.517
  903SOL    HW2 3609   1.095   4.702   6.438
  904SOL     OW 3610   1.376   2.410   4.407
  904SOL    HW1 3611   1.297   2.349   4.403
  904SOL    HW2 3612   1.356   2.493   4.355
  905SOL     OW 3613   6.262   3.215   3.504
  905SOL    HW1 3614   6.231   3.161   3.582
  905SOL    HW2 3615   6.362   3.216   3.502
  906SOL     OW 3616   6.836   2.848   5.482
  906SOL    HW1 3617   6.795   2.877   5.396
  906SOL    HW2 3618   6.898   2.920   5.516
  907SOL     OW 3619   6.745   4.123   2.848
  907SOL    HW1 3620   6.786   4.206   2.809
  907SOL    HW2 3621   6.813   4.050   2.850
  908SOL     OW 3622   2.522   1.116   3.483
  908SOL    HW1 3623   2.542   1.201   3.531
  908SOL    HW2 3624   2.458   1.135   3.408
  909SOL     OW 3625   3.196   6.765   2.596
  909SOL    HW1 3626   3.123   6.810   2.545
  909SOL    HW2 3627   3.237   6.829   2.660
  910SOL     OW 3628   1.179   0.566   2.341
  910SOL    HW1 3629   1.138   0.475   2.352
  910SOL    HW2 3630   1.256   0.561   2.278
  911SOL     OW 3631   1.195   2.611   0.967
  911SOL    HW1 3632   1.113   2.561   0.941
  911SOL    HW2 3633   1.199   2.619   1.066
  912SOL     OW 3634   2.138   1.144   1.037
  912SOL    HW1 3635   2.086   1.069   0.995
  912SOL    HW2 3636   2.229   1.149   0.995
  913SOL     OW 3637   2.093   0.704   1.728
  913SOL    HW1 3638   2.178   0.754   1.712
  913SOL    HW2 3639   2.105   0.608   1.703
  914SOL     OW 3640   3.049   4.810   2.333
  914SOL    HW1 3641   3.082   4.818   2.239
  914SOL    HW2 3642   2.953   4.781   2.331
  915SOL     OW 3643   3.102   2.348   1.316
  915SOL    HW1 3644   3.147   2.310   1.235
  915SOL    HW2 3645   3.024   2.403   1.287
  916SOL     OW 3646   0.367   3.752   2.708
  916SOL    HW1 3647   0.414   3.724   2.792
  916SOL    HW2 3648   0.416   3.717   2.629
  917SOL     OW 3649   4.070   0.749   5.484
  917SOL    HW1 3650   4.138   0.677   5.496
  917SOL    HW2 3651   3.991   0.730   5.543
  918SOL     OW 3652   6.807   2.407   5.191
  918SOL    HW1 3653   6.881   2.390   5.256
  918SOL    HW2 3654   6.794   2.326   5.134
  919SOL     OW 3655   0.525   0.143   0.731
  919SOL    HW1 3656   0.432   0.174   0.710
  919SOL    HW2 3657   0.528   0.109   0.825
  920SOL     OW 3658   1.215   2.110   2.446
  920SOL    HW1 3659   1.115   2.116   2.442
  920SOL    HW2 3660   1.252   2.117   2.353
  921SOL     OW 3661   4.351   4.222   0.220
  921SOL    HW1 3662   4.271   4.257   0.172
  921SOL    HW2 3663   4.430   4.220   0.158
  922SOL     OW 3664   2.341   5.855   6.538
  922SOL    HW1 3665   2.279   5.784   6.505
  922SOL    HW2 3666   2.426   5.851   6.486
  923SOL     OW 3667   3.368   1.166   7.016
  923SOL    HW1 3668   3.448   1.156   6.957
  923SOL    HW2 3669   3.385   1.123   0.086
  924SOL     OW 3670   5.697   5.146   1.920
  924SOL    HW1 3671   5.778   5.201   1.901
  924SOL    HW2 3672   5.720   5.049   1.910
  925SOL     OW 3673   5.689   2.240   1.629
  925SOL    HW1 3674   5.770   2.218   1.683
  925SOL    HW2 3675   5.682   2.177   1.552
  926SOL     OW 3676   3.654   5.925   1.689
  926SOL    HW1 3677   3.578   5.972   1.733
  926SOL    HW2 3678   3.673   5.966   1.600
  927SOL     OW 3679   5.427   5.303   5.323
  927SOL    HW1 3680   5.332   5.334   5.313
  927SOL    HW2 3681   5.440   5.219   5.270
  928SOL     OW 3682   6.884   1.381   1.441
  928SOL    HW1 3683   6.939   1.395   1.524
  928SOL    HW2 3684   6.810   1.316   1.461
  929SOL     OW 3685   6.615   2.083   2.390
  929SOL    HW1 3686   6.556   2.133   2.327
  929SOL    HW2 3687   6.693   2.141   2.416
  930SOL     OW 3688   6.039   4.308   2.576
  930SOL    HW1 3689   5.945   4.279   2.559
  930SOL    HW2 3690   6.052   4.402   2.545
  931SOL     OW 3691   6.883   3.409   1.286
  931SOL    HW1 3692   6.814   3.341   1.312
  931SOL    HW2 3693   6.930   3.379   1.203
  932SOL     OW 3694   4.767   6.347   0.586
  932SOL    HW1 3695   4.855   6.379   0.553
  932SOL    HW2 3696   4.716   6.424   0.626
  933SOL     OW 3697   0.497   6.296   3.379
  933SOL    HW1 3698   0.505   6.225   3.449
  933SOL    HW2 3699   0.588   6.323   3.348
  934SOL     OW 3700   4.027   1.902   5.076
  934SOL    HW1 3701   4.038   1.825   5.139
  934SOL    HW2 3702   4.002   1.867   4.986
  935SOL     OW 3703   0.904   4.017   4.257
  935SOL    HW1 3704   0.982   3.988   4.312
  935SOL    HW2 3705   0.864   3.938   4.211
  936SOL     OW 3706   0.746   1.004   1.816
  936SOL    HW1 3707   0.668   1.064   1.797
  936SOL    HW2 3708   0.816   1.055   1.867
  937SOL     OW 3709   4.829   2.171   2.786
  937SOL    HW1 3710   4.884   2.092   2.758
  937SOL    HW2 3711   4.779   2.206   2.706
  938SOL     OW 3712   0.899   0.843   6.341
  938SOL    HW1 3713   0.884   0.922   6.400
  938SOL    HW2 3714   0.920   0.763   6.397
  939SOL     OW 3715   0.057   0.876   4.799
  939SOL    HW1 3716   0.137   0.836   4.845
  939SOL    HW2 3717   7.005   0.806   4.789
  940SOL     OW 3718   6.190   6.920   3.559
  940SOL    HW1 3719   6.251   6.994   3.528
  940SOL    HW2 3720   6.243   6.853   3.610
  941SOL     OW 3721   5.477   3.240   4.650
  941SOL    HW1 3722   5.535   3.166   4.683
  941SOL    HW2 3723   5.532   3.305   4.598
  942SOL     OW 3724   4.214   6.109   6.202
  942SOL    HW1 3725   4.186   6.204   6.221
  942SOL    HW2 3726   4.300   6.090   6.249
  943SOL     OW 3727   5.283   1.600   0.332
  943SOL    HW1 3728   5.353   1.604   0.403
  943SOL    HW2 3729   5.319   1.553   0.251
  944SOL     OW 3730   5.025   4.790   4.265
  944SOL    HW1 3731   5.112   4.754   4.299
  944SOL    HW2 3732   4.951   4.762   4.326
  945SOL     OW 3733   6.103   3.114   6.365
  945SOL    HW1 3734   6.123   3.153   6.275
  945SOL    HW2 3735   6.174   3.048   6.388
  946SOL     OW 3736   6.590   3.009   5.870
  946SOL    HW1 3737   6.657   2.941   5.843
  946SOL    HW2 3738   6.632   3.100   5.870
  947SOL     OW 3739   1.353   2.128   6.091
  947SOL    HW1 3740   1.327   2.224   6.101
  947SOL    HW2 3741   1.279   2.078   6.046
  948SOL     OW 3742   3.413   2.054   1.063
  948SOL    HW1 3743   3.357   2.134   1.086
  948SOL    HW2 3744   3.510   2.077   1.072
  949SOL     OW 3745   5.360   5.059   5.850
  949SOL    HW1 3746   5.292   5.077   5.779
  949SOL    HW2 3747   5.337   5.111   5.932
  950SOL     OW 3748   3.772   5.319   0.914
  950SOL    HW1 3749   3.818   5.297   1.000
  950SOL    HW2 3750   3.740   5.413   0.916
  951SOL     OW 3751   0.400   3.150   3.250
  951SOL    HW1 3752   0.399   3.248   3.274
  951SOL    HW2 3753   0.456   3.100   3.316
  952SOL     OW 3754   4.508   1.630   1.120
  952SOL    HW1 3755   4.585   1.692   1.133
  952SOL    HW2 3756   4.430   1.681   1.084
  953SOL     OW 3757   4.057   6.433   5.577
  953SOL    HW1 3758   4.035   6.498   5.504
  953SOL    HW2 3759   4.054   6.479   5.666
  954SOL     OW 3760   6.507   6.346   1.592
  954SOL    HW1 3761   6.513   6.309   1.499
  954SOL    HW2 3762   6.416   6.384   1.606
  955SOL     OW 3763   1.340   6.165   3.497
  955SOL    HW1 3764   1.358   6.173   3.595
  955SOL    HW2 3765   1.256   6.215   3.474
  956SOL     OW 3766   1.827   2.906   0.584
  956SOL    HW1 3767   1.906   2.955   0.547
  956SOL    HW2 3768   1.803   2.945   0.673
  957SOL     OW 3769   2.621   5.841   4.294
  957SOL    HW1 3770   2.608   5.921   4.237
  957SOL    HW2 3771   2.660   5.868   4.382
  958SOL     OW 3772   4.090   2.462   6.572
  958SOL    HW1 3773   3.998   2.499   6.564
  958SOL    HW2 3774   4.153   2.517   6.517
  959SOL     OW 3775   1.802   4.297   0.330
  959SOL    HW1 3776   1.811   4.316   0.428
  959SOL    HW2 3777   1.706   4.309   0.303
  960SOL     OW 3778   1.703   4.036   5.683
  960SOL    HW1 3779   1.671   4.129   5.702
  960SOL    HW2 3780   1.800   4.029   5.705
  961SOL     OW 3781   3.728   6.435   6.836
  961SOL    HW1 3782   3.659   6.483   6.890
  961SOL    HW2 3783   3.729   6.472   6.743
  962SOL     OW 3784   0.421   0.125   4.001
  962SOL    HW1 3785   0.486   0.073   4.057
  962SOL    HW2 3786   0.344   0.066   3.977
  963SOL     OW 3787   5.733   6.911   3.075
  963SOL    HW1 3788   5.682   6.950   2.998
  963SOL    HW2 3789   5.824   6.883   3.044
  964SOL     OW 3790   6.223   4.589   1.596
  964SOL    HW1 3791   6.277   4.510   1.627
  964SOL    HW2 3792   6.179   4.631   1.675
  965SOL     OW 3793   1.905   1.991   0.221
  965SOL    HW1 3794   1.892   1.896   0.247
  965SOL    HW2 3795   1.941   1.996   0.128
  966SOL     OW 3796   5.519   1.870   1.754
  966SOL    HW1 3797   5.509   1.941   1.824
  966SOL    HW2 3798   5.472   1.899   1.670
  967SOL     OW 3799   0.654   5.413   2.858
  967SOL    HW1 3800   0.603   5.327   2.852
  967SOL    HW2 3801   0.729   5.402   2.923
  968SOL     OW 3802   0.285   4.423   0.305
  968SOL    HW1 3803   0.255   4.378   0.389
  968SOL    HW2 3804   0.214   4.414   0.235
  969SOL     OW 3805   3.352   7.003   6.485
  969SOL    HW1 3806   3.342   0.076   6.445
  969SOL    HW2 3807   3.449   6.983   6.500
  970SOL     OW 3808   5.571   4.374   6.735
  970SOL    HW1 3809   5.586   4.430   6.653
  970SOL    HW2 3810   5.479   4.390   6.770
  971SOL     OW 3811   0.472   1.934   0.302
  971SOL    HW1 3812   0.496   1.837   0.303
  971SOL    HW2 3813   0.454   1.963   0.208
  972SOL     OW 3814   4.043   6.663   6.348
  972SOL    HW1 3815   4.109   6.657   6.273
  972SOL    HW2 3816   3.953   6.684   6.312
  973SOL     OW 3817   6.339   2.915   5.954
  973SOL    HW1 3818   6.354   2.943   6.049
  973SOL    HW2 3819   6.414   2.948   5.897
  974SOL     OW 3820   2.246   0.435   4.158
  974SOL    HW1 3821   2.232   0.369   4.084
  974SOL    HW2 3822   2.262   0.525   4.119
  975SOL     OW 3823   2.835   6.689   4.246
  975SOL    HW1 3824   2.832   6.787   4.264
  975SOL    HW2 3825   2.796   6.669   4.156
  976SOL     OW 3826   0.210   4.972   4.194
  976SOL    HW1 3827   0.221   4.966   4.095
  976SOL    HW2 3828   0.297   4.950   4.238
  977SOL     OW 3829   0.891   2.070   1.999
  977SOL    HW1 3830   0.975   2.028   1.965
  977SOL    HW2 3831   0.818   2.002   1.998
  978SOL     OW 3832   5.958   2.732   3.503
  978SOL    HW1 3833   5.878   2.791   3.514
  978SOL    HW2 3834   6.026   2.754   3.573
  979SOL     OW 3835   5.922   1.261   2.662
  979SOL    HW1 3836   6.006   1.208   2.671
  979SOL    HW2 3837   5.880   1.274   2.752
  980SOL     OW 3838   6.213   5.759   5.210
  980SOL    HW1 3839   6.215   5.789   5.305
  980SOL    HW2 3840   6.181   5.665   5.205
  981SOL     OW 3841   6.238   3.226   6.989
  981SOL    HW1 3842   6.178   3.175   0.033
  981SOL    HW2 3843   6.236   3.323   7.013
  982SOL     OW 3844   1.704   4.802   6.855
  982SOL    HW1 3845   1.720   4.771   6.948
  982SOL    HW2 3846   1.667   4.895   6.857
  983SOL     OW 3847   5.776   1.626   2.999
  983SOL    HW1 3848   5.774   1.662   2.906
  983SOL    HW2 3849   5.815   1.695   3.060
  984SOL     OW 3850   4.890   3.404   5.264
  984SOL    HW1 3851   4.860   3.342   5.336
  984SOL    HW2 3852   4.821   3.475   5.250
  985SOL     OW 3853   2.354   4.509   0.091
  985SOL    HW1 3854   2.315   4.418   0.109
  985SOL    HW2 3855   2.282   4.578   0.096
  986SOL     OW 3856   5.057   4.085   5.026
  986SOL    HW1 3857   5.101   4.038   4.950
  986SOL    HW2 3858   5.046   4.021   5.103
  987SOL     OW 3859   2.617   1.362   3.017
  987SOL    HW1 3860   2.647   1.451   2.981
  987SOL    HW2 3861   2.694   1.299   3.016
  988SOL     OW 3862   3.823   3.562   1.423
  988SOL    HW1 3863   3.778   3.633   1.477
  988SOL    HW2 3864   3.801   3.472   1.462
  989SOL     OW 3865   1.188   1.176   4.752
  989SOL    HW1 3866   1.096   1.195   4.785
  989SOL    HW2 3867   1.194   1.081   4.721
  990SOL     OW 3868   4.481   5.902   2.115
  990SOL    HW1 3869   4.510   5.808   2.100
  990SOL    HW2 3870   4.553   5.953   2.162
  991SOL     OW 3871   5.982   1.753   5.998
  991SOL    HW1 3872   5.970   1.654   5.998
  991SOL    HW2 3873   6.070   1.776   5.956
  992SOL     OW 3874   0.070   2.675   0.760
  992SOL    HW1 3875   0.106   2.631   0.678
  992SOL    HW2 3876   0.111   2.766   0.770
  993SOL     OW 3877   4.259   6.641   3.890
  993SOL    HW1 3878   4.228   6.546   3.888
  993SOL    HW2 3879   4.268   6.676   3.797
  994SOL     OW 3880   2.966   3.709   3.574
  994SOL    HW1 3881   2.965   3.773   3.650
  994SOL    HW2 3882   2.948   3.617   3.607
  995SOL     OW 3883   1.428   1.602   4.707
  995SOL    HW1 3884   1.488   1.658   4.763
  995SOL    HW2 3885   1.483   1.545   4.646
  996SOL     OW 3886   2.077   3.266   0.076
  996SOL    HW1 3887   1.988   3.312   0.072
  996SOL    HW2 3888   2.133   3.295   7.016
  997SOL     OW 3889   6.943   0.993   0.575
  997SOL    HW1 3890   6.946   1.069   0.639
  997SOL    HW2 3891   6.849   0.962   0.564
  998SOL     OW 3892   4.840   6.725   3.508
  998SOL    HW1 3893   4.838   6.640   3.455
  998SOL    HW2 3894   4.935   6.758   3.514
  999SOL     OW 3895   6.655   4.824   6.661
  999SOL    HW1 3896   6.570   4.804   6.710
  999SOL    HW2 3897   6.691   4.740   6.621
 1000SOL     OW 3898   3.649   1.618   5.130
 1000SOL    HW1 3899   3.589   1.546   5.094
 1000SOL    HW2 3900   3.614   1.708   5.104
 1001SOL     OW 3901   4.913   0.904   4.744
 1001SOL    HW1 3902   4.845   0.924   4.673
 1001SOL    HW2 3903   4.963   0.987   4.766
 1002SOL     OW 3904   0.197   1.027   0.505
 1002SOL    HW1 3905   0.241   1.053   0.591
 1002SOL    HW2 3906   0.101   1.005   0.522
 1003SOL     OW 3907   4.432   4.994   2.654
 1003SOL    HW1 3908   4.428   4.954   2.563
 1003SOL    HW2 3909   4.348   5.044   2.672
 1004SOL     OW 3910   5.968   6.263   6.737
 1004SOL    HW1 3911   6.047   6.302   6.786
 1004SOL    HW2 3912   5.887   6.319   6.756
 1005SOL     OW 3913   5.282   6.472   3.008
 1005SOL    HW1 3914   5.360   6.512   2.960
 1005SOL    HW2 3915   5.237   6.405   2.949
 1006SOL     OW 3916   1.732   5.810   0.030
 1006SOL    HW1 3917   1.795   5.883   0.003
 1006SOL    HW2 3918   1.766   5.722   7.014
 1007SOL     OW 3919   6.068   1.889   2.702
 1007SOL    HW1 3920   6.045   1.920   2.610
 1007SOL    HW2 3921   6.025   1.950   2.769
 1008SOL     OW 3922   3.859   1.113   5.405
 1008SOL    HW1 3923   3.875   1.161   5.319
 1008SOL    HW2 3924   3.897   1.166   5.481
 1009SOL     OW 3925   2.759   6.210   5.566
 1009SOL    HW1 3926   2.758   6.222   5.665
 1009SOL    HW2 3927   2.852   6.194   5.535
 1010SOL     OW 3928   4.889   6.408   5.653
 1010SOL    HW1 3929   4.965   6.461   5.692
 1010SOL    HW2 3930   4.804   6.431   5.701
 1011SOL     OW 3931   2.907   5.026   4.294
 1011SOL    HW1 3932   2.892   5.107   4.351
 1011SOL    HW2 3933   2.842   4.955   4.320
 1012SOL     OW 3934   2.830   6.168   0.880
 1012SOL    HW1 3935   2.913   6.190   0.828
 1012SOL    HW2 3936   2.756   6.230   0.854
 1013SOL     OW 3937   0.560   0.143   0.180
 1013SOL    HW1 3938   0.482   0.176   0.233
 1013SOL    HW2 3939   0.538   0.145   0.083
 1014SOL     OW 3940   5.926   6.897   6.736
 1014SOL    HW1 3941   5.958   6.978   6.688
 1014SOL    HW2 3942   5.964   6.815   6.693
 1015SOL     OW 3943   2.711   6.940   4.766
 1015SOL    HW1 3944   2.787   6.978   4.714
 1015SOL    HW2 3945   2.733   6.846   4.793
 1016SOL     OW 3946   4.302   3.330   1.697
 1016SOL    HW1 3947   4.216   3.323   1.648
 1016SOL    HW2 3948   4.340   3.238   1.711
 1017SOL     OW 3949   4.597   0.095   6.223
 1017SOL    HW1 3950   4.639   0.163   6.163
 1017SOL    HW2 3951   4.595   0.006   6.177
 1018SOL     OW 3952   1.332   1.668   1.502
 1018SOL    HW1 3953   1.334   1.756   1.548
 1018SOL    HW2 3954   1.262   1.610   1.543
 1019SOL     OW 3955   5.739   0.689   0.596
 1019SOL    HW1 3956   5.711   0.740   0.678
 1019SOL    HW2 3957   5.737   0.591   0.615
 1020SOL     OW 3958   4.212   1.743   1.534
 1020SOL    HW1 3959   4.308   1.720   1.551
 1020SOL    HW2 3960   4.153   1.682   1.588
 1021SOL     OW 3961   5.653   1.392   1.601
 1021SOL    HW1 3962   5.720   1.370   1.672
 1021SOL    HW2 3963   5.562   1.365   1.631
 1022SOL     OW 3964   2.970   3.644   0.086
 1022SOL    HW1 3965   3.019   3.675   0.168
 1022SOL    HW2 3966   2.872   3.665   0.097
 1023SOL     OW 3967   6.793   1.077   4.211
 1023SOL    HW1 3968   6.868   1.110   4.153
 1023SOL    HW2 3969   6.705   1.102   4.169
 1024SOL     OW 3970   6.319   2.402   3.947
 1024SOL    HW1 3971   6.302   2.438   4.039
 1024SOL    HW2 3972   6.233   2.373   3.906
 1025SOL     OW 3973   2.261   4.376   1.523
 1025SOL    HW1 3974   2.193   4.304   1.511
 1025SOL    HW2 3975   2.247   4.420   1.612
 1026SOL     OW 3976   0.591   2.611   6.411
 1026SOL    HW1 3977   0.544   2.574   6.331
 1026SOL    HW2 3978   0.543   2.693   6.442
 1027SOL     OW 3979   1.828   5.019   0.748
 1027SOL    HW1 3980   1.833   5.005   0.847
 1027SOL    HW2 3981   1.778   5.103   0.729
 1028SOL     OW 3982   0.519   5.487   6.627
 1028SOL    HW1 3983   0.423   5.496   6.601
 1028SOL    HW2 3984   0.525   5.468   6.725
 1029SOL     OW 3985   4.226   0.939   4.446
 1029SOL    HW1 3986   4.219   0.845   4.412
 1029SOL    HW2 3987   4.136   0.982   4.446
 1030SOL     OW 3988   4.495   4.784   4.557
 1030SOL    HW1 3989   4.398   4.760   4.550
 1030SOL    HW2 3990   4.549   4.700   4.562
 1031SOL     OW 3991   2.341   5.984   1.243
 1031SOL    HW1 3992   2.245   6.004   1.220
 1031SOL    HW2 3993   2.356   6.003   1.340
 1032SOL     OW 3994   1.007   2.104   5.213
 1032SOL    HW1 3995   1.061   2.188   5.208
 1032SOL    HW2 3996   0.951   2.095   5.131
 1033SOL     OW 3997   2.822   0.266   2.258
 1033SOL    HW1 3998   2.875   0.315   2.189
 1033SOL    HW2 3999   2.809   0.171   2.228
 1034SOL     OW 4000   0.146   5.221   2.156
 1034SOL    HW1 4001   0.092   5.140   2.133
 1034SOL    HW2 4002   0.242   5.195   2.165
 1035SOL     OW 4003   3.387   1.974   3.428
 1035SOL    HW1 4004   3.363   2.022   3.344
 1035SOL    HW2 4005   3.389   1.876   3.411
 1036SOL     OW 4006   4.651   6.610   6.397
 1036SOL    HW1 4007   4.697   6.563   6.472
 1036SOL    HW2 4008   4.700   6.695   6.375
 1037SOL     OW 4009   3.511   1.117   5.840
 1037SOL    HW1 4010   3.600   1.161   5.834
 1037SOL    HW2 4011   3.486   1.105   5.937
 1038SOL     OW 4012   3.037   1.813   5.220
 1038SOL    HW1 4013   2.991   1.757   5.151
 1038SOL    HW2 4014   3.052   1.905   5.183
 1039SOL     OW 4015   5.408   1.649   2.353
 1039SOL    HW1 4016   5.314   1.676   2.374
 1039SOL    HW2 4017   5.426   1.664   2.256
 1040SOL     OW 4018   5.810   4.678   4.788
 1040SOL    HW1 4019   5.806   4.745   4.862
 1040SOL    HW2 4020   5.727   4.683   4.733
 1041SOL     OW 4021   1.413   6.458   4.986
 1041SOL    HW1 4022   1.446   6.541   4.940
 1041SOL    HW2 4023   1.366   6.484   5.071
 1042SOL     OW 4024   4.543   4.691   0.503
 1042SOL    HW1 4025   4.505   4.667   0.593
 1042SOL    HW2 4026   4.586   4.611   0.463
 1043SOL     OW 4027   4.262   0.307   6.213
 1043SOL    HW1 4028   4.337   0.336   6.272
 1043SOL    HW2 4029   4.266   0.208   6.201
 1044SOL     OW 4030   3.846   4.054   3.982
 1044SOL    HW1 4031   3.869   3.957   3.979
 1044SOL    HW2 4032   3.923   4.107   3.945
 1045SOL     OW 4033   1.947   1.889   2.476
 1045SOL    HW1 4034   1.870   1.901   2.412
 1045SOL    HW2 4035   2.015   1.961   2.460
 1046SOL     OW 4036   2.524   1.070   2.395
 1046SOL    HW1 4037   2.614   1.053   2.434
 1046SOL    HW2 4038   2.507   1.168   2.389
 1047SOL     OW 4039   0.285   6.687   2.087
 1047SOL    HW1 4040   0.264   6.633   2.169
 1047SOL    HW2 4041   0.201   6.730   2.053
 1048SOL     OW 4042   6.998   3.487   5.053
 1048SOL    HW1 4043   7.016   3.459   4.958
 1048SOL    HW2 4044   6.913   3.540   5.056
 1049SOL     OW 4045   0.299   3.635   5.706
 1049SOL    HW1 4046   0.220   3.578   5.683
 1049SOL    HW2 4047   0.344   3.666   5.623
 1050SOL     OW 4048   3.082   0.357   1.548
 1050SOL    HW1 4049   3.147   0.287   1.519
 1050SOL    HW2 4050   2.989   0.320   1.544
 1051SOL     OW 4051   5.263   3.600   2.349
 1051SOL    HW1 4052   5.176   3.567   2.312
 1051SOL    HW2 4053   5.338   3.561   2.295
 1052SOL     OW 4054   2.756   6.509   3.630
 1052SOL    HW1 4055   2.727   6.604   3.629
 1052SOL    HW2 4056   2.676   6.450   3.641
 1053SOL     OW 4057   3.814   5.298   2.959
 1053SOL    HW1 4058   3.740   5.355   2.996
 1053SOL    HW2 4059   3.824   5.216   3.016
 1054SOL     OW 4060   3.592   6.003   5.683
 1054SOL    HW1 4061   3.569   6.048   5.596
 1054SOL    HW2 4062   3.618   6.072   5.750
 1055SOL     OW 4063   3.805   4.877   4.378
 1055SOL    HW1 4064   3.739   4.859   4.451
 1055SOL    HW2 4065   3.896   4.848   4.408
 1056SOL     OW 4066   2.693   5.734   0.383
 1056SOL    HW1 4067   2.759   5.718   0.457
 1056SOL    HW2 4068   2.715   5.675   0.306
 1057SOL     OW 4069   3.995   3.872   1.544
 1057SOL    HW1 4070   3.907   3.920   1.550
 1057SOL    HW2 4071   4.058   3.908   1.612
 1058SOL     OW 4072   2.421   0.306   2.306
 1058SOL    HW1 4073   2.337   0.353   2.334
 1058SOL    HW2 4074   2.418   0.287   2.208
 1059SOL     OW 4075   4.171   6.894   0.795
 1059SOL    HW1 4076   4.233   6.953   0.846
 1059SOL    HW2 4077   4.224   6.829   0.740
 1060SOL     OW 4078   3.416   1.755   3.793
 1060SOL    HW1 4079   3.470   1.813   3.855
 1060SOL    HW2 4080   3.340   1.715   3.844
 1061SOL     OW 4081   2.584   5.429   1.212
 1061SOL    HW1 4082   2.637   5.458   1.133
 1061SOL    HW2 4083   2.614   5.339   1.243
 1062SOL     OW 4084   5.235   3.989   4.840
 1062SOL    HW1 4085   5.239   3.930   4.759
 1062SOL    HW2 4086   5.308   4.057   4.834
 1063SOL     OW 4087   3.913   2.156   5.982
 1063SOL    HW1 4088   3.855   2.089   6.029
 1063SOL    HW2 4089   3.939   2.119   5.892
 1064SOL     OW 4090   0.869   3.226   2.568
 1064SOL    HW1 4091   0.853   3.128   2.578
 1064SOL    HW2 4092   0.849   3.273   2.654
 1065SOL     OW 4093   3.928   5.825   0.273
 1065SOL    HW1 4094   3.909   5.920   0.251
 1065SOL    HW2 4095   4.026   5.815   0.293
 1066SOL     OW 4096   5.632   6.846   3.739
 1066SOL    HW1 4097   5.587   6.921   3.787
 1066SOL    HW2 4098   5.714   6.880   3.693
 1067SOL     OW 4099   3.549   4.431   0.639
 1067SOL    HW1 4100   3.484   4.420   0.714
 1067SOL    HW2 4101   3.626   4.368   0.652
 1068SOL     OW 4102   1.050   5.391   2.181
 1068SOL    HW1 4103   1.045   5.464   2.250
 1068SOL    HW2 4104   1.138   5.396   2.134
 1069SOL     OW 4105   3.681   3.706   3.087
 1069SOL    HW1 4106   3.717   3.799   3.095
 1069SOL    HW2 4107   3.603   3.706   3.025
 1070SOL     OW 4108   1.373   6.380   0.380
 1070SOL    HW1 4109   1.353   6.282   0.389
 1070SOL    HW2 4110   1.302   6.433   0.425
 1071SOL     OW 4111   4.618   5.744   3.751
 1071SOL    HW1 4112   4.673   5.692   3.816
 1071SOL    HW2 4113   4.661   5.833   3.735
 1072SOL     OW 4114   4.411   5.616   3.591
 1072SOL    HW1 4115   4.478   5.681   3.626
 1072SOL    HW2 4116   4.449   5.567   3.514
 1073SOL     OW 4117   3.015   5.737   3.707
 1073SOL    HW1 4118   2.986   5.746   3.612
 1073SOL    HW2 4119   2.966   5.803   3.764
 1074SOL     OW 4120   2.425   5.152   3.803
 1074SOL    HW1 4121   2.509   5.097   3.798
 1074SOL    HW2 4122   2.433   5.217   3.878
 1075SOL     OW 4123   0.815   4.443   2.801
 1075SOL    HW1 4124   0.732   4.473   2.848
 1075SOL    HW2 4125   0.892   4.446   2.865
 1076SOL     OW 4126   5.338   3.594   3.440
 1076SOL    HW1 4127   5.334   3.494   3.447
 1076SOL    HW2 4128   5.258   3.634   3.486
 1077SOL     OW 4129   3.840   0.894   2.326
 1077SOL    HW1 4130   3.834   0.827   2.400
 1077SOL    HW2 4131   3.804   0.854   2.242
 1078SOL     OW 4132   6.189   2.379   1.944
 1078SOL    HW1 4133   6.205   2.367   1.846
 1078SOL    HW2 4134   6.259   2.438   1.983
 1079SOL     OW 4135   1.766   4.876   3.013
 1079SOL    HW1 4136   1.770   4.894   3.111
 1079SOL    HW2 4137   1.673   4.852   2.987
 1080SOL     OW 4138   2.546   5.416   3.978
 1080SOL    HW1 4139   2.586   5.364   4.054
 1080SOL    HW2 4140   2.590   5.387   3.892
 1081SOL     OW 4141   1.334   0.464   0.750
 1081SOL    HW1 4142   1.276   0.510   0.682
 1081SOL    HW2 4143   1.428   0.497   0.740
 1082SOL     OW 4144   1.936   0.641   1.261
 1082SOL    HW1 4145   1.932   0.706   1.185
 1082SOL    HW2 4146   1.901   0.686   1.344
 1083SOL     OW 4147   3.531   3.545   1.671
 1083SOL    HW1 4148   3.622   3.588   1.671
 1083SOL    HW2 4149   3.481   3.572   1.589
 1084SOL     OW 4150   6.130   4.272   1.720
 1084SOL    HW1 4151   6.136   4.369   1.744
 1084SOL    HW2 4152   6.043   4.254   1.675
 1085SOL     OW 4153   1.735   5.859   3.476
 1085SOL    HW1 4154   1.784   5.934   3.519
 1085SOL    HW2 4155   1.770   5.844   3.384
 1086SOL     OW 4156   2.695   6.219   2.261
 1086SOL    HW1 4157   2.745   6.238   2.177
 1086SOL    HW2 4158   2.643   6.134   2.251
 1087SOL     OW 4159   3.668   3.059   5.271
 1087SOL    HW1 4160   3.573   3.031   5.257
 1087SOL    HW2 4161   3.712   2.998   5.337
 1088SOL     OW 4162   6.800   5.358   2.226
 1088SOL    HW1 4163   6.809   5.280   2.164
 1088SOL    HW2 4164   6.703   5.373   2.247
 1089SOL     OW 4165   6.874   0.974   3.409
 1089SOL    HW1 4166   6.778   0.983   3.436
 1089SOL    HW2 4167   6.880   0.942   3.314
 1090SOL     OW 4168   3.097   2.099   6.812
 1090SOL    HW1 4169   3.129   2.006   6.793
 1090SOL    HW2 4170   3.003   2.095   6.845
 1091SOL     OW 4171   1.503   2.102   5.787
 1091SOL    HW1 4172   1.425   2.041   5.772
 1091SOL    HW2 4173   1.561   2.066   5.859
 1092SOL     OW 4174   2.946   4.797   1.218
 1092SOL    HW1 4175   2.918   4.781   1.123
 1092SOL    HW2 4176   2.865   4.800   1.277
 1093SOL     OW 4177   0.157   1.985   1.319
 1093SOL    HW1 4178   0.183   2.048   1.245
 1093SOL    HW2 4179   0.057   1.981   1.325
 1094SOL     OW 4180   0.817   5.784   2.795
 1094SOL    HW1 4181   0.750   5.719   2.760
 1094SOL    HW2 4182   0.784   5.877   2.778
 1095SOL     OW 4183   1.529   3.123   5.591
 1095SOL    HW1 4184   1.608   3.104   5.648
 1095SOL    HW2 4185   1.557   3.177   5.512
 1096SOL     OW 4186   4.003   3.230   2.348
 1096SOL    HW1 4187   3.945   3.305   2.317
 1096SOL    HW2 4188   3.983   3.148   2.295
 1097SOL     OW 4189   2.919   5.278   5.186
 1097SOL    HW1 4190   2.990   5.208   5.182
 1097SOL    HW2 4191   2.900   5.301   5.282
 1098SOL     OW 4192   2.783   0.672   2.815
 1098SOL    HW1 4193   2.694   0.692   2.857
 1098SOL    HW2 4194   2.769   0.621   2.731
 1099SOL     OW 4195   3.288   0.402   2.504
 1099SOL    HW1 4196   3.217   0.437   2.442
 1099SOL    HW2 4197   3.374   0.392   2.454
 1100SOL     OW 4198   6.923   0.742   0.372
 1100SOL    HW1 4199   6.834   0.760   0.330
 1100SOL    HW2 4200   6.910   0.677   0.448
 1101SOL     OW 4201   6.121   4.405   1.009
 1101SOL    HW1 4202   6.148   4.343   1.083
 1101SOL    HW2 4203   6.131   4.360   0.921
 1102SOL     OW 4204   6.611   4.222   4.089
 1102SOL    HW1 4205   6.673   4.184   4.022
 1102SOL    HW2 4206   6.568   4.148   4.141
 1103SOL     OW 4207   0.797   2.303   6.672
 1103SOL    HW1 4208   0.741   2.270   6.596
 1103SOL    HW2 4209   0.893   2.286   6.651
 1104SOL     OW 4210   3.260   5.503   5.425
 1104SOL    HW1 4211   3.205   5.437   5.478
 1104SOL    HW2 4212   3.254   5.480   5.328
 1105SOL     OW 4213   4.147   5.725   0.615
 1105SOL    HW1 4214   4.229   5.670   0.631
 1105SOL    HW2 4215   4.103   5.746   0.702
 1106SOL     OW 4216   0.887   1.977   6.613
 1106SOL    HW1 4217   0.902   2.033   6.531
 1106SOL    HW2 4218   0.971   1.928   6.637
 1107SOL     OW 4219   6.742   6.631   1.470
 1107SOL    HW1 4220   6.742   6.726   1.437
 1107SOL    HW2 4221   6.688   6.624   1.553
 1108SOL     OW 4222   1.026   1.162   0.243
 1108SOL    HW1 4223   1.065   1.086   0.191
 1108SOL    HW2 4224   0.955   1.207   0.189
 1109SOL     OW 4225   4.071   1.892   3.127
 1109SOL    HW1 4226   4.102   1.898   3.222
 1109SOL    HW2 4227   4.148   1.909   3.066
 1110SOL     OW 4228   3.634   3.409   3.237
 1110SOL    HW1 4229   3.623   3.446   3.329
 1110SOL    HW2 4230   3.610   3.312   3.237
 1111SOL     OW 4231   4.278   6.970   6.824
 1111SOL    HW1 4232   4.280   6.884   6.875
 1111SOL    HW2 4233   4.240   6.954   6.733
 1112SOL     OW 4234   0.834   1.391   2.427
 1112SOL    HW1 4235   0.754   1.340   2.397
 1112SOL    HW2 4236   0.900   1.329   2.469
 1113SOL     OW 4237   0.063   4.458   1.672
 1113SOL    HW1 4238   0.010   4.402   1.608
 1113SOL    HW2 4239   0.045   4.428   1.765
 1114SOL     OW 4240   5.800   1.092   5.511
 1114SOL    HW1 4241   5.745   1.009   5.499
 1114SOL    HW2 4242   5.890   1.068   5.545
 1115SOL     OW 4243   1.971   4.685   0.323
 1115SOL    HW1 4244   1.954   4.777   0.359
 1115SOL    HW2 4245   2.069   4.668   0.320
 1116SOL     OW 4246   3.360   6.601   6.436
 1116SOL    HW1 4247   3.264   6.616   6.462
 1116SOL    HW2 4248   3.398   6.527   6.490
 1117SOL     OW 4249   2.985   2.589   0.690
 1117SOL    HW1 4250   3.025   2.500   0.668
 1117SOL    HW2 4251   3.043   2.662   0.654
 1118SOL     OW 4252   1.679   2.318   0.926
 1118SOL    HW1 4253   1.614   2.292   0.855
 1118SOL    HW2 4254   1.766   2.271   0.910
 1119SOL     OW 4255   3.040   3.243   3.629
 1119SOL    HW1 4256   3.054   3.203   3.720
 1119SOL    HW2 4257   3.056   3.174   3.559
 1120SOL     OW 4258   3.250   1.344   3.339
 1120SOL    HW1 4259   3.212   1.265   3.290
 1120SOL    HW2 4260   3.320   1.388   3.282
 1121SOL     OW 4261   4.778   4.114   2.823
 1121SOL    HW1 4262   4.859   4.144   2.773
 1121SOL    HW2 4263   4.696   4.138   2.772
 1122SOL     OW 4264   4.555   5.246   6.484
 1122SOL    HW1 4265   4.497   5.298   6.547
 1122SOL    HW2 4266   4.648   5.244   6.520
 1123SOL     OW 4267   3.659   0.354   2.153
 1123SOL    HW1 4268   3.666   0.378   2.056
 1123SOL    HW2 4269   3.750   0.358   2.194
 1124SOL     OW 4270   2.729   4.646   3.458
 1124SOL    HW1 4271   2.770   4.649   3.366
 1124SOL    HW2 4272   2.717   4.740   3.492
 1125SOL     OW 4273   3.146   4.555   5.422
 1125SOL    HW1 4274   3.091   4.473   5.413
 1125SOL    HW2 4275   3.211   4.544   5.497
 1126SOL     OW 4276   6.348   0.639   2.198
 1126SOL    HW1 4277   6.259   0.646   2.244
 1126SOL    HW2 4278   6.368   0.725   2.151
 1127SOL     OW 4279   2.863   5.514   5.798
 1127SOL    HW1 4280   2.832   5.529   5.704
 1127SOL    HW2 4281   2.961   5.529   5.804
 1128SOL     OW 4282   2.476   1.835   5.379
 1128SOL    HW1 4283   2.480   1.923   5.426
 1128SOL    HW2 4284   2.565   1.815   5.339
 1129SOL     OW 4285   4.171   5.468   6.494
 1129SOL    HW1 4286   4.073   5.490   6.499
 1129SOL    HW2 4287   4.205   5.445   6.585
 1130SOL     OW 4288   1.314   4.750   5.347
 1130SOL    HW1 4289   1.320   4.671   5.286
 1130SOL    HW2 4290   1.218   4.765   5.372
 1131SOL     OW 4291   0.897   3.860   5.625
 1131SOL    HW1 4292   0.896   3.882   5.527
 1131SOL    HW2 4293   0.882   3.943   5.678
 1132SOL     OW 4294   5.140   6.850   4.822
 1132SOL    HW1 4295   5.236   6.825   4.834
 1132SOL    HW2 4296   5.107   6.814   4.734
 1133SOL     OW 4297   6.953   2.071   0.089
 1133SOL    HW1 4298   6.993   2.030   0.006
 1133SOL    HW2 4299   6.879   2.012   0.122
 1134SOL     OW 4300   0.198   3.188   5.906
 1134SOL    HW1 4301   0.177   3.255   5.977
 1134SOL    HW2 4302   0.113   3.158   5.863
 1135SOL     OW 4303   6.801   1.929   3.813
 1135SOL    HW1 4304   6.888   1.930   3.862
 1135SOL    HW2 4305   6.818   1.925   3.715
 1136SOL     OW 4306   3.704   5.256   3.961
 1136SOL    HW1 4307   3.792   5.258   4.009
 1136SOL    HW2 4308   3.695   5.169   3.911
 1137SOL     OW 4309   0.579   0.608   6.759
 1137SOL    HW1 4310   0.643   0.602   6.835
 1137SOL    HW2 4311   0.513   0.534   6.765
 1138SOL     OW 4312   1.162   2.474   5.633
 1138SOL    HW1 4313   1.134   2.517   5.719
 1138SOL    HW2 4314   1.204   2.543   5.574
 1139SOL     OW 4315   0.108   0.041   2.954
 1139SOL    HW1 4316   0.142   0.094   3.032
 1139SOL    HW2 4317   0.012   0.018   2.969
 1140SOL     OW 4318   4.418   2.004   3.249
 1140SOL    HW1 4319   4.327   2.046   3.237
 1140SOL    HW2 4320   4.414   1.908   3.223
 1141SOL     OW 4321   0.528   0.034   6.141
 1141SOL    HW1 4322   0.454   0.046   6.206
 1141SOL    HW2 4323   0.554   6.956   6.137
 1142SOL     OW 4324   5.726   0.363   5.668
 1142SOL    HW1 4325   5.726   0.309   5.583
 1142SOL    HW2 4326   5.820   0.372   5.701
 1143SOL     OW 4327   5.390   2.722   1.411
 1143SOL    HW1 4328   5.297   2.746   1.383
 1143SOL    HW2 4329   5.389   2.635   1.461
 1144SOL     OW 4330   1.035   0.026   4.811
 1144SOL    HW1 4331   0.957   0.086   4.832
 1144SOL    HW2 4332   1.045   0.020   4.712
 1145SOL     OW 4333   3.092   5.070   5.176
 1145SOL    HW1 4334   3.073   5.020   5.091
 1145SOL    HW2 4335   3.103   5.006   5.251
 1146SOL     OW 4336   5.970   1.938   1.947
 1146SOL    HW1 4337   5.977   1.862   1.883
 1146SOL    HW2 4338   5.896   1.921   2.012
 1147SOL     OW 4339   6.815   4.000   2.510
 1147SOL    HW1 4340   6.762   4.081   2.536
 1147SOL    HW2 4341   6.816   3.934   2.585
 1148SOL     OW 4342   5.733   6.989   5.976
 1148SOL    HW1 4343   5.786   6.957   5.898
 1148SOL    HW2 4344   5.718   0.069   5.968
 1149SOL     OW 4345   4.954   3.360   2.573
 1149SOL    HW1 4346   5.053   3.364   2.558
 1149SOL    HW2 4347   4.918   3.453   2.578
 1150SOL     OW 4348   2.498   5.942   5.027
 1150SOL    HW1 4349   2.542   5.861   5.067
 1150SOL    HW2 4350   2.400   5.939   5.044
 1151SOL     OW 4351   2.095   5.155   0.729
 1151SOL    HW1 4352   2.149   5.097   0.668
 1151SOL    HW2 4353   2.008   5.111   0.749
 1152SOL     OW 4354   6.595   0.940   3.779
 1152SOL    HW1 4355   6.512   0.995   3.767
 1152SOL    HW2 4356   6.572   0.855   3.826
 1153SOL     OW 4357   1.574   4.691   2.452
 1153SOL    HW1 4358   1.486   4.655   2.484
 1153SOL    HW2 4359   1.637   4.699   2.530
 1154SOL     OW 4360   1.605   3.547   1.615
 1154SOL    HW1 4361   1.538   3.493   1.566
 1154SOL    HW2 4362   1.564   3.633   1.645
 1155SOL     OW 4363   4.935   1.036   2.143
 1155SOL    HW1 4364   5.018   1.051   2.198
 1155SOL    HW2 4365   4.951   1.068   2.049
 1156SOL     OW 4366   2.841   1.016   4.157
 1156SOL    HW1 4367   2.783   1.038   4.079
 1156SOL    HW2 4368   2.893   0.933   4.138
 1157SOL     OW 4369   1.746   3.552   3.824
 1157SOL    HW1 4370   1.763   3.509   3.913
 1157SOL    HW2 4371   1.707   3.643   3.838
 1158SOL     OW 4372   4.773   5.694   5.546
 1158SOL    HW1 4373   4.822   5.690   5.633
 1158SOL    HW2 4374   4.832   5.660   5.473
 1159SOL     OW 4375   6.022   4.119   2.992
 1159SOL    HW1 4376   6.077   4.165   2.922
 1159SOL    HW2 4377   6.063   4.031   3.015
 1160SOL     OW 4378   2.705   2.344   1.632
 1160SOL    HW1 4379   2.659   2.392   1.707
 1160SOL    HW2 4380   2.790   2.392   1.608
 1161SOL     OW 4381   4.066   1.367   3.127
 1161SOL    HW1 4382   4.125   1.423   3.185
 1161SOL    HW2 4383   4.122   1.309   3.068
 1162SOL     OW 4384   3.206   4.980   1.192
 1162SOL    HW1 4385   3.238   4.908   1.253
 1162SOL    HW2 4386   3.108   4.969   1.176
 1163SOL     OW 4387   4.751   6.451   3.488
 1163SOL    HW1 4388   4.721   6.393   3.412
 1163SOL    HW2 4389   4.685   6.525   3.502
 1164SOL     OW 4390   6.425   4.112   4.249
 1164SOL    HW1 4391   6.329   4.118   4.220
 1164SOL    HW2 4392   6.430   4.125   4.348
 1165SOL     OW 4393   0.385   5.017   1.739
 1165SOL    HW1 4394   0.319   5.081   1.700
 1165SOL    HW2 4395   0.340   4.929   1.756
 1166SOL     OW 4396   3.270   0.914   5.876
 1166SOL    HW1 4397   3.325   0.977   5.821
 1166SOL    HW2 4398   3.258   0.951   5.968
 1167SOL     OW 4399   4.434   1.502   5.539
 1167SOL    HW1 4400   4.376   1.420   5.547
 1167SOL    HW2 4401   4.475   1.522   5.628
 1168SOL     OW 4402   5.616   1.257   4.299
 1168SOL    HW1 4403   5.702   1.263   4.248
 1168SOL    HW2 4404   5.601   1.342   4.350
 1169SOL     OW 4405   2.235   2.284   1.107
 1169SOL    HW1 4406   2.187   2.353   1.052
 1169SOL    HW2 4407   2.322   2.321   1.138
 1170SOL     OW 4408   2.511   0.829   2.106
 1170SOL    HW1 4409   2.498   0.925   2.131
 1170SOL    HW2 4410   2.422   0.784   2.096
 1171SOL     OW 4411   4.503   0.568   0.938
 1171SOL    HW1 4412   4.403   0.569   0.930
 1171SOL    HW2 4413   4.541   0.646   0.888
 1172SOL     OW 4414   3.645   3.311   5.959
 1172SOL    HW1 4415   3.664   3.245   5.887
 1172SOL    HW2 4416   3.659   3.267   6.048
 1173SOL     OW 4417   5.645   6.015   6.603
 1173SOL    HW1 4418   5.682   5.953   6.672
 1173SOL    HW2 4419   5.718   6.074   6.569
 1174SOL     OW 4420   3.526   5.610   6.827
 1174SOL    HW1 4421   3.504   5.687   6.766
 1174SOL    HW2 4422   3.491   5.629   6.918
 1175SOL     OW 4423   0.245   5.234   5.048
 1175SOL    HW1 4424   0.232   5.236   4.949
 1175SOL    HW2 4425   0.230   5.141   5.082
 1176SOL     OW 4426   6.033   3.326   1.644
 1176SOL    HW1 4427   5.993   3.249   1.693
 1176SOL    HW2 4428   6.016   3.316   1.546
 1177SOL     OW 4429   6.742   2.833   5.221
 1177SOL    HW1 4430   6.826   2.845   5.168
 1177SOL    HW2 4431   6.663   2.859   5.165
 1178SOL     OW 4432   4.860   4.795   2.291
 1178SOL    HW1 4433   4.896   4.833   2.376
 1178SOL    HW2 4434   4.802   4.863   2.246
 1179SOL     OW 4435   1.423   5.206   6.415
 1179SOL    HW1 4436   1.443   5.125   6.470
 1179SOL    HW2 4437   1.338   5.191   6.365
 1180SOL     OW 4438   2.410   1.095   4.295
 1180SOL    HW1 4439   2.334   1.160   4.301
 1180SOL    HW2 4440   2.444   1.092   4.201
 1181SOL     OW 4441   1.257   4.039   2.159
 1181SOL    HW1 4442   1.202   4.109   2.205
 1181SOL    HW2 4443   1.200   3.990   2.093
 1182SOL     OW 4444   6.909   3.516   4.028
 1182SOL    HW1 4445   6.937   3.534   3.933
 1182SOL    HW2 4446   6.814   3.487   4.029
 1183SOL     OW 4447   4.307   6.243   0.821
 1183SOL    HW1 4448   4.388   6.301   0.813
 1183SOL    HW2 4449   4.327   6.153   0.784
 1184SOL     OW 4450   4.471   3.079   6.753
 1184SOL    HW1 4451   4.448   3.172   6.784
 1184SOL    HW2 4452   4.400   3.016   6.784
 1185SOL     OW 4453   3.529   1.546   6.605
 1185SOL    HW1 4454   3.573   1.634   6.588
 1185SOL    HW2 4455   3.576   1.474   6.555
 1186SOL     OW 4456   4.070   6.862   5.169
 1186SOL    HW1 4457   3.980   6.831   5.138
 1186SOL    HW2 4458   4.141   6.816   5.115
 1187SOL     OW 4459   0.367   2.650   4.880
 1187SOL    HW1 4460   0.401   2.587   4.950
 1187SOL    HW2 4461   0.387   2.744   4.907
 1188SOL     OW 4462   2.230   0.692   5.744
 1188SOL    HW1 4463   2.249   0.745   5.661
 1188SOL    HW2 4464   2.241   0.594   5.724
 1189SOL     OW 4465   0.661   1.515   1.491
 1189SOL    HW1 4466   0.748   1.481   1.455
 1189SOL    HW2 4467   0.599   1.438   1.507
 1190SOL     OW 4468   3.005   6.164   1.574
 1190SOL    HW1 4469   3.014   6.148   1.476
 1190SOL    HW2 4470   2.915   6.204   1.592
 1191SOL     OW 4471   1.713   3.857   1.872
 1191SOL    HW1 4472   1.713   3.759   1.892
 1191SOL    HW2 4473   1.632   3.900   1.913
 1192SOL     OW 4474   3.473   5.597   2.351
 1192SOL    HW1 4475   3.432   5.586   2.260
 1192SOL    HW2 4476   3.572   5.613   2.340
 1193SOL     OW 4477   3.074   2.153   3.836
 1193SOL    HW1 4478   2.990   2.203   3.812
 1193SOL    HW2 4479   3.124   2.131   3.752
 1194SOL     OW 4480   6.564   2.429   2.472
 1194SOL    HW1 4481   6.507   2.407   2.552
 1194SOL    HW2 4482   6.559   2.527   2.453
 1195SOL     OW 4483   4.078   0.513   6.758
 1195SOL    HW1 4484   4.147   0.584   6.771
 1195SOL    HW2 4485   4.001   0.550   6.705
 1196SOL     OW 4486   1.515   5.592   3.396
 1196SOL    HW1 4487   1.595   5.554   3.443
 1196SOL    HW2 4488   1.526   5.578   3.297
 1197SOL     OW 4489   3.755   4.898   6.925
 1197SOL    HW1 4490   3.844   4.892   6.969
 1197SOL    HW2 4491   3.758   4.966   6.853
 1198SOL     OW 4492   3.599   1.309   3.246
 1198SOL    HW1 4493   3.606   1.258   3.332
 1198SOL    HW2 4494   3.677   1.372   3.238
 1199SOL     OW 4495   3.346   4.080   4.033
 1199SOL    HW1 4496   3.344   4.115   3.940
 1199SOL    HW2 4497   3.434   4.101   4.075
 1200SOL     OW 4498   4.998   4.181   1.421
 1200SOL    HW1 4499   4.932   4.254   1.405
 1200SOL    HW2 4500   4.978   4.103   1.361
 1201SOL     OW 4501   1.942   1.847   5.594
 1201SOL    HW1 4502   2.005   1.821   5.521
 1201SOL    HW2 4503   1.927   1.769   5.655
 1202SOL     OW 4504   6.268   6.626   4.270
 1202SOL    HW1 4505   6.308   6.583   4.350
 1202SOL    HW2 4506   6.331   6.696   4.235
 1203SOL     OW 4507   5.336   6.896   1.938
 1203SOL    HW1 4508   5.366   6.957   1.865
 1203SOL    HW2 4509   5.407   6.891   2.008
 1204SOL     OW 4510   2.583   0.169   0.330
 1204SOL    HW1 4511   2.550   0.253   0.287
 1204SOL    HW2 4512   2.613   0.189   0.424
 1205SOL     OW 4513   1.117   2.862   6.465
 1205SOL    HW1 4514   1.095   2.860   6.562
 1205SOL    HW2 4515   1.197   2.804   6.448
 1206SOL     OW 4516   6.309   1.810   5.463
 1206SOL    HW1 4517   6.339   1.746   5.533
 1206SOL    HW2 4518   6.277   1.894   5.507
 1207SOL     OW 4519   6.331   5.935   5.945
 1207SOL    HW1 4520   6.364   5.897   5.858
 1207SOL    HW2 4521   6.266   5.872   5.986
 1208SOL     OW 4522   3.580   4.100   3.064
 1208SOL    HW1 4523   3.666   4.070   3.024
 1208SOL    HW2 4524   3.595   4.133   3.157
 1209SOL     OW 4525   6.786   3.296   4.841
 1209SOL    HW1 4526   6.819   3.277   4.749
 1209SOL    HW2 4527   6.700   3.347   4.836
 1210SOL     OW 4528   2.743   0.240   4.379
 1210SOL    HW1 4529   2.839   0.268   4.376
 1210SOL    HW2 4530   2.689   0.309   4.428
 1211SOL     OW 4531   6.655   3.922   3.456
 1211SOL    HW1 4532   6.705   3.874   3.384
 1211SOL    HW2 4533   6.714   3.933   3.536
 1212SOL     OW 4534   1.329   4.113   2.657
 1212SOL    HW1 4535   1.323   4.208   2.686
 1212SOL    HW2 4536   1.385   4.062   2.723
 1213SOL     OW 4537   6.442   3.732   5.070
 1213SOL    HW1 4538   6.435   3.739   4.971
 1213SOL    HW2 4539   6.532   3.695   5.095
 1214SOL     OW 4540   0.407   1.867   0.746
 1214SOL    HW1 4541   0.429   1.880   0.649
 1214SOL    HW2 4542   0.349   1.785   0.755
 1215SOL     OW 4543   0.620   0.169   1.707
 1215SOL    HW1 4544   0.528   0.177   1.669
 1215SOL    HW2 4545   0.634   0.076   1.740
 1216SOL     OW 4546   1.990   0.254   0.941
 1216SOL    HW1 4547   2.029   0.279   0.852
 1216SOL    HW2 4548   1.963   0.337   0.989
 1217SOL     OW 4549   1.727   2.717   2.981
 1217SOL    HW1 4550   1.687   2.767   2.904
 1217SOL    HW2 4551   1.666   2.724   3.060
 1218SOL     OW 4552   0.071   4.286   3.654
 1218SOL    HW1 4553   0.081   4.265   3.557
 1218SOL    HW2 4554   0.122   4.370   3.675
 1219SOL     OW 4555   1.368   6.118   2.684
 1219SOL    HW1 4556   1.309   6.136   2.606
 1219SOL    HW2 4557   1.331   6.041   2.736
 1220SOL     OW 4558   6.569   4.312   3.006
 1220SOL    HW1 4559   6.654   4.323   3.057
 1220SOL    HW2 4560   6.581   4.243   2.934
 1221SOL     OW 4561   4.710   4.902   6.879
 1221SOL    HW1 4562   4.640   4.921   6.949
 1221SOL    HW2 4563   4.801   4.911   6.920
 1222SOL     OW 4564   6.666   5.292   1.077
 1222SOL    HW1 4565   6.583   5.325   1.123
 1222SOL    HW2 4566   6.740   5.358   1.091
 1223SOL     OW 4567   0.890   4.686   4.865
 1223SOL    HW1 4568   0.799   4.646   4.874
 1223SOL    HW2 4569   0.943   4.634   4.798
 1224SOL     OW 4570   3.914   5.203   1.633
 1224SOL    HW1 4571   3.902   5.298   1.603
 1224SOL    HW2 4572   4.001   5.168   1.597
 1225SOL     OW 4573   5.211   1.785   6.644
 1225SOL    HW1 4574   5.294   1.818   6.599
 1225SOL    HW2 4575   5.140   1.766   6.576
 1226SOL     OW 4576   5.921   5.588   0.556
 1226SOL    HW1 4577   6.007   5.614   0.513
 1226SOL    HW2 4578   5.940   5.530   0.636
 1227SOL     OW 4579   5.925   4.456   0.627
 1227SOL    HW1 4580   5.893   4.442   0.534
 1227SOL    HW2 4581   5.859   4.512   0.677
 1228SOL     OW 4582   4.130   3.799   5.100
 1228SOL    HW1 4583   4.042   3.846   5.095
 1228SOL    HW2 4584   4.196   3.843   5.040
 1229SOL     OW 4585   1.837   5.313   2.200
 1229SOL    HW1 4586   1.807   5.380   2.268
 1229SOL    HW2 4587   1.936   5.300   2.208
 1230SOL     OW 4588   5.241   4.607   0.058
 1230SOL    HW1 4589   5.200   4.662   0.131
 1230SOL    HW2 4590   5.317   4.656   0.017
 1231SOL     OW 4591   1.891   0.813   1.033
 1231SOL    HW1 4592   1.853   0.899   0.998
 1231SOL    HW2 4593   1.990   0.816   1.027
 1232SOL     OW 4594   2.211   1.874   5.906
 1232SOL    HW1 4595   2.280   1.862   5.835
 1232SOL    HW2 4596   2.236   1.953   5.962
 1233SOL     OW 4597   0.184   5.296   4.776
 1233SOL    HW1 4598   0.095   5.267   4.741
 1233SOL    HW2 4599   0.186   5.396   4.782
 1234SOL     OW 4600   7.000   4.179   5.297
 1234SOL    HW1 4601   6.976   4.269   5.262
 1234SOL    HW2 4602   0.002   4.185   5.394
 1235SOL     OW 4603   6.588   5.151   0.125
 1235SOL    HW1 4604   6.585   5.058   0.089
 1235SOL    HW2 4605   6.614   5.149   0.221
 1236SOL     OW 4606   0.381   0.908   2.975
 1236SOL    HW1 4607   0.324   0.889   2.894
 1236SOL    HW2 4608   0.396   1.007   2.982
 1237SOL     OW 4609   0.471   0.714   5.124
 1237SOL    HW1 4610   0.503   0.636   5.071
 1237SOL    HW2 4611   0.549   0.771   5.151
 1238SOL     OW 4612   0.706   0.883   4.355
 1238SOL    HW1 4613   0.621   0.884   4.407
 1238SOL    HW2 4614   0.726   0.975   4.321
 1239SOL     OW 4615   4.919   5.097   3.537
 1239SOL    HW1 4616   4.822   5.087   3.514
 1239SOL    HW2 4617   4.932   5.075   3.634
 1240SOL     OW 4618   0.637   4.003   1.724
 1240SOL    HW1 4619   0.706   3.996   1.652
 1240SOL    HW2 4620   0.648   3.927   1.788
 1241SOL     OW 4621   3.514   5.559   6.230
 1241SOL    HW1 4622   3.417   5.569   6.253
 1241SOL    HW2 4623   3.570   5.608   6.297
 1242SOL     OW 4624   2.561   5.701   0.626
 1242SOL    HW1 4625   2.591   5.700   0.530
 1242SOL    HW2 4626   2.490   5.632   0.640
 1243SOL     OW 4627   0.707   4.447   4.056
 1243SOL    HW1 4628   0.720   4.525   3.994
 1243SOL    HW2 4629   0.653   4.377   4.011
 1244SOL     OW 4630   6.304   6.359   4.408
 1244SOL    HW1 4631   6.303   6.289   4.480
 1244SOL    HW2 4632   6.369   6.431   4.433
 1245SOL     OW 4633   4.401   0.129   1.746
 1245SOL    HW1 4634   4.304   0.121   1.725
 1245SOL    HW2 4635   4.440   0.037   1.758
 1246SOL     OW 4636   5.146   2.327   2.112
 1246SOL    HW1 4637   5.126   2.269   2.191
 1246SOL    HW2 4638   5.245   2.342   2.107
 1247SOL     OW 4639   4.483   6.593   2.789
 1247SOL    HW1 4640   4.572   6.639   2.789
 1247SOL    HW2 4641   4.461   6.563   2.882
 1248SOL     OW 4642   6.988   0.489   5.176
 1248SOL    HW1 4643   0.045   0.445   5.127
 1248SOL    HW2 4644   6.901   0.450   5.144
 1249SOL     OW 4645   6.429   6.715   0.182
 1249SOL    HW1 4646   6.467   6.745   0.094
 1249SOL    HW2 4647   6.341   6.670   0.166
 1250SOL     OW 4648   0.379   4.150   4.608
 1250SOL    HW1 4649   0.296   4.108   4.573
 1250SOL    HW2 4650   0.358   4.203   4.690
 1251SOL     OW 4651   2.117   0.523   3.467
 1251SOL    HW1 4652   2.185   0.560   3.532
 1251SOL    HW2 4653   2.121   0.575   3.382
 1252SOL     OW 4654   2.671   4.950   6.385
 1252SOL    HW1 4655   2.574   4.965   6.363
 1252SOL    HW2 4656   2.682   4.939   6.484
 1253SOL     OW 4657   3.459   5.230   0.772
 1253SOL    HW1 4658   3.454   5.209   0.675
 1253SOL    HW2 4659   3.479   5.147   0.823
 1254SOL     OW 4660   6.844   1.070   3.840
 1254SOL    HW1 4661   6.827   1.167   3.857
 1254SOL    HW2 4662   6.760   1.026   3.810
 1255SOL     OW 4663   5.718   1.917   6.436
 1255SOL    HW1 4664   5.667   1.832   6.427
 1255SOL    HW2 4665   5.696   1.977   6.359
 1256SOL     OW 4666   6.319   6.210   6.028
 1256SOL    HW1 4667   6.398   6.151   6.008
 1256SOL    HW2 4668   6.269   6.173   6.106
 1257SOL     OW 4669   6.874   6.398   2.187
 1257SOL    HW1 4670   6.970   6.418   2.164
 1257SOL    HW2 4671   6.870   6.311   2.237
 1258SOL     OW 4672   5.169   5.738   6.415
 1258SOL    HW1 4673   5.236   5.767   6.483
 1258SOL    HW2 4674   5.107   5.814   6.395
 1259SOL     OW 4675   6.193   6.713   4.847
 1259SOL    HW1 4676   6.263   6.696   4.917
 1259SOL    HW2 4677   6.108   6.669   4.874
 1260SOL     OW 4678   3.207   0.660   0.844
 1260SOL    HW1 4679   3.194   0.562   0.825
 1260SOL    HW2 4680   3.285   0.693   0.791
 1261SOL     OW 4681   0.648   4.243   5.065
 1261SOL    HW1 4682   0.713   4.175   5.032
 1261SOL    HW2 4683   0.688   4.293   5.143
 1262SOL     OW 4684   4.819   6.620   0.828
 1262SOL    HW1 4685   4.865   6.660   0.907
 1262SOL    HW2 4686   4.816   6.687   0.754
 1263SOL     OW 4687   6.913   1.277   1.039
 1263SOL    HW1 4688   6.981   1.298   1.109
 1263SOL    HW2 4689   6.826   1.322   1.062
 1264SOL     OW 4690   5.727   2.658   5.009
 1264SOL    HW1 4691   5.669   2.731   5.045
 1264SOL    HW2 4692   5.671   2.576   4.993
 1265SOL     OW 4693   5.673   5.483   4.220
 1265SOL    HW1 4694   5.699   5.418   4.149
 1265SOL    HW2 4695   5.671   5.576   4.181
 1266SOL     OW 4696   2.175   0.718   3.981
 1266SOL    HW1 4697   2.168   0.799   3.922
 1266SOL    HW2 4698   2.272   0.702   4.003
 1267SOL     OW 4699   0.249   4.694   2.407
 1267SOL    HW1 4700   0.200   4.673   2.323
 1267SOL    HW2 4701   0.308   4.617   2.431
 1268SOL     OW 4702   6.211   4.414   6.304
 1268SOL    HW1 4703   6.302   4.373   6.315
 1268SOL    HW2 4704   6.193   4.476   6.380
 1269SOL     OW 4705   1.295   3.565   5.917
 1269SOL    HW1 4706   1.352   3.486   5.895
 1269SOL    HW2 4707   1.326   3.644   5.864
 1270SOL     OW 4708   1.287   2.275   3.695
 1270SOL    HW1 4709   1.361   2.269   3.628
 1270SOL    HW2 4710   1.199   2.268   3.647
 1271SOL     OW 4711   5.217   3.757   3.025
 1271SOL    HW1 4712   5.196   3.785   2.932
 1271SOL    HW2 4713   5.148   3.691   3.056
 1272SOL     OW 4714   5.668   6.720   0.933
 1272SOL    HW1 4715   5.720   6.638   0.956
 1272SOL    HW2 4716   5.680   6.741   0.836
 1273SOL     OW 4717   2.586   6.494   4.451
 1273SOL    HW1 4718   2.631   6.582   4.462
 1273SOL    HW2 4719   2.641   6.422   4.493
 1274SOL     OW 4720   5.195   2.513   1.775
 1274SOL    HW1 4721   5.145   2.439   1.819
 1274SOL    HW2 4722   5.239   2.571   1.844
 1275SOL     OW 4723   3.765   1.107   3.710
 1275SOL    HW1 4724   3.696   1.041   3.739
 1275SOL    HW2 4725   3.750   1.194   3.757
 1276SOL     OW 4726   5.321   6.582   3.516
 1276SOL    HW1 4727   5.325   6.560   3.418
 1276SOL    HW2 4728   5.354   6.504   3.569
 1277SOL     OW 4729   0.651   1.948   4.756
 1277SOL    HW1 4730   0.642   1.969   4.658
 1277SOL    HW2 4731   0.748   1.941   4.780
 1278SOL     OW 4732   2.923   1.729   5.003
 1278SOL    HW1 4733   2.885   1.637   4.991
 1278SOL    HW2 4734   2.869   1.794   4.950
 1279SOL     OW 4735   1.936   4.919   0.455
 1279SOL    HW1 4736   1.930   4.926   0.555
 1279SOL    HW2 4737   1.912   5.007   0.414
 1280SOL     OW 4738   0.760   6.288   3.242
 1280SOL    HW1 4739   0.720   6.209   3.195
 1280SOL    HW2 4740   0.857   6.296   3.216
 1281SOL     OW 4741   1.051   6.459   4.107
 1281SOL    HW1 4742   0.969   6.405   4.125
 1281SOL    HW2 4743   1.086   6.495   4.194
 1282SOL     OW 4744   1.656   6.703   2.546
 1282SOL    HW1 4745   1.712   6.769   2.596
 1282SOL    HW2 4746   1.699   6.613   2.549
 1283SOL     OW 4747   5.413   4.308   4.975
 1283SOL    HW1 4748   5.352   4.379   5.011
 1283SOL    HW2 4749   5.472   4.275   5.049
 1284SOL     OW 4750   2.830   2.124   3.192
 1284SOL    HW1 4751   2.842   2.025   3.183
 1284SOL    HW2 4752   2.915   2.171   3.167
 1285SOL     OW 4753   6.047   2.267   5.614
 1285SOL    HW1 4754   6.059   2.320   5.698
 1285SOL    HW2 4755   5.958   2.221   5.616
 1286SOL     OW 4756   5.227   5.951   0.567
 1286SOL    HW1 4757   5.280   5.911   0.492
 1286SOL    HW2 4758   5.169   5.881   0.607
 1287SOL     OW 4759   6.212   3.216   6.101
 1287SOL    HW1 4760   6.181   3.311   6.107
 1287SOL    HW2 4761   6.160   3.169   6.030
 1288SOL     OW 4762   0.066   3.037   3.451
 1288SOL    HW1 4763   0.030   2.944   3.447
 1288SOL    HW2 4764   0.116   3.057   3.366
 1289SOL     OW 4765   0.428   4.900   2.957
 1289SOL    HW1 4766   0.495   4.972   2.975
 1289SOL    HW2 4767   0.387   4.870   3.043
 1290SOL     OW 4768   6.559   0.243   2.147
 1290SOL    HW1 4769   6.514   0.156   2.124
 1290SOL    HW2 4770   6.590   0.240   2.241
 1291SOL     OW 4771   1.857   5.576   1.117
 1291SOL    HW1 4772   1.932   5.614   1.172
 1291SOL    HW2 4773   1.796   5.522   1.176
 1292SOL     OW 4774   1.520   6.820   0.938
 1292SOL    HW1 4775   1.577   6.738   0.929
 1292SOL    HW2 4776   1.494   6.852   0.846
 1293SOL     OW 4777   6.722   1.289   6.715
 1293SOL    HW1 4778   6.819   1.312   6.702
 1293SOL    HW2 4779   6.665   1.357   6.670
 1294SOL     OW 4780   0.634   1.786   4.239
 1294SOL    HW1 4781   0.641   1.884   4.220
 1294SOL    HW2 4782   0.588   1.772   4.327
 1295SOL     OW 4783   4.936   4.354   0.528
 1295SOL    HW1 4784   4.972   4.406   0.450
 1295SOL    HW2 4785   4.972   4.261   0.526
 1296SOL     OW 4786   3.651   1.406   0.752
 1296SOL    HW1 4787   3.719   1.413   0.825
 1296SOL    HW2 4788   3.696   1.412   0.664
 1297SOL     OW 4789   5.454   0.914   6.290
 1297SOL    HW1 4790   5.461   0.854   6.370
 1297SOL    HW2 4791   5.485   1.006   6.315
 1298SOL     OW 4792   5.950   2.716   3.077
 1298SOL    HW1 4793   5.951   2.752   2.984
 1298SOL    HW2 4794   5.950   2.793   3.142
 1299SOL     OW 4795   1.192   4.214   4.282
 1299SOL    HW1 4796   1.127   4.261   4.343
 1299SOL    HW2 4797   1.261   4.280   4.252
 1300SOL     OW 4798   3.940   3.020   3.043
 1300SOL    HW1 4799   3.960   2.934   3.090
 1300SOL    HW2 4800   3.943   3.006   2.944
 1301SOL     OW 4801   0.754   0.966   1.544
 1301SOL    HW1 4802   0.754   0.985   1.642
 1301SOL    HW2 4803   0.755   0.867   1.529
 1302SOL     OW 4804   2.750   5.890   5.404
 1302SOL    HW1 4805   2.818   5.869   5.475
 1302SOL    HW2 4806   2.737   5.989   5.399
 1303SOL     OW 4807   3.008   6.899   1.756
 1303SOL    HW1 4808   3.084   6.869   1.699
 1303SOL    HW2 4809   3.042   6.961   1.827
 1304SOL     OW 4810   3.675   0.746   5.422
 1304SOL    HW1 4811   3.690   0.719   5.518
 1304SOL    HW2 4812   3.745   0.704   5.365
 1305SOL     OW 4813   5.892   6.871   4.364
 1305SOL    HW1 4814   5.842   6.938   4.310
 1305SOL    HW2 4815   5.890   6.783   4.317
 1306SOL     OW 4816   1.608   5.229   3.717
 1306SOL    HW1 4817   1.640   5.222   3.623
 1306SOL    HW2 4818   1.680   5.201   3.780
 1307SOL     OW 4819   1.169   0.899   5.438
 1307SOL    HW1 4820   1.104   0.959   5.392
 1307SOL    HW2 4821   1.254   0.949   5.456
 1308SOL     OW 4822   4.271   6.522   3.402
 1308SOL    HW1 4823   4.226   6.442   3.363
 1308SOL    HW2 4824   4.227   6.547   3.488
 1309SOL     OW 4825   6.200   3.019   4.040
 1309SOL    HW1 4826   6.216   2.928   4.077
 1309SOL    HW2 4827   6.268   3.038   3.968
 1310SOL     OW 4828   5.785   3.971   5.838
 1310SOL    HW1 4829   5.738   4.010   5.917
 1310SOL    HW2 4830   5.813   3.877   5.858
 1311SOL     OW 4831   4.651   4.918   0.231
 1311SOL    HW1 4832   4.722   4.933   0.300
 1311SOL    HW2 4833   4.652   4.822   0.202
 1312SOL     OW 4834   6.925   1.208   2.181
 1312SOL    HW1 4835   7.005   1.170   2.228
 1312SOL    HW2 4836   6.954   1.284   2.122
 1313SOL     OW 4837   4.135   4.821   4.961
 1313SOL    HW1 4838   4.218   4.791   4.913
 1313SOL    HW2 4839   4.144   4.918   4.985
 1314SOL     OW 4840   6.977   0.954   6.439
 1314SOL    HW1 4841   6.899   0.893   6.449
 1314SOL    HW2 4842   6.947   1.041   6.398
 1315SOL     OW 4843   1.383   6.793   4.240
 1315SOL    HW1 4844   1.481   6.795   4.264
 1315SOL    HW2 4845   1.364   6.867   4.176
 1316SOL     OW 4846   3.467   5.894   3.976
 1316SOL    HW1 4847   3.520   5.811   3.958
 1316SOL    HW2 4848   3.437   5.933   3.889
 1317SOL     OW 4849   0.258   2.985   3.749
 1317SOL    HW1 4850   0.249   2.907   3.686
 1317SOL    HW2 4851   0.234   3.069   3.701
 1318SOL     OW 4852   0.819   6.904   2.310
 1318SOL    HW1 4853   0.825   6.950   2.221
 1318SOL    HW2 4854   0.799   6.972   2.381
 1319SOL     OW 4855   0.510   6.515   0.800
 1319SOL    HW1 4856   0.431   6.521   0.861
 1319SOL    HW2 4857   0.516   6.599   0.746
 1320SOL     OW 4858   5.183   4.968   5.101
 1320SOL    HW1 4859   5.194   4.891   5.039
 1320SOL    HW2 4860   5.105   5.023   5.072
 1321SOL     OW 4861   3.361   1.279   0.784
 1321SOL    HW1 4862   3.451   1.321   0.772
 1321SOL    HW2 4863   3.369   1.200   0.844
 1322SOL     OW 4864   4.736   1.344   6.331
 1322SOL    HW1 4865   4.767   1.376   6.421
 1322SOL    HW2 4866   4.647   1.299   6.341
 1323SOL     OW 4867   6.468   0.924   4.369
 1323SOL    HW1 4868   6.550   0.878   4.401
 1323SOL    HW2 4869   6.480   1.023   4.378
 1324SOL     OW 4870   1.250   2.787   0.406
 1324SOL    HW1 4871   1.322   2.822   0.467
 1324SOL    HW2 4872   1.173   2.755   0.460
 1325SOL     OW 4873   4.630   5.058   3.482
 1325SOL    HW1 4874   4.586   5.005   3.409
 1325SOL    HW2 4875   4.616   5.012   3.570
 1326SOL     OW 4876   5.364   4.002   4.185
 1326SOL    HW1 4877   5.305   4.082   4.198
 1326SOL    HW2 4878   5.313   3.919   4.206
 1327SOL     OW 4879   2.800   6.186   3.339
 1327SOL    HW1 4880   2.799   6.247   3.260
 1327SOL    HW2 4881   2.866   6.112   3.323
 1328SOL     OW 4882   2.355   1.797   1.603
 1328SOL    HW1 4883   2.438   1.803   1.548
 1328SOL    HW2 4884   2.361   1.860   1.680
 1329SOL     OW 4885   1.117   5.963   1.453
 1329SOL    HW1 4886   1.020   5.983   1.462
 1329SOL    HW2 4887   1.133   5.866   1.473
 1330SOL     OW 4888   5.651   6.522   1.945
 1330SOL    HW1 4889   5.674   6.523   1.847
 1330SOL    HW2 4890   5.639   6.615   1.977
 1331SOL     OW 4891   0.901   2.111   1.405
 1331SOL    HW1 4892   0.824   2.054   1.432
 1331SOL    HW2 4893   0.898   2.127   1.306
 1332SOL     OW 4894   4.615   1.959   0.243
 1332SOL    HW1 4895   4.611   2.056   0.268
 1332SOL    HW2 4896   4.674   1.947   0.163
 1333SOL     OW 4897   4.110   3.358   5.574
 1333SOL    HW1 4898   4.049   3.412   5.631
 1333SOL    HW2 4899   4.060   3.280   5.536
 1334SOL     OW 4900   1.600   3.374   4.600
 1334SOL    HW1 4901   1.542   3.414   4.672
 1334SOL    HW2 4902   1.694   3.405   4.612
 1335SOL     OW 4903   1.970   5.032   3.560
 1335SOL    HW1 4904   1.969   4.974   3.479
 1335SOL    HW2 4905   2.041   5.000   3.623
 1336SOL     OW 4906   0.501   6.610   5.124
 1336SOL    HW1 4907   0.568   6.685   5.132
 1336SOL    HW2 4908   0.409   6.647   5.132
 1337SOL     OW 4909   3.218   0.342   6.851
 1337SOL    HW1 4910   3.290   0.343   6.783
 1337SOL    HW2 4911   3.226   0.422   6.910
 1338SOL     OW 4912   3.789   4.840   0.692
 1338SOL    HW1 4913   3.766   4.933   0.720
 1338SOL    HW2 4914   3.750   4.822   0.602
 1339SOL     OW 4915   0.134   4.047   6.554
 1339SOL    HW1 4916   0.214   4.089   6.597
 1339SOL    HW2 4917   0.164   3.980   6.486
 1340SOL     OW 4918   2.905   2.162   6.094
 1340SOL    HW1 4919   2.933   2.250   6.057
 1340SOL    HW2 4920   2.910   2.092   6.022
 1341SOL     OW 4921   5.351   1.527   4.296
 1341SOL    HW1 4922   5.435   1.543   4.348
 1341SOL    HW2 4923   5.324   1.610   4.249
 1342SOL     OW 4924   0.234   6.267   0.301
 1342SOL    HW1 4925   0.251   6.333   0.375
 1342SOL    HW2 4926   0.165   6.202   0.330
 1343SOL     OW 4927   3.040   6.092   3.031
 1343SOL    HW1 4928   3.101   6.106   2.953
 1343SOL    HW2 4929   2.991   6.176   3.052
 1344SOL     OW 4930   4.758   1.615   2.148
 1344SOL    HW1 4931   4.737   1.544   2.080
 1344SOL    HW2 4932   4.703   1.696   2.130
 1345SOL     OW 4933   6.337   5.683   2.405
 1345SOL    HW1 4934   6.432   5.696   2.376
 1345SOL    HW2 4935   6.333   5.614   2.477
 1346SOL     OW 4936   6.656   1.733   3.116
 1346SOL    HW1 4937   6.719   1.768   3.185
 1346SOL    HW2 4938   6.680   1.772   3.027
 1347SOL     OW 4939   4.541   0.985   3.924
 1347SOL    HW1 4940   4.512   0.968   4.018
 1347SOL    HW2 4941   4.512   0.909   3.866
 1348SOL     OW 4942   5.189   6.108   5.056
 1348SOL    HW1 4943   5.242   6.193   5.050
 1348SOL    HW2 4944   5.132   6.110   5.138
 1349SOL     OW 4945   5.112   1.516   6.801
 1349SOL    HW1 4946   5.145   1.592   6.745
 1349SOL    HW2 4947   5.094   1.437   6.742
 1350SOL     OW 4948   3.822   1.499   4.611
 1350SOL    HW1 4949   3.803   1.542   4.699
 1350SOL    HW2 4950   3.737   1.494   4.558
 1351SOL     OW 4951   1.238   1.618   3.955
 1351SOL    HW1 4952   1.317   1.674   3.981
 1351SOL    HW2 4953   1.159   1.677   3.939
 1352SOL     OW 4954   1.061   6.060   4.643
 1352SOL    HW1 4955   1.044   6.031   4.549
 1352SOL    HW2 4956   1.156   6.038   4.668
 1353SOL     OW 4957   2.696   3.388   5.886
 1353SOL    HW1 4958   2.751   3.454   5.938
 1353SOL    HW2 4959   2.747   3.360   5.805
 1354SOL     OW 4960   0.327   6.294   6.603
 1354SOL    HW1 4961   0.309   6.296   6.702
 1354SOL    HW2 4962   0.242   6.274   6.554
 1355SOL     OW 4963   5.142   3.359   0.272
 1355SOL    HW1 4964   5.061   3.307   0.299
 1355SOL    HW2 4965   5.119   3.456   0.267
 1356SOL     OW 4966   3.633   2.855   2.769
 1356SOL    HW1 4967   3.559   2.918   2.748
 1356SOL    HW2 4968   3.663   2.808   2.686
 1357SOL     OW 4969   3.768   2.232   5.617
 1357SOL    HW1 4970   3.690   2.223   5.679
 1357SOL    HW2 4971   3.798   2.142   5.588
 1358SOL     OW 4972   1.554   3.080   5.216
 1358SOL    HW1 4973   1.619   3.084   5.140
 1358SOL    HW2 4974   1.571   3.157   5.279
 1359SOL     OW 4975   0.612   1.709   6.757
 1359SOL    HW1 4976   0.627   1.808   6.754
 1359SOL    HW2 4977   0.570   1.684   6.845
 1360SOL     OW 4978   2.967   3.213   4.403
 1360SOL    HW1 4979   2.964   3.302   4.356
 1360SOL    HW2 4980   2.916   3.220   4.489
 1361SOL     OW 4981   1.454   6.254   1.005
 1361SOL    HW1 4982   1.484   6.162   0.981
 1361SOL    HW2 4983   1.517   6.321   0.966
 1362SOL     OW 4984   3.434   1.201   6.278
 1362SOL    HW1 4985   3.448   1.274   6.210
 1362SOL    HW2 4986   3.494   1.124   6.256
 1363SOL     OW 4987   6.419   6.220   1.359
 1363SOL    HW1 4988   6.329   6.256   1.337
 1363SOL    HW2 4989   6.488   6.263   1.300
 1364SOL     OW 4990   1.243   3.204   0.660
 1364SOL    HW1 4991   1.223   3.293   0.620
 1364SOL    HW2 4992   1.223   3.206   0.757
 1365SOL     OW 4993   1.607   3.063   6.727
 1365SOL    HW1 4994   1.565   3.107   6.806
 1365SOL    HW2 4995   1.535   3.037   6.662
 1366SOL     OW 4996   3.700   1.232   1.822
 1366SOL    HW1 4997   3.676   1.145   1.866
 1366SOL    HW2 4998   3.763   1.215   1.747
 1367SOL     OW 4999   1.541   0.264   4.572
 1367SOL    HW1 5000   1.460   0.308   4.611
 1367SOL    HW2 5001   1.513   0.202   4.499
 1368SOL     OW 5002   1.595   5.948   5.114
 1368SOL    HW1 5003   1.654   5.882   5.067
 1368SOL    HW2 5004   1.650   6.000   5.179
 1369SOL     OW 5005   2.213   5.327   3.200
 1369SOL    HW1 5006   2.207   5.370   3.290
 1369SOL    HW2 5007   2.130   5.274   3.183
 1370SOL     OW 5008   0.060   2.934   2.767
 1370SOL    HW1 5009   0.160   2.926   2.761
 1370SOL    HW2 5010   0.032   3.028   2.748
 1371SOL     OW 5011   6.222   1.514   6.663
 1371SOL    HW1 5012   6.225   1.604   6.708
 1371SOL    HW2 5013   6.142   1.464   6.694
 1372SOL     OW 5014   5.033   2.310   1.859
 1372SOL    HW1 5015   5.036   2.294   1.958
 1372SOL    HW2 5016   4.973   2.387   1.839
 1373SOL     OW 5017   4.433   2.494   1.561
 1373SOL    HW1 5018   4.477   2.565   1.505
 1373SOL    HW2 5019   4.411   2.531   1.651
 1374SOL     OW 5020   3.377   3.975   3.443
 1374SOL    HW1 5021   3.393   3.880   3.470
 1374SOL    HW2 5022   3.284   4.001   3.469
 1375SOL     OW 5023   5.599   4.191   5.122
 1375SOL    HW1 5024   5.696   4.174   5.103
 1375SOL    HW2 5025   5.545   4.113   5.091
 1376SOL     OW 5026   3.132   4.867   5.917
 1376SOL    HW1 5027   3.048   4.900   5.960
 1376SOL    HW2 5028   3.203   4.854   5.986
 1377SOL     OW 5029   1.083   2.175   3.531
 1377SOL    HW1 5030   1.118   2.082   3.532
 1377SOL    HW2 5031   0.996   2.178   3.482
 1378SOL     OW 5032   4.540   2.493   3.741
 1378SOL    HW1 5033   4.565   2.533   3.829
 1378SOL    HW2 5034   4.540   2.393   3.748
 1379SOL     OW 5035   4.978   5.967   6.390
 1379SOL    HW1 5036   5.036   5.988   6.468
 1379SOL    HW2 5037   4.889   6.011   6.401
 1380SOL     OW 5038   0.170   6.121   4.205
 1380SOL    HW1 5039   0.215   6.210   4.205
 1380SOL    HW2 5040   0.187   6.075   4.118
 1381SOL     OW 5041   6.878   2.332   6.220
 1381SOL    HW1 5042   6.874   2.431   6.204
 1381SOL    HW2 5043   6.873   2.285   6.132
 1382SOL     OW 5044   4.485   2.377   5.646
 1382SOL    HW1 5045   4.390   2.391   5.674
 1382SOL    HW2 5046   4.537   2.460   5.665
 1383SOL     OW 5047   5.451   0.350   1.015
 1383SOL    HW1 5048   5.461   0.351   0.916
 1383SOL    HW2 5049   5.355   0.368   1.039
 1384SOL     OW 5050   5.613   1.949   2.624
 1384SOL    HW1 5051   5.635   1.914   2.532
 1384SOL    HW2 5052   5.541   2.017   2.617
 1385SOL     OW 5053   6.838   6.668   1.864
 1385SOL    HW1 5054   6.865   6.572   1.848
 1385SOL    HW2 5055   6.763   6.692   1.803
 1386SOL     OW 5056   1.797   0.318   4.482
 1386SOL    HW1 5057   1.822   0.406   4.523
 1386SOL    HW2 5058   1.710   0.286   4.522
 1387SOL     OW 5059   0.887   5.903   1.811
 1387SOL    HW1 5060   0.890   5.848   1.728
 1387SOL    HW2 5061   0.828   5.859   1.878
 1388SOL     OW 5062   6.461   1.115   1.741
 1388SOL    HW1 5063   6.441   1.018   1.727
 1388SOL    HW2 5064   6.438   1.141   1.835
 1389SOL     OW 5065   6.639   1.111   1.174
 1389SOL    HW1 5066   6.692   1.083   1.094
 1389SOL    HW2 5067   6.654   1.209   1.191
 1390SOL     OW 5068   1.089   1.501   4.338
 1390SOL    HW1 5069   1.156   1.562   4.295
 1390SOL    HW2 5070   1.138   1.429   4.389
 1391SOL     OW 5071   0.873   3.190   3.636
 1391SOL    HW1 5072   0.823   3.236   3.710
 1391SOL    HW2 5073   0.876   3.091   3.655
 1392SOL     OW 5074   5.777   5.582   3.848
 1392SOL    HW1 5075   5.731   5.511   3.901
 1392SOL    HW2 5076   5.733   5.670   3.865
 1393SOL     OW 5077   3.435   4.885   6.764
 1393SOL    HW1 5078   3.442   4.959   6.831
 1393SOL    HW2 5079   3.519   4.831   6.764
 1394SOL     OW 5080   1.258   6.752   6.759
 1394SOL    HW1 5081   1.255   6.726   6.662
 1394SOL    HW2 5082   1.332   6.818   6.774
 1395SOL     OW 5083   4.088   4.814   6.369
 1395SOL    HW1 5084   4.074   4.911   6.352
 1395SOL    HW2 5085   4.056   4.791   6.461
 1396SOL     OW 5086   4.954   6.085   3.315
 1396SOL    HW1 5087   4.973   5.992   3.283
 1396SOL    HW2 5088   4.937   6.144   3.236
 1397SOL     OW 5089   5.947   6.286   5.035
 1397SOL    HW1 5090   6.023   6.289   4.970
 1397SOL    HW2 5091   5.900   6.198   5.027
 1398SOL     OW 5092   1.520   0.023   5.420
 1398SOL    HW1 5093   1.534   0.100   5.483
 1398SOL    HW2 5094   1.589   6.971   5.439
 1399SOL     OW 5095   2.944   5.321   2.302
 1399SOL    HW1 5096   2.924   5.392   2.369
 1399SOL    HW2 5097   2.874   5.249   2.307
 1400SOL     OW 5098   0.961   0.396   3.466
 1400SOL    HW1 5099   0.867   0.368   3.446
 1400SOL    HW2 5100   0.963   0.493   3.489
 1401SOL     OW 5101   6.679   2.373   4.241
 1401SOL    HW1 5102   6.682   2.323   4.328
 1401SOL    HW2 5103   6.738   2.453   4.247
 1402SOL     OW 5104   5.871   2.594   0.145
 1402SOL    HW1 5105   5.777   2.561   0.150
 1402SOL    HW2 5106   5.899   2.631   0.234
 1403SOL     OW 5107   3.931   0.932   2.052
 1403SOL    HW1 5108   4.009   0.869   2.053
 1403SOL    HW2 5109   3.863   0.898   1.986
 1404SOL     OW 5110   4.201   1.197   0.127
 1404SOL    HW1 5111   4.132   1.249   0.077
 1404SOL    HW2 5112   4.177   1.192   0.224
 1405SOL     OW 5113   3.733   2.652   0.733
 1405SOL    HW1 5114   3.675   2.611   0.803
 1405SOL    HW2 5115   3.779   2.580   0.681
 1406SOL     OW 5116   1.119   3.205   2.465
 1406SOL    HW1 5117   1.026   3.216   2.499
 1406SOL    HW2 5118   1.119   3.148   2.383
 1407SOL     OW 5119   6.796   2.258   2.477
 1407SOL    HW1 5120   6.744   2.344   2.469
 1407SOL    HW2 5121   6.869   2.270   2.544
 1408SOL     OW 5122   6.373   5.090   6.444
 1408SOL    HW1 5123   6.359   5.089   6.345
 1408SOL    HW2 5124   6.464   5.126   6.465
 1409SOL     OW 5125   0.464   1.366   3.978
 1409SOL    HW1 5126   0.421   1.395   4.063
 1409SOL    HW2 5127   0.560   1.346   3.995
 1410SOL     OW 5128   0.053   1.835   6.644
 1410SOL    HW1 5129   0.022   1.831   6.739
 1410SOL    HW2 5130   0.081   1.744   6.614
 1411SOL     OW 5131   1.860   1.604   1.455
 1411SOL    HW1 5132   1.788   1.611   1.386
 1411SOL    HW2 5133   1.940   1.558   1.416
 1412SOL     OW 5134   1.820   2.412   0.322
 1412SOL    HW1 5135   1.741   2.378   0.271
 1412SOL    HW2 5136   1.813   2.511   0.332
 1413SOL     OW 5137   3.094   0.175   3.663
 1413SOL    HW1 5138   3.132   0.255   3.710
 1413SOL    HW2 5139   3.134   0.092   3.702
 1414SOL     OW 5140   1.560   1.387   2.434
 1414SOL    HW1 5141   1.472   1.422   2.464
 1414SOL    HW2 5142   1.632   1.424   2.494
 1415SOL     OW 5143   5.798   6.815   4.783
 1415SOL    HW1 5144   5.862   6.858   4.720
 1415SOL    HW2 5145   5.708   6.808   4.740
 1416SOL     OW 5146   4.803   5.376   3.476
 1416SOL    HW1 5147   4.736   5.382   3.549
 1416SOL    HW2 5148   4.874   5.310   3.501
 1417SOL     OW 5149   3.671   2.845   5.894
 1417SOL    HW1 5150   3.703   2.781   5.824
 1417SOL    HW2 5151   3.579   2.877   5.871
 1418SOL     OW 5152   3.119   4.033   3.659
 1418SOL    HW1 5153   3.059   3.977   3.716
 1418SOL    HW2 5154   3.100   4.015   3.562
 1419SOL     OW 5155   3.273   6.168   3.463
 1419SOL    HW1 5156   3.236   6.254   3.429
 1419SOL    HW2 5157   3.238   6.151   3.555
 1420SOL     OW 5158   0.474   6.432   2.997
 1420SOL    HW1 5159   0.553   6.468   2.948
 1420SOL    HW2 5160   0.473   6.332   2.991
 1421SOL     OW 5161   3.690   0.999   3.030
 1421SOL    HW1 5162   3.644   1.072   2.981
 1421SOL    HW2 5163   3.770   0.969   2.978
 1422SOL     OW 5164   2.315   6.374   0.683
 1422SOL    HW1 5165   2.291   6.456   0.735
 1422SOL    HW2 5166   2.310   6.294   0.743
 1423SOL     OW 5167   4.862   0.797   2.632
 1423SOL    HW1 5168   4.873   0.778   2.730
 1423SOL    HW2 5169   4.776   0.844   2.617
 1424SOL     OW 5170   6.582   5.577   2.670
 1424SOL    HW1 5171   6.626   5.530   2.746
 1424SOL    HW2 5172   6.483   5.571   2.680
 1425SOL     OW 5173   2.095   0.606   4.372
 1425SOL    HW1 5174   2.126   0.536   4.307
 1425SOL    HW2 5175   2.113   0.697   4.334
 1426SOL     OW 5176   1.679   1.535   5.995
 1426SOL    HW1 5177   1.701   1.599   5.921
 1426SOL    HW2 5178   1.582   1.542   6.017
 1427SOL     OW 5179   5.353   2.130   5.936
 1427SOL    HW1 5180   5.308   2.049   5.972
 1427SOL    HW2 5181   5.307   2.212   5.971
 1428SOL     OW 5182   5.850   0.556   0.916
 1428SOL    HW1 5183   5.759   0.577   0.950
 1428SOL    HW2 5184   5.901   0.504   0.985
 1429SOL     OW 5185   5.558   5.915   0.111
 1429SOL    HW1 5186   5.617   5.838   0.088
 1429SOL    HW2 5187   5.539   5.915   0.209
 1430SOL     OW 5188   3.158   4.927   2.556
 1430SOL    HW1 5189   3.125   4.895   2.644
 1430SOL    HW2 5190   3.120   4.870   2.483
 1431SOL     OW 5191   2.134   0.589   0.844
 1431SOL    HW1 5192   2.100   0.678   0.874
 1431SOL    HW2 5193   2.156   0.533   0.924
 1432SOL     OW 5194   3.380   6.822   1.394
 1432SOL    HW1 5195   3.422   6.782   1.313
 1432SOL    HW2 5196   3.376   6.922   1.384
 1433SOL     OW 5197   5.349   6.869   3.600
 1433SOL    HW1 5198   5.407   6.853   3.679
 1433SOL    HW2 5199   5.365   6.797   3.532
 1434SOL     OW 5200   0.909   1.041   5.107
 1434SOL    HW1 5201   0.965   1.059   5.188
 1434SOL    HW2 5202   0.818   1.012   5.135
 1435SOL     OW 5203   6.775   2.214   3.854
 1435SOL    HW1 5204   6.710   2.242   3.925
 1435SOL    HW2 5205   6.747   2.127   3.814
 1436SOL     OW 5206   5.277   3.230   1.345
 1436SOL    HW1 5207   5.313   3.197   1.258
 1436SOL    HW2 5208   5.348   3.279   1.394
 1437SOL     OW 5209   4.867   0.789   2.908
 1437SOL    HW1 5210   4.771   0.790   2.939
 1437SOL    HW2 5211   4.891   0.881   2.876
 1438SOL     OW 5212   2.614   0.042   2.056
 1438SOL    HW1 5213   2.646   7.000   2.129
 1438SOL    HW2 5214   2.692   0.089   2.015
 1439SOL     OW 5215   0.577   5.907   2.077
 1439SOL    HW1 5216   0.589   5.815   2.038
 1439SOL    HW2 5217   0.657   5.929   2.133
 1440SOL     OW 5218   2.538   2.821   1.349
 1440SOL    HW1 5219   2.448   2.793   1.316
 1440SOL    HW2 5220   2.535   2.833   1.448
 1441SOL     OW 5221   4.681   6.207   6.847
 1441SOL    HW1 5222   4.702   6.115   6.879
 1441SOL    HW2 5223   4.662   6.266   6.925
 1442SOL     OW 5224   5.305   5.574   1.700
 1442SOL    HW1 5225   5.331   5.585   1.796
 1442SOL    HW2 5226   5.279   5.479   1.683
 1443SOL     OW 5227   6.653   2.773   2.215
 1443SOL    HW1 5228   6.708   2.750   2.133
 1443SOL    HW2 5229   6.643   2.872   2.221
 1444SOL     OW 5230   0.470   6.450   5.358
 1444SOL    HW1 5231   0.483   6.490   5.267
 1444SOL    HW2 5232   0.558   6.441   5.404
 1445SOL     OW 5233   0.867   2.236   1.145
 1445SOL    HW1 5234   0.886   2.308   1.211
 1445SOL    HW2 5235   0.780   2.253   1.100
 1446SOL     OW 5236   6.534   5.269   1.627
 1446SOL    HW1 5237   6.517   5.178   1.664
 1446SOL    HW2 5238   6.622   5.303   1.659
 1447SOL     OW 5239   0.267   6.358   4.178
 1447SOL    HW1 5240   0.214   6.439   4.154
 1447SOL    HW2 5241   0.332   6.339   4.104
 1448SOL     OW 5242   1.807   1.274   5.634
 1448SOL    HW1 5243   1.715   1.312   5.647
 1448SOL    HW2 5244   1.850   1.318   5.555
 1449SOL     OW 5245   1.631   2.844   2.760
 1449SOL    HW1 5246   1.559   2.837   2.691
 1449SOL    HW2 5247   1.719   2.821   2.718
 1450SOL     OW 5248   3.093   2.169   2.885
 1450SOL    HW1 5249   3.019   2.178   2.818
 1450SOL    HW2 5250   3.146   2.086   2.865
 1451SOL     OW 5251   4.328   2.074   2.590
 1451SOL    HW1 5252   4.401   2.005   2.593
 1451SOL    HW2 5253   4.259   2.047   2.523
 1452SOL     OW 5254   4.240   3.098   5.322
 1452SOL    HW1 5255   4.226   3.002   5.295
 1452SOL    HW2 5256   4.162   3.129   5.376
 1453SOL     OW 5257   1.215   3.686   5.363
 1453SOL    HW1 5258   1.163   3.771   5.356
 1453SOL    HW2 5259   1.170   3.625   5.429
 1454SOL     OW 5260   2.911   2.193   2.597
 1454SOL    HW1 5261   2.931   2.211   2.500
 1454SOL    HW2 5262   2.915   2.094   2.613
 1455SOL     OW 5263   0.583   5.666   2.388
 1455SOL    HW1 5264   0.678   5.669   2.357
 1455SOL    HW2 5265   0.573   5.594   2.456
 1456SOL     OW 5266   6.821   5.508   3.852
 1456SOL    HW1 5267   6.836   5.469   3.943
 1456SOL    HW2 5268   6.732   5.479   3.818
 1457SOL     OW 5269   1.016   5.216   5.686
 1457SOL    HW1 5270   1.060   5.295   5.729
 1457SOL    HW2 5271   0.917   5.224   5.695
 1458SOL     OW 5272   6.875   5.554   4.879
 1458SOL    HW1 5273   6.846   5.463   4.848
 1458SOL    HW2 5274   6.824   5.624   4.829
 1459SOL     OW 5275   6.989   6.365   5.550
 1459SOL    HW1 5276   0.034   6.290   5.532
 1459SOL    HW2 5277   6.945   6.393   5.465
 1460SOL     OW 5278   1.514   6.076   4.822
 1460SOL    HW1 5279   1.463   6.053   4.905
 1460SOL    HW2 5280   1.605   6.035   4.826
 1461SOL     OW 5281   5.914   3.831   3.545
 1461SOL    HW1 5282   6.007   3.861   3.568
 1461SOL    HW2 5283   5.861   3.910   3.512
 1462SOL     OW 5284   1.056   1.852   2.217
 1462SOL    HW1 5285   1.039   1.850   2.316
 1462SOL    HW2 5286   0.969   1.853   2.168
 1463SOL     OW 5287   1.648   4.707   6.607
 1463SOL    HW1 5288   1.668   4.744   6.698
 1463SOL    HW2 5289   1.671   4.774   6.537
 1464SOL     OW 5290   0.816   4.263   5.354
 1464SOL    HW1 5291   0.890   4.283   5.418
 1464SOL    HW2 5292   0.749   4.337   5.355
 1465SOL     OW 5293   0.985   2.996   5.907
 1465SOL    HW1 5294   1.023   3.075   5.858
 1465SOL    HW2 5295   0.927   2.944   5.845
 1466SOL     OW 5296   5.834   0.743   2.797
 1466SOL    HW1 5297   5.785   0.820   2.839
 1466SOL    HW2 5298   5.843   0.759   2.699
 1467SOL     OW 5299   0.224   0.285   3.758
 1467SOL    HW1 5300   0.217   0.240   3.670
 1467SOL    HW2 5301   0.235   0.217   3.830
 1468SOL     OW 5302   3.537   6.647   3.669
 1468SOL    HW1 5303   3.553   6.550   3.652
 1468SOL    HW2 5304   3.618   6.688   3.711
 1469SOL     OW 5305   5.696   4.508   3.025
 1469SOL    HW1 5306   5.785   4.469   3.003
 1469SOL    HW2 5307   5.652   4.454   3.097
 1470SOL     OW 5308   6.051   2.132   2.129
 1470SOL    HW1 5309   6.038   2.230   2.117
 1470SOL    HW2 5310   6.077   2.091   2.041
 1471SOL     OW 5311   5.065   6.862   6.994
 1471SOL    HW1 5312   5.081   6.821   0.066
 1471SOL    HW2 5313   5.140   6.839   6.933
 1472SOL     OW 5314   2.516   0.860   6.763
 1472SOL    HW1 5315   2.615   0.876   6.762
 1472SOL    HW2 5316   2.483   0.854   6.669
 1473SOL     OW 5317   1.748   5.586   3.562
 1473SOL    HW1 5318   1.773   5.683   3.558
 1473SOL    HW2 5319   1.783   5.547   3.647
 1474SOL     OW 5320   1.603   4.050   1.496
 1474SOL    HW1 5321   1.521   4.090   1.539
 1474SOL    HW2 5322   1.581   3.958   1.462
 1475SOL     OW 5323   6.653   0.063   6.347
 1475SOL    HW1 5324   6.686   6.991   6.376
 1475SOL    HW2 5325   6.731   0.126   6.343
 1476SOL     OW 5326   5.733   0.126   6.733
 1476SOL    HW1 5327   5.664   0.119   6.661
 1476SOL    HW2 5328   5.697   0.089   6.818
 1477SOL     OW 5329   3.282   4.062   2.100
 1477SOL    HW1 5330   3.232   4.024   2.177
 1477SOL    HW2 5331   3.365   4.107   2.133
 1478SOL     OW 5332   4.918   4.261   6.347
 1478SOL    HW1 5333   4.820   4.242   6.337
 1478SOL    HW2 5334   4.954   4.211   6.425
 1479SOL     OW 5335   4.796   4.574   0.993
 1479SOL    HW1 5336   4.799   4.511   0.916
 1479SOL    HW2 5337   4.738   4.652   0.970
 1480SOL     OW 5338   3.332   1.678   3.550
 1480SOL    HW1 5339   3.232   1.677   3.542
 1480SOL    HW2 5340   3.359   1.717   3.638
 1481SOL     OW 5341   4.384   1.818   5.380
 1481SOL    HW1 5342   4.368   1.771   5.467
 1481SOL    HW2 5343   4.439   1.760   5.320
 1482SOL     OW 5344   6.397   1.247   1.987
 1482SOL    HW1 5345   6.340   1.197   2.053
 1482SOL    HW2 5346   6.479   1.280   2.033
 1483SOL     OW 5347   6.339   6.641   0.678
 1483SOL    HW1 5348   6.246   6.661   0.707
 1483SOL    HW2 5349   6.340   6.616   0.581
 1484SOL     OW 5350   2.755   6.102   5.028
 1484SOL    HW1 5351   2.738   6.178   5.091
 1484SOL    HW2 5352   2.672   6.047   5.019
 1485SOL     OW 5353   5.154   3.765   3.589
 1485SOL    HW1 5354   5.142   3.851   3.540
 1485SOL    HW2 5355   5.072   3.746   3.644
 1486SOL     OW 5356   6.019   6.467   4.034
 1486SOL    HW1 5357   6.032   6.432   4.126
 1486SOL    HW2 5358   6.054   6.400   3.968
 1487SOL     OW 5359   5.907   0.741   6.932
 1487SOL    HW1 5360   5.958   0.657   6.949
 1487SOL    HW2 5361   5.878   0.743   6.836
 1488SOL     OW 5362   6.690   2.843   2.636
 1488SOL    HW1 5363   6.720   2.934   2.605
 1488SOL    HW2 5364   6.722   2.774   2.571
 1489SOL     OW 5365   3.204   5.582   0.022
 1489SOL    HW1 5366   3.262   5.595   0.102
 1489SOL    HW2 5367   3.230   5.498   6.994
 1490SOL     OW 5368   6.052   2.736   2.319
 1490SOL    HW1 5369   6.009   2.758   2.406
 1490SOL    HW2 5370   6.110   2.655   2.331
 1491SOL     OW 5371   5.206   2.972   4.489
 1491SOL    HW1 5372   5.299   3.010   4.486
 1491SOL    HW2 5373   5.165   2.992   4.578
 1492SOL     OW 5374   1.242   2.657   1.994
 1492SOL    HW1 5375   1.326   2.672   1.941
 1492SOL    HW2 5376   1.208   2.745   2.027
 1493SOL     OW 5377   5.973   1.950   6.205
 1493SOL    HW1 5378   5.981   1.918   6.110
 1493SOL    HW2 5379   5.939   1.876   6.262
 1494SOL     OW 5380   1.203   3.537   6.761
 1494SOL    HW1 5381   1.278   3.484   6.723
 1494SOL    HW2 5382   1.116   3.509   6.719
 1495SOL     OW 5383   6.163   4.310   4.002
 1495SOL    HW1 5384   6.149   4.236   4.067
 1495SOL    HW2 5385   6.076   4.357   3.985
 1496SOL     OW 5386   6.734   6.605   5.610
 1496SOL    HW1 5387   6.728   6.525   5.670
 1496SOL    HW2 5388   6.780   6.679   5.657
 1497SOL     OW 5389   4.647   2.315   2.613
 1497SOL    HW1 5390   4.629   2.371   2.532
 1497SOL    HW2 5391   4.618   2.364   2.695
 1498SOL     OW 5392   3.403   4.359   0.842
 1498SOL    HW1 5393   3.317   4.320   0.809
 1498SOL    HW2 5394   3.424   4.319   0.932
 1499SOL     OW 5395   0.890   4.290   4.259
 1499SOL    HW1 5396   0.904   4.319   4.164
 1499SOL    HW2 5397   0.875   4.191   4.262
 1500SOL     OW 5398   2.331   5.151   1.865
 1500SOL    HW1 5399   2.385   5.207   1.927
 1500SOL    HW2 5400   2.238   5.142   1.900
 1501SOL     OW 5401   5.403   1.076   1.301
 1501SOL    HW1 5402   5.451   1.098   1.386
 1501SOL    HW2 5403   5.305   1.085   1.316
 1502SOL     OW 5404   0.731   6.131   6.081
 1502SOL    HW1 5405   0.632   6.119   6.068
 1502SOL    HW2 5406   0.766   6.058   6.139
 1503SOL     OW 5407   6.326   5.818   2.049
 1503SOL    HW1 5408   6.372   5.883   1.990
 1503SOL    HW2 5409   6.286   5.866   2.127
 1504SOL     OW 5410   1.661   6.820   3.488
 1504SOL    HW1 5411   1.671   6.720   3.492
 1504SOL    HW2 5412   1.588   6.844   3.425
 1505SOL     OW 5413   6.836   4.374   4.792
 1505SOL    HW1 5414   6.891   4.441   4.841
 1505SOL    HW2 5415   6.752   4.355   4.844
 1506SOL     OW 5416   0.891   1.156   0.764
 1506SOL    HW1 5417   0.915   1.202   0.679
 1506SOL    HW2 5418   0.973   1.123   0.809
 1507SOL     OW 5419   2.216   2.392   3.514
 1507SOL    HW1 5420   2.146   2.373   3.583
 1507SOL    HW2 5421   2.266   2.307   3.493
 1508SOL     OW 5422   1.324   0.827   1.581
 1508SOL    HW1 5423   1.410   0.776   1.587
 1508SOL    HW2 5424   1.342   0.924   1.598
 1509SOL     OW 5425   4.459   0.975   4.625
 1509SOL    HW1 5426   4.437   1.008   4.717
 1509SOL    HW2 5427   4.376   0.977   4.569
 1510SOL     OW 5428   2.614   6.816   5.462
 1510SOL    HW1 5429   2.520   6.831   5.493
 1510SOL    HW2 5430   2.677   6.830   5.538
 1511SOL     OW 5431   3.971   4.077   5.293
 1511SOL    HW1 5432   4.064   4.050   5.320
 1511SOL    HW2 5433   3.953   4.043   5.200
 1512SOL     OW 5434   5.356   6.516   0.984
 1512SOL    HW1 5435   5.346   6.416   0.984
 1512SOL    HW2 5436   5.361   6.549   0.890
 1513SOL     OW 5437   3.199   6.587   5.407
 1513SOL    HW1 5438   3.264   6.585   5.332
 1513SOL    HW2 5439   3.248   6.606   5.493
 1514SOL     OW 5440   3.352   2.115   0.163
 1514SOL    HW1 5441   3.263   2.124   0.209
 1514SOL    HW2 5442   3.423   2.100   0.232
 1515SOL     OW 5443   3.448   1.049   1.752
 1515SOL    HW1 5444   3.489   1.029   1.663
 1515SOL    HW2 5445   3.480   1.138   1.783
 1516SOL     OW 5446   6.743   6.868   6.465
 1516SOL    HW1 5447   6.701   6.778   6.465
 1516SOL    HW2 5448   6.839   6.860   6.494
 1517SOL     OW 5449   2.129   6.193   2.719
 1517SOL    HW1 5450   2.210   6.181   2.776
 1517SOL    HW2 5451   2.056   6.235   2.773
 1518SOL     OW 5452   1.427   2.495   6.657
 1518SOL    HW1 5453   1.381   2.472   6.743
 1518SOL    HW2 5454   1.499   2.562   6.674
 1519SOL     OW 5455   0.357   4.152   6.675
 1519SOL    HW1 5456   0.426   4.111   6.616
 1519SOL    HW2 5457   0.372   4.251   6.680
 1520SOL     OW 5458   6.975   6.673   3.314
 1520SOL    HW1 5459   7.015   6.758   3.281
 1520SOL    HW2 5460   7.011   6.596   3.261
 1521SOL     OW 5461   2.363   4.989   6.838
 1521SOL    HW1 5462   2.359   4.904   6.784
 1521SOL    HW2 5463   2.295   4.986   6.910
 1522SOL     OW 5464   6.166   6.212   3.799
 1522SOL    HW1 5465   6.095   6.279   3.779
 1522SOL    HW2 5466   6.124   6.128   3.834
 1523SOL     OW 5467   2.813   6.615   0.709
 1523SOL    HW1 5468   2.774   6.705   0.687
 1523SOL    HW2 5469   2.888   6.627   0.775
 1524SOL     OW 5470   2.105   2.558   4.497
 1524SOL    HW1 5471   2.143   2.640   4.454
 1524SOL    HW2 5472   2.043   2.585   4.570
 1525SOL     OW 5473   6.309   3.937   0.199
 1525SOL    HW1 5474   6.302   4.028   0.241
 1525SOL    HW2 5475   6.287   3.868   0.267
 1526SOL     OW 5476   1.108   1.260   1.735
 1526SOL    HW1 5477   1.128   1.163   1.750
 1526SOL    HW2 5478   1.042   1.269   1.660
 1527SOL     OW 5479   5.020   1.059   4.475
 1527SOL    HW1 5480   4.986   1.068   4.381
 1527SOL    HW2 5481   4.951   1.014   4.532
 1528SOL     OW 5482   3.559   3.442   2.170
 1528SOL    HW1 5483   3.616   3.465   2.092
 1528SOL    HW2 5484   3.613   3.387   2.235
 1529SOL     OW 5485   4.163   1.026   5.512
 1529SOL    HW1 5486   4.135   0.931   5.495
 1529SOL    HW2 5487   4.191   1.068   5.426
 1530SOL     OW 5488   2.942   0.018   2.143
 1530SOL    HW1 5489   2.923   0.033   2.046
 1530SOL    HW2 5490   2.888   6.959   2.176
 1531SOL     OW 5491   5.630   6.281   4.445
 1531SOL    HW1 5492   5.571   6.357   4.472
 1531SOL    HW2 5493   5.705   6.315   4.389
 1532SOL     OW 5494   2.823   5.010   2.338
 1532SOL    HW1 5495   2.833   5.033   2.242
 1532SOL    HW2 5496   2.883   4.933   2.360
 1533SOL     OW 5497   5.577   6.134   1.618
 1533SOL    HW1 5498   5.642   6.122   1.543
 1533SOL    HW2 5499   5.625   6.124   1.705
 1534SOL     OW 5500   2.231   5.144   6.627
 1534SOL    HW1 5501   2.261   5.048   6.627
 1534SOL    HW2 5502   2.299   5.200   6.674
 1535SOL     OW 5503   4.762   4.609   3.125
 1535SOL    HW1 5504   4.787   4.547   3.200
 1535SOL    HW2 5505   4.789   4.702   3.149
 1536SOL     OW 5506   4.485   4.462   6.458
 1536SOL    HW1 5507   4.571   4.453   6.508
 1536SOL    HW2 5508   4.437   4.545   6.489
 1537SOL     OW 5509   3.187   5.827   2.080
 1537SOL    HW1 5510   3.187   5.905   2.143
 1537SOL    HW2 5511   3.262   5.836   2.015
 1538SOL     OW 5512   2.248   1.356   0.788
 1538SOL    HW1 5513   2.312   1.385   0.859
 1538SOL    HW2 5514   2.282   1.387   0.699
 1539SOL     OW 5515   0.175   2.941   0.875
 1539SOL    HW1 5516   0.186   3.005   0.800
 1539SOL    HW2 5517   0.089   2.959   0.923
 1540SOL     OW 5518   3.769   5.503   3.818
 1540SOL    HW1 5519   3.864   5.487   3.793
 1540SOL    HW2 5520   3.730   5.418   3.854
 1541SOL     OW 5521   4.841   2.445   5.323
 1541SOL    HW1 5522   4.748   2.481   5.313
 1541SOL    HW2 5523   4.838   2.357   5.370
 1542SOL     OW 5524   0.575   4.268   2.722
 1542SOL    HW1 5525   0.477   4.265   2.699
 1542SOL    HW2 5526   0.612   4.358   2.697
 1543SOL     OW 5527   3.904   5.211   1.143
 1543SOL    HW1 5528   3.955   5.144   1.196
 1543SOL    HW2 5529   3.838   5.258   1.202
 1544SOL     OW 5530   4.124   3.663   4.207
 1544SOL    HW1 5531   4.100   3.659   4.304
 1544SOL    HW2 5532   4.193   3.733   4.192
 1545SOL     OW 5533   6.404   5.054   1.030
 1545SOL    HW1 5534   6.347   5.134   1.013
 1545SOL    HW2 5535   6.489   5.083   1.074
 1546SOL     OW 5536   6.403   6.257   5.518
 1546SOL    HW1 5537   6.305   6.255   5.539
 1546SOL    HW2 5538   6.455   6.256   5.603
 1547SOL     OW 5539   1.656   2.962   6.412
 1547SOL    HW1 5540   1.566   2.941   6.449
 1547SOL    HW2 5541   1.668   3.062   6.411
 1548SOL     OW 5542   7.010   2.272   0.474
 1548SOL    HW1 5543   0.063   2.202   0.479
 1548SOL    HW2 5544   6.991   2.294   0.378
 1549SOL     OW 5545   5.483   0.601   4.071
 1549SOL    HW1 5546   5.501   0.685   4.020
 1549SOL    HW2 5547   5.426   0.540   4.016
 1550SOL     OW 5548   2.896   3.724   4.313
 1550SOL    HW1 5549   2.806   3.728   4.356
 1550SOL    HW2 5550   2.966   3.749   4.380
 1551SOL     OW 5551   6.718   5.113   5.867
 1551SOL    HW1 5552   6.729   5.081   5.961
 1551SOL    HW2 5553   6.750   5.208   5.860
 1552SOL     OW 5554   2.577   4.081   0.996
 1552SOL    HW1 5555   2.518   4.094   0.917
 1552SOL    HW2 5556   2.521   4.062   1.077
 1553SOL     OW 5557   1.414   2.272   5.360
 1553SOL    HW1 5558   1.401   2.369   5.342
 1553SOL    HW2 5559   1.505   2.256   5.399
 1554SOL     OW 5560   4.604   1.816   3.369
 1554SOL    HW1 5561   4.691   1.816   3.420
 1554SOL    HW2 5562   4.535   1.864   3.422
 1555SOL     OW 5563   6.044   4.794   5.075
 1555SOL    HW1 5564   5.951   4.828   5.064
 1555SOL    HW2 5565   6.065   4.784   5.172
 1556SOL     OW 5566   1.626   0.955   5.826
 1556SOL    HW1 5567   1.654   0.935   5.733
 1556SOL    HW2 5568   1.619   1.054   5.838
 1557SOL     OW 5569   1.408   1.549   6.014
 1557SOL    HW1 5570   1.376   1.606   5.938
 1557SOL    HW2 5571   1.329   1.510   6.062
 1558SOL     OW 5572   6.782   6.909   4.322
 1558SOL    HW1 5573   6.843   6.854   4.380
 1558SOL    HW2 5574   6.738   6.979   4.377
 1559SOL     OW 5575   1.490   1.031   6.199
 1559SOL    HW1 5576   1.537   1.118   6.210
 1559SOL    HW2 5577   1.474   0.989   6.288
 1560SOL     OW 5578   6.969   0.564   0.889
 1560SOL    HW1 5579   6.974   0.643   0.828
 1560SOL    HW2 5580   6.916   0.491   0.846
 1561SOL     OW 5581   6.125   6.407   1.840
 1561SOL    HW1 5582   6.169   6.318   1.830
 1561SOL    HW2 5583   6.042   6.396   1.894
 1562SOL     OW 5584   5.346   6.887   4.413
 1562SOL    HW1 5585   5.440   6.876   4.382
 1562SOL    HW2 5586   5.289   6.919   4.337
 1563SOL     OW 5587   2.855   6.929   6.323
 1563SOL    HW1 5588   2.887   6.992   6.393
 1563SOL    HW2 5589   2.903   6.841   6.331
 1564SOL     OW 5590   1.950   2.838   3.048
 1564SOL    HW1 5591   1.944   2.901   3.125
 1564SOL    HW2 5592   1.860   2.799   3.029
 1565SOL     OW 5593   6.500   4.655   1.240
 1565SOL    HW1 5594   6.470   4.708   1.319
 1565SOL    HW2 5595   6.468   4.700   1.156
 1566SOL     OW 5596   5.654   4.274   2.299
 1566SOL    HW1 5597   5.710   4.208   2.249
 1566SOL    HW2 5598   5.690   4.366   2.286
 1567SOL     OW 5599   6.950   5.674   5.504
 1567SOL    HW1 5600   0.008   5.639   5.450
 1567SOL    HW2 5601   6.864   5.657   5.456
 1568SOL     OW 5602   0.294   6.363   0.587
 1568SOL    HW1 5603   0.240   6.313   0.654
 1568SOL    HW2 5604   0.390   6.364   0.615
 1569SOL     OW 5605   3.564   5.718   4.870
 1569SOL    HW1 5606   3.636   5.774   4.911
 1569SOL    HW2 5607   3.585   5.701   4.774
 1570SOL     OW 5608   2.811   1.725   1.963
 1570SOL    HW1 5609   2.910   1.733   1.975
 1570SOL    HW2 5610   2.786   1.759   1.872
 1571SOL     OW 5611   0.430   2.423   6.569
 1571SOL    HW1 5612   0.347   2.478   6.577
 1571SOL    HW2 5613   0.490   2.464   6.500
 1572SOL     OW 5614   0.660   5.575   3.928
 1572SOL    HW1 5615   0.676   5.483   3.893
 1572SOL    HW2 5616   0.743   5.630   3.916
 1573SOL     OW 5617   4.160   0.301   0.039
 1573SOL    HW1 5618   4.117   0.277   6.970
 1573SOL    HW2 5619   4.181   0.399   0.039
 1574SOL     OW 5620   5.189   3.661   1.798
 1574SOL    HW1 5621   5.205   3.599   1.721
 1574SOL    HW2 5622   5.095   3.650   1.831
 1575SOL     OW 5623   3.502   2.582   0.234
 1575SOL    HW1 5624   3.421   2.640   0.245
 1575SOL    HW2 5625   3.559   2.618   0.161
 1576SOL     OW 5626   6.311   5.448   3.446
 1576SOL    HW1 5627   6.297   5.442   3.347
 1576SOL    HW2 5628   6.339   5.358   3.480
 1577SOL     OW 5629   1.705   0.627   0.911
 1577SOL    HW1 5630   1.632   0.596   0.972
 1577SOL    HW2 5631   1.761   0.694   0.959
 1578SOL     OW 5632   6.053   6.097   4.756
 1578SOL    HW1 5633   6.085   6.013   4.712
 1578SOL    HW2 5634   5.963   6.081   4.797
 1579SOL     OW 5635   0.033   1.159   3.504
 1579SOL    HW1 5636   0.074   1.124   3.588
 1579SOL    HW2 5637   6.979   1.096   3.474
 1580SOL     OW 5638   3.332   4.083   5.636
 1580SOL    HW1 5639   3.404   4.103   5.702
 1580SOL    HW2 5640   3.348   4.137   5.553
 1581SOL     OW 5641   6.127   3.390   4.607
 1581SOL    HW1 5642   6.204   3.409   4.547
 1581SOL    HW2 5643   6.159   3.342   4.689
 1582SOL     OW 5644   6.560   6.680   4.027
 1582SOL    HW1 5645   6.476   6.659   3.976
 1582SOL    HW2 5646   6.535   6.716   4.117
 1583SOL     OW 5647   2.484   2.915   0.880
 1583SOL    HW1 5648   2.385   2.903   0.887
 1583SOL    HW2 5649   2.509   3.008   0.905
 1584SOL     OW 5650   1.930   0.108   6.735
 1584SOL    HW1 5651   1.932   0.136   6.831
 1584SOL    HW2 5652   1.933   0.190   6.677
 1585SOL     OW 5653   5.600   1.102   5.736
 1585SOL    HW1 5654   5.648   1.100   5.824
 1585SOL    HW2 5655   5.579   1.009   5.707
 1586SOL     OW 5656   3.994   3.543   2.918
 1586SOL    HW1 5657   4.024   3.628   2.875
 1586SOL    HW2 5658   4.046   3.467   2.880
 1587SOL     OW 5659   1.997   6.681   6.102
 1587SOL    HW1 5660   2.040   6.670   6.012
 1587SOL    HW2 5661   1.904   6.716   6.090
 1588SOL     OW 5662   6.605   4.310   0.478
 1588SOL    HW1 5663   6.677   4.255   0.521
 1588SOL    HW2 5664   6.545   4.251   0.425
 1589SOL     OW 5665   5.313   5.118   3.138
 1589SOL    HW1 5666   5.338   5.049   3.070
 1589SOL    HW2 5667   5.308   5.076   3.228
 1590SOL     OW 5668   2.164   6.025   4.550
 1590SOL    HW1 5669   2.218   6.109   4.544
 1590SOL    HW2 5670   2.224   5.946   4.554
 1591SOL     OW 5671   2.493   3.293   0.345
 1591SOL    HW1 5672   2.438   3.367   0.384
 1591SOL    HW2 5673   2.564   3.332   0.286
 1592SOL     OW 5674   3.602   3.811   4.015
 1592SOL    HW1 5675   3.503   3.813   4.002
 1592SOL    HW2 5676   3.632   3.716   4.028
 1593SOL     OW 5677   0.951   4.686   3.777
 1593SOL    HW1 5678   0.853   4.707   3.774
 1593SOL    HW2 5679   0.989   4.718   3.864
 1594SOL     OW 5680   0.847   5.758   2.283
 1594SOL    HW1 5681   0.919   5.700   2.321
 1594SOL    HW2 5682   0.887   5.838   2.238
 1595SOL     OW 5683   6.267   3.372   4.862
 1595SOL    HW1 5684   6.333   3.389   4.935
 1595SOL    HW2 5685   6.181   3.339   4.901
 1596SOL     OW 5686   3.262   4.952   6.558
 1596SOL    HW1 5687   3.345   4.897   6.570
 1596SOL    HW2 5688   3.208   4.950   6.642
 1597SOL     OW 5689   2.593   6.625   1.232
 1597SOL    HW1 5690   2.500   6.615   1.195
 1597SOL    HW2 5691   2.648   6.547   1.206
 1598SOL     OW 5692   6.765   5.588   1.749
 1598SOL    HW1 5693   6.679   5.625   1.785
 1598SOL    HW2 5694   6.822   5.663   1.715
 1599SOL     OW 5695   2.970   5.527   0.366
 1599SOL    HW1 5696   2.951   5.573   0.452
 1599SOL    HW2 5697   3.035   5.452   0.382
 1600SOL     OW 5698   3.540   1.543   4.805
 1600SOL    HW1 5699   3.448   1.580   4.797
 1600SOL    HW2 5700   3.575   1.523   4.713
 1601SOL     OW 5701   1.511   5.025   4.904
 1601SOL    HW1 5702   1.448   5.078   4.962
 1601SOL    HW2 5703   1.507   5.060   4.810
 1602SOL     OW 5704   6.641   3.032   1.863
 1602SOL    HW1 5705   6.661   3.129   1.876
 1602SOL    HW2 5706   6.605   3.017   1.771
 1603SOL     OW 5707   6.090   6.691   1.084
 1603SOL    HW1 5708   6.008   6.749   1.084
 1603SOL    HW2 5709   6.170   6.747   1.104
 1604SOL     OW 5710   1.266   5.101   4.258
 1604SOL    HW1 5711   1.256   5.164   4.335
 1604SOL    HW2 5712   1.250   5.150   4.172
 1605SOL     OW 5713   5.165   4.955   1.984
 1605SOL    HW1 5714   5.261   4.960   2.011
 1605SOL    HW2 5715   5.133   4.861   1.992
 1606SOL     OW 5716   5.941   5.110   4.908
 1606SOL    HW1 5717   6.031   5.103   4.952
 1606SOL    HW2 5718   5.953   5.121   4.809
 1607SOL     OW 5719   5.634   3.864   1.589
 1607SOL    HW1 5720   5.654   3.780   1.640
 1607SOL    HW2 5721   5.536   3.868   1.568
 1608SOL     OW 5722   2.410   6.962   0.976
 1608SOL    HW1 5723   2.402   6.991   1.072
 1608SOL    HW2 5724   2.465   0.010   0.926
 1609SOL     OW 5725   5.855   2.316   5.170
 1609SOL    HW1 5726   5.943   2.364   5.179
 1609SOL    HW2 5727   5.782   2.373   5.207
 1610SOL     OW 5728   4.253   6.698   3.643
 1610SOL    HW1 5729   4.177   6.722   3.583
 1610SOL    HW2 5730   4.329   6.762   3.629
 1611SOL     OW 5731   4.489   3.755   1.665
 1611SOL    HW1 5732   4.524   3.839   1.707
 1611SOL    HW2 5733   4.397   3.772   1.630
 1612SOL     OW 5734   2.946   0.164   4.869
 1612SOL    HW1 5735   2.984   0.088   4.817
 1612SOL    HW2 5736   2.920   0.238   4.807
 1613SOL     OW 5737   2.451   0.374   1.861
 1613SOL    HW1 5738   2.411   0.399   1.773
 1613SOL    HW2 5739   2.490   0.455   1.905
 1614SOL     OW 5740   6.803   1.997   5.421
 1614SOL    HW1 5741   6.897   1.963   5.428
 1614SOL    HW2 5742   6.763   1.967   5.335
 1615SOL     OW 5743   6.405   5.486   5.469
 1615SOL    HW1 5744   6.450   5.439   5.393
 1615SOL    HW2 5745   6.364   5.419   5.530
 1616SOL     OW 5746   2.497   2.174   5.989
 1616SOL    HW1 5747   2.546   2.114   5.927
 1616SOL    HW2 5748   2.554   2.195   6.069
 1617SOL     OW 5749   3.102   1.137   3.185
 1617SOL    HW1 5750   3.047   1.072   3.236
 1617SOL    HW2 5751   3.140   1.093   3.103
 1618SOL     OW 5752   5.113   2.851   1.935
 1618SOL    HW1 5753   5.122   2.876   2.031
 1618SOL    HW2 5754   5.042   2.907   1.892
 1619SOL     OW 5755   1.271   3.199   4.611
 1619SOL    HW1 5756   1.360   3.163   4.580
 1619SOL    HW2 5757   1.273   3.214   4.709
 1620SOL     OW 5758   3.381   5.892   1.060
 1620SOL    HW1 5759   3.462   5.891   1.119
 1620SOL    HW2 5760   3.299   5.887   1.116
 1621SOL     OW 5761   2.313   2.283   1.436
 1621SOL    HW1 5762   2.380   2.330   1.377
 1621SOL    HW2 5763   2.339   2.187   1.445
 1622SOL     OW 5764   2.237   2.542   5.345
 1622SOL    HW1 5765   2.289   2.620   5.310
 1622SOL    HW2 5766   2.150   2.535   5.296
 1623SOL     OW 5767   2.299   2.181   4.514
 1623SOL    HW1 5768   2.346   2.269   4.516
 1623SOL    HW2 5769   2.312   2.134   4.602
 1624SOL     OW 5770   1.958   0.392   0.368
 1624SOL    HW1 5771   2.024   0.390   0.292
 1624SOL    HW2 5772   1.882   0.330   0.348
 1625SOL     OW 5773   1.544   0.220   1.080
 1625SOL    HW1 5774   1.531   0.214   0.981
 1625SOL    HW2 5775   1.505   0.139   1.124
 1626SOL     OW 5776   2.391   3.460   6.360
 1626SOL    HW1 5777   2.427   3.553   6.372
 1626SOL    HW2 5778   2.417   3.426   6.270
 1627SOL     OW 5779   4.675   4.249   3.055
 1627SOL    HW1 5780   4.699   4.240   3.152
 1627SOL    HW2 5781   4.713   4.172   3.003
 1628SOL     OW 5782   4.198   3.157   0.155
 1628SOL    HW1 5783   4.144   3.152   0.070
 1628SOL    HW2 5784   4.273   3.222   0.143
 1629SOL     OW 5785   2.018   2.351   3.183
 1629SOL    HW1 5786   2.093   2.285   3.178
 1629SOL    HW2 5787   2.040   2.432   3.129
 1630SOL     OW 5788   5.716   4.674   4.311
 1630SOL    HW1 5789   5.782   4.746   4.291
 1630SOL    HW2 5790   5.675   4.691   4.401
 1631SOL     OW 5791   1.370   0.393   5.838
 1631SOL    HW1 5792   1.299   0.454   5.875
 1631SOL    HW2 5793   1.460   0.434   5.854
 1632SOL     OW 5794   4.022   6.683   7.018
 1632SOL    HW1 5795   4.110   6.726   6.999
 1632SOL    HW2 5796   4.036   6.598   0.051
 1633SOL     OW 5797   6.502   3.938   2.890
 1633SOL    HW1 5798   6.592   3.981   2.877
 1633SOL    HW2 5799   6.490   3.914   2.986
 1634SOL     OW 5800   3.803   0.777   1.094
 1634SOL    HW1 5801   3.819   0.698   1.153
 1634SOL    HW2 5802   3.718   0.764   1.043
 1635SOL     OW 5803   1.672   3.820   3.496
 1635SOL    HW1 5804   1.584   3.786   3.465
 1635SOL    HW2 5805   1.745   3.774   3.445
 1636SOL     OW 5806   2.493   6.423   0.478
 1636SOL    HW1 5807   2.454   6.391   0.564
 1636SOL    HW2 5808   2.592   6.431   0.488
 1637SOL     OW 5809   1.292   2.859   2.358
 1637SOL    HW1 5810   1.275   2.764   2.330
 1637SOL    HW2 5811   1.391   2.875   2.362
 1638SOL     OW 5812   0.805   2.375   5.732
 1638SOL    HW1 5813   0.708   2.353   5.729
 1638SOL    HW2 5814   0.830   2.402   5.825
 1639SOL     OW 5815   3.742   5.228   2.704
 1639SOL    HW1 5816   3.750   5.269   2.795
 1639SOL    HW2 5817   3.680   5.284   2.648
 1640SOL     OW 5818   5.508   6.962   0.994
 1640SOL    HW1 5819   5.524   0.004   0.916
 1640SOL    HW2 5820   5.569   6.883   0.988
 1641SOL     OW 5821   6.377   2.552   4.522
 1641SOL    HW1 5822   6.340   2.624   4.580
 1641SOL    HW2 5823   6.455   2.587   4.470
 1642SOL     OW 5824   0.106   2.485   1.303
 1642SOL    HW1 5825   0.092   2.549   1.227
 1642SOL    HW2 5826   0.098   2.391   1.269
 1643SOL     OW 5827   3.945   0.283   5.649
 1643SOL    HW1 5828   3.923   0.186   5.643
 1643SOL    HW2 5829   3.866   0.337   5.619
 1644SOL     OW 5830   4.016   1.118   1.083
 1644SOL    HW1 5831   4.085   1.102   1.154
 1644SOL    HW2 5832   3.999   1.216   1.074
 1645SOL     OW 5833   2.329   5.366   5.802
 1645SOL    HW1 5834   2.426   5.378   5.824
 1645SOL    HW2 5835   2.306   5.419   5.721
 1646SOL     OW 5836   2.922   3.551   0.348
 1646SOL    HW1 5837   2.989   3.541   0.422
 1646SOL    HW2 5838   2.918   3.467   0.294
 1647SOL     OW 5839   5.922   3.086   2.125
 1647SOL    HW1 5840   5.921   3.114   2.029
 1647SOL    HW2 5841   5.830   3.056   2.152
 1648SOL     OW 5842   2.590   0.538   3.403
 1648SOL    HW1 5843   2.627   0.472   3.338
 1648SOL    HW2 5844   2.589   0.497   3.494
 1649SOL     OW 5845   2.827   0.614   4.329
 1649SOL    HW1 5846   2.916   0.624   4.373
 1649SOL    HW2 5847   2.774   0.698   4.341
 1650SOL     OW 5848   2.813   6.946   4.319
 1650SOL    HW1 5849   2.784   0.004   4.263
 1650SOL    HW2 5850   2.894   6.972   4.372
 1651SOL     OW 5851   1.407   6.644   2.433
 1651SOL    HW1 5852   1.465   6.699   2.493
 1651SOL    HW2 5853   1.417   6.547   2.456
 1652SOL     OW 5854   4.059   3.654   1.295
 1652SOL    HW1 5855   4.107   3.567   1.284
 1652SOL    HW2 5856   3.990   3.645   1.366
 1653SOL     OW 5857   1.256   4.139   1.304
 1653SOL    HW1 5858   1.166   4.106   1.274
 1653SOL    HW2 5859   1.261   4.134   1.404
 1654SOL     OW 5860   1.019   2.487   3.833
 1654SOL    HW1 5861   0.988   2.578   3.804
 1654SOL    HW2 5862   0.946   2.420   3.817
 1655SOL     OW 5863   4.189   4.024   5.440
 1655SOL    HW1 5864   4.154   4.093   5.503
 1655SOL    HW2 5865   4.282   3.998   5.468
 1656SOL     OW 5866   0.153   3.383   2.044
 1656SOL    HW1 5867   0.149   3.471   2.091
 1656SOL    HW2 5868   0.166   3.310   2.111
 1657SOL     OW 5869   1.248   0.617   5.958
 1657SOL    HW1 5870   1.151   0.642   5.965
 1657SOL    HW2 5871   1.304   0.688   6.001
 1658SOL     OW 5872   6.214   6.708   3.085
 1658SOL    HW1 5873   6.278   6.763   3.032
 1658SOL    HW2 5874   6.126   6.755   3.092
 1659SOL     OW 5875   5.877   2.608   6.539
 1659SOL    HW1 5876   5.951   2.543   6.555
 1659SOL    HW2 5877   5.812   2.604   6.614
 1660SOL     OW 5878   2.529   5.638   3.553
 1660SOL    HW1 5879   2.513   5.682   3.465
 1660SOL    HW2 5880   2.614   5.586   3.549
 1661SOL     OW 5881   2.666   0.753   3.164
 1661SOL    HW1 5882   2.762   0.722   3.167
 1661SOL    HW2 5883   2.633   0.768   3.257
 1662SOL     OW 5884   0.483   1.436   3.705
 1662SOL    HW1 5885   0.539   1.377   3.647
 1662SOL    HW2 5886   0.505   1.419   3.801
 1663SOL     OW 5887   1.154   0.253   3.335
 1663SOL    HW1 5888   1.232   0.315   3.328
 1663SOL    HW2 5889   1.085   0.293   3.394
 1664SOL     OW 5890   1.813   5.704   4.270
 1664SOL    HW1 5891   1.850   5.622   4.313
 1664SOL    HW2 5892   1.849   5.712   4.177
 1665SOL     OW 5893   0.141   1.027   4.093
 1665SOL    HW1 5894   0.085   1.109   4.103
 1665SOL    HW2 5895   0.219   1.046   4.034
 1666SOL     OW 5896   6.289   2.371   6.783
 1666SOL    HW1 5897   6.225   2.346   6.855
 1666SOL    HW2 5898   6.329   2.460   6.802
 1667SOL     OW 5899   6.831   0.172   0.904
 1667SOL    HW1 5900   6.888   0.156   0.985
 1667SOL    HW2 5901   6.794   0.085   0.872
 1668SOL     OW 5902   2.310   0.227   4.434
 1668SOL    HW1 5903   2.292   0.297   4.365
 1668SOL    HW2 5904   2.224   0.183   4.460
 1669SOL     OW 5905   5.372   5.960   6.160
 1669SOL    HW1 5906   5.313   5.883   6.135
 1669SOL    HW2 5907   5.414   5.943   6.249
 1670SOL     OW 5908   6.799   3.656   5.689
 1670SOL    HW1 5909   6.707   3.620   5.675
 1670SOL    HW2 5910   6.826   3.709   5.608
 1671SOL     OW 5911   6.388   4.761   1.018
 1671SOL    HW1 5912   6.300   4.748   1.062
 1671SOL    HW2 5913   6.417   4.856   1.030
 1672SOL     OW 5914   2.400   4.369   2.531
 1672SOL    HW1 5915   2.469   4.297   2.534
 1672SOL    HW2 5916   2.430   4.441   2.468
 1673SOL     OW 5917   6.456   3.593   3.148
 1673SOL    HW1 5918   6.381   3.651   3.180
 1673SOL    HW2 5919   6.429   3.550   3.062
 1674SOL     OW 5920   2.421   5.599   0.284
 1674SOL    HW1 5921   2.385   5.692   0.294
 1674SOL    HW2 5922   2.486   5.596   0.208
 1675SOL     OW 5923   5.116   2.155   6.550
 1675SOL    HW1 5924   5.102   2.082   6.485
 1675SOL    HW2 5925   5.060   2.138   6.632
 1676SOL     OW 5926   3.121   1.828   3.288
 1676SOL    HW1 5927   3.183   1.877   3.227
 1676SOL    HW2 5928   3.090   1.890   3.360
 1677SOL     OW 5929   5.139   0.277   6.105
 1677SOL    HW1 5930   5.154   0.373   6.082
 1677SOL    HW2 5931   5.211   0.245   6.167
 1678SOL     OW 5932   4.869   6.337   2.189
 1678SOL    HW1 5933   4.843   6.432   2.173
 1678SOL    HW2 5934   4.809   6.276   2.137
 1679SOL     OW 5935   6.341   4.742   0.034
 1679SOL    HW1 5936   6.260   4.797   0.015
 1679SOL    HW2 5937   6.322   4.682   0.113
 1680SOL     OW 5938   0.071   2.353   5.567
 1680SOL    HW1 5939   7.011   2.292   5.554
 1680SOL    HW2 5940   0.040   2.438   5.609
 1681SOL     OW 5941   4.724   5.649   0.635
 1681SOL    HW1 5942   4.807   5.664   0.583
 1681SOL    HW2 5943   4.728   5.560   0.680
 1682SOL     OW 5944   6.899   3.526   5.908
 1682SOL    HW1 5945   6.935   3.600   5.965
 1682SOL    HW2 5946   6.867   3.564   5.821
 1683SOL     OW 5947   5.975   5.220   5.387
 1683SOL    HW1 5948   5.913   5.258   5.318
 1683SOL    HW2 5949   6.062   5.270   5.386
 1684SOL     OW 5950   0.640   6.991   4.522
 1684SOL    HW1 5951   0.716   0.038   4.516
 1684SOL    HW2 5952   0.614   6.962   4.430
 1685SOL     OW 5953   1.176   2.126   6.850
 1685SOL    HW1 5954   1.250   2.123   6.918
 1685SOL    HW2 5955   1.141   2.033   6.836
 1686SOL     OW 5956   1.416   6.931   6.421
 1686SOL    HW1 5957   1.499   6.971   6.461
 1686SOL    HW2 5958   1.392   6.982   6.338
 1687SOL     OW 5959   2.577   6.661   2.438
 1687SOL    HW1 5960   2.535   6.639   2.349
 1687SOL    HW2 5961   2.676   6.659   2.429
 1688SOL     OW 5962   0.782   1.958   3.732
 1688SOL    HW1 5963   0.857   1.989   3.791
 1688SOL    HW2 5964   0.747   1.871   3.765
 1689SOL     OW 5965   2.192   1.617   1.703
 1689SOL    HW1 5966   2.107   1.662   1.677
 1689SOL    HW2 5967   2.268   1.660   1.655
 1690SOL     OW 5968   1.175   1.895   0.340
 1690SOL    HW1 5969   1.161   1.967   0.407
 1690SOL    HW2 5970   1.271   1.893   0.312
 1691SOL     OW 5971   4.963   3.973   3.483
 1691SOL    HW1 5972   4.924   4.014   3.565
 1691SOL    HW2 5973   5.035   4.032   3.446
 1692SOL     OW 5974   0.742   6.643   4.133
 1692SOL    HW1 5975   0.716   6.678   4.223
 1692SOL    HW2 5976   0.661   6.607   4.087
 1693SOL     OW 5977   3.677   2.140   4.126
 1693SOL    HW1 5978   3.672   2.236   4.101
 1693SOL    HW2 5979   3.686   2.084   4.044
 1694SOL     OW 5980   6.393   6.097   5.289
 1694SOL    HW1 5981   6.380   6.162   5.364
 1694SOL    HW2 5982   6.462   6.134   5.226
 1695SOL     OW 5983   3.738   1.781   6.336
 1695SOL    HW1 5984   3.837   1.773   6.344
 1695SOL    HW2 5985   3.707   1.862   6.386
 1696SOL     OW 5986   3.629   5.716   2.080
 1696SOL    HW1 5987   3.679   5.699   2.165
 1696SOL    HW2 5988   3.614   5.814   2.068
 1697SOL     OW 5989   1.556   1.598   1.991
 1697SOL    HW1 5990   1.601   1.663   1.930
 1697SOL    HW2 5991   1.611   1.514   1.998
 1698SOL     OW 5992   5.067   1.179   6.913
 1698SOL    HW1 5993   5.160   1.169   6.877
 1698SOL    HW2 5994   5.062   1.262   6.969
 1699SOL     OW 5995   2.510   4.448   1.435
 1699SOL    HW1 5996   2.581   4.450   1.505
 1699SOL    HW2 5997   2.431   4.398   1.468
 1700SOL     OW 5998   5.554   2.748   4.371
 1700SOL    HW1 5999   5.458   2.736   4.397
 1700SOL    HW2 6000   5.598   2.659   4.363
 1701SOL     OW 6001   5.559   3.000   4.771
 1701SOL    HW1 6002   5.559   2.923   4.707
 1701SOL    HW2 6003   5.544   2.966   4.863
 1702SOL     OW 6004   5.054   3.132   1.514
 1702SOL    HW1 6005   5.104   3.096   1.592
 1702SOL    HW2 6006   5.119   3.164   1.445
 1703SOL     OW 6007   2.127   3.904   1.456
 1703SOL    HW1 6008   2.226   3.895   1.450
 1703SOL    HW2 6009   2.094   3.858   1.539
 1704SOL     OW 6010   0.014   1.721   2.457
 1704SOL    HW1 6011   0.024   1.642   2.397
 1704SOL    HW2 6012   0.021   1.691   2.552
 1705SOL     OW 6013   4.134   3.597   2.556
 1705SOL    HW1 6014   4.192   3.566   2.631
 1705SOL    HW2 6015   4.152   3.542   2.474
 1706SOL     OW 6016   2.529   0.352   6.377
 1706SOL    HW1 6017   2.509   0.351   6.279
 1706SOL    HW2 6018   2.611   0.407   6.394
 1707SOL     OW 6019   5.014   1.520   2.200
 1707SOL    HW1 6020   4.927   1.568   2.187
 1707SOL    HW2 6021   5.074   1.575   2.259
 1708SOL     OW 6022   0.616   4.381   0.988
 1708SOL    HW1 6023   0.595   4.476   1.009
 1708SOL    HW2 6024   0.618   4.367   0.889
 1709SOL     OW 6025   3.445   5.500   3.863
 1709SOL    HW1 6026   3.532   5.544   3.844
 1709SOL    HW2 6027   3.446   5.407   3.827
 1710SOL     OW 6028   6.567   4.404   4.893
 1710SOL    HW1 6029   6.538   4.492   4.932
 1710SOL    HW2 6030   6.551   4.331   4.960
 1711SOL     OW 6031   0.652   4.400   6.003
 1711SOL    HW1 6032   0.623   4.472   6.066
 1711SOL    HW2 6033   0.711   4.439   5.932
 1712SOL     OW 6034   1.654   4.282   2.140
 1712SOL    HW1 6035   1.750   4.309   2.146
 1712SOL    HW2 6036   1.640   4.227   2.058
 1713SOL     OW 6037   2.759   3.634   1.105
 1713SOL    HW1 6038   2.775   3.662   1.200
 1713SOL    HW2 6039   2.794   3.705   1.043
 1714SOL     OW 6040   4.509   1.361   1.023
 1714SOL    HW1 6041   4.435   1.295   1.034
 1714SOL    HW2 6042   4.480   1.450   1.059
 1715SOL     OW 6043   1.204   3.670   3.317
 1715SOL    HW1 6044   1.301   3.663   3.340
 1715SOL    HW2 6045   1.149   3.652   3.398
 1716SOL     OW 6046   6.909   6.805   0.197
 1716SOL    HW1 6047   6.850   6.883   0.218
 1716SOL    HW2 6048   7.004   6.830   0.215
 1717SOL     OW 6049   3.032   0.790   0.242
 1717SOL    HW1 6050   3.006   0.695   0.226
 1717SOL    HW2 6051   2.979   0.850   0.183
 1718SOL     OW 6052   1.997   4.027   5.406
 1718SOL    HW1 6053   1.945   4.105   5.373
 1718SOL    HW2 6054   1.970   4.006   5.501
 1719SOL     OW 6055   2.475   2.867   0.593
 1719SOL    HW1 6056   2.484   2.892   0.690
 1719SOL    HW2 6057   2.546   2.915   0.541
 1720SOL     OW 6058   0.204   2.201   2.468
 1720SOL    HW1 6059   0.224   2.146   2.549
 1720SOL    HW2 6060   0.155   2.284   2.496
 1721SOL     OW 6061   0.881   5.725   3.867
 1721SOL    HW1 6062   0.854   5.815   3.835
 1721SOL    HW2 6063   0.957   5.691   3.812
 1722SOL     OW 6064   5.389   0.032   1.711
 1722SOL    HW1 6065   5.445   0.111   1.735
 1722SOL    HW2 6066   5.339   0.051   1.627
 1723SOL     OW 6067   6.000   0.789   3.277
 1723SOL    HW1 6068   5.927   0.722   3.258
 1723SOL    HW2 6069   5.983   0.872   3.224
 1724SOL     OW 6070   4.839   0.497   0.142
 1724SOL    HW1 6071   4.769   0.553   0.098
 1724SOL    HW2 6072   4.796   0.436   0.209
 1725SOL     OW 6073   4.039   5.738   1.920
 1725SOL    HW1 6074   3.944   5.713   1.941
 1725SOL    HW2 6075   4.041   5.796   1.838
 1726SOL     OW 6076   5.933   4.484   4.964
 1726SOL    HW1 6077   5.936   4.491   5.063
 1726SOL    HW2 6078   5.914   4.574   4.925
 1727SOL     OW 6079   2.635   4.728   5.970
 1727SOL    HW1 6080   2.687   4.712   6.054
 1727SOL    HW2 6081   2.643   4.648   5.911
 1728SOL     OW 6082   5.034   5.540   3.482
 1728SOL    HW1 6083   5.008   5.634   3.463
 1728SOL    HW2 6084   4.958   5.479   3.460
 1729SOL     OW 6085   7.018   2.754   2.562
 1729SOL    HW1 6086   6.927   2.732   2.598
 1729SOL    HW2 6087   0.035   2.835   2.610
 1730SOL     OW 6088   4.269   2.337   4.563
 1730SOL    HW1 6089   4.280   2.337   4.662
 1730SOL    HW2 6090   4.346   2.384   4.520
 1731SOL     OW 6091   0.419   6.822   6.414
 1731SOL    HW1 6092   0.399   6.774   6.328
 1731SOL    HW2 6093   0.505   6.789   6.452
 1732SOL     OW 6094   1.020   4.199   6.870
 1732SOL    HW1 6095   0.929   4.229   6.897
 1732SOL    HW2 6096   1.088   4.268   6.895
 1733SOL     OW 6097   1.632   4.225   6.589
 1733SOL    HW1 6098   1.586   4.166   6.522
 1733SOL    HW2 6099   1.725   4.192   6.604
 1734SOL     OW 6100   5.512   3.944   0.704
 1734SOL    HW1 6101   5.480   3.852   0.685
 1734SOL    HW2 6102   5.479   4.007   0.633
 1735SOL     OW 6103   4.861   5.470   6.683
 1735SOL    HW1 6104   4.834   5.412   6.606
 1735SOL    HW2 6105   4.943   5.432   6.726
 1736SOL     OW 6106   3.911   3.047   0.624
 1736SOL    HW1 6107   3.964   3.096   0.694
 1736SOL    HW2 6108   3.958   3.055   0.536
 1737SOL     OW 6109   0.760   6.024   3.408
 1737SOL    HW1 6110   0.858   6.006   3.413
 1737SOL    HW2 6111   0.732   6.079   3.487
 1738SOL     OW 6112   0.630   1.320   2.057
 1738SOL    HW1 6113   0.573   1.238   2.062
 1738SOL    HW2 6114   0.726   1.295   2.073
 1739SOL     OW 6115   4.279   1.684   6.589
 1739SOL    HW1 6116   4.201   1.737   6.557
 1739SOL    HW2 6117   4.285   1.598   6.538
 1740SOL     OW 6118   0.758   1.906   6.943
 1740SOL    HW1 6119   0.709   1.959   6.875
 1740SOL    HW2 6120   0.823   1.845   6.897
 1741SOL     OW 6121   0.762   0.403   2.618
 1741SOL    HW1 6122   0.862   0.397   2.619
 1741SOL    HW2 6123   0.730   0.413   2.524
 1742SOL     OW 6124   6.419   6.207   3.910
 1742SOL    HW1 6125   6.402   6.269   3.987
 1742SOL    HW2 6126   6.342   6.210   3.847
 1743SOL     OW 6127   4.081   1.416   0.380
 1743SOL    HW1 6128   4.177   1.435   0.400
 1743SOL    HW2 6129   4.055   1.329   0.421
 1744SOL     OW 6130   4.226   6.482   1.671
 1744SOL    HW1 6131   4.325   6.468   1.681
 1744SOL    HW2 6132   4.209   6.551   1.601
 1745SOL     OW 6133   0.648   2.296   5.152
 1745SOL    HW1 6134   0.713   2.237   5.105
 1745SOL    HW2 6135   0.668   2.295   5.250
 1746SOL     OW 6136   3.056   1.226   6.913
 1746SOL    HW1 6137   3.039   1.142   6.962
 1746SOL    HW2 6138   3.035   1.214   6.816
 1747SOL     OW 6139   3.802   6.835   4.500
 1747SOL    HW1 6140   3.856   6.915   4.527
 1747SOL    HW2 6141   3.738   6.812   4.574
 1748SOL     OW 6142   5.748   0.863   1.872
 1748SOL    HW1 6143   5.773   0.798   1.945
 1748SOL    HW2 6144   5.719   0.812   1.791
 1749SOL     OW 6145   5.050   6.958   6.167
 1749SOL    HW1 6146   5.011   6.883   6.113
 1749SOL    HW2 6147   5.055   0.022   6.111
 1750SOL     OW 6148   3.510   0.874   3.215
 1750SOL    HW1 6149   3.480   0.931   3.291
 1750SOL    HW2 6150   3.553   0.933   3.145
 1751SOL     OW 6151   2.274   5.627   4.432
 1751SOL    HW1 6152   2.219   5.546   4.412
 1751SOL    HW2 6153   2.370   5.601   4.438
 1752SOL     OW 6154   6.674   1.587   6.084
 1752SOL    HW1 6155   6.755   1.635   6.049
 1752SOL    HW2 6156   6.666   1.498   6.038
 1753SOL     OW 6157   1.948   6.715   2.083
 1753SOL    HW1 6158   1.852   6.692   2.067
 1753SOL    HW2 6159   1.991   6.739   1.996
 1754SOL     OW 6160   3.301   3.088   3.237
 1754SOL    HW1 6161   3.264   3.061   3.148
 1754SOL    HW2 6162   3.387   3.040   3.253
 1755SOL     OW 6163   0.050   4.068   6.801
 1755SOL    HW1 6164   0.128   4.028   6.849
 1755SOL    HW2 6165   0.071   4.078   6.704
 1756SOL     OW 6166   5.772   5.201   5.617
 1756SOL    HW1 6167   5.839   5.222   5.545
 1756SOL    HW2 6168   5.690   5.257   5.604
 1757SOL     OW 6169   3.621   0.383   5.207
 1757SOL    HW1 6170   3.546   0.414   5.149
 1757SOL    HW2 6171   3.701   0.441   5.193
 1758SOL     OW 6172   2.367   1.504   3.264
 1758SOL    HW1 6173   2.334   1.413   3.289
 1758SOL    HW2 6174   2.381   1.509   3.165
 1759SOL     OW 6175   6.576   6.131   5.953
 1759SOL    HW1 6176   6.632   6.053   5.929
 1759SOL    HW2 6177   6.580   6.146   6.052
 1760SOL     OW 6178   4.455   6.466   3.604
 1760SOL    HW1 6179   4.435   6.468   3.505
 1760SOL    HW2 6180   4.374   6.498   3.654
 1761SOL     OW 6181   5.970   3.350   1.126
 1761SOL    HW1 6182   6.017   3.435   1.102
 1761SOL    HW2 6183   5.972   3.287   1.049
 1762SOL     OW 6184   6.122   2.824   0.157
 1762SOL    HW1 6185   6.043   2.882   0.176
 1762SOL    HW2 6186   6.185   2.871   0.095
 1763SOL     OW 6187   1.865   2.318   4.181
 1763SOL    HW1 6188   1.838   2.412   4.161
 1763SOL    HW2 6189   1.940   2.319   4.248
 1764SOL     OW 6190   6.261   3.718   3.276
 1764SOL    HW1 6191   6.182   3.657   3.272
 1764SOL    HW2 6192   6.290   3.729   3.371
 1765SOL     OW 6193   1.733   3.242   6.388
 1765SOL    HW1 6194   1.670   3.299   6.440
 1765SOL    HW2 6195   1.823   3.287   6.383
 1766SOL     OW 6196   5.784   4.207   5.686
 1766SOL    HW1 6197   5.724   4.187   5.608
 1766SOL    HW2 6198   5.756   4.151   5.764
 1767SOL     OW 6199   7.006   5.030   1.083
 1767SOL    HW1 6200   7.000   5.064   1.176
 1767SOL    HW2 6201   6.919   4.989   1.056
 1768SOL     OW 6202   6.284   0.401   3.211
 1768SOL    HW1 6203   6.253   0.483   3.161
 1768SOL    HW2 6204   6.261   0.411   3.308
 1769SOL     OW 6205   4.874   0.727   3.800
 1769SOL    HW1 6206   4.806   0.714   3.873
 1769SOL    HW2 6207   4.854   0.667   3.724
 1770SOL     OW 6208   3.437   5.720   5.387
 1770SOL    HW1 6209   3.406   5.791   5.450
 1770SOL    HW2 6210   3.360   5.660   5.364
 1771SOL     OW 6211   5.078   5.722   6.949
 1771SOL    HW1 6212   5.048   5.724   6.853
 1771SOL    HW2 6213   5.149   5.790   6.963
 1772SOL     OW 6214   2.242   5.937   2.317
 1772SOL    HW1 6215   2.204   5.997   2.387
 1772SOL    HW2 6216   2.273   5.992   2.239
 1773SOL     OW 6217   1.973   6.757   0.024
 1773SOL    HW1 6218   1.939   6.814   0.099
 1773SOL    HW2 6219   1.941   6.663   0.036
 1774SOL     OW 6220   2.339   5.296   1.401
 1774SOL    HW1 6221   2.374   5.383   1.368
 1774SOL    HW2 6222   2.362   5.285   1.498
 1775SOL     OW 6223   0.682   5.251   0.413
 1775SOL    HW1 6224   0.718   5.296   0.495
 1775SOL    HW2 6225   0.642   5.319   0.352
 1776SOL     OW 6226   2.951   5.933   4.923
 1776SOL    HW1 6227   3.033   5.974   4.882
 1776SOL    HW2 6228   2.883   6.004   4.940
 1777SOL     OW 6229   4.290   6.131   6.694
 1777SOL    HW1 6230   4.323   6.223   6.715
 1777SOL    HW2 6231   4.215   6.137   6.628
 1778SOL     OW 6232   0.619   3.687   5.880
 1778SOL    HW1 6233   0.608   3.690   5.781
 1778SOL    HW2 6234   0.565   3.612   5.918
 1779SOL     OW 6235   3.995   6.669   4.849
 1779SOL    HW1 6236   4.076   6.687   4.905
 1779SOL    HW2 6237   3.937   6.602   4.895
 1780SOL     OW 6238   4.063   2.191   6.550
 1780SOL    HW1 6239   4.029   2.168   6.641
 1780SOL    HW2 6240   4.072   2.290   6.541
 1781SOL     OW 6241   1.817   6.062   3.281
 1781SOL    HW1 6242   1.809   6.145   3.226
 1781SOL    HW2 6243   1.899   6.067   3.338
 1782SOL     OW 6244   3.132   1.238   4.725
 1782SOL    HW1 6245   3.186   1.235   4.809
 1782SOL    HW2 6246   3.175   1.180   4.656
 1783SOL     OW 6247   2.178   6.148   0.295
 1783SOL    HW1 6248   2.208   6.135   0.390
 1783SOL    HW2 6249   2.202   6.240   0.265
 1784SOL     OW 6250   1.773   6.733   6.350
 1784SOL    HW1 6251   1.871   6.718   6.336
 1784SOL    HW2 6252   1.730   6.755   6.263
 1785SOL     OW 6253   6.892   5.183   2.909
 1785SOL    HW1 6254   6.903   5.114   2.838
 1785SOL    HW2 6255   6.863   5.270   2.867
 1786SOL     OW 6256   3.851   2.503   1.401
 1786SOL    HW1 6257   3.816   2.528   1.492
 1786SOL    HW2 6258   3.782   2.524   1.332
 1787SOL     OW 6259   3.364   0.332   5.417
 1787SOL    HW1 6260   3.271   0.321   5.380
 1787SOL    HW2 6261   3.426   0.358   5.344
 1788SOL     OW 6262   1.744   4.928   5.151
 1788SOL    HW1 6263   1.822   4.867   5.144
 1788SOL    HW2 6264   1.712   4.951   5.059
 1789SOL     OW 6265   5.813   6.560   0.676
 1789SOL    HW1 6266   5.798   6.491   0.747
 1789SOL    HW2 6267   5.728   6.610   0.659
 1790SOL     OW 6268   1.891   6.827   2.637
 1790SOL    HW1 6269   1.902   6.907   2.578
 1790SOL    HW2 6270   1.940   6.749   2.597
 1791SOL     OW 6271   0.924   6.727   3.626
 1791SOL    HW1 6272   0.902   6.825   3.631
 1791SOL    HW2 6273   0.911   6.686   3.716
 1792SOL     OW 6274   0.373   3.825   3.944
 1792SOL    HW1 6275   0.345   3.913   3.983
 1792SOL    HW2 6276   0.346   3.751   4.006
 1793SOL     OW 6277   0.162   0.382   4.393
 1793SOL    HW1 6278   0.243   0.325   4.410
 1793SOL    HW2 6279   0.134   0.427   4.478
 1794SOL     OW 6280   4.528   5.794   6.227
 1794SOL    HW1 6281   4.567   5.741   6.302
 1794SOL    HW2 6282   4.428   5.799   6.237
 1795SOL     OW 6283   0.880   3.778   0.156
 1795SOL    HW1 6284   0.903   3.684   0.130
 1795SOL    HW2 6285   0.926   3.841   0.094
 1796SOL     OW 6286   3.578   0.074   5.499
 1796SOL    HW1 6287   3.484   0.052   5.472
 1796SOL    HW2 6288   3.577   0.154   5.559
 1797SOL     OW 6289   0.188   1.087   2.140
 1797SOL    HW1 6290   0.215   1.124   2.229
 1797SOL    HW2 6291   0.167   0.989   2.151
 1798SOL     OW 6292   6.142   1.550   3.274
 1798SOL    HW1 6293   6.076   1.491   3.229
 1798SOL    HW2 6294   6.204   1.590   3.206
 1799SOL     OW 6295   2.751   0.285   0.569
 1799SOL    HW1 6296   2.846   0.259   0.586
 1799SOL    HW2 6297   2.709   0.315   0.654
 1800SOL     OW 6298   2.721   4.676   2.283
 1800SOL    HW1 6299   2.629   4.656   2.251
 1800SOL    HW2 6300   2.786   4.670   2.207
 1801SOL     OW 6301   5.552   6.296   0.856
 1801SOL    HW1 6302   5.630   6.255   0.809
 1801SOL    HW2 6303   5.485   6.225   0.879
 1802SOL     OW 6304   5.914   5.380   4.392
 1802SOL    HW1 6305   5.890   5.296   4.344
 1802SOL    HW2 6306   5.882   5.459   4.339
 1803SOL     OW 6307   6.394   4.838   0.353
 1803SOL    HW1 6308   6.436   4.750   0.329
 1803SOL    HW2 6309   6.306   4.847   0.306
 1804SOL     OW 6310   2.834   3.794   5.877
 1804SOL    HW1 6311   2.884   3.786   5.963
 1804SOL    HW2 6312   2.869   3.873   5.826
 1805SOL     OW 6313   6.984   2.715   6.918
 1805SOL    HW1 6314   7.016   2.716   6.824
 1805SOL    HW2 6315   0.043   2.702   6.980
 1806SOL     OW 6316   6.409   6.419   0.512
 1806SOL    HW1 6317   6.473   6.416   0.588
 1806SOL    HW2 6318   6.458   6.439   0.427
 1807SOL     OW 6319   7.018   1.995   5.679
 1807SOL    HW1 6320   0.061   1.931   5.633
 1807SOL    HW2 6321   0.055   2.066   5.724
 1808SOL     OW 6322   2.348   4.719   3.858
 1808SOL    HW1 6323   2.323   4.642   3.916
 1808SOL    HW2 6324   2.446   4.716   3.838
 1809SOL     OW 6325   3.647   0.703   6.232
 1809SOL    HW1 6326   3.731   0.667   6.273
 1809SOL    HW2 6327   3.594   0.750   6.302
 1810SOL     OW 6328   3.259   6.453   3.273
 1810SOL    HW1 6329   3.257   6.433   3.175
 1810SOL    HW2 6330   3.351   6.483   3.299
 1811SOL     OW 6331   5.617   5.687   3.099
 1811SOL    HW1 6332   5.617   5.609   3.162
 1811SOL    HW2 6333   5.572   5.660   3.014
 1812SOL     OW 6334   4.671   5.255   5.192
 1812SOL    HW1 6335   4.612   5.321   5.147
 1812SOL    HW2 6336   4.684   5.176   5.133
 1813SOL     OW 6337   0.093   6.639   5.309
 1813SOL    HW1 6338   0.151   6.701   5.255
 1813SOL    HW2 6339   0.123   6.640   5.404
 1814SOL     OW 6340   4.449   0.607   2.748
 1814SOL    HW1 6341   4.531   0.663   2.757
 1814SOL    HW2 6342   4.401   0.603   2.835
 1815SOL     OW 6343   0.374   1.441   3.237
 1815SOL    HW1 6344   0.352   1.431   3.140
 1815SOL    HW2 6345   0.292   1.426   3.292
 1816SOL     OW 6346   1.359   5.517   0.223
 1816SOL    HW1 6347   1.439   5.576   0.235
 1816SOL    HW2 6348   1.389   5.423   0.208
 1817SOL     OW 6349   1.404   4.189   1.887
 1817SOL    HW1 6350   1.326   4.250   1.903
 1817SOL    HW2 6351   1.481   4.243   1.852
 1818SOL     OW 6352   0.321   1.832   3.136
 1818SOL    HW1 6353   0.360   1.753   3.183
 1818SOL    HW2 6354   0.247   1.870   3.191
 1819SOL     OW 6355   1.177   3.795   2.348
 1819SOL    HW1 6356   1.245   3.840   2.290
 1819SOL    HW2 6357   1.122   3.732   2.293
 1820SOL     OW 6358   5.815   6.535   2.565
 1820SOL    HW1 6359   5.912   6.555   2.553
 1820SOL    HW2 6360   5.782   6.575   2.650
 1821SOL     OW 6361   1.404   1.830   2.962
 1821SOL    HW1 6362   1.405   1.894   3.039
 1821SOL    HW2 6363   1.464   1.864   2.889
 1822SOL     OW 6364   3.234   3.598   2.011
 1822SOL    HW1 6365   3.244   3.539   2.091
 1822SOL    HW2 6366   3.159   3.662   2.026
 1823SOL     OW 6367   4.379   6.965   2.402
 1823SOL    HW1 6368   4.401   0.044   2.393
 1823SOL    HW2 6369   4.308   6.953   2.471
 1824SOL     OW 6370   4.705   1.479   1.906
 1824SOL    HW1 6371   4.605   1.477   1.910
 1824SOL    HW2 6372   4.733   1.507   1.814
 1825SOL     OW 6373   0.525   0.424   1.495
 1825SOL    HW1 6374   0.530   0.518   1.462
 1825SOL    HW2 6375   0.614   0.395   1.529
 1826SOL     OW 6376   2.827   5.550   6.254
 1826SOL    HW1 6377   2.876   5.624   6.209
 1826SOL    HW2 6378   2.887   5.507   6.322
 1827SOL     OW 6379   5.588   0.176   1.186
 1827SOL    HW1 6380   5.664   0.194   1.124
 1827SOL    HW2 6381   5.503   0.210   1.146
 1828SOL     OW 6382   3.044   2.577   0.346
 1828SOL    HW1 6383   2.949   2.602   0.327
 1828SOL    HW2 6384   3.056   2.479   0.333
 1829SOL     OW 6385   5.519   5.182   2.465
 1829SOL    HW1 6386   5.500   5.084   2.463
 1829SOL    HW2 6387   5.435   5.232   2.485
 1830SOL     OW 6388   4.636   0.403   4.778
 1830SOL    HW1 6389   4.696   0.398   4.698
 1830SOL    HW2 6390   4.612   0.498   4.796
 1831SOL     OW 6391   5.221   1.314   3.141
 1831SOL    HW1 6392   5.142   1.372   3.123
 1831SOL    HW2 6393   5.305   1.369   3.133
 1832SOL     OW 6394   5.741   2.539   6.762
 1832SOL    HW1 6395   5.813   2.491   6.812
 1832SOL    HW2 6396   5.667   2.563   6.825
 1833SOL     OW 6397   5.632   2.062   6.221
 1833SOL    HW1 6398   5.627   1.989   6.153
 1833SOL    HW2 6399   5.693   2.134   6.188
 1834SOL     OW 6400   2.475   4.485   6.860
 1834SOL    HW1 6401   2.564   4.440   6.861
 1834SOL    HW2 6402   2.446   4.503   6.954
 1835SOL     OW 6403   1.723   5.209   7.017
 1835SOL    HW1 6404   1.807   5.250   6.981
 1835SOL    HW2 6405   1.745   5.154   0.080
 1836SOL     OW 6406   0.755   6.447   0.441
 1836SOL    HW1 6407   0.829   6.412   0.498
 1836SOL    HW2 6408   0.668   6.407   0.471
 1837SOL     OW 6409   6.986   2.790   4.309
 1837SOL    HW1 6410   6.917   2.836   4.364
 1837SOL    HW2 6411   0.035   2.746   4.369
 1838SOL     OW 6412   0.844   2.739   4.427
 1838SOL    HW1 6413   0.836   2.700   4.519
 1838SOL    HW2 6414   0.753   2.744   4.385
 1839SOL     OW 6415   1.465   1.426   0.189
 1839SOL    HW1 6416   1.377   1.379   0.190
 1839SOL    HW2 6417   1.537   1.363   0.162
 1840SOL     OW 6418   0.959   5.399   1.483
 1840SOL    HW1 6419   0.982   5.357   1.571
 1840SOL    HW2 6420   0.952   5.498   1.495
 1841SOL     OW 6421   1.724   3.012   4.325
 1841SOL    HW1 6422   1.790   3.067   4.377
 1841SOL    HW2 6423   1.635   3.057   4.327
 1842SOL     OW 6424   1.603   5.832   6.318
 1842SOL    HW1 6425   1.544   5.752   6.331
 1842SOL    HW2 6426   1.698   5.806   6.336
 1843SOL     OW 6427   4.442   2.054   5.609
 1843SOL    HW1 6428   4.455   2.149   5.638
 1843SOL    HW2 6429   4.506   2.033   5.534
 1844SOL     OW 6430   5.693   5.250   3.513
 1844SOL    HW1 6431   5.673   5.176   3.577
 1844SOL    HW2 6432   5.742   5.213   3.433
 1845SOL     OW 6433   5.033   6.357   0.786
 1845SOL    HW1 6434   4.963   6.377   0.855
 1845SOL    HW2 6435   5.054   6.440   0.735
 1846SOL     OW 6436   3.869   1.428   5.647
 1846SOL    HW1 6437   3.777   1.401   5.618
 1846SOL    HW2 6438   3.910   1.353   5.699
 1847SOL     OW 6439   1.266   6.086   6.300
 1847SOL    HW1 6440   1.211   6.033   6.364
 1847SOL    HW2 6441   1.362   6.081   6.327
 1848SOL     OW 6442   2.213   1.295   4.281
 1848SOL    HW1 6443   2.270   1.377   4.280
 1848SOL    HW2 6444   2.128   1.315   4.331
 1849SOL     OW 6445   2.529   0.907   5.923
 1849SOL    HW1 6446   2.494   0.996   5.893
 1849SOL    HW2 6447   2.560   0.913   6.018
 1850SOL     OW 6448   5.087   1.805   1.397
 1850SOL    HW1 6449   4.989   1.785   1.401
 1850SOL    HW2 6450   5.101   1.891   1.346
 1851SOL     OW 6451   6.594   4.405   2.533
 1851SOL    HW1 6452   6.515   4.344   2.527
 1851SOL    HW2 6453   6.562   4.496   2.560
 1852SOL     OW 6454   5.692   1.731   5.789
 1852SOL    HW1 6455   5.645   1.737   5.701
 1852SOL    HW2 6456   5.782   1.775   5.781
 1853SOL     OW 6457   1.509   4.967   0.535
 1853SOL    HW1 6458   1.563   4.898   0.584
 1853SOL    HW2 6459   1.482   5.039   0.599
 1854SOL     OW 6460   2.417   5.023   4.136
 1854SOL    HW1 6461   2.415   5.117   4.169
 1854SOL    HW2 6462   2.497   5.010   4.078
 1855SOL     OW 6463   6.843   4.859   1.422
 1855SOL    HW1 6464   6.887   4.869   1.511
 1855SOL    HW2 6465   6.849   4.763   1.393
 1856SOL     OW 6466   5.683   3.333   0.107
 1856SOL    HW1 6467   5.587   3.329   0.077
 1856SOL    HW2 6468   5.739   3.273   0.050
 1857SOL     OW 6469   5.700   1.019   3.563
 1857SOL    HW1 6470   5.705   0.996   3.466
 1857SOL    HW2 6471   5.771   1.085   3.585
 1858SOL     OW 6472   5.199   4.371   2.425
 1858SOL    HW1 6473   5.145   4.428   2.487
 1858SOL    HW2 6474   5.284   4.418   2.403
 1859SOL     OW 6475   5.701   2.164   3.718
 1859SOL    HW1 6476   5.667   2.230   3.650
 1859SOL    HW2 6477   5.692   2.204   3.810
 1860SOL     OW 6478   3.590   1.987   5.119
 1860SOL    HW1 6479   3.639   1.958   5.036
 1860SOL    HW2 6480   3.511   2.042   5.092
 1861SOL     OW 6481   5.126   6.591   2.562
 1861SOL    HW1 6482   5.096   6.500   2.534
 1861SOL    HW2 6483   5.155   6.643   2.482
 1862SOL     OW 6484   2.758   2.180   0.654
 1862SOL    HW1 6485   2.854   2.160   0.673
 1862SOL    HW2 6486   2.701   2.102   0.679
 1863SOL     OW 6487   2.218   1.691   1.215
 1863SOL    HW1 6488   2.190   1.603   1.253
 1863SOL    HW2 6489   2.204   1.763   1.283
 1864SOL     OW 6490   0.374   6.518   3.265
 1864SOL    HW1 6491   0.399   6.540   3.171
 1864SOL    HW2 6492   0.427   6.440   3.297
 1865SOL     OW 6493   5.418   3.283   6.712
 1865SOL    HW1 6494   5.479   3.270   6.634
 1865SOL    HW2 6495   5.447   3.224   6.787
 1866SOL     OW 6496   6.089   4.999   1.438
 1866SOL    HW1 6497   6.071   5.036   1.529
 1866SOL    HW2 6498   6.010   4.946   1.407
 1867SOL     OW 6499   1.356   4.387   6.432
 1867SOL    HW1 6500   1.386   4.308   6.378
 1867SOL    HW2 6501   1.338   4.358   6.526
 1868SOL     OW 6502   6.479   4.207   5.058
 1868SOL    HW1 6503   6.429   4.276   5.111
 1868SOL    HW2 6504   6.418   4.131   5.037
 1869SOL     OW 6505   5.652   1.109   4.836
 1869SOL    HW1 6506   5.751   1.109   4.825
 1869SOL    HW2 6507   5.612   1.035   4.782
 1870SOL     OW 6508   2.131   3.818   4.851
 1870SOL    HW1 6509   2.220   3.861   4.865
 1870SOL    HW2 6510   2.059   3.886   4.861
 1871SOL     OW 6511   1.828   1.078   0.967
 1871SOL    HW1 6512   1.734   1.053   0.945
 1871SOL    HW2 6513   1.833   1.109   1.062
 1872SOL     OW 6514   1.879   5.461   6.273
 1872SOL    HW1 6515   1.873   5.401   6.353
 1872SOL    HW2 6516   1.976   5.475   6.249
 1873SOL     OW 6517   5.743   6.668   0.034
 1873SOL    HW1 6518   5.726   6.745   6.992
 1873SOL    HW2 6519   5.659   6.646   0.084
 1874SOL     OW 6520   0.622   3.882   3.050
 1874SOL    HW1 6521   0.565   3.840   3.121
 1874SOL    HW2 6522   0.570   3.954   3.004
 1875SOL     OW 6523   0.268   0.026   2.059
 1875SOL    HW1 6524   0.214   6.995   2.128
 1875SOL    HW2 6525   0.362   0.038   2.092
 1876SOL     OW 6526   1.907   6.164   4.224
 1876SOL    HW1 6527   1.933   6.151   4.319
 1876SOL    HW2 6528   1.948   6.092   4.168
 1877SOL     OW 6529   0.404   0.162   4.416
 1877SOL    HW1 6530   0.399   0.109   4.500
 1877SOL    HW2 6531   0.357   0.113   4.342
 1878SOL     OW 6532   6.450   3.322   5.652
 1878SOL    HW1 6533   6.533   3.273   5.678
 1878SOL    HW2 6534   6.431   3.393   5.719
 1879SOL     OW 6535   1.740   5.798   5.706
 1879SOL    HW1 6536   1.710   5.886   5.741
 1879SOL    HW2 6537   1.678   5.767   5.634
 1880SOL     OW 6538   6.542   0.413   4.069
 1880SOL    HW1 6539   6.506   0.347   4.003
 1880SOL    HW2 6540   6.634   0.440   4.041
 1881SOL     OW 6541   0.525   2.220   6.918
 1881SOL    HW1 6542   0.537   2.171   6.831
 1881SOL    HW2 6543   0.611   2.265   6.943
 1882SOL     OW 6544   0.599   6.804   0.426
 1882SOL    HW1 6545   0.688   6.759   0.416
 1882SOL    HW2 6546   0.527   6.742   0.395
 1883SOL     OW 6547   6.862   2.068   4.111
 1883SOL    HW1 6548   6.936   2.012   4.074
 1883SOL    HW2 6549   6.827   2.129   4.040
 1884SOL     OW 6550   5.934   1.972   1.438
 1884SOL    HW1 6551   5.880   2.056   1.436
 1884SOL    HW2 6552   5.942   1.935   1.345
 1885SOL     OW 6553   3.441   1.243   4.429
 1885SOL    HW1 6554   3.485   1.227   4.518
 1885SOL    HW2 6555   3.372   1.172   4.414
 1886SOL     OW 6556   0.381   6.212   3.733
 1886SOL    HW1 6557   0.472   6.171   3.726
 1886SOL    HW2 6558   0.372   6.259   3.821
 1887SOL     OW 6559   2.527   5.686   5.954
 1887SOL    HW1 6560   2.552   5.619   5.885
 1887SOL    HW2 6561   2.547   5.650   6.045
 1888SOL     OW 6562   2.100   0.088   3.231
 1888SOL    HW1 6563   2.179   0.147   3.246
 1888SOL    HW2 6564   2.131   7.016   3.201
 1889SOL     OW 6565   0.205   3.499   2.321
 1889SOL    HW1 6566   0.302   3.477   2.335
 1889SOL    HW2 6567   0.150   3.419   2.345
 1890SOL     OW 6568   1.770   6.159   4.525
 1890SOL    HW1 6569   1.729   6.078   4.484
 1890SOL    HW2 6570   1.729   6.175   4.615
 1891SOL     OW 6571   4.089   3.753   3.626
 1891SOL    HW1 6572   4.058   3.778   3.535
 1891SOL    HW2 6573   4.082   3.654   3.638
 1892SOL     OW 6574   6.772   0.707   2.832
 1892SOL    HW1 6575   6.717   0.790   2.833
 1892SOL    HW2 6576   6.850   0.717   2.894
 1893SOL     OW 6577   3.805   3.050   4.097
 1893SOL    HW1 6578   3.738   3.081   4.030
 1893SOL    HW2 6579   3.783   2.957   4.125
 1894SOL     OW 6580   3.310   3.060   4.830
 1894SOL    HW1 6581   3.288   2.983   4.889
 1894SOL    HW2 6582   3.289   3.145   4.878
 1895SOL     OW 6583   0.844   6.447   1.152
 1895SOL    HW1 6584   0.824   6.464   1.056
 1895SOL    HW2 6585   0.937   6.410   1.161
 1896SOL     OW 6586   6.040   3.187   0.923
 1896SOL    HW1 6587   6.113   3.164   0.987
 1896SOL    HW2 6588   6.046   3.128   0.842
 1897SOL     OW 6589   2.115   4.696   3.023
 1897SOL    HW1 6590   2.116   4.774   3.085
 1897SOL    HW2 6591   2.022   4.658   3.019
 1898SOL     OW 6592   1.719   5.873   2.150
 1898SOL    HW1 6593   1.651   5.828   2.092
 1898SOL    HW2 6594   1.811   5.843   2.123
 1899SOL     OW 6595   6.849   1.002   2.024
 1899SOL    HW1 6596   6.920   1.067   2.052
 1899SOL    HW2 6597   6.872   0.911   2.059
 1900SOL     OW 6598   2.973   6.237   6.131
 1900SOL    HW1 6599   2.984   6.288   6.045
 1900SOL    HW2 6600   2.926   6.151   6.112
 1901SOL     OW 6601   3.937   3.289   3.069
 1901SOL    HW1 6602   3.933   3.191   3.089
 1901SOL    HW2 6603   3.992   3.304   2.987
 1902SOL     OW 6604   1.035   6.885   5.492
 1902SOL    HW1 6605   1.040   6.833   5.577
 1902SOL    HW2 6606   1.096   6.964   5.498
 1903SOL     OW 6607   1.223   2.190   4.341
 1903SOL    HW1 6608   1.205   2.153   4.432
 1903SOL    HW2 6609   1.307   2.151   4.304
 1904SOL     OW 6610   5.896   5.321   1.883
 1904SOL    HW1 6611   5.878   5.419   1.898
 1904SOL    HW2 6612   5.929   5.280   1.968
 1905SOL     OW 6613   0.467   3.123   3.998
 1905SOL    HW1 6614   0.372   3.148   3.978
 1905SOL    HW2 6615   0.469   3.035   4.044
 1906SOL     OW 6616   0.187   6.070   3.921
 1906SOL    HW1 6617   0.200   5.973   3.901
 1906SOL    HW2 6618   0.202   6.124   3.838
 1907SOL     OW 6619   6.675   2.924   0.653
 1907SOL    HW1 6620   6.670   2.863   0.574
 1907SOL    HW2 6621   6.734   3.002   0.631
 1908SOL     OW 6622   4.252   0.570   1.598
 1908SOL    HW1 6623   4.285   0.654   1.556
 1908SOL    HW2 6624   4.223   0.506   1.526
 1909SOL     OW 6625   6.547   4.920   5.042
 1909SOL    HW1 6626   6.580   4.949   5.132
 1909SOL    HW2 6627   6.618   4.935   4.973
 1910SOL     OW 6628   0.428   6.178   5.306
 1910SOL    HW1 6629   0.335   6.150   5.281
 1910SOL    HW2 6630   0.433   6.278   5.305
 1911SOL     OW 6631   5.689   6.702   4.106
 1911SOL    HW1 6632   5.679   6.603   4.098
 1911SOL    HW2 6633   5.763   6.733   4.046
 1912SOL     OW 6634   3.343   4.821   1.879
 1912SOL    HW1 6635   3.253   4.852   1.850
 1912SOL    HW2 6636   3.349   4.722   1.869
 1913SOL     OW 6637   2.930   4.196   6.089
 1913SOL    HW1 6638   2.861   4.123   6.083
 1913SOL    HW2 6639   3.015   4.159   6.125
 1914SOL     OW 6640   4.308   4.174   0.611
 1914SOL    HW1 6641   4.216   4.191   0.575
 1914SOL    HW2 6642   4.350   4.099   0.560
 1915SOL     OW 6643   4.329   2.310   0.195
 1915SOL    HW1 6644   4.267   2.380   0.160
 1915SOL    HW2 6645   4.303   2.287   0.289
 1916SOL     OW 6646   3.432   1.566   2.851
 1916SOL    HW1 6647   3.420   1.632   2.776
 1916SOL    HW2 6648   3.510   1.506   2.830
 1917SOL     OW 6649   2.801   3.686   1.370
 1917SOL    HW1 6650   2.896   3.711   1.354
 1917SOL    HW2 6651   2.787   3.668   1.467
 1918SOL     OW 6652   5.052   2.813   4.316
 1918SOL    HW1 6653   5.054   2.715   4.338
 1918SOL    HW2 6654   5.109   2.863   4.381
 1919SOL     OW 6655   6.667   1.063   6.383
 1919SOL    HW1 6656   6.710   1.045   6.295
 1919SOL    HW2 6657   6.665   1.161   6.401
 1920SOL     OW 6658   4.723   3.566   0.622
 1920SOL    HW1 6659   4.784   3.637   0.585
 1920SOL    HW2 6660   4.628   3.597   0.615
 1921SOL     OW 6661   3.488   2.027   6.964
 1921SOL    HW1 6662   3.447   2.042   6.874
 1921SOL    HW2 6663   3.429   2.068   0.016
 1922SOL     OW 6664   3.624   3.695   4.445
 1922SOL    HW1 6665   3.656   3.617   4.391
 1922SOL    HW2 6666   3.628   3.778   4.390
 1923SOL     OW 6667   2.848   0.466   3.987
 1923SOL    HW1 6668   2.918   0.405   4.023
 1923SOL    HW2 6669   2.764   0.457   4.040
 1924SOL     OW 6670   5.658   0.680   1.403
 1924SOL    HW1 6671   5.586   0.707   1.339
 1924SOL    HW2 6672   5.677   0.582   1.394
 1925SOL     OW 6673   1.499   4.533   1.045
 1925SOL    HW1 6674   1.561   4.547   0.968
 1925SOL    HW2 6675   1.483   4.435   1.058
 1926SOL     OW 6676   2.808   6.582   2.086
 1926SOL    HW1 6677   2.720   6.590   2.134
 1926SOL    HW2 6678   2.810   6.645   2.009
 1927SOL     OW 6679   2.117   5.425   0.826
 1927SOL    HW1 6680   2.074   5.424   0.916
 1927SOL    HW2 6681   2.099   5.338   0.780
 1928SOL     OW 6682   0.953   4.157   2.665
 1928SOL    HW1 6683   1.011   4.075   2.660
 1928SOL    HW2 6684   0.897   4.154   2.748
 1929SOL     OW 6685   3.292   0.474   3.300
 1929SOL    HW1 6686   3.295   0.558   3.246
 1929SOL    HW2 6687   3.282   0.497   3.397
 1930SOL     OW 6688   3.384   3.447   0.077
 1930SOL    HW1 6689   3.290   3.419   0.099
 1930SOL    HW2 6690   3.384   3.542   0.048
 1931SOL     OW 6691   5.544   3.716   3.870
 1931SOL    HW1 6692   5.561   3.796   3.927
 1931SOL    HW2 6693   5.630   3.685   3.829
 1932SOL     OW 6694   4.700   1.001   1.800
 1932SOL    HW1 6695   4.613   1.045   1.824
 1932SOL    HW2 6696   4.774   1.067   1.811
 1933SOL     OW 6697   1.491   1.261   1.053
 1933SOL    HW1 6698   1.526   1.331   0.991
 1933SOL    HW2 6699   1.513   1.170   1.017
 1934SOL     OW 6700   6.504   0.718   6.851
 1934SOL    HW1 6701   6.418   0.685   6.888
 1934SOL    HW2 6702   6.521   0.674   6.762
 1935SOL     OW 6703   6.147   5.253   3.837
 1935SOL    HW1 6704   6.135   5.306   3.920
 1935SOL    HW2 6705   6.221   5.292   3.782
 1936SOL     OW 6706   5.636   2.882   6.777
 1936SOL    HW1 6707   5.598   2.796   6.812
 1936SOL    HW2 6708   5.597   2.901   6.687
 1937SOL     OW 6709   1.042   5.117   6.707
 1937SOL    HW1 6710   1.052   5.209   6.670
 1937SOL    HW2 6711   0.946   5.098   6.726
 1938SOL     OW 6712   6.517   1.430   6.597
 1938SOL    HW1 6713   6.492   1.409   6.503
 1938SOL    HW2 6714   6.434   1.445   6.651
 1939SOL     OW 6715   0.477   0.766   3.876
 1939SOL    HW1 6716   0.511   0.742   3.967
 1939SOL    HW2 6717   0.547   0.748   3.808
 1940SOL     OW 6718   1.037   5.322   1.729
 1940SOL    HW1 6719   0.963   5.278   1.780
 1940SOL    HW2 6720   1.119   5.326   1.787
 1941SOL     OW 6721   6.182   0.445   4.153
 1941SOL    HW1 6722   6.262   0.489   4.195
 1941SOL    HW2 6723   6.199   0.432   4.055
 1942SOL     OW 6724   0.748   6.132   1.732
 1942SOL    HW1 6725   0.814   6.069   1.773
 1942SOL    HW2 6726   0.689   6.169   1.803
 1943SOL     OW 6727   0.587   4.058   4.123
 1943SOL    HW1 6728   0.674   4.106   4.115
 1943SOL    HW2 6729   0.604   3.961   4.140
 1944SOL     OW 6730   6.902   3.619   3.760
 1944SOL    HW1 6731   6.844   3.690   3.800
 1944SOL    HW2 6732   6.985   3.661   3.723
 1945SOL     OW 6733   4.565   1.836   2.386
 1945SOL    HW1 6734   4.555   1.804   2.292
 1945SOL    HW2 6735   4.593   1.933   2.386
 1946SOL     OW 6736   5.801   4.678   0.054
 1946SOL    HW1 6737   5.721   4.620   0.038
 1946SOL    HW2 6738   5.860   4.674   6.991
 1947SOL     OW 6739   5.578   6.280   2.805
 1947SOL    HW1 6740   5.590   6.182   2.822
 1947SOL    HW2 6741   5.563   6.295   2.707
 1948SOL     OW 6742   5.295   3.082   3.100
 1948SOL    HW1 6743   5.372   3.107   3.159
 1948SOL    HW2 6744   5.227   3.155   3.100
 1949SOL     OW 6745   3.223   3.885   6.513
 1949SOL    HW1 6746   3.252   3.867   6.607
 1949SOL    HW2 6747   3.302   3.909   6.458
 1950SOL     OW 6748   3.697   3.922   3.765
 1950SOL    HW1 6749   3.789   3.956   3.784
 1950SOL    HW2 6750   3.649   3.905   3.851
 1951SOL     OW 6751   0.624   5.358   6.275
 1951SOL    HW1 6752   0.613   5.344   6.177
 1951SOL    HW2 6753   0.721   5.360   6.298
 1952SOL     OW 6754   5.481   4.118   0.184
 1952SOL    HW1 6755   5.545   4.168   0.126
 1952SOL    HW2 6756   5.479   4.022   0.156
 1953SOL     OW 6757   0.596   0.995   6.593
 1953SOL    HW1 6758   0.542   1.061   6.644
 1953SOL    HW2 6759   0.685   1.036   6.570
 1954SOL     OW 6760   3.834   6.603   2.755
 1954SOL    HW1 6761   3.786   6.639   2.835
 1954SOL    HW2 6762   3.770   6.594   2.679
 1955SOL     OW 6763   6.651   3.381   4.174
 1955SOL    HW1 6764   6.674   3.285   4.187
 1955SOL    HW2 6765   6.696   3.436   4.244
 1956SOL     OW 6766   4.752   1.312   1.432
 1956SOL    HW1 6767   4.734   1.223   1.473
 1956SOL    HW2 6768   4.842   1.311   1.388
 1957SOL     OW 6769   6.915   3.048   4.892
 1957SOL    HW1 6770   6.974   3.049   4.812
 1957SOL    HW2 6771   6.858   3.130   4.893
 1958SOL     OW 6772   5.457   2.111   0.464
 1958SOL    HW1 6773   5.409   2.198   0.449
 1958SOL    HW2 6774   5.511   2.089   0.383
 1959SOL     OW 6775   1.874   1.724   6.206
 1959SOL    HW1 6776   1.779   1.728   6.239
 1959SOL    HW2 6777   1.878   1.666   6.124
 1960SOL     OW 6778   4.609   4.532   1.920
 1960SOL    HW1 6779   4.605   4.433   1.936
 1960SOL    HW2 6780   4.681   4.572   1.977
 1961SOL     OW 6781   6.490   3.698   4.487
 1961SOL    HW1 6782   6.452   3.605   4.480
 1961SOL    HW2 6783   6.505   3.735   4.396
 1962SOL     OW 6784   0.513   6.650   2.434
 1962SOL    HW1 6785   0.538   6.725   2.373
 1962SOL    HW2 6786   0.545   6.671   2.527
 1963SOL     OW 6787   0.555   1.411   6.832
 1963SOL    HW1 6788   0.537   1.374   6.923
 1963SOL    HW2 6789   0.495   1.490   6.816
 1964SOL     OW 6790   5.590   3.263   0.546
 1964SOL    HW1 6791   5.512   3.314   0.511
 1964SOL    HW2 6792   5.638   3.318   0.615
 1965SOL     OW 6793   5.057   5.008   4.629
 1965SOL    HW1 6794   5.058   5.107   4.623
 1965SOL    HW2 6795   5.092   4.969   4.544
 1966SOL     OW 6796   1.757   5.001   6.526
 1966SOL    HW1 6797   1.712   5.037   6.444
 1966SOL    HW2 6798   1.690   4.997   6.600
 1967SOL     OW 6799   6.584   2.629   4.358
 1967SOL    HW1 6800   6.670   2.590   4.391
 1967SOL    HW2 6801   6.595   2.654   4.262
 1968SOL     OW 6802   2.595   1.616   5.744
 1968SOL    HW1 6803   2.574   1.577   5.834
 1968SOL    HW2 6804   2.518   1.600   5.682
 1969SOL     OW 6805   0.421   6.642   1.865
 1969SOL    HW1 6806   0.378   6.575   1.806
 1969SOL    HW2 6807   0.398   6.623   1.960
 1970SOL     OW 6808   5.004   4.234   2.688
 1970SOL    HW1 6809   5.027   4.307   2.623
 1970SOL    HW2 6810   5.086   4.180   2.707
 1971SOL     OW 6811   1.458   5.579   4.176
 1971SOL    HW1 6812   1.476   5.677   4.174
 1971SOL    HW2 6813   1.393   5.559   4.249
 1972SOL     OW 6814   5.683   2.058   3.326
 1972SOL    HW1 6815   5.754   2.003   3.371
 1972SOL    HW2 6816   5.603   2.065   3.385
 1973SOL     OW 6817   4.317   2.509   6.860
 1973SOL    HW1 6818   4.260   2.490   6.779
 1973SOL    HW2 6819   4.303   2.437   6.928
 1974SOL     OW 6820   2.152   6.320   4.397
 1974SOL    HW1 6821   2.222   6.388   4.417
 1974SOL    HW2 6822   2.181   6.264   4.320
 1975SOL     OW 6823   2.173   2.339   2.820
 1975SOL    HW1 6824   2.205   2.394   2.897
 1975SOL    HW2 6825   2.241   2.268   2.799
 1976SOL     OW 6826   2.599   0.354   4.604
 1976SOL    HW1 6827   2.576   0.449   4.585
 1976SOL    HW2 6828   2.576   0.333   4.699
 1977SOL     OW 6829   1.133   4.567   0.212
 1977SOL    HW1 6830   1.159   4.642   0.151
 1977SOL    HW2 6831   1.036   4.575   0.234
 1978SOL     OW 6832   2.246   0.505   2.411
 1978SOL    HW1 6833   2.190   0.586   2.391
 1978SOL    HW2 6834   2.286   0.515   2.502
 1979SOL     OW 6835   5.467   3.468   6.920
 1979SOL    HW1 6836   5.413   3.427   6.993
 1979SOL    HW2 6837   5.479   3.402   6.846
 1980SOL     OW 6838   4.148   0.086   1.736
 1980SOL    HW1 6839   4.147   0.097   1.836
 1980SOL    HW2 6840   4.055   0.094   1.701
 1981SOL     OW 6841   4.463   2.702   1.758
 1981SOL    HW1 6842   4.376   2.749   1.770
 1981SOL    HW2 6843   4.527   2.761   1.709
 1982SOL     OW 6844   2.261   2.237   6.343
 1982SOL    HW1 6845   2.282   2.144   6.311
 1982SOL    HW2 6846   2.322   2.302   6.297
 1983SOL     OW 6847   6.819   2.511   1.258
 1983SOL    HW1 6848   6.751   2.548   1.321
 1983SOL    HW2 6849   6.911   2.527   1.296
 1984SOL     OW 6850   4.863   3.221   6.166
 1984SOL    HW1 6851   4.811   3.136   6.170
 1984SOL    HW2 6852   4.812   3.294   6.211
 1985SOL     OW 6853   5.201   5.514   5.034
 1985SOL    HW1 6854   5.146   5.563   4.967
 1985SOL    HW2 6855   5.269   5.576   5.073
 1986SOL     OW 6856   3.226   3.346   3.270
 1986SOL    HW1 6857   3.205   3.363   3.366
 1986SOL    HW2 6858   3.275   3.259   3.261
 1987SOL     OW 6859   1.958   2.031   1.726
 1987SOL    HW1 6860   1.973   1.938   1.695
 1987SOL    HW2 6861   1.991   2.096   1.657
 1988SOL     OW 6862   1.120   2.013   2.711
 1988SOL    HW1 6863   1.160   2.067   2.637
 1988SOL    HW2 6864   1.041   2.061   2.750
 1989SOL     OW 6865   3.468   5.315   3.502
 1989SOL    HW1 6866   3.478   5.277   3.594
 1989SOL    HW2 6867   3.385   5.277   3.460
 1990SOL     OW 6868   4.546   6.686   0.799
 1990SOL    HW1 6869   4.506   6.627   0.869
 1990SOL    HW2 6870   4.646   6.672   0.796
 1991SOL     OW 6871   3.230   5.189   2.584
 1991SOL    HW1 6872   3.201   5.101   2.547
 1991SOL    HW2 6873   3.289   5.236   2.517
 1992SOL     OW 6874   0.797   0.025   3.014
 1992SOL    HW1 6875   0.843   0.073   3.088
 1992SOL    HW2 6876   0.855   0.025   2.933
 1993SOL     OW 6877   1.311   1.094   1.615
 1993SOL    HW1 6878   1.240   1.113   1.548
 1993SOL    HW2 6879   1.371   1.174   1.625
 1994SOL     OW 6880   2.891   3.380   1.515
 1994SOL    HW1 6881   2.872   3.293   1.559
 1994SOL    HW2 6882   2.806   3.419   1.480
 1995SOL     OW 6883   6.123   0.864   4.079
 1995SOL    HW1 6884   6.072   0.778   4.075
 1995SOL    HW2 6885   6.219   0.845   4.100
 1996SOL     OW 6886   4.795   0.307   1.243
 1996SOL    HW1 6887   4.711   0.322   1.190
 1996SOL    HW2 6888   4.800   0.374   1.317
 1997SOL     OW 6889   2.502   1.961   3.075
 1997SOL    HW1 6890   2.520   1.957   3.173
 1997SOL    HW2 6891   2.538   2.047   3.038
 1998SOL     OW 6892   2.219   3.627   1.297
 1998SOL    HW1 6893   2.273   3.688   1.356
 1998SOL    HW2 6894   2.247   3.532   1.314
 1999SOL     OW 6895   0.726   0.367   5.817
 1999SOL    HW1 6896   0.777   0.283   5.835
 1999SOL    HW2 6897   0.710   0.376   5.719
 2000SOL     OW 6898   4.675   3.851   6.600
 2000SOL    HW1 6899   4.640   3.839   6.507
 2000SOL    HW2 6900   4.774   3.863   6.597
 2001SOL     OW 6901   1.432   1.906   0.234
 2001SOL    HW1 6902   1.528   1.929   0.248
 2001SOL    HW2 6903   1.399   1.949   0.150
 2002SOL     OW 6904   5.713   4.773   6.328
 2002SOL    HW1 6905   5.768   4.807   6.252
 2002SOL    HW2 6906   5.743   4.681   6.353
 2003SOL     OW 6907   6.790   5.615   1.242
 2003SOL    HW1 6908   6.864   5.657   1.295
 2003SOL    HW2 6909   6.711   5.677   1.240
 2004SOL     OW 6910   3.426   1.013   2.749
 2004SOL    HW1 6911   3.377   0.951   2.809
 2004SOL    HW2 6912   3.489   1.070   2.803
 2005SOL     OW 6913   1.896   6.439   0.109
 2005SOL    HW1 6914   1.807   6.467   0.145
 2005SOL    HW2 6915   1.968   6.464   0.174
 2006SOL     OW 6916   5.919   0.360   2.298
 2006SOL    HW1 6917   5.899   0.448   2.340
 2006SOL    HW2 6918   6.011   0.330   2.324
 2007SOL     OW 6919   5.531   4.925   5.688
 2007SOL    HW1 6920   5.490   4.999   5.741
 2007SOL    HW2 6921   5.496   4.837   5.722
 2008SOL     OW 6922   2.157   3.029   2.653
 2008SOL    HW1 6923   2.162   3.073   2.563
 2008SOL    HW2 6924   2.107   2.943   2.645
 2009SOL     OW 6925   6.110   0.129   3.747
 2009SOL    HW1 6926   6.073   0.037   3.763
 2009SOL    HW2 6927   6.202   0.121   3.708
 2010SOL     OW 6928   6.677   1.191   1.623
 2010SOL    HW1 6929   6.589   1.152   1.650
 2010SOL    HW2 6930   6.744   1.175   1.695
 2011SOL     OW 6931   0.674   0.653   5.598
 2011SOL    HW1 6932   0.577   0.678   5.597
 2011SOL    HW2 6933   0.684   0.557   5.568
 2012SOL     OW 6934   0.161   2.079   0.493
 2012SOL    HW1 6935   0.113   1.993   0.509
 2012SOL    HW2 6936   0.260   2.061   0.487
 2013SOL     OW 6937   0.406   2.321   2.269
 2013SOL    HW1 6938   0.344   2.304   2.346
 2013SOL    HW2 6939   0.372   2.273   2.188
 2014SOL     OW 6940   4.144   2.263   3.592
 2014SOL    HW1 6941   4.221   2.314   3.552
 2014SOL    HW2 6942   4.081   2.236   3.519
 2015SOL     OW 6943   3.470   6.472   1.508
 2015SOL    HW1 6944   3.465   6.387   1.559
 2015SOL    HW2 6945   3.415   6.465   1.425
 2016SOL     OW 6946   2.252   0.511   4.599
 2016SOL    HW1 6947   2.182   0.547   4.536
 2016SOL    HW2 6948   2.264   0.413   4.583
 2017SOL     OW 6949   1.501   6.887   4.662
 2017SOL    HW1 6950   1.546   6.808   4.705
 2017SOL    HW2 6951   1.543   6.904   4.573
 2018SOL     OW 6952   0.645   1.050   4.649
 2018SOL    HW1 6953   0.606   0.991   4.578
 2018SOL    HW2 6954   0.619   1.015   4.739
 2019SOL     OW 6955   0.771   5.086   6.773
 2019SOL    HW1 6956   0.703   5.123   6.710
 2019SOL    HW2 6957   0.742   4.996   6.804
 2020SOL     OW 6958   1.990   0.105   1.537
 2020SOL    HW1 6959   2.065   0.056   1.492
 2020SOL    HW2 6960   1.978   0.194   1.494
 2021SOL     OW 6961   0.349   5.269   3.695
 2021SOL    HW1 6962   0.337   5.325   3.613
 2021SOL    HW2 6963   0.443   5.234   3.699
 2022SOL     OW 6964   1.930   3.132   4.496
 2022SOL    HW1 6965   1.964   3.208   4.441
 2022SOL    HW2 6966   1.944   3.151   4.593
 2023SOL     OW 6967   0.668   5.841   6.580
 2023SOL    HW1 6968   0.670   5.766   6.514
 2023SOL    HW2 6969   0.640   5.926   6.535
 2024SOL     OW 6970   6.647   5.760   3.542
 2024SOL    HW1 6971   6.555   5.797   3.556
 2024SOL    HW2 6972   6.713   5.835   3.538
 2025SOL     OW 6973   1.897   0.584   4.567
 2025SOL    HW1 6974   1.969   0.586   4.498
 2025SOL    HW2 6975   1.923   0.642   4.644
 2026SOL     OW 6976   1.585   6.728   5.736
 2026SOL    HW1 6977   1.620   6.694   5.649
 2026SOL    HW2 6978   1.614   6.667   5.810
 2027SOL     OW 6979   6.609   6.604   3.137
 2027SOL    HW1 6980   6.665   6.559   3.207
 2027SOL    HW2 6981   6.536   6.542   3.108
 2028SOL     OW 6982   1.776   6.036   4.824
 2028SOL    HW1 6983   1.864   6.070   4.790
 2028SOL    HW2 6984   1.791   5.956   4.881
 2029SOL     OW 6985   6.919   2.319   0.205
 2029SOL    HW1 6986   6.938   2.376   0.126
 2029SOL    HW2 6987   6.931   2.223   0.181
 2030SOL     OW 6988   1.670   6.039   2.554
 2030SOL    HW1 6989   1.593   6.029   2.617
 2030SOL    HW2 6990   1.641   6.090   2.473
 2031SOL     OW 6991   6.801   0.281   4.451
 2031SOL    HW1 6992   6.716   0.234   4.428
 2031SOL    HW2 6993   6.812   0.361   4.391
 2032SOL     OW 6994   2.749   3.021   6.344
 2032SOL    HW1 6995   2.660   3.044   6.383
 2032SOL    HW2 6996   2.765   3.076   6.262
 2033SOL     OW 6997   2.784   7.002   1.597
 2033SOL    HW1 6998   2.736   0.031   1.671
 2033SOL    HW2 6999   2.854   6.942   1.636
 2034SOL     OW 7000   0.788   3.595   4.743
 2034SOL    HW1 7001   0.849   3.658   4.791
 2034SOL    HW2 7002   0.749   3.530   4.808
 2035SOL     OW 7003   4.575   6.208   3.411
 2035SOL    HW1 7004   4.603   6.224   3.316
 2035SOL    HW2 7005   4.657   6.201   3.468
 2036SOL     OW 7006   6.916   3.277   5.800
 2036SOL    HW1 7007   6.907   3.355   5.862
 2036SOL    HW2 7008   6.989   3.294   5.734
 2037SOL     OW 7009   0.825   2.420   6.390
 2037SOL    HW1 7010   0.806   2.485   6.317
 2037SOL    HW2 7011   0.833   2.469   6.477
 2038SOL     OW 7012   1.858   1.023   6.091
 2038SOL    HW1 7013   1.922   0.967   6.037
 2038SOL    HW2 7014   1.791   1.064   6.029
 2039SOL     OW 7015   5.417   5.899   4.641
 2039SOL    HW1 7016   5.346   5.929   4.704
 2039SOL    HW2 7017   5.387   5.913   4.547
 2040SOL     OW 7018   2.773   1.419   0.696
 2040SOL    HW1 7019   2.861   1.459   0.671
 2040SOL    HW2 7020   2.779   1.381   0.789
 2041SOL     OW 7021   2.949   0.289   6.829
 2041SOL    HW1 7022   3.043   0.309   6.856
 2041SOL    HW2 7023   2.934   0.190   6.829
 2042SOL     OW 7024   0.208   0.133   5.073
 2042SOL    HW1 7025   0.191   0.127   5.171
 2042SOL    HW2 7026   0.200   0.228   5.043
 2043SOL     OW 7027   1.355   3.608   0.238
 2043SOL    HW1 7028   1.380   3.515   0.210
 2043SOL    HW2 7029   1.280   3.604   0.303
 2044SOL     OW 7030   2.991   1.130   2.622
 2044SOL    HW1 7031   3.079   1.142   2.576
 2044SOL    HW2 7032   2.965   1.215   2.667
 2045SOL     OW 7033   2.055   5.688   3.419
 2045SOL    HW1 7034   2.075   5.748   3.496
 2045SOL    HW2 7035   2.118   5.707   3.344
 2046SOL     OW 7036   0.514   2.390   5.724
 2046SOL    HW1 7037   0.445   2.460   5.742
 2046SOL    HW2 7038   0.517   2.371   5.626
 2047SOL     OW 7039   0.021   0.474   1.864
 2047SOL    HW1 7040   6.940   0.469   1.879
 2047SOL    HW2 7041   0.059   0.381   1.861
 2048SOL     OW 7042   2.167   1.416   3.609
 2048SOL    HW1 7043   2.146   1.407   3.511
 2048SOL    HW2 7044   2.084   1.444   3.658
 2049SOL     OW 7045   4.299   1.947   5.147
 2049SOL    HW1 7046   4.205   1.933   5.118
 2049SOL    HW2 7047   4.311   1.912   5.241
 2050SOL     OW 7048   0.100   0.719   2.514
 2050SOL    HW1 7049   0.045   0.779   2.457
 2050SOL    HW2 7050   0.052   0.632   2.529
 2051SOL     OW 7051   3.515   6.566   6.184
 2051SOL    HW1 7052   3.470   6.597   6.268
 2051SOL    HW2 7053   3.475   6.613   6.105
 2052SOL     OW 7054   0.754   4.625   0.521
 2052SOL    HW1 7055   0.715   4.707   0.563
 2052SOL    HW2 7056   0.783   4.562   0.593
 2053SOL     OW 7057   4.434   5.223   1.598
 2053SOL    HW1 7058   4.494   5.216   1.678
 2053SOL    HW2 7059   4.487   5.209   1.515
 2054SOL     OW 7060   2.970   3.859   3.802
 2054SOL    HW1 7061   2.871   3.866   3.784
 2054SOL    HW2 7062   2.984   3.848   3.900
 2055SOL     OW 7063   3.077   2.935   5.577
 2055SOL    HW1 7064   3.133   3.010   5.613
 2055SOL    HW2 7065   3.086   2.855   5.637
 2056SOL     OW 7066   2.464   5.272   2.067
 2056SOL    HW1 7067   2.560   5.244   2.061
 2056SOL    HW2 7068   2.432   5.259   2.161
 2057SOL     OW 7069   6.144   2.958   4.432
 2057SOL    HW1 7070   6.184   2.984   4.345
 2057SOL    HW2 7071   6.044   2.961   4.425
 2058SOL     OW 7072   5.789   0.535   3.711
 2058SOL    HW1 7073   5.839   0.449   3.705
 2058SOL    HW2 7074   5.714   0.535   3.644
 2059SOL     OW 7075   2.717   1.175   5.936
 2059SOL    HW1 7076   2.713   1.121   6.020
 2059SOL    HW2 7077   2.625   1.186   5.898
 2060SOL     OW 7078   1.507   2.407   6.352
 2060SOL    HW1 7079   1.478   2.452   6.268
 2060SOL    HW2 7080   1.489   2.467   6.430
 2061SOL     OW 7081   2.308   2.812   3.982
 2061SOL    HW1 7082   2.338   2.883   4.046
 2061SOL    HW2 7083   2.209   2.798   3.993
 2062SOL     OW 7084   4.743   5.315   3.998
 2062SOL    HW1 7085   4.691   5.230   4.008
 2062SOL    HW2 7086   4.827   5.297   3.946
 2063SOL     OW 7087   1.486   1.473   4.236
 2063SOL    HW1 7088   1.552   1.548   4.242
 2063SOL    HW2 7089   1.393   1.510   4.227
 2064SOL     OW 7090   0.518   3.827   4.341
 2064SOL    HW1 7091   0.510   3.927   4.345
 2064SOL    HW2 7092   0.543   3.792   4.432
 2065SOL     OW 7093   3.485   3.783   5.861
 2065SOL    HW1 7094   3.434   3.754   5.780
 2065SOL    HW2 7095   3.492   3.882   5.862
 2066SOL     OW 7096   2.082   2.302   4.383
 2066SOL    HW1 7097   2.110   2.397   4.395
 2066SOL    HW2 7098   2.145   2.242   4.433
 2067SOL     OW 7099   6.166   4.256   2.814
 2067SOL    HW1 7100   6.112   4.276   2.732
 2067SOL    HW2 7101   6.235   4.188   2.793
 2068SOL     OW 7102   2.970   6.552   4.446
 2068SOL    HW1 7103   2.966   6.460   4.407
 2068SOL    HW2 7104   2.925   6.616   4.385
 2069SOL     OW 7105   5.539   1.527   2.701
 2069SOL    HW1 7106   5.448   1.530   2.743
 2069SOL    HW2 7107   5.585   1.615   2.716
 2070SOL     OW 7108   0.312   5.998   1.829
 2070SOL    HW1 7109   0.390   6.019   1.770
 2070SOL    HW2 7110   0.259   5.923   1.789
 2071SOL     OW 7111   6.835   2.603   4.173
 2071SOL    HW1 7112   6.819   2.618   4.075
 2071SOL    HW2 7113   6.883   2.683   4.211
 2072SOL     OW 7114   5.173   2.969   6.094
 2072SOL    HW1 7115   5.260   2.960   6.046
 2072SOL    HW2 7116   5.172   2.908   6.173
 2073SOL     OW 7117   3.295   5.847   6.902
 2073SOL    HW1 7118   3.254   5.807   6.820
 2073SOL    HW2 7119   3.376   5.794   6.929
 2074SOL     OW 7120   3.496   4.450   5.283
 2074SOL    HW1 7121   3.591   4.441   5.313
 2074SOL    HW2 7122   3.473   4.547   5.276
 2075SOL     OW 7123   5.276   0.837   1.066
 2075SOL    HW1 7124   5.259   0.762   1.129
 2075SOL    HW2 7125   5.250   0.809   0.973
 2076SOL     OW 7126   6.766   0.134   3.736
 2076SOL    HW1 7127   6.734   0.041   3.718
 2076SOL    HW2 7128   6.747   0.192   3.657
 2077SOL     OW 7129   0.899   4.301   0.897
 2077SOL    HW1 7130   0.949   4.346   0.971
 2077SOL    HW2 7131   0.961   4.241   0.847
 2078SOL     OW 7132   0.796   2.550   0.296
 2078SOL    HW1 7133   0.877   2.495   0.315
 2078SOL    HW2 7134   0.721   2.490   0.269
 2079SOL     OW 7135   5.316   2.144   3.709
 2079SOL    HW1 7136   5.290   2.202   3.632
 2079SOL    HW2 7137   5.345   2.054   3.675
 2080SOL     OW 7138   2.073   2.838   4.860
 2080SOL    HW1 7139   2.088   2.928   4.901
 2080SOL    HW2 7140   2.092   2.842   4.762
 2081SOL     OW 7141   0.500   5.620   2.843
 2081SOL    HW1 7142   0.564   5.548   2.870
 2081SOL    HW2 7143   0.479   5.677   2.923
 2082SOL     OW 7144   6.919   6.073   4.230
 2082SOL    HW1 7145   6.887   6.023   4.150
 2082SOL    HW2 7146   7.015   6.100   4.218
 2083SOL     OW 7147   1.087   5.830   3.179
 2083SOL    HW1 7148   1.177   5.861   3.146
 2083SOL    HW2 7149   1.067   5.873   3.267
 2084SOL     OW 7150   5.636   2.785   1.319
 2084SOL    HW1 7151   5.548   2.778   1.367
 2084SOL    HW2 7152   5.621   2.774   1.221
 2085SOL     OW 7153   6.041   5.080   6.471
 2085SOL    HW1 7154   6.138   5.089   6.492
 2085SOL    HW2 7155   6.028   5.007   6.404
 2086SOL     OW 7156   5.391   1.570   5.414
 2086SOL    HW1 7157   5.452   1.524   5.349
 2086SOL    HW2 7158   5.414   1.667   5.418
 2087SOL     OW 7159   4.769   0.958   6.395
 2087SOL    HW1 7160   4.796   0.970   6.300
 2087SOL    HW2 7161   4.731   0.866   6.407
 2088SOL     OW 7162   0.431   3.381   5.532
 2088SOL    HW1 7163   0.342   3.369   5.488
 2088SOL    HW2 7164   0.434   3.328   5.617
 2089SOL     OW 7165   3.140   4.961   4.659
 2089SOL    HW1 7166   3.199   4.940   4.581
 2089SOL    HW2 7167   3.070   4.890   4.668
 2090SOL     OW 7168   5.420   2.620   6.124
 2090SOL    HW1 7169   5.421   2.646   6.221
 2090SOL    HW2 7170   5.388   2.526   6.115
 2091SOL     OW 7171   5.277   0.054   1.119
 2091SOL    HW1 7172   5.366   0.029   1.082
 2091SOL    HW2 7173   5.284   0.140   1.169
 2092SOL     OW 7174   3.965   3.236   2.638
 2092SOL    HW1 7175   3.875   3.276   2.621
 2092SOL    HW2 7176   4.017   3.235   2.553
 2093SOL     OW 7177   4.598   7.013   6.877
 2093SOL    HW1 7178   4.694   0.015   6.860
 2093SOL    HW2 7179   4.550   0.080   6.899
 2094SOL     OW 7180   4.555   3.228   1.503
 2094SOL    HW1 7181   4.527   3.311   1.552
 2094SOL    HW2 7182   4.475   3.184   1.462
 2095SOL     OW 7183   4.502   5.724   4.041
 2095SOL    HW1 7184   4.565   5.801   4.045
 2095SOL    HW2 7185   4.408   5.757   4.040
 2096SOL     OW 7186   4.098   0.444   2.838
 2096SOL    HW1 7187   4.188   0.403   2.854
 2096SOL    HW2 7188   4.104   0.543   2.851
 2097SOL     OW 7189   2.708   5.452   5.118
 2097SOL    HW1 7190   2.774   5.382   5.144
 2097SOL    HW2 7191   2.665   5.490   5.199
 2098SOL     OW 7192   1.651   6.768   4.067
 2098SOL    HW1 7193   1.608   6.762   3.977
 2098SOL    HW2 7194   1.674   6.864   4.086
 2099SOL     OW 7195   4.519   1.720   6.971
 2099SOL    HW1 7196   4.479   1.774   6.897
 2099SOL    HW2 7197   4.465   1.637   6.984
 2100SOL     OW 7198   4.628   0.212   0.688
 2100SOL    HW1 7199   4.598   0.302   0.720
 2100SOL    HW2 7200   4.568   0.182   0.614
 2101SOL     OW 7201   1.127   0.208   2.808
 2101SOL    HW1 7202   1.153   0.207   2.904
 2101SOL    HW2 7203   1.180   0.139   2.758
 2102SOL     OW 7204   4.108   3.290   2.850
 2102SOL    HW1 7205   4.051   3.258   2.774
 2102SOL    HW2 7206   4.162   3.214   2.886
 2103SOL     OW 7207   1.601   0.119   1.592
 2103SOL    HW1 7208   1.658   0.144   1.670
 2103SOL    HW2 7209   1.615   0.184   1.518
 2104SOL     OW 7210   0.798   4.534   2.129
 2104SOL    HW1 7211   0.836   4.626   2.130
 2104SOL    HW2 7212   0.858   4.474   2.075
 2105SOL     OW 7213   5.119   6.112   5.422
 2105SOL    HW1 7214   5.219   6.103   5.420
 2105SOL    HW2 7215   5.078   6.027   5.391
 2106SOL     OW 7216   3.479   3.525   0.436
 2106SOL    HW1 7217   3.515   3.588   0.367
 2106SOL    HW2 7218   3.501   3.431   0.410
 2107SOL     OW 7219   5.997   4.700   4.594
 2107SOL    HW1 7220   5.969   4.604   4.584
 2107SOL    HW2 7221   5.945   4.741   4.670
 2108SOL     OW 7222   4.381   6.291   5.675
 2108SOL    HW1 7223   4.301   6.309   5.618
 2108SOL    HW2 7224   4.369   6.204   5.722
 2109SOL     OW 7225   2.622   5.991   2.106
 2109SOL    HW1 7226   2.718   6.008   2.084
 2109SOL    HW2 7227   2.613   5.900   2.148
 2110SOL     OW 7228   3.798   5.891   0.617
 2110SOL    HW1 7229   3.854   5.879   0.535
 2110SOL    HW2 7230   3.789   5.989   0.638
 2111SOL     OW 7231   0.444   2.816   0.364
 2111SOL    HW1 7232   0.425   2.752   0.438
 2111SOL    HW2 7233   0.495   2.769   0.291
 2112SOL     OW 7234   0.869   0.606   6.474
 2112SOL    HW1 7235   0.789   0.662   6.455
 2112SOL    HW2 7236   0.841   0.510   6.484
 2113SOL     OW 7237   6.536   1.788   4.377
 2113SOL    HW1 7238   6.612   1.843   4.342
 2113SOL    HW2 7239   6.553   1.691   4.359
 2114SOL     OW 7240   3.082   0.485   5.813
 2114SOL    HW1 7241   3.073   0.390   5.782
 2114SOL    HW2 7242   3.063   0.490   5.911
 2115SOL     OW 7243   0.285   6.810   4.245
 2115SOL    HW1 7244   0.256   6.905   4.250
 2115SOL    HW2 7245   0.335   6.786   4.329
 2116SOL     OW 7246   2.437   6.747   6.591
 2116SOL    HW1 7247   2.420   6.749   6.690
 2116SOL    HW2 7248   2.487   6.829   6.564
 2117SOL     OW 7249   5.820   2.742   0.859
 2117SOL    HW1 7250   5.775   2.701   0.938
 2117SOL    HW2 7251   5.918   2.747   0.875
 2118SOL     OW 7252   7.007   2.984   2.336
 2118SOL    HW1 7253   7.008   2.930   2.252
 2118SOL    HW2 7254   0.074   2.970   2.386
 2119SOL     OW 7255   1.842   2.815   6.962
 2119SOL    HW1 7256   1.787   2.897   6.973
 2119SOL    HW2 7257   1.871   2.781   0.033
 2120SOL     OW 7258   6.185   1.405   0.768
 2120SOL    HW1 7259   6.184   1.332   0.836
 2120SOL    HW2 7260   6.213   1.491   0.811
 2121SOL     OW 7261   2.955   5.641   1.873
 2121SOL    HW1 7262   2.880   5.617   1.935
 2121SOL    HW2 7263   2.999   5.725   1.905
 2122SOL     OW 7264   0.520   1.275   5.513
 2122SOL    HW1 7265   0.556   1.368   5.513
 2122SOL    HW2 7266   0.544   1.230   5.427
 2123SOL     OW 7267   0.553   4.468   3.212
 2123SOL    HW1 7268   0.487   4.495   3.283
 2123SOL    HW2 7269   0.570   4.370   3.219
 2124SOL     OW 7270   5.551   3.264   6.463
 2124SOL    HW1 7271   5.462   3.297   6.433
 2124SOL    HW2 7272   5.602   3.227   6.386
 2125SOL     OW 7273   2.158   5.303   6.029
 2125SOL    HW1 7274   2.208   5.356   5.960
 2125SOL    HW2 7275   2.192   5.209   6.030
 2126SOL     OW 7276   2.751   5.529   2.044
 2126SOL    HW1 7277   2.737   5.435   2.075
 2126SOL    HW2 7278   2.727   5.592   2.118
 2127SOL     OW 7279   1.777   3.828   4.055
 2127SOL    HW1 7280   1.797   3.828   3.957
 2127SOL    HW2 7281   1.857   3.861   4.105
 2128SOL     OW 7282   5.434   3.052   0.668
 2128SOL    HW1 7283   5.487   3.098   0.597
 2128SOL    HW2 7284   5.337   3.050   0.641
 2129SOL     OW 7285   5.257   4.536   3.979
 2129SOL    HW1 7286   5.340   4.483   3.996
 2129SOL    HW2 7287   5.278   4.633   3.988
 2130SOL     OW 7288   2.033   6.831   3.092
 2130SOL    HW1 7289   2.097   6.768   3.046
 2130SOL    HW2 7290   2.008   6.904   3.028
 2131SOL     OW 7291   5.558   0.095   6.518
 2131SOL    HW1 7292   5.586   0.185   6.485
 2131SOL    HW2 7293   5.519   0.043   6.443
 2132SOL     OW 7294   3.022   1.508   0.599
 2132SOL    HW1 7295   3.086   1.574   0.639
 2132SOL    HW2 7296   3.071   1.448   0.537
 2133SOL     OW 7297   3.799   3.496   1.995
 2133SOL    HW1 7298   3.813   3.473   1.899
 2133SOL    HW2 7299   3.840   3.426   2.053
 2134SOL     OW 7300   2.442   0.061   4.703
 2134SOL    HW1 7301   2.426   0.133   4.636
 2134SOL    HW2 7302   2.538   0.033   4.700
 2135SOL     OW 7303   0.258   5.643   4.293
 2135SOL    HW1 7304   0.178   5.702   4.279
 2135SOL    HW2 7305   0.320   5.653   4.215
 2136SOL     OW 7306   0.203   4.852   3.439
 2136SOL    HW1 7307   0.191   4.898   3.352
 2136SOL    HW2 7308   0.297   4.821   3.448
 2137SOL     OW 7309   0.226   0.296   4.751
 2137SOL    HW1 7310   0.205   0.198   4.746
 2137SOL    HW2 7311   0.167   0.346   4.688
 2138SOL     OW 7312   1.400   2.115   7.005
 2138SOL    HW1 7313   1.417   2.148   0.079
 2138SOL    HW2 7314   1.485   2.080   6.965
 2139SOL     OW 7315   3.740   6.446   4.332
 2139SOL    HW1 7316   3.704   6.357   4.303
 2139SOL    HW2 7317   3.690   6.476   4.413
 2140SOL     OW 7318   1.261   5.434   3.455
 2140SOL    HW1 7319   1.337   5.486   3.415
 2140SOL    HW2 7320   1.283   5.411   3.550
 2141SOL     OW 7321   6.638   0.368   0.059
 2141SOL    HW1 7322   6.551   0.346   0.015
 2141SOL    HW2 7323   6.698   0.414   7.012
 2142SOL     OW 7324   4.069   1.369   3.489
 2142SOL    HW1 7325   4.075   1.410   3.580
 2142SOL    HW2 7326   4.117   1.428   3.424
 2143SOL     OW 7327   3.226   5.596   0.519
 2143SOL    HW1 7328   3.218   5.500   0.491
 2143SOL    HW2 7329   3.258   5.601   0.613
 2144SOL     OW 7330   1.082   1.200   2.159
 2144SOL    HW1 7331   1.057   1.151   2.242
 2144SOL    HW2 7332   1.074   1.298   2.175
 2145SOL     OW 7333   2.672   5.849   3.181
 2145SOL    HW1 7334   2.592   5.910   3.174
 2145SOL    HW2 7335   2.642   5.754   3.185
 2146SOL     OW 7336   3.393   1.899   1.328
 2146SOL    HW1 7337   3.383   1.973   1.261
 2146SOL    HW2 7338   3.415   1.938   1.417
 2147SOL     OW 7339   6.926   0.429   4.232
 2147SOL    HW1 7340   7.018   0.414   4.269
 2147SOL    HW2 7341   6.916   0.382   4.145
 2148SOL     OW 7342   6.473   4.251   3.323
 2148SOL    HW1 7343   6.549   4.256   3.388
 2148SOL    HW2 7344   6.503   4.285   3.234
 2149SOL     OW 7345   2.136   1.134   2.191
 2149SOL    HW1 7346   2.147   1.231   2.211
 2149SOL    HW2 7347   2.039   1.112   2.182
 2150SOL     OW 7348   5.486   0.893   3.094
 2150SOL    HW1 7349   5.395   0.929   3.070
 2150SOL    HW2 7350   5.543   0.891   3.012
 2151SOL     OW 7351   4.816   4.521   5.510
 2151SOL    HW1 7352   4.796   4.578   5.590
 2151SOL    HW2 7353   4.865   4.576   5.442
 2152SOL     OW 7354   7.011   6.395   2.740
 2152SOL    HW1 7355   6.995   6.438   2.651
 2152SOL    HW2 7356   0.091   6.383   2.754
 2153SOL     OW 7357   4.360   2.076   3.580
 2153SOL    HW1 7358   4.417   1.995   3.600
 2153SOL    HW2 7359   4.314   2.105   3.663
 2154SOL     OW 7360   4.327   0.054   3.822
 2154SOL    HW1 7361   4.238   0.050   3.867
 2154SOL    HW2 7362   4.399   0.036   3.888
 2155SOL     OW 7363   5.772   3.927   0.644
 2155SOL    HW1 7364   5.799   3.852   0.584
 2155SOL    HW2 7365   5.684   3.906   0.687
 2156SOL     OW 7366   5.803   5.859   2.716
 2156SOL    HW1 7367   5.841   5.766   2.725
 2156SOL    HW2 7368   5.849   5.907   2.642
 2157SOL     OW 7369   5.059   1.446   4.302
 2157SOL    HW1 7370   5.008   1.366   4.272
 2157SOL    HW2 7371   5.141   1.456   4.245
 2158SOL     OW 7372   4.436   0.914   3.651
 2158SOL    HW1 7373   4.449   1.013   3.643
 2158SOL    HW2 7374   4.340   0.894   3.668
 2159SOL     OW 7375   2.393   1.788   4.768
 2159SOL    HW1 7376   2.386   1.776   4.867
 2159SOL    HW2 7377   2.444   1.713   4.728
 2160SOL     OW 7378   2.314   3.948   0.357
 2160SOL    HW1 7379   2.221   3.924   0.386
 2160SOL    HW2 7380   2.380   3.889   0.404
 2161SOL     OW 7381   4.495   2.497   2.360
 2161SOL    HW1 7382   4.482   2.480   2.262
 2161SOL    HW2 7383   4.432   2.439   2.412
 2162SOL     OW 7384   2.101   2.089   2.542
 2162SOL    HW1 7385   2.117   2.173   2.490
 2162SOL    HW2 7386   2.181   2.030   2.535
 2163SOL     OW 7387   4.276   1.642   0.764
 2163SOL    HW1 7388   4.352   1.578   0.755
 2163SOL    HW2 7389   4.276   1.682   0.856
 2164SOL     OW 7390   6.322   0.201   1.543
 2164SOL    HW1 7391   6.387   0.276   1.549
 2164SOL    HW2 7392   6.344   0.145   1.463
 2165SOL     OW 7393   2.130   0.022   1.797
 2165SOL    HW1 7394   2.109   6.945   1.817
 2165SOL    HW2 7395   2.096   0.045   1.706
 2166SOL     OW 7396   5.392   2.708   4.725
 2166SOL    HW1 7397   5.353   2.622   4.759
 2166SOL    HW2 7398   5.356   2.784   4.779
 2167SOL     OW 7399   3.627   1.369   1.237
 2167SOL    HW1 7400   3.564   1.324   1.300
 2167SOL    HW2 7401   3.627   1.468   1.254
 2168SOL     OW 7402   5.615   6.791   4.551
 2168SOL    HW1 7403   5.609   6.867   4.486
 2168SOL    HW2 7404   5.692   6.733   4.527
 2169SOL     OW 7405   4.848   2.067   5.613
 2169SOL    HW1 7406   4.787   2.137   5.575
 2169SOL    HW2 7407   4.829   2.056   5.711
 2170SOL     OW 7408   4.752   5.991   4.642
 2170SOL    HW1 7409   4.658   6.017   4.666
 2170SOL    HW2 7410   4.757   5.974   4.543
 2171SOL     OW 7411   0.248   3.002   0.380
 2171SOL    HW1 7412   0.150   2.982   0.374
 2171SOL    HW2 7413   0.300   2.929   0.335
 2172SOL     OW 7414   2.696   0.321   3.280
 2172SOL    HW1 7415   2.791   0.326   3.249
 2172SOL    HW2 7416   2.681   0.235   3.328
 2173SOL     OW 7417   4.405   1.784   4.391
 2173SOL    HW1 7418   4.315   1.741   4.393
 2173SOL    HW2 7419   4.395   1.884   4.395
 2174SOL     OW 7420   0.982   6.156   5.530
 2174SOL    HW1 7421   0.920   6.097   5.478
 2174SOL    HW2 7422   1.074   6.150   5.492
 2175SOL     OW 7423   1.089   0.255   6.982
 2175SOL    HW1 7424   1.168   0.304   7.017
 2175SOL    HW2 7425   1.099   0.241   6.883
 2176SOL     OW 7426   2.274   2.728   2.155
 2176SOL    HW1 7427   2.283   2.801   2.088
 2176SOL    HW2 7428   2.249   2.767   2.244
 2177SOL     OW 7429   0.816   1.676   2.431
 2177SOL    HW1 7430   0.846   1.726   2.350
 2177SOL    HW2 7431   0.806   1.579   2.408
 2178SOL     OW 7432   6.462   5.670   0.357
 2178SOL    HW1 7433   6.475   5.585   0.409
 2178SOL    HW2 7434   6.388   5.657   0.291
 2179SOL     OW 7435   1.997   3.917   4.166
 2179SOL    HW1 7436   2.045   3.999   4.136
 2179SOL    HW2 7437   2.055   3.837   4.151
 2180SOL     OW 7438   3.462   2.844   3.018
 2180SOL    HW1 7439   3.542   2.840   2.959
 2180SOL    HW2 7440   3.426   2.751   3.031
 2181SOL     OW 7441   3.847   6.939   1.122
 2181SOL    HW1 7442   3.842   6.997   1.040
 2181SOL    HW2 7443   3.939   6.944   1.161
 2182SOL     OW 7444   4.635   3.898   0.267
 2182SOL    HW1 7445   4.567   3.944   0.324
 2182SOL    HW2 7446   4.725   3.937   0.285
 2183SOL     OW 7447   4.821   2.728   2.040
 2183SOL    HW1 7448   4.907   2.712   2.087
 2183SOL    HW2 7449   4.793   2.823   2.053
 2184SOL     OW 7450   4.672   2.358   6.219
 2184SOL    HW1 7451   4.673   2.373   6.318
 2184SOL    HW2 7452   4.578   2.352   6.187
 2185SOL     OW 7453   0.012   6.763   2.036
 2185SOL    HW1 7454   6.967   6.706   1.983
 2185SOL    HW2 7455   0.051   6.833   1.976
 2186SOL     OW 7456   0.040   4.161   3.104
 2186SOL    HW1 7457   0.075   4.217   3.029
 2186SOL    HW2 7458   0.067   4.065   3.090
 2187SOL     OW 7459   6.503   0.223   6.621
 2187SOL    HW1 7460   6.431   0.241   6.687
 2187SOL    HW2 7461   6.463   0.198   6.532
 2188SOL     OW 7462   4.782   2.883   3.746
 2188SOL    HW1 7463   4.758   2.861   3.840
 2188SOL    HW2 7464   4.830   2.806   3.704
 2189SOL     OW 7465   3.563   6.798   6.462
 2189SOL    HW1 7466   3.495   6.726   6.476
 2189SOL    HW2 7467   3.635   6.790   6.531
 2190SOL     OW 7468   6.116   3.794   1.188
 2190SOL    HW1 7469   6.032   3.847   1.200
 2190SOL    HW2 7470   6.163   3.824   1.106
 2191SOL     OW 7471   3.493   0.272   0.645
 2191SOL    HW1 7472   3.407   0.243   0.602
 2191SOL    HW2 7473   3.545   0.328   0.581
 2192SOL     OW 7474   4.280   6.660   1.914
 2192SOL    HW1 7475   4.265   6.609   1.999
 2192SOL    HW2 7476   4.244   6.607   1.837
 2193SOL     OW 7477   0.420   6.216   4.760
 2193SOL    HW1 7478   0.371   6.239   4.676
 2193SOL    HW2 7479   0.511   6.181   4.737
 2194SOL     OW 7480   2.496   6.765   2.931
 2194SOL    HW1 7481   2.409   6.770   2.979
 2194SOL    HW2 7482   2.481   6.770   2.833
 2195SOL     OW 7483   0.145   4.761   2.629
 2195SOL    HW1 7484   0.050   4.731   2.640
 2195SOL    HW2 7485   0.170   4.758   2.533
 2196SOL     OW 7486   4.726   3.732   6.876
 2196SOL    HW1 7487   4.696   3.770   6.789
 2196SOL    HW2 7488   4.779   3.801   6.926
 2197SOL     OW 7489   4.796   3.672   0.251
 2197SOL    HW1 7490   4.874   3.661   0.190
 2197SOL    HW2 7491   4.725   3.725   0.205
 2198SOL     OW 7492   0.759   4.734   6.418
 2198SOL    HW1 7493   0.788   4.827   6.440
 2198SOL    HW2 7494   0.755   4.680   6.501
 2199SOL     OW 7495   3.819   1.779   3.555
 2199SOL    HW1 7496   3.818   1.681   3.536
 2199SOL    HW2 7497   3.771   1.796   3.642
 2200SOL     OW 7498   3.767   0.375   3.642
 2200SOL    HW1 7499   3.864   0.394   3.629
 2200SOL    HW2 7500   3.746   0.282   3.610
 2201SOL     OW 7501   5.254   4.665   4.329
 2201SOL    HW1 7502   5.300   4.584   4.366
 2201SOL    HW2 7503   5.319   4.719   4.275
 2202SOL     OW 7504   4.736   6.219   4.330
 2202SOL    HW1 7505   4.707   6.251   4.420
 2202SOL    HW2 7506   4.734   6.119   4.327
 2203SOL     OW 7507   1.952   1.573   3.035
 2203SOL    HW1 7508   1.958   1.519   2.951
 2203SOL    HW2 7509   2.013   1.652   3.028
 2204SOL     OW 7510   3.636   2.480   0.983
 2204SOL    HW1 7511   3.726   2.447   0.955
 2204SOL    HW2 7512   3.565   2.421   0.945
 2205SOL     OW 7513   3.090   0.530   2.317
 2205SOL    HW1 7514   3.105   0.625   2.290
 2205SOL    HW2 7515   3.091   0.472   2.235
 2206SOL     OW 7516   1.800   4.705   0.082
 2206SOL    HW1 7517   1.847   4.690   0.169
 2206SOL    HW2 7518   1.779   4.617   0.040
 2207SOL     OW 7519   6.477   4.665   4.964
 2207SOL    HW1 7520   6.378   4.668   4.976
 2207SOL    HW2 7521   6.518   4.745   5.008
 2208SOL     OW 7522   6.772   4.874   2.408
 2208SOL    HW1 7523   6.703   4.920   2.352
 2208SOL    HW2 7524   6.842   4.834   2.348
 2209SOL     OW 7525   6.524   6.979   2.121
 2209SOL    HW1 7526   6.622   6.982   2.139
 2209SOL    HW2 7527   6.488   6.890   2.149
 2210SOL     OW 7528   2.391   4.365   3.574
 2210SOL    HW1 7529   2.362   4.280   3.531
 2210SOL    HW2 7530   2.441   4.421   3.508
 2211SOL     OW 7531   5.208   0.756   5.625
 2211SOL    HW1 7532   5.130   0.793   5.575
 2211SOL    HW2 7533   5.220   0.659   5.602
 2212SOL     OW 7534   2.456   5.955   6.194
 2212SOL    HW1 7535   2.504   5.946   6.107
 2212SOL    HW2 7536   2.367   5.911   6.188
 2213SOL     OW 7537   4.649   0.940   3.485
 2213SOL    HW1 7538   4.587   0.911   3.558
 2213SOL    HW2 7539   4.698   1.022   3.514
 2214SOL     OW 7540   4.186   0.487   4.097
 2214SOL    HW1 7541   4.257   0.527   4.039
 2214SOL    HW2 7542   4.222   0.406   4.143
 2215SOL     OW 7543   5.842   2.090   6.623
 2215SOL    HW1 7544   5.880   2.139   6.544
 2215SOL    HW2 7545   5.789   2.012   6.590
 2216SOL     OW 7546   3.250   1.116   2.522
 2216SOL    HW1 7547   3.271   1.058   2.600
 2216SOL    HW2 7548   3.335   1.146   2.479
 2217SOL     OW 7549   3.024   0.040   0.870
 2217SOL    HW1 7550   2.951   0.069   0.932
 2217SOL    HW2 7551   3.003   6.968   0.833
 2218SOL     OW 7552   6.469   1.062   2.220
 2218SOL    HW1 7553   6.483   1.001   2.142
 2218SOL    HW2 7554   6.391   1.030   2.274
 2219SOL     OW 7555   2.217   2.174   3.181
 2219SOL    HW1 7556   2.314   2.199   3.179
 2219SOL    HW2 7557   2.206   2.085   3.223
 2220SOL     OW 7558   1.818   6.083   2.815
 2220SOL    HW1 7559   1.791   6.025   2.892
 2220SOL    HW2 7560   1.737   6.106   2.761
 2221SOL     OW 7561   0.008   6.948   5.043
 2221SOL    HW1 7562   6.939   6.991   5.063
 2221SOL    HW2 7563   0.082   7.010   5.068
 2222SOL     OW 7564   5.956   5.775   3.551
 2222SOL    HW1 7565   6.031   5.785   3.617
 2222SOL    HW2 7566   5.949   5.679   3.524
 2223SOL     OW 7567   6.442   6.747   2.306
 2223SOL    HW1 7568   6.491   6.745   2.394
 2223SOL    HW2 7569   6.349   6.779   2.321
 2224SOL     OW 7570   0.879   5.745   1.414
 2224SOL    HW1 7571   0.976   5.722   1.420
 2224SOL    HW2 7572   0.841   5.707   1.329
 2225SOL     OW 7573   0.393   4.513   0.629
 2225SOL    HW1 7574   0.459   4.443   0.655
 2225SOL    HW2 7575   0.423   4.559   0.546
 2226SOL     OW 7576   3.476   4.171   2.805
 2226SOL    HW1 7577   3.382   4.138   2.802
 2226SOL    HW2 7578   3.507   4.174   2.900
 2227SOL     OW 7579   2.021   2.150   5.026
 2227SOL    HW1 7580   2.051   2.212   4.954
 2227SOL    HW2 7581   2.020   2.056   4.990
 2228SOL     OW 7582   1.254   4.667   4.184
 2228SOL    HW1 7583   1.189   4.596   4.212
 2228SOL    HW2 7584   1.289   4.714   4.265
 2229SOL     OW 7585   5.572   5.337   2.789
 2229SOL    HW1 7586   5.539   5.416   2.737
 2229SOL    HW2 7587   5.550   5.349   2.886
 2230SOL     OW 7588   1.571   5.507   2.846
 2230SOL    HW1 7589   1.490   5.564   2.859
 2230SOL    HW2 7590   1.651   5.553   2.884
 2231SOL     OW 7591   1.964   5.614   0.528
 2231SOL    HW1 7592   2.051   5.639   0.487
 2231SOL    HW2 7593   1.894   5.681   0.501
 2232SOL     OW 7594   6.029   2.508   3.665
 2232SOL    HW1 7595   5.994   2.593   3.628
 2232SOL    HW2 7596   6.084   2.461   3.596
 2233SOL     OW 7597   3.448   1.592   0.984
 2233SOL    HW1 7598   3.384   1.536   1.036
 2233SOL    HW2 7599   3.511   1.533   0.934
 2234SOL     OW 7600   4.398   2.357   1.310
 2234SOL    HW1 7601   4.410   2.406   1.396
 2234SOL    HW2 7602   4.486   2.317   1.282
 2235SOL     OW 7603   2.072   2.916   1.561
 2235SOL    HW1 7604   2.084   2.929   1.462
 2235SOL    HW2 7605   1.975   2.902   1.581
 2236SOL     OW 7606   0.968   3.849   5.288
 2236SOL    HW1 7607   1.010   3.940   5.290
 2236SOL    HW2 7608   0.928   3.833   5.198
 2237SOL     OW 7609   5.660   2.320   3.142
 2237SOL    HW1 7610   5.672   2.227   3.178
 2237SOL    HW2 7611   5.705   2.327   3.053
 2238SOL     OW 7612   5.057   6.490   0.146
 2238SOL    HW1 7613   5.021   6.580   0.121
 2238SOL    HW2 7614   4.997   6.418   0.111
 2239SOL     OW 7615   6.668   6.039   1.355
 2239SOL    HW1 7616   6.767   6.046   1.342
 2239SOL    HW2 7617   6.649   6.011   1.449
 2240SOL     OW 7618   0.244   3.982   1.650
 2240SOL    HW1 7619   0.161   4.018   1.607
 2240SOL    HW2 7620   0.321   4.042   1.629
 2241SOL     OW 7621   0.830   0.155   3.996
 2241SOL    HW1 7622   0.801   0.060   4.009
 2241SOL    HW2 7623   0.873   0.188   4.081
 2242SOL     OW 7624   1.908   1.837   3.239
 2242SOL    HW1 7625   1.836   1.807   3.176
 2242SOL    HW2 7626   1.934   1.931   3.218
 2243SOL     OW 7627   1.012   0.545   4.643
 2243SOL    HW1 7628   1.028   0.643   4.648
 2243SOL    HW2 7629   1.082   0.502   4.585
 2244SOL     OW 7630   3.177   6.910   4.519
 2244SOL    HW1 7631   3.263   6.961   4.522
 2244SOL    HW2 7632   3.156   6.885   4.424
 2245SOL     OW 7633   0.845   2.359   1.494
 2245SOL    HW1 7634   0.871   2.263   1.483
 2245SOL    HW2 7635   0.749   2.365   1.520
 2246SOL     OW 7636   0.657   4.499   4.773
 2246SOL    HW1 7637   0.645   4.518   4.676
 2246SOL    HW2 7638   0.617   4.410   4.795
 2247SOL     OW 7639   2.234   2.458   3.873
 2247SOL    HW1 7640   2.161   2.426   3.812
 2247SOL    HW2 7641   2.198   2.527   3.935
 2248SOL     OW 7642   5.155   3.888   5.722
 2248SOL    HW1 7643   5.110   3.967   5.763
 2248SOL    HW2 7644   5.100   3.806   5.738
 2249SOL     OW 7645   5.651   6.067   4.631
 2249SOL    HW1 7646   5.577   6.000   4.636
 2249SOL    HW2 7647   5.630   6.136   4.562
 2250SOL     OW 7648   4.401   4.899   2.132
 2250SOL    HW1 7649   4.358   4.976   2.085
 2250SOL    HW2 7650   4.424   4.828   2.066
 2251SOL     OW 7651   0.640   1.511   5.545
 2251SOL    HW1 7652   0.708   1.570   5.500
 2251SOL    HW2 7653   0.649   1.520   5.644
 2252SOL     OW 7654   3.722   1.265   6.716
 2252SOL    HW1 7655   3.662   1.269   6.636
 2252SOL    HW2 7656   3.755   1.357   6.738
 2253SOL     OW 7657   0.825   3.878   1.113
 2253SOL    HW1 7658   0.755   3.929   1.165
 2253SOL    HW2 7659   0.915   3.899   1.150
 2254SOL     OW 7660   1.616   5.217   6.025
 2254SOL    HW1 7661   1.694   5.181   5.973
 2254SOL    HW2 7662   1.650   5.272   6.101
 2255SOL     OW 7663   0.022   3.720   6.426
 2255SOL    HW1 7664   7.012   3.626   6.441
 2255SOL    HW2 7665   0.090   3.746   6.494
 2256SOL     OW 7666   2.924   5.752   2.156
 2256SOL    HW1 7667   3.023   5.742   2.151
 2256SOL    HW2 7668   2.896   5.841   2.121
 2257SOL     OW 7669   1.030   4.495   6.106
 2257SOL    HW1 7670   0.984   4.481   6.018
 2257SOL    HW2 7671   1.055   4.406   6.144
 2258SOL     OW 7672   2.245   6.614   5.951
 2258SOL    HW1 7673   2.276   6.594   6.044
 2258SOL    HW2 7674   2.204   6.532   5.911
 2259SOL     OW 7675   5.891   1.699   6.335
 2259SOL    HW1 7676   5.809   1.686   6.392
 2259SOL    HW2 7677   5.897   1.625   6.268
 2260SOL     OW 7678   4.824   3.477   1.419
 2260SOL    HW1 7679   4.803   3.415   1.344
 2260SOL    HW2 7680   4.752   3.546   1.426
 2261SOL     OW 7681   2.097   0.035   5.398
 2261SOL    HW1 7682   2.134   6.974   5.351
 2261SOL    HW2 7683   2.007   0.058   5.359
 2262SOL     OW 7684   2.627   1.804   4.063
 2262SOL    HW1 7685   2.629   1.847   4.153
 2262SOL    HW2 7686   2.577   1.717   4.069
 2263SOL     OW 7687   0.194   4.656   5.646
 2263SOL    HW1 7688   0.237   4.696   5.565
 2263SOL    HW2 7689   0.099   4.632   5.625
 2264SOL     OW 7690   3.466   3.363   4.136
 2264SOL    HW1 7691   3.411   3.302   4.079
 2264SOL    HW2 7692   3.464   3.331   4.231
 2265SOL     OW 7693   0.551   5.994   4.158
 2265SOL    HW1 7694   0.563   5.897   4.176
 2265SOL    HW2 7695   0.468   6.026   4.205
 2266SOL     OW 7696   6.860   0.800   5.469
 2266SOL    HW1 7697   6.930   0.731   5.484
 2266SOL    HW2 7698   6.901   0.881   5.427
 2267SOL     OW 7699   6.179   1.642   4.702
 2267SOL    HW1 7700   6.244   1.698   4.651
 2267SOL    HW2 7701   6.125   1.587   4.638
 2268SOL     OW 7702   0.270   6.997   0.239
 2268SOL    HW1 7703   0.316   0.056   0.196
 2268SOL    HW2 7704   0.278   7.005   0.339
 2269SOL     OW 7705   6.824   6.013   2.823
 2269SOL    HW1 7706   6.917   5.993   2.794
 2269SOL    HW2 7707   6.817   6.109   2.849
 2270SOL     OW 7708   3.665   2.973   3.398
 2270SOL    HW1 7709   3.622   2.919   3.470
 2270SOL    HW2 7710   3.606   2.972   3.317
 2271SOL     OW 7711   1.477   3.753   2.678
 2271SOL    HW1 7712   1.529   3.669   2.661
 2271SOL    HW2 7713   1.460   3.801   2.592
 2272SOL     OW 7714   4.761   0.716   6.210
 2272SOL    HW1 7715   4.662   0.726   6.216
 2272SOL    HW2 7716   4.800   0.798   6.168
 2273SOL     OW 7717   0.049   0.897   1.835
 2273SOL    HW1 7718   0.015   0.861   1.749
 2273SOL    HW2 7719   0.018   0.839   1.911
 2274SOL     OW 7720   6.412   4.927   3.407
 2274SOL    HW1 7721   6.474   4.928   3.485
 2274SOL    HW2 7722   6.414   4.836   3.364
 2275SOL     OW 7723   4.583   5.990   4.040
 2275SOL    HW1 7724   4.676   5.997   4.003
 2275SOL    HW2 7725   4.523   6.054   3.991
 2276SOL     OW 7726   3.722   5.831   3.189
 2276SOL    HW1 7727   3.696   5.809   3.284
 2276SOL    HW2 7728   3.678   5.766   3.127
 2277SOL     OW 7729   3.884   3.011   2.789
 2277SOL    HW1 7730   3.902   3.073   2.713
 2277SOL    HW2 7731   3.790   2.978   2.783
 2278SOL     OW 7732   4.052   4.796   1.440
 2278SOL    HW1 7733   4.146   4.765   1.453
 2278SOL    HW2 7734   3.993   4.717   1.426
 2279SOL     OW 7735   5.682   4.197   5.434
 2279SOL    HW1 7736   5.775   4.193   5.397
 2279SOL    HW2 7737   5.617   4.199   5.358
 2280SOL     OW 7738   5.392   0.985   5.487
 2280SOL    HW1 7739   5.487   0.960   5.502
 2280SOL    HW2 7740   5.333   0.909   5.516
 2281SOL     OW 7741   2.466   0.472   0.626
 2281SOL    HW1 7742   2.530   0.527   0.679
 2281SOL    HW2 7743   2.468   0.377   0.659
 2282SOL     OW 7744   3.400   0.469   2.741
 2282SOL    HW1 7745   3.497   0.478   2.720
 2282SOL    HW2 7746   3.348   0.463   2.656
 2283SOL     OW 7747   1.042   3.012   0.954
 2283SOL    HW1 7748   0.998   3.100   0.938
 2283SOL    HW2 7749   1.091   3.016   1.041
 2284SOL     OW 7750   1.817   2.678   0.423
 2284SOL    HW1 7751   1.829   2.762   0.476
 2284SOL    HW2 7752   1.869   2.686   0.338
 2285SOL     OW 7753   2.753   2.811   0.398
 2285SOL    HW1 7754   2.691   2.849   0.329
 2285SOL    HW2 7755   2.809   2.884   0.437
 2286SOL     OW 7756   6.521   5.627   4.122
 2286SOL    HW1 7757   6.516   5.660   4.028
 2286SOL    HW2 7758   6.617   5.617   4.149
 2287SOL     OW 7759   2.535   1.454   0.904
 2287SOL    HW1 7760   2.576   1.427   0.817
 2287SOL    HW2 7761   2.530   1.554   0.909
 2288SOL     OW 7762   3.041   5.855   4.371
 2288SOL    HW1 7763   3.033   5.810   4.460
 2288SOL    HW2 7764   3.054   5.953   4.384
 2289SOL     OW 7765   3.820   0.319   6.052
 2289SOL    HW1 7766   3.901   0.265   6.031
 2289SOL    HW2 7767   3.779   0.287   6.137
 2290SOL     OW 7768   2.260   3.539   5.971
 2290SOL    HW1 7769   2.332   3.558   5.904
 2290SOL    HW2 7770   2.252   3.616   6.035
 2291SOL     OW 7771   3.423   2.335   0.331
 2291SOL    HW1 7772   3.329   2.308   0.310
 2291SOL    HW2 7773   3.448   2.415   0.277
 2292SOL     OW 7774   5.256   2.067   2.968
 2292SOL    HW1 7775   5.279   2.074   3.066
 2292SOL    HW2 7776   5.192   2.140   2.944
 2293SOL     OW 7777   0.536   0.879   6.982
 2293SOL    HW1 7778   0.516   0.884   0.062
 2293SOL    HW2 7779   0.456   0.842   6.934
 2294SOL     OW 7780   6.796   2.254   5.519
 2294SOL    HW1 7781   6.810   2.159   5.489
 2294SOL    HW2 7782   6.745   2.304   5.449
 2295SOL     OW 7783   5.722   5.682   0.072
 2295SOL    HW1 7784   5.776   5.653   7.011
 2295SOL    HW2 7785   5.646   5.619   0.086
 2296SOL     OW 7786   3.827   6.111   4.633
 2296SOL    HW1 7787   3.828   6.117   4.534
 2296SOL    HW2 7788   3.918   6.086   4.666
 2297SOL     OW 7789   6.740   2.835   0.015
 2297SOL    HW1 7790   6.659   2.782   7.007
 2297SOL    HW2 7791   6.818   2.807   6.978
 2298SOL     OW 7792   1.836   3.803   5.228
 2298SOL    HW1 7793   1.789   3.822   5.142
 2298SOL    HW2 7794   1.796   3.860   5.301
 2299SOL     OW 7795   5.835   3.110   4.388
 2299SOL    HW1 7796   5.870   3.150   4.303
 2299SOL    HW2 7797   5.863   3.166   4.466
 2300SOL     OW 7798   4.175   1.018   2.816
 2300SOL    HW1 7799   4.259   1.020   2.870
 2300SOL    HW2 7800   4.180   1.088   2.744
 2301SOL     OW 7801   4.619   3.433   6.006
 2301SOL    HW1 7802   4.572   3.346   5.993
 2301SOL    HW2 7803   4.663   3.435   6.096
 2302SOL     OW 7804   0.054   3.413   4.755
 2302SOL    HW1 7805   0.143   3.407   4.801
 2302SOL    HW2 7806   0.064   3.387   4.659
 2303SOL     OW 7807   2.484   2.283   6.709
 2303SOL    HW1 7808   2.538   2.367   6.706
 2303SOL    HW2 7809   2.390   2.302   6.681
 2304SOL     OW 7810   3.731   0.109   3.599
 2304SOL    HW1 7811   3.801   0.080   3.663
 2304SOL    HW2 7812   3.728   0.046   3.521
 2305SOL     OW 7813   2.334   6.257   4.687
 2305SOL    HW1 7814   2.412   6.198   4.673
 2305SOL    HW2 7815   2.316   6.266   4.786
 2306SOL     OW 7816   0.834   4.617   5.554
 2306SOL    HW1 7817   0.747   4.644   5.513
 2306SOL    HW2 7818   0.854   4.676   5.633
 2307SOL     OW 7819   6.322   4.447   5.213
 2307SOL    HW1 7820   6.296   4.499   5.132
 2307SOL    HW2 7821   6.245   4.444   5.277
 2308SOL     OW 7822   1.042   6.321   3.143
 2308SOL    HW1 7823   1.067   6.231   3.107
 2308SOL    HW2 7824   1.026   6.384   3.067
 2309SOL     OW 7825   1.844   1.090   4.777
 2309SOL    HW1 7826   1.846   1.097   4.677
 2309SOL    HW2 7827   1.931   1.123   4.814
 2310SOL     OW 7828   5.239   6.283   0.017
 2310SOL    HW1 7829   5.221   6.245   0.107
 2310SOL    HW2 7830   5.334   6.267   7.010
 2311SOL     OW 7831   2.551   5.413   0.464
 2311SOL    HW1 7832   2.518   5.489   0.409
 2311SOL    HW2 7833   2.602   5.350   0.406
 2312SOL     OW 7834   2.442   4.790   2.203
 2312SOL    HW1 7835   2.472   4.762   2.112
 2312SOL    HW2 7836   2.491   4.873   2.230
 2313SOL     OW 7837   5.363   5.152   1.058
 2313SOL    HW1 7838   5.276   5.103   1.062
 2313SOL    HW2 7839   5.378   5.186   0.966
 2314SOL     OW 7840   2.164   4.143   2.812
 2314SOL    HW1 7841   2.152   4.239   2.784
 2314SOL    HW2 7842   2.170   4.086   2.730
 2315SOL     OW 7843   3.686   2.072   6.384
 2315SOL    HW1 7844   3.602   2.122   6.408
 2315SOL    HW2 7845   3.755   2.137   6.351
 2316SOL     OW 7846   6.070   4.400   1.400
 2316SOL    HW1 7847   6.086   4.493   1.369
 2316SOL    HW2 7848   6.157   4.359   1.429
 2317SOL     OW 7849   0.143   6.436   3.624
 2317SOL    HW1 7850   0.078   6.400   3.558
 2317SOL    HW2 7851   0.233   6.393   3.610
 2318SOL     OW 7852   6.777   1.725   3.586
 2318SOL    HW1 7853   6.703   1.676   3.539
 2318SOL    HW2 7854   6.861   1.671   3.582
 2319SOL     OW 7855   0.838   5.861   3.066
 2319SOL    HW1 7856   0.926   5.845   3.110
 2319SOL    HW2 7857   0.829   5.801   2.986
 2320SOL     OW 7858   6.624   4.563   3.324
 2320SOL    HW1 7859   6.539   4.613   3.310
 2320SOL    HW2 7860   6.668   4.596   3.408
 2321SOL     OW 7861   3.145   4.900   3.663
 2321SOL    HW1 7862   3.106   4.896   3.571
 2321SOL    HW2 7863   3.243   4.882   3.659
 2322SOL     OW 7864   1.907   1.949   4.707
 2322SOL    HW1 7865   1.916   1.942   4.806
 2322SOL    HW2 7866   1.970   1.886   4.662
 2323SOL     OW 7867   5.383   3.948   1.489
 2323SOL    HW1 7868   5.362   4.045   1.477
 2323SOL    HW2 7869   5.344   3.915   1.575
 2324SOL     OW 7870   0.485   5.323   4.040
 2324SOL    HW1 7871   0.387   5.342   4.047
 2324SOL    HW2 7872   0.526   5.386   3.973
 2325SOL     OW 7873   6.372   1.940   0.916
 2325SOL    HW1 7874   6.357   1.849   0.955
 2325SOL    HW2 7875   6.455   1.940   0.861
 2326SOL     OW 7876   0.338   5.484   0.099
 2326SOL    HW1 7877   0.270   5.414   0.123
 2326SOL    HW2 7878   0.310   5.572   0.138
 2327SOL     OW 7879   4.731   1.511   3.177
 2327SOL    HW1 7880   4.742   1.603   3.141
 2327SOL    HW2 7881   4.634   1.490   3.188
 2328SOL     OW 7882   6.109   5.362   4.090
 2328SOL    HW1 7883   6.194   5.373   4.141
 2328SOL    HW2 7884   6.046   5.436   4.114
 2329SOL     OW 7885   1.398   6.526   3.330
 2329SOL    HW1 7886   1.386   6.623   3.308
 2329SOL    HW2 7887   1.317   6.493   3.380
 2330SOL     OW 7888   2.019   4.385   0.157
 2330SOL    HW1 7889   1.942   4.363   0.218
 2330SOL    HW2 7890   2.087   4.437   0.208
 2331SOL     OW 7891   1.600   4.792   5.362
 2331SOL    HW1 7892   1.656   4.823   5.285
 2331SOL    HW2 7893   1.504   4.787   5.333
 2332SOL     OW 7894   0.067   3.439   6.496
 2332SOL    HW1 7895   7.001   3.406   6.539
 2332SOL    HW2 7896   0.106   3.366   6.439
 2333SOL     OW 7897   2.090   4.358   3.622
 2333SOL    HW1 7898   2.176   4.352   3.571
 2333SOL    HW2 7899   2.109   4.353   3.720
 2334SOL     OW 7900   2.318   6.970   6.315
 2334SOL    HW1 7901   2.378   6.975   6.395
 2334SOL    HW2 7902   2.315   0.041   6.270
 2335SOL     OW 7903   4.686   4.218   4.290
 2335SOL    HW1 7904   4.718   4.128   4.320
 2335SOL    HW2 7905   4.759   4.265   4.241
 2336SOL     OW 7906   4.277   1.295   5.584
 2336SOL    HW1 7907   4.236   1.337   5.665
 2336SOL    HW2 7908   4.341   1.223   5.612
 2337SOL     OW 7909   5.919   0.757   4.968
 2337SOL    HW1 7910   5.882   0.699   4.896
 2337SOL    HW2 7911   5.959   0.700   5.040
 2338SOL     OW 7912   1.670   6.603   0.087
 2338SOL    HW1 7913   1.594   6.548   0.121
 2338SOL    HW2 7914   1.666   6.606   7.005
 2339SOL     OW 7915   3.263   4.420   6.086
 2339SOL    HW1 7916   3.224   4.451   5.999
 2339SOL    HW2 7917   3.200   4.441   6.160
 2340SOL     OW 7918   4.078   5.089   3.908
 2340SOL    HW1 7919   4.160   5.041   3.938
 2340SOL    HW2 7920   4.056   5.063   3.814
 2341SOL     OW 7921   0.630   3.957   5.963
 2341SOL    HW1 7922   0.687   3.971   6.044
 2341SOL    HW2 7923   0.626   3.859   5.942
 2342SOL     OW 7924   5.061   1.065   5.624
 2342SOL    HW1 7925   5.005   1.131   5.674
 2342SOL    HW2 7926   5.156   1.095   5.622
 2343SOL     OW 7927   1.108   5.827   1.953
 2343SOL    HW1 7928   1.171   5.888   2.002
 2343SOL    HW2 7929   1.039   5.881   1.905
 2344SOL     OW 7930   1.929   0.691   2.693
 2344SOL    HW1 7931   1.885   0.636   2.764
 2344SOL    HW2 7932   1.960   0.777   2.733
 2345SOL     OW 7933   1.450   2.772   1.840
 2345SOL    HW1 7934   1.441   2.872   1.840
 2345SOL    HW2 7935   1.545   2.748   1.855
 2346SOL     OW 7936   5.604   2.958   5.379
 2346SOL    HW1 7937   5.694   2.918   5.359
 2346SOL    HW2 7938   5.617   3.048   5.421
 2347SOL     OW 7939   2.007   4.256   1.227
 2347SOL    HW1 7940   1.919   4.209   1.221
 2347SOL    HW2 7941   2.043   4.248   1.320
 2348SOL     OW 7942   3.266   0.169   1.692
 2348SOL    HW1 7943   3.300   0.256   1.726
 2348SOL    HW2 7944   3.321   0.094   1.728
 2349SOL     OW 7945   5.923   2.433   6.944
 2349SOL    HW1 7946   5.909   2.338   6.972
 2349SOL    HW2 7947   5.899   2.494   0.001
 2350SOL     OW 7948   2.367   5.588   5.296
 2350SOL    HW1 7949   2.328   5.538   5.218
 2350SOL    HW2 7950   2.308   5.665   5.319
 2351SOL     OW 7951   1.787   5.236   3.482
 2351SOL    HW1 7952   1.855   5.170   3.513
 2351SOL    HW2 7953   1.832   5.307   3.428
 2352SOL     OW 7954   6.108   5.851   6.414
 2352SOL    HW1 7955   6.050   5.839   6.333
 2352SOL    HW2 7956   6.050   5.864   6.494
 2353SOL     OW 7957   3.230   2.882   6.472
 2353SOL    HW1 7958   3.240   2.790   6.509
 2353SOL    HW2 7959   3.134   2.908   6.472
 2354SOL     OW 7960   3.426   1.859   2.173
 2354SOL    HW1 7961   3.346   1.892   2.223
 2354SOL    HW2 7962   3.432   1.759   2.182
 2355SOL     OW 7963   6.998   1.527   2.260
 2355SOL    HW1 7964   6.899   1.542   2.261
 2355SOL    HW2 7965   0.005   1.476   2.179
 2356SOL     OW 7966   3.510   4.977   3.803
 2356SOL    HW1 7967   3.607   4.974   3.779
 2356SOL    HW2 7968   3.498   4.951   3.899
 2357SOL     OW 7969   0.849   5.703   1.151
 2357SOL    HW1 7970   0.868   5.783   1.094
 2357SOL    HW2 7971   0.791   5.639   1.101
 2358SOL     OW 7972   2.179   0.903   5.296
 2358SOL    HW1 7973   2.097   0.862   5.337
 2358SOL    HW2 7974   2.175   0.891   5.197
 2359SOL     OW 7975   3.678   2.635   5.690
 2359SOL    HW1 7976   3.765   2.601   5.655
 2359SOL    HW2 7977   3.617   2.655   5.613
 2360SOL     OW 7978   3.407   5.304   1.459
 2360SOL    HW1 7979   3.333   5.270   1.401
 2360SOL    HW2 7980   3.398   5.403   1.471
 2361SOL     OW 7981   3.595   4.922   1.103
 2361SOL    HW1 7982   3.564   4.857   1.172
 2361SOL    HW2 7983   3.585   5.015   1.137
 2362SOL     OW 7984   2.774   4.774   4.357
 2362SOL    HW1 7985   2.715   4.716   4.301
 2362SOL    HW2 7986   2.766   4.746   4.453
 2363SOL     OW 7987   2.568   3.792   1.662
 2363SOL    HW1 7988   2.667   3.775   1.660
 2363SOL    HW2 7989   2.550   3.882   1.702
 2364SOL     OW 7990   4.540   0.955   2.565
 2364SOL    HW1 7991   4.564   1.002   2.651
 2364SOL    HW2 7992   4.471   1.009   2.517
 2365SOL     OW 7993   6.046   3.503   2.579
 2365SOL    HW1 7994   5.950   3.476   2.582
 2365SOL    HW2 7995   6.062   3.578   2.644
 2366SOL     OW 7996   3.965   5.527   4.804
 2366SOL    HW1 7997   3.924   5.514   4.715
 2366SOL    HW2 7998   3.902   5.496   4.875
 2367SOL     OW 7999   5.658   4.556   5.595
 2367SOL    HW1 8000   5.610   4.612   5.663
 2367SOL    HW2 8001   5.674   4.465   5.632
 2368SOL     OW 8002   5.061   1.609   5.572
 2368SOL    HW1 8003   5.140   1.562   5.613
 2368SOL    HW2 8004   5.090   1.697   5.536
 2369SOL     OW 8005   3.981   2.033   3.939
 2369SOL    HW1 8006   4.015   2.112   3.991
 2369SOL    HW2 8007   3.959   2.062   3.846
 2370SOL     OW 8008   3.953   2.114   0.752
 2370SOL    HW1 8009   4.025   2.183   0.738
 2370SOL    HW2 8010   3.937   2.102   0.850
 2371SOL     OW 8011   2.885   6.349   3.117
 2371SOL    HW1 8012   2.825   6.384   3.045
 2371SOL    HW2 8013   2.945   6.423   3.149
 2372SOL     OW 8014   5.661   6.845   6.210
 2372SOL    HW1 8015   5.657   6.754   6.167
 2372SOL    HW2 8016   5.705   6.909   6.147
 2373SOL     OW 8017   6.492   4.144   5.673
 2373SOL    HW1 8018   6.444   4.211   5.617
 2373SOL    HW2 8019   6.576   4.184   5.710
 2374SOL     OW 8020   0.132   5.670   2.658
 2374SOL    HW1 8021   0.074   5.654   2.578
 2374SOL    HW2 8022   0.076   5.700   2.735
 2375SOL     OW 8023   2.063   0.427   4.907
 2375SOL    HW1 8024   2.049   0.491   4.831
 2375SOL    HW2 8025   2.012   0.343   4.890
 2376SOL     OW 8026   5.650   3.014   3.811
 2376SOL    HW1 8027   5.605   2.931   3.778
 2376SOL    HW2 8028   5.596   3.094   3.784
 2377SOL     OW 8029   3.751   4.667   5.933
 2377SOL    HW1 8030   3.731   4.596   6.001
 2377SOL    HW2 8031   3.668   4.690   5.883
 2378SOL     OW 8032   0.800   0.439   0.516
 2378SOL    HW1 8033   0.846   0.357   0.481
 2378SOL    HW2 8034   0.708   0.415   0.546
 2379SOL     OW 8035   0.518   4.613   2.560
 2379SOL    HW1 8036   0.596   4.593   2.501
 2379SOL    HW2 8037   0.508   4.712   2.569
 2380SOL     OW 8038   4.957   5.740   6.693
 2380SOL    HW1 8039   4.986   5.774   6.603
 2380SOL    HW2 8040   4.934   5.643   6.685
 2381SOL     OW 8041   2.296   4.147   3.817
 2381SOL    HW1 8042   2.382   4.193   3.794
 2381SOL    HW2 8043   2.270   4.085   3.743
 2382SOL     OW 8044   6.504   6.044   2.471
 2382SOL    HW1 8045   6.444   6.066   2.548
 2382SOL    HW2 8046   6.462   5.973   2.415
 2383SOL     OW 8047   4.846   4.057   6.071
 2383SOL    HW1 8048   4.942   4.084   6.081
 2383SOL    HW2 8049   4.842   3.966   6.030
 2384SOL     OW 8050   0.863   2.148   3.375
 2384SOL    HW1 8051   0.909   2.189   3.296
 2384SOL    HW2 8052   0.808   2.217   3.421
 2385SOL     OW 8053   0.692   1.107   1.135
 2385SOL    HW1 8054   0.792   1.101   1.128
 2385SOL    HW2 8055   0.652   1.023   1.100
 2386SOL     OW 8056   0.075   4.625   5.966
 2386SOL    HW1 8057   0.083   4.629   5.866
 2386SOL    HW2 8058   0.028   4.541   5.993
 2387SOL     OW 8059   6.870   6.979   2.981
 2387SOL    HW1 8060   6.845   6.891   2.940
 2387SOL    HW2 8061   6.797   0.027   2.963
 2388SOL     OW 8062   1.852   4.272   3.536
 2388SOL    HW1 8063   1.927   4.317   3.585
 2388SOL    HW2 8064   1.889   4.221   3.458
 2389SOL     OW 8065   3.552   0.125   2.883
 2389SOL    HW1 8066   3.506   0.214   2.885
 2389SOL    HW2 8067   3.553   0.086   2.975
 2390SOL     OW 8068   5.343   3.234   5.107
 2390SOL    HW1 8069   5.428   3.182   5.105
 2390SOL    HW2 8070   5.309   3.247   5.014
 2391SOL     OW 8071   2.396   4.011   6.419
 2391SOL    HW1 8072   2.298   4.031   6.412
 2391SOL    HW2 8073   2.414   3.965   6.506
 2392SOL     OW 8074   3.918   5.090   5.671
 2392SOL    HW1 8075   3.974   5.016   5.634
 2392SOL    HW2 8076   3.976   5.169   5.690
 2393SOL     OW 8077   4.560   5.132   0.091
 2393SOL    HW1 8078   4.551   5.217   0.143
 2393SOL    HW2 8079   4.584   5.058   0.153
 2394SOL     OW 8080   6.933   2.733   2.920
 2394SOL    HW1 8081   6.867   2.680   2.866
 2394SOL    HW2 8082   6.962   2.813   2.867
 2395SOL     OW 8083   0.861   2.693   3.662
 2395SOL    HW1 8084   0.865   2.656   3.569
 2395SOL    HW2 8085   0.894   2.788   3.661
 2396SOL     OW 8086   0.409   0.965   5.993
 2396SOL    HW1 8087   0.431   0.886   5.935
 2396SOL    HW2 8088   0.380   0.932   6.083
 2397SOL     OW 8089   2.378   4.777   5.833
 2397SOL    HW1 8090   2.400   4.786   5.736
 2397SOL    HW2 8091   2.460   4.748   5.883
 2398SOL     OW 8092   3.808   6.494   4.936
 2398SOL    HW1 8093   3.846   6.415   4.983
 2398SOL    HW2 8094   3.752   6.464   4.859
 2399SOL     OW 8095   3.129   1.757   2.392
 2399SOL    HW1 8096   3.047   1.810   2.367
 2399SOL    HW2 8097   3.138   1.679   2.330
 2400SOL     OW 8098   1.067   1.632   6.572
 2400SOL    HW1 8099   1.092   1.728   6.583
 2400SOL    HW2 8100   1.129   1.588   6.507
 2401SOL     OW 8101   1.202   6.957   0.779
 2401SOL    HW1 8102   1.286   6.912   0.750
 2401SOL    HW2 8103   1.138   6.962   0.703
 2402SOL     OW 8104   0.371   3.438   1.457
 2402SOL    HW1 8105   0.422   3.438   1.543
 2402SOL    HW2 8106   0.416   3.376   1.392
 2403SOL     OW 8107   3.120   4.113   5.232
 2403SOL    HW1 8108   3.096   4.056   5.310
 2403SOL    HW2 8109   3.069   4.199   5.237
 2404SOL     OW 8110   6.242   1.862   2.054
 2404SOL    HW1 8111   6.146   1.875   2.032
 2404SOL    HW2 8112   6.295   1.940   2.019
 2405SOL     OW 8113   2.566   3.493   0.162
 2405SOL    HW1 8114   2.546   3.588   0.188
 2405SOL    HW2 8115   2.509   3.467   0.085
 2406SOL     OW 8116   4.542   6.142   5.170
 2406SOL    HW1 8117   4.558   6.238   5.147
 2406SOL    HW2 8118   4.584   6.084   5.101
 2407SOL     OW 8119   2.113   1.904   3.625
 2407SOL    HW1 8120   2.160   1.963   3.561
 2407SOL    HW2 8121   2.180   1.857   3.683
 2408SOL     OW 8122   4.367   6.562   5.377
 2408SOL    HW1 8123   4.274   6.561   5.341
 2408SOL    HW2 8124   4.429   6.520   5.310
 2409SOL     OW 8125   1.428   3.185   6.902
 2409SOL    HW1 8126   1.425   3.240   6.986
 2409SOL    HW2 8127   1.413   3.245   6.824
 2410SOL     OW 8128   6.530   3.430   4.751
 2410SOL    HW1 8129   6.431   3.433   4.741
 2410SOL    HW2 8130   6.569   3.520   4.732
 2411SOL     OW 8131   3.076   1.051   1.019
 2411SOL    HW1 8132   3.127   1.019   1.099
 2411SOL    HW2 8133   3.093   1.149   1.006
 2412SOL     OW 8134   3.857   2.381   0.029
 2412SOL    HW1 8135   3.931   2.342   6.992
 2412SOL    HW2 8136   3.797   2.308   0.061
 2413SOL     OW 8137   6.800   3.730   6.133
 2413SOL    HW1 8138   6.761   3.777   6.213
 2413SOL    HW2 8139   6.773   3.634   6.135
 2414SOL     OW 8140   6.279   1.840   4.926
 2414SOL    HW1 8141   6.372   1.807   4.943
 2414SOL    HW2 8142   6.224   1.828   5.009
 2415SOL     OW 8143   3.355   3.856   5.430
 2415SOL    HW1 8144   3.430   3.892   5.375
 2415SOL    HW2 8145   3.349   3.908   5.516
 2416SOL     OW 8146   6.726   3.167   3.213
 2416SOL    HW1 8147   6.643   3.223   3.214
 2416SOL    HW2 8148   6.722   3.102   3.288
 2417SOL     OW 8149   3.506   2.650   1.795
 2417SOL    HW1 8150   3.437   2.722   1.793
 2417SOL    HW2 8151   3.487   2.584   1.722
 2418SOL     OW 8152   5.989   3.643   6.578
 2418SOL    HW1 8153   6.005   3.546   6.558
 2418SOL    HW2 8154   6.078   3.689   6.588
 2419SOL     OW 8155   3.317   1.279   2.895
 2419SOL    HW1 8156   3.230   1.327   2.908
 2419SOL    HW2 8157   3.305   1.207   2.826
 2420SOL     OW 8158   0.549   2.897   1.324
 2420SOL    HW1 8159   0.509   2.852   1.244
 2420SOL    HW2 8160   0.478   2.948   1.373
 2421SOL     OW 8161   2.695   0.156   3.589
 2421SOL    HW1 8162   2.783   0.163   3.542
 2421SOL    HW2 8163   2.634   0.097   3.536
 2422SOL     OW 8164   3.879   6.584   0.637
 2422SOL    HW1 8165   3.814   6.645   0.592
 2422SOL    HW2 8166   3.830   6.519   0.694
 2423SOL     OW 8167   3.945   4.906   4.764
 2423SOL    HW1 8168   3.979   4.887   4.856
 2423SOL    HW2 8169   4.011   4.964   4.716
 2424SOL     OW 8170   4.809   0.467   6.325
 2424SOL    HW1 8171   4.756   0.454   6.409
 2424SOL    HW2 8172   4.786   0.556   6.286
 2425SOL     OW 8173   4.603   5.285   4.490
 2425SOL    HW1 8174   4.566   5.377   4.472
 2425SOL    HW2 8175   4.681   5.291   4.551
 2426SOL     OW 8176   2.855   2.364   5.234
 2426SOL    HW1 8177   2.947   2.340   5.203
 2426SOL    HW2 8178   2.854   2.370   5.334
 2427SOL     OW 8179   4.801   2.248   0.009
 2427SOL    HW1 8180   4.804   2.245   0.108
 2427SOL    HW2 8181   4.708   2.232   6.996
 2428SOL     OW 8182   1.604   1.668   2.267
 2428SOL    HW1 8183   1.612   1.634   2.173
 2428SOL    HW2 8184   1.524   1.627   2.310
 2429SOL     OW 8185   5.213   5.156   1.804
 2429SOL    HW1 8186   5.296   5.189   1.849
 2429SOL    HW2 8187   5.188   5.067   1.843
 2430SOL     OW 8188   6.682   6.314   6.846
 2430SOL    HW1 8189   6.623   6.327   6.925
 2430SOL    HW2 8190   6.764   6.371   6.856
 2431SOL     OW 8191   2.007   2.530   1.122
 2431SOL    HW1 8192   1.920   2.524   1.169
 2431SOL    HW2 8193   2.000   2.594   1.045
 2432SOL     OW 8194   3.170   5.847   2.865
 2432SOL    HW1 8195   3.084   5.846   2.917
 2432SOL    HW2 8196   3.189   5.755   2.831
 2433SOL     OW 8197   0.344   4.124   4.154
 2433SOL    HW1 8198   0.315   4.195   4.089
 2433SOL    HW2 8199   0.432   4.086   4.125
 2434SOL     OW 8200   3.774   2.151   2.986
 2434SOL    HW1 8201   3.854   2.123   2.933
 2434SOL    HW2 8202   3.803   2.184   3.076
 2435SOL     OW 8203   5.500   6.647   5.899
 2435SOL    HW1 8204   5.462   6.738   5.909
 2435SOL    HW2 8205   5.536   6.615   5.987
 2436SOL     OW 8206   0.323   2.830   0.037
 2436SOL    HW1 8207   0.417   2.807   0.061
 2436SOL    HW2 8208   0.304   2.924   0.065
 2437SOL     OW 8209   0.930   5.012   1.086
 2437SOL    HW1 8210   0.838   4.975   1.073
 2437SOL    HW2 8211   0.939   5.048   1.179
 2438SOL     OW 8212   4.015   1.952   4.223
 2438SOL    HW1 8213   3.968   2.000   4.149
 2438SOL    HW2 8214   4.081   2.014   4.266
 2439SOL     OW 8215   0.383   5.982   6.848
 2439SOL    HW1 8216   0.405   5.893   6.888
 2439SOL    HW2 8217   0.462   6.042   6.854
 2440SOL     OW 8218   0.167   2.707   5.181
 2440SOL    HW1 8219   0.135   2.612   5.187
 2440SOL    HW2 8220   0.256   2.709   5.137
 2441SOL     OW 8221   6.387   0.194   0.314
 2441SOL    HW1 8222   6.370   0.289   0.340
 2441SOL    HW2 8223   6.302   0.142   0.322
 2442SOL     OW 8224   5.683   2.974   2.983
 2442SOL    HW1 8225   5.634   3.007   3.063
 2442SOL    HW2 8226   5.776   3.011   2.983
 2443SOL     OW 8227   0.782   2.859   0.902
 2443SOL    HW1 8228   0.727   2.942   0.893
 2443SOL    HW2 8229   0.877   2.880   0.878
 2444SOL     OW 8230   3.487   5.463   2.616
 2444SOL    HW1 8231   3.428   5.388   2.586
 2444SOL    HW2 8232   3.487   5.536   2.548
 2445SOL     OW 8233   0.696   1.881   1.170
 2445SOL    HW1 8234   0.647   1.946   1.228
 2445SOL    HW2 8235   0.671   1.787   1.195
 2446SOL     OW 8236   6.565   5.444   0.746
 2446SOL    HW1 8237   6.473   5.435   0.786
 2446SOL    HW2 8238   6.617   5.360   0.761
 2447SOL     OW 8239   1.994   0.194   6.996
 2447SOL    HW1 8240   2.042   0.122   0.028
 2447SOL    HW2 8241   2.010   0.282   0.021
 2448SOL     OW 8242   5.419   0.611   4.346
 2448SOL    HW1 8243   5.366   0.694   4.360
 2448SOL    HW2 8244   5.466   0.617   4.258
 2449SOL     OW 8245   1.966   3.844   1.215
 2449SOL    HW1 8246   1.992   3.859   1.310
 2449SOL    HW2 8247   2.018   3.766   1.179
 2450SOL     OW 8248   6.391   6.806   5.285
 2450SOL    HW1 8249   6.300   6.845   5.302
 2450SOL    HW2 8250   6.441   6.800   5.372
 2451SOL     OW 8251   1.726   6.857   0.194
 2451SOL    HW1 8252   1.712   6.765   0.159
 2451SOL    HW2 8253   1.659   6.877   0.265
 2452SOL     OW 8254   1.744   2.199   3.661
 2452SOL    HW1 8255   1.701   2.286   3.637
 2452SOL    HW2 8256   1.779   2.156   3.578
 2453SOL     OW 8257   1.040   1.884   6.322
 2453SOL    HW1 8258   1.003   1.976   6.333
 2453SOL    HW2 8259   1.134   1.883   6.356
 2454SOL     OW 8260   2.723   6.407   7.002
 2454SOL    HW1 8261   2.751   6.313   0.002
 2454SOL    HW2 8262   2.782   6.470   0.034
 2455SOL     OW 8263   5.183   1.715   0.007
 2455SOL    HW1 8264   5.129   1.746   0.085
 2455SOL    HW2 8265   5.121   1.678   6.955
 2456SOL     OW 8266   0.796   3.437   5.959
 2456SOL    HW1 8267   0.803   3.446   5.859
 2456SOL    HW2 8268   0.888   3.431   5.998
 2457SOL     OW 8269   5.434   1.776   5.871
 2457SOL    HW1 8270   5.530   1.769   5.843
 2457SOL    HW2 8271   5.419   1.725   5.955
 2458SOL     OW 8272   0.794   0.048   2.088
 2458SOL    HW1 8273   0.892   0.068   2.079
 2458SOL    HW2 8274   0.742   0.131   2.070
 2459SOL     OW 8275   1.670   6.540   1.271
 2459SOL    HW1 8276   1.576   6.534   1.237
 2459SOL    HW2 8277   1.671   6.523   1.369
 2460SOL     OW 8278   0.401   1.128   4.348
 2460SOL    HW1 8279   0.417   1.187   4.427
 2460SOL    HW2 8280   0.331   1.060   4.371
 2461SOL     OW 8281   2.384   1.783   2.887
 2461SOL    HW1 8282   2.372   1.697   2.938
 2461SOL    HW2 8283   2.434   1.848   2.944
 2462SOL     OW 8284   0.459   5.952   0.664
 2462SOL    HW1 8285   0.371   5.946   0.711
 2462SOL    HW2 8286   0.507   5.864   0.672
 2463SOL     OW 8287   6.672   6.415   0.700
 2463SOL    HW1 8288   6.638   6.384   0.789
 2463SOL    HW2 8289   6.768   6.389   0.690
 2464SOL     OW 8290   0.776   2.662   4.704
 2464SOL    HW1 8291   0.824   2.702   4.781
 2464SOL    HW2 8292   0.690   2.622   4.735
 2465SOL     OW 8293   6.621   1.634   0.168
 2465SOL    HW1 8294   6.573   1.585   0.241
 2465SOL    HW2 8295   6.617   1.582   0.083
 2466SOL     OW 8296   1.265   1.928   1.253
 2466SOL    HW1 8297   1.251   1.868   1.332
 2466SOL    HW2 8298   1.185   1.924   1.193
 2467SOL     OW 8299   5.119   2.564   5.152
 2467SOL    HW1 8300   5.048   2.509   5.107
 2467SOL    HW2 8301   5.100   2.570   5.250
 2468SOL     OW 8302   2.987   6.936   4.717
 2468SOL    HW1 8303   3.055   6.917   4.646
 2468SOL    HW2 8304   2.945   6.851   4.746
 2469SOL     OW 8305   2.821   1.779   6.075
 2469SOL    HW1 8306   2.900   1.784   6.136
 2469SOL    HW2 8307   2.852   1.793   5.980
 2470SOL     OW 8308   1.903   5.156   6.157
 2470SOL    HW1 8309   1.820   5.174   6.210
 2470SOL    HW2 8310   1.980   5.206   6.196
 2471SOL     OW 8311   2.796   5.484   2.885
 2471SOL    HW1 8312   2.887   5.471   2.846
 2471SOL    HW2 8313   2.751   5.560   2.837
 2472SOL     OW 8314   5.068   0.634   3.056
 2472SOL    HW1 8315   5.042   0.643   3.152
 2472SOL    HW2 8316   5.006   0.688   2.999
 2473SOL     OW 8317   0.984   4.324   4.552
 2473SOL    HW1 8318   0.918   4.339   4.478
 2473SOL    HW2 8319   0.969   4.233   4.591
 2474SOL     OW 8320   1.897   0.468   1.061
 2474SOL    HW1 8321   1.886   0.500   1.156
 2474SOL    HW2 8322   1.841   0.525   1.001
 2475SOL     OW 8323   5.814   2.052   0.556
 2475SOL    HW1 8324   5.871   2.132   0.575
 2475SOL    HW2 8325   5.753   2.036   0.634
 2476SOL     OW 8326   4.784   6.743   6.775
 2476SOL    HW1 8327   4.686   6.738   6.789
 2476SOL    HW2 8328   4.831   6.678   6.835
 2477SOL     OW 8329   3.676   1.344   3.794
 2477SOL    HW1 8330   3.686   1.409   3.869
 2477SOL    HW2 8331   3.629   1.387   3.717
 2478SOL     OW 8332   3.261   0.317   4.224
 2478SOL    HW1 8333   3.344   0.305   4.279
 2478SOL    HW2 8334   3.182   0.327   4.285
 2479SOL     OW 8335   6.358   4.131   1.737
 2479SOL    HW1 8336   6.354   4.061   1.809
 2479SOL    HW2 8337   6.271   4.180   1.733
 2480SOL     OW 8338   3.156   2.061   1.727
 2480SOL    HW1 8339   3.212   2.102   1.654
 2480SOL    HW2 8340   3.077   2.119   1.745
 2481SOL     OW 8341   2.898   6.853   2.534
 2481SOL    HW1 8342   2.837   6.827   2.609
 2481SOL    HW2 8343   2.888   6.787   2.460
 2482SOL     OW 8344   0.332   3.462   6.951
 2482SOL    HW1 8345   0.261   3.507   7.005
 2482SOL    HW2 8346   0.306   3.464   6.854
 2483SOL     OW 8347   2.428   2.063   1.349
 2483SOL    HW1 8348   2.465   1.972   1.367
 2483SOL    HW2 8349   2.500   2.121   1.311
 2484SOL     OW 8350   4.530   0.790   6.397
 2484SOL    HW1 8351   4.474   0.712   6.423
 2484SOL    HW2 8352   4.470   0.869   6.379
 2485SOL     OW 8353   0.479   1.679   6.978
 2485SOL    HW1 8354   0.539   1.674   0.040
 2485SOL    HW2 8355   0.389   1.642   7.001
 2486SOL     OW 8356   6.416   6.066   3.242
 2486SOL    HW1 8357   6.468   6.103   3.165
 2486SOL    HW2 8358   6.433   6.121   3.323
 2487SOL     OW 8359   4.254   6.264   6.968
 2487SOL    HW1 8360   4.315   6.303   6.898
 2487SOL    HW2 8361   4.208   6.184   6.931
 2488SOL     OW 8362   0.343   3.892   0.501
 2488SOL    HW1 8363   0.426   3.904   0.555
 2488SOL    HW2 8364   0.341   3.959   0.427
 2489SOL     OW 8365   6.324   5.718   4.847
 2489SOL    HW1 8366   6.281   5.627   4.846
 2489SOL    HW2 8367   6.383   5.726   4.927
 2490SOL     OW 8368   2.889   6.006   2.084
 2490SOL    HW1 8369   2.930   6.079   2.139
 2490SOL    HW2 8370   2.915   6.018   1.988
 2491SOL     OW 8371   4.122   4.675   1.903
 2491SOL    HW1 8372   4.214   4.654   1.935
 2491SOL    HW2 8373   4.126   4.747   1.834
 2492SOL     OW 8374   6.811   5.345   1.673
 2492SOL    HW1 8375   6.908   5.347   1.649
 2492SOL    HW2 8376   6.782   5.438   1.697
 2493SOL     OW 8377   6.281   6.131   0.798
 2493SOL    HW1 8378   6.318   6.209   0.748
 2493SOL    HW2 8379   6.217   6.082   0.740
 2494SOL     OW 8380   6.755   4.046   1.091
 2494SOL    HW1 8381   6.824   4.071   1.023
 2494SOL    HW2 8382   6.770   4.100   1.174
 2495SOL     OW 8383   6.770   3.129   2.183
 2495SOL    HW1 8384   6.831   3.056   2.213
 2495SOL    HW2 8385   6.675   3.099   2.188
 2496SOL     OW 8386   5.429   3.885   5.729
 2496SOL    HW1 8387   5.438   3.983   5.744
 2496SOL    HW2 8388   5.335   3.864   5.702
 2497SOL     OW 8389   0.585   6.984   4.169
 2497SOL    HW1 8390   0.682   6.983   4.197
 2497SOL    HW2 8391   0.553   6.890   4.158
 2498SOL     OW 8392   2.080   3.580   4.739
 2498SOL    HW1 8393   2.111   3.664   4.784
 2498SOL    HW2 8394   2.157   3.536   4.694
 2499SOL     OW 8395   5.743   3.294   1.651
 2499SOL    HW1 8396   5.711   3.385   1.624
 2499SOL    HW2 8397   5.714   3.228   1.582
 2500SOL     OW 8398   3.285   3.393   2.192
 2500SOL    HW1 8399   3.381   3.396   2.164
 2500SOL    HW2 8400   3.275   3.435   2.282
 2501SOL     OW 8401   6.363   5.318   4.872
 2501SOL    HW1 8402   6.311   5.233   4.861
 2501SOL    HW2 8403   6.457   5.305   4.842
 2502SOL     OW 8404   2.816   5.950   3.779
 2502SOL    HW1 8405   2.800   5.899   3.863
 2502SOL    HW2 8406   2.730   5.963   3.730
 2503SOL     OW 8407   2.270   0.383   5.286
 2503SOL    HW1 8408   2.321   0.340   5.360
 2503SOL    HW2 8409   2.301   0.478   5.275
 2504SOL     OW 8410   4.011   0.802   3.186
 2504SOL    HW1 8411   4.077   0.761   3.249
 2504SOL    HW2 8412   3.983   0.891   3.220
 2505SOL     OW 8413   5.476   4.778   4.178
 2505SOL    HW1 8414   5.460   4.777   4.079
 2505SOL    HW2 8415   5.564   4.734   4.197
 2506SOL     OW 8416   6.252   4.885   6.130
 2506SOL    HW1 8417   6.272   4.862   6.226
 2506SOL    HW2 8418   6.319   4.950   6.097
 2507SOL     OW 8419   6.062   3.666   4.059
 2507SOL    HW1 8420   6.052   3.618   3.972
 2507SOL    HW2 8421   5.993   3.738   4.065
 2508SOL     OW 8422   5.674   1.003   3.935
 2508SOL    HW1 8423   5.673   1.081   3.872
 2508SOL    HW2 8424   5.763   0.998   3.981
 2509SOL     OW 8425   0.443   2.971   6.046
 2509SOL    HW1 8426   0.385   3.039   6.000
 2509SOL    HW2 8427   0.512   2.939   5.982
 2510SOL     OW 8428   2.991   3.744   2.474
 2510SOL    HW1 8429   3.065   3.735   2.407
 2510SOL    HW2 8430   2.936   3.660   2.475
 2511SOL     OW 8431   2.502   1.046   4.520
 2511SOL    HW1 8432   2.470   1.066   4.428
 2511SOL    HW2 8433   2.590   0.998   4.515
 2512SOL     OW 8434   3.446   4.967   3.521
 2512SOL    HW1 8435   3.451   4.999   3.616
 2512SOL    HW2 8436   3.539   4.949   3.488
 2513SOL     OW 8437   1.879   5.895   6.437
 2513SOL    HW1 8438   1.837   5.896   6.528
 2513SOL    HW2 8439   1.858   5.981   6.390
 2514SOL     OW 8440   0.739   2.442   2.763
 2514SOL    HW1 8441   0.758   2.540   2.767
 2514SOL    HW2 8442   0.681   2.422   2.684
 2515SOL     OW 8443   6.830   1.777   1.298
 2515SOL    HW1 8444   6.736   1.749   1.320
 2515SOL    HW2 8445   6.868   1.714   1.231
 2516SOL     OW 8446   6.805   2.607   4.902
 2516SOL    HW1 8447   6.850   2.690   4.937
 2516SOL    HW2 8448   6.808   2.536   4.972
 2517SOL     OW 8449   0.248   1.454   4.710
 2517SOL    HW1 8450   0.260   1.551   4.729
 2517SOL    HW2 8451   0.230   1.405   4.795
 2518SOL     OW 8452   3.385   3.714   1.450
 2518SOL    HW1 8453   3.454   3.786   1.459
 2518SOL    HW2 8454   3.305   3.737   1.505
 2519SOL     OW 8455   1.486   1.211   0.397
 2519SOL    HW1 8456   1.544   1.286   0.366
 2519SOL    HW2 8457   1.393   1.246   0.415
 2520SOL     OW 8458   3.126   2.933   1.302
 2520SOL    HW1 8459   3.038   2.959   1.342
 2520SOL    HW2 8460   3.162   3.009   1.248
 2521SOL     OW 8461   5.199   1.066   5.079
 2521SOL    HW1 8462   5.280   1.090   5.133
 2521SOL    HW2 8463   5.199   1.121   4.995
 2522SOL     OW 8464   1.690   1.795   0.135
 2522SOL    HW1 8465   1.729   1.774   0.225
 2522SOL    HW2 8466   1.754   1.765   0.063
 2523SOL     OW 8467   1.029   5.958   5.729
 2523SOL    HW1 8468   0.970   5.878   5.718
 2523SOL    HW2 8469   1.000   6.030   5.667
 2524SOL     OW 8470   0.484   2.219   4.676
 2524SOL    HW1 8471   0.439   2.169   4.750
 2524SOL    HW2 8472   0.563   2.166   4.644
 2525SOL     OW 8473   6.536   2.859   6.212
 2525SOL    HW1 8474   6.513   2.785   6.149
 2525SOL    HW2 8475   6.529   2.826   6.306
 2526SOL     OW 8476   2.002   1.215   0.734
 2526SOL    HW1 8477   2.085   1.261   0.765
 2526SOL    HW2 8478   1.961   1.165   0.810
 2527SOL     OW 8479   3.935   5.124   0.255
 2527SOL    HW1 8480   4.022   5.152   0.295
 2527SOL    HW2 8481   3.863   5.187   0.283
 2528SOL     OW 8482   4.440   5.341   5.948
 2528SOL    HW1 8483   4.454   5.439   5.958
 2528SOL    HW2 8484   4.401   5.304   6.033
 2529SOL     OW 8485   0.166   5.918   5.316
 2529SOL    HW1 8486   0.196   5.971   5.237
 2529SOL    HW2 8487   0.237   5.853   5.341
 2530SOL     OW 8488   1.996   5.863   6.862
 2530SOL    HW1 8489   1.993   5.951   6.909
 2530SOL    HW2 8490   2.091   5.835   6.848
 2531SOL     OW 8491   0.384   4.075   6.303
 2531SOL    HW1 8492   0.294   4.088   6.260
 2531SOL    HW2 8493   0.439   4.158   6.292
 2532SOL     OW 8494   5.641   6.009   2.866
 2532SOL    HW1 8495   5.694   5.953   2.802
 2532SOL    HW2 8496   5.599   5.950   2.935
 2533SOL     OW 8497   4.630   0.607   3.914
 2533SOL    HW1 8498   4.573   0.637   3.991
 2533SOL    HW2 8499   4.682   0.526   3.941
 2534SOL     OW 8500   4.629   1.609   2.505
 2534SOL    HW1 8501   4.603   1.519   2.469
 2534SOL    HW2 8502   4.592   1.681   2.446
 2535SOL     OW 8503   3.213   2.778   6.175
 2535SOL    HW1 8504   3.145   2.795   6.103
 2535SOL    HW2 8505   3.188   2.828   6.257
 2536SOL     OW 8506   0.835   0.158   0.833
 2536SOL    HW1 8507   0.773   0.171   0.911
 2536SOL    HW2 8508   0.812   0.073   0.786
 2537SOL     OW 8509   4.281   6.687   4.675
 2537SOL    HW1 8510   4.268   6.710   4.578
 2537SOL    HW2 8511   4.213   6.620   4.703
 2538SOL     OW 8512   5.580   3.962   3.379
 2538SOL    HW1 8513   5.510   4.019   3.422
 2538SOL    HW2 8514   5.589   3.876   3.430
 2539SOL     OW 8515   4.927   2.119   5.067
 2539SOL    HW1 8516   4.842   2.097   5.115
 2539SOL    HW2 8517   4.932   2.218   5.052
 2540SOL     OW 8518   2.619   2.076   1.684
 2540SOL    HW1 8519   2.526   2.054   1.713
 2540SOL    HW2 8520   2.631   2.175   1.683
 2541SOL     OW 8521   2.982   0.213   4.010
 2541SOL    HW1 8522   2.912   0.167   3.956
 2541SOL    HW2 8523   3.019   0.150   4.078
 2542SOL     OW 8524   2.015   5.703   5.733
 2542SOL    HW1 8525   1.922   5.738   5.720
 2542SOL    HW2 8526   2.036   5.637   5.661
 2543SOL     OW 8527   1.135   0.772   3.953
 2543SOL    HW1 8528   1.161   0.693   4.009
 2543SOL    HW2 8529   1.060   0.821   3.997
 2544SOL     OW 8530   0.617   5.829   5.861
 2544SOL    HW1 8531   0.668   5.769   5.922
 2544SOL    HW2 8532   0.548   5.879   5.914
 2545SOL     OW 8533   2.572   5.706   2.879
 2545SOL    HW1 8534   2.543   5.704   2.974
 2545SOL    HW2 8535   2.531   5.785   2.833
 2546SOL     OW 8536   6.449   0.802   1.955
 2546SOL    HW1 8537   6.501   0.773   1.875
 2546SOL    HW2 8538   6.511   0.811   2.033
 2547SOL     OW 8539   0.424   3.703   4.885
 2547SOL    HW1 8540   0.384   3.615   4.860
 2547SOL    HW2 8541   0.467   3.744   4.805
 2548SOL     OW 8542   0.445   0.969   6.303
 2548SOL    HW1 8543   0.377   0.897   6.320
 2548SOL    HW2 8544   0.533   0.940   6.341
 2549SOL     OW 8545   5.627   2.049   3.053
 2549SOL    HW1 8546   5.630   2.025   3.150
 2549SOL    HW2 8547   5.607   1.967   2.999
 2550SOL     OW 8548   5.543   5.141   6.798
 2550SOL    HW1 8549   5.635   5.102   6.807
 2550SOL    HW2 8550   5.497   5.137   6.887
 2551SOL     OW 8551   1.402   4.662   6.491
 2551SOL    HW1 8552   1.495   4.676   6.524
 2551SOL    HW2 8553   1.395   4.571   6.450
 2552SOL     OW 8554   1.478   5.821   3.573
 2552SOL    HW1 8555   1.563   5.853   3.531
 2552SOL    HW2 8556   1.455   5.730   3.538
 2553SOL     OW 8557   4.658   3.261   0.717
 2553SOL    HW1 8558   4.559   3.274   0.725
 2553SOL    HW2 8559   4.704   3.349   0.727
 2554SOL     OW 8560   1.115   1.956   0.674
 2554SOL    HW1 8561   1.123   2.015   0.754
 2554SOL    HW2 8562   1.022   1.919   0.669
 2555SOL     OW 8563   0.090   0.287   6.138
 2555SOL    HW1 8564   0.112   0.192   6.116
 2555SOL    HW2 8565   0.160   0.325   6.198
 2556SOL     OW 8566   4.144   4.822   0.314
 2556SOL    HW1 8567   4.091   4.821   0.399
 2556SOL    HW2 8568   4.240   4.835   0.336
 2557SOL     OW 8569   1.964   5.120   6.758
 2557SOL    HW1 8570   2.052   5.131   6.711
 2557SOL    HW2 8571   1.933   5.025   6.749
 2558SOL     OW 8572   4.105   0.469   5.533
 2558SOL    HW1 8573   4.095   0.428   5.443
 2558SOL    HW2 8574   4.053   0.416   5.601
 2559SOL     OW 8575   0.500   5.120   5.089
 2559SOL    HW1 8576   0.429   5.189   5.101
 2559SOL    HW2 8577   0.589   5.166   5.081
 2560SOL     OW 8578   6.308   0.612   0.690
 2560SOL    HW1 8579   6.217   0.648   0.710
 2560SOL    HW2 8580   6.377   0.676   0.723
 2561SOL     OW 8581   3.242   5.966   4.141
 2561SOL    HW1 8582   3.329   5.935   4.105
 2561SOL    HW2 8583   3.201   5.894   4.197
 2562SOL     OW 8584   2.062   3.901   0.492
 2562SOL    HW1 8585   2.017   3.951   0.417
 2562SOL    HW2 8586   2.004   3.826   0.522
 2563SOL     OW 8587   1.543   0.665   1.937
 2563SOL    HW1 8588   1.585   0.585   1.894
 2563SOL    HW2 8589   1.593   0.747   1.910
 2564SOL     OW 8590   1.558   6.120   2.308
 2564SOL    HW1 8591   1.590   6.067   2.230
 2564SOL    HW2 8592   1.523   6.209   2.278
 2565SOL     OW 8593   0.806   0.497   1.188
 2565SOL    HW1 8594   0.748   0.415   1.186
 2565SOL    HW2 8595   0.885   0.480   1.247
 2566SOL     OW 8596   2.256   6.516   4.857
 2566SOL    HW1 8597   2.193   6.497   4.782
 2566SOL    HW2 8598   2.346   6.540   4.820
 2567SOL     OW 8599   1.126   0.599   0.648
 2567SOL    HW1 8600   1.067   0.522   0.675
 2567SOL    HW2 8601   1.084   0.685   0.677
 2568SOL     OW 8602   5.664   3.609   0.555
 2568SOL    HW1 8603   5.707   3.585   0.642
 2568SOL    HW2 8604   5.719   3.574   0.479
 2569SOL     OW 8605   2.302   0.934   2.326
 2569SOL    HW1 8606   2.385   0.985   2.348
 2569SOL    HW2 8607   2.241   0.991   2.270
 2570SOL     OW 8608   5.919   2.257   6.401
 2570SOL    HW1 8609   5.848   2.293   6.340
 2570SOL    HW2 8610   6.004   2.246   6.351
 2571SOL     OW 8611   1.087   4.337   4.049
 2571SOL    HW1 8612   1.170   4.368   4.002
 2571SOL    HW2 8613   1.107   4.252   4.098
 2572SOL     OW 8614   1.454   4.829   3.425
 2572SOL    HW1 8615   1.459   4.926   3.399
 2572SOL    HW2 8616   1.382   4.784   3.373
 2573SOL     OW 8617   1.360   0.041   0.127
 2573SOL    HW1 8618   1.264   0.048   0.151
 2573SOL    HW2 8619   1.374   6.979   0.069
 2574SOL     OW 8620   6.570   3.889   0.756
 2574SOL    HW1 8621   6.582   3.794   0.785
 2574SOL    HW2 8622   6.559   3.948   0.837
 2575SOL     OW 8623   0.773   6.710   5.631
 2575SOL    HW1 8624   0.765   6.758   5.543
 2575SOL    HW2 8625   0.861   6.734   5.673
 2576SOL     OW 8626   4.649   6.459   5.771
 2576SOL    HW1 8627   4.633   6.549   5.813
 2576SOL    HW2 8628   4.563   6.422   5.738
 2577SOL     OW 8629   1.582   3.517   2.600
 2577SOL    HW1 8630   1.549   3.429   2.635
 2577SOL    HW2 8631   1.617   3.506   2.507
 2578SOL     OW 8632   4.215   1.888   1.789
 2578SOL    HW1 8633   4.269   1.860   1.710
 2578SOL    HW2 8634   4.121   1.906   1.761
 2579SOL     OW 8635   0.428   6.191   3.115
 2579SOL    HW1 8636   0.442   6.228   3.206
 2579SOL    HW2 8637   0.506   6.135   3.088
 2580SOL     OW 8638   3.014   2.198   5.503
 2580SOL    HW1 8639   3.094   2.199   5.444
 2580SOL    HW2 8640   3.000   2.289   5.542
 2581SOL     OW 8641   2.996   0.066   5.946
 2581SOL    HW1 8642   3.017   0.119   6.028
 2581SOL    HW2 8643   3.023   6.989   5.959
 2582SOL     OW 8644   0.155   3.941   0.874
 2582SOL    HW1 8645   0.152   3.882   0.794
 2582SOL    HW2 8646   0.154   3.885   0.957
 2583SOL     OW 8647   5.414   0.679   0.729
 2583SOL    HW1 8648   5.320   0.690   0.760
 2583SOL    HW2 8649   5.423   0.713   0.635
 2584SOL     OW 8650   3.478   4.188   6.638
 2584SOL    HW1 8651   3.559   4.156   6.590
 2584SOL    HW2 8652   3.502   4.212   6.732
 2585SOL     OW 8653   2.179   5.278   0.134
 2585SOL    HW1 8654   2.207   5.334   0.212
 2585SOL    HW2 8655   2.224   5.312   0.051
 2586SOL     OW 8656   1.935   1.178   2.872
 2586SOL    HW1 8657   1.998   1.191   2.949
 2586SOL    HW2 8658   1.848   1.224   2.892
 2587SOL     OW 8659   5.917   1.327   4.237
 2587SOL    HW1 8660   5.901   1.413   4.286
 2587SOL    HW2 8661   5.980   1.270   4.290
 2588SOL     OW 8662   4.764   1.515   6.574
 2588SOL    HW1 8663   4.858   1.491   6.599
 2588SOL    HW2 8664   4.701   1.479   6.643
 2589SOL     OW 8665   1.710   6.234   0.431
 2589SOL    HW1 8666   1.787   6.201   0.377
 2589SOL    HW2 8667   1.744   6.284   0.511
 2590SOL     OW 8668   2.648   5.123   0.724
 2590SOL    HW1 8669   2.587   5.054   0.686
 2590SOL    HW2 8670   2.609   5.214   0.707
 2591SOL     OW 8671   5.024   6.467   3.409
 2591SOL    HW1 8672   5.095   6.421   3.462
 2591SOL    HW2 8673   4.936   6.459   3.457
 2592SOL     OW 8674   3.321   3.390   0.729
 2592SOL    HW1 8675   3.420   3.382   0.738
 2592SOL    HW2 8676   3.286   3.453   0.798
 2593SOL     OW 8677   2.848   4.757   6.647
 2593SOL    HW1 8678   2.766   4.814   6.641
 2593SOL    HW2 8679   2.853   4.696   6.568
 2594SOL     OW 8680   2.172   3.144   3.347
 2594SOL    HW1 8681   2.158   3.143   3.248
 2594SOL    HW2 8682   2.234   3.071   3.373
 2595SOL     OW 8683   1.354   1.028   2.781
 2595SOL    HW1 8684   1.403   1.003   2.697
 2595SOL    HW2 8685   1.395   1.110   2.821
 2596SOL     OW 8686   0.206   1.187   0.947
 2596SOL    HW1 8687   0.167   1.143   1.027
 2596SOL    HW2 8688   0.283   1.245   0.974
 2597SOL     OW 8689   6.498   5.982   0.743
 2597SOL    HW1 8690   6.434   6.057   0.758
 2597SOL    HW2 8691   6.447   5.895   0.741
 2598SOL     OW 8692   4.826   2.945   2.311
 2598SOL    HW1 8693   4.829   3.039   2.347
 2598SOL    HW2 8694   4.778   2.945   2.223
 2599SOL     OW 8695   2.261   5.501   2.053
 2599SOL    HW1 8696   2.321   5.425   2.078
 2599SOL    HW2 8697   2.275   5.577   2.116
 2600SOL     OW 8698   5.423   5.352   4.224
 2600SOL    HW1 8699   5.374   5.359   4.311
 2600SOL    HW2 8700   5.510   5.401   4.231
 2601SOL     OW 8701   0.002   0.623   3.973
 2601SOL    HW1 8702   6.993   0.717   3.992
 2601SOL    HW2 8703   0.075   0.622   3.904
 2602SOL     OW 8704   1.298   4.552   2.919
 2602SOL    HW1 8705   1.346   4.512   2.997
 2602SOL    HW2 8706   1.309   4.492   2.839
 2603SOL     OW 8707   1.426   5.994   1.780
 2603SOL    HW1 8708   1.334   6.034   1.775
 2603SOL    HW2 8709   1.423   5.899   1.750
 2604SOL     OW 8710   4.888   3.211   2.874
 2604SOL    HW1 8711   4.928   3.154   2.946
 2604SOL    HW2 8712   4.859   3.152   2.798
 2605SOL     OW 8713   1.593   2.603   0.836
 2605SOL    HW1 8714   1.638   2.535   0.778
 2605SOL    HW2 8715   1.662   2.654   0.888
 2606SOL     OW 8716   5.207   4.033   0.652
 2606SOL    HW1 8717   5.153   4.063   0.574
 2606SOL    HW2 8718   5.201   3.933   0.661
 2607SOL     OW 8719   2.641   2.749   1.652
 2607SOL    HW1 8720   2.549   2.787   1.656
 2607SOL    HW2 8721   2.648   2.672   1.715
 2608SOL     OW 8722   3.675   4.960   4.709
 2608SOL    HW1 8723   3.601   4.948   4.775
 2608SOL    HW2 8724   3.756   4.910   4.741
 2609SOL     OW 8725   0.170   1.691   1.394
 2609SOL    HW1 8726   0.161   1.625   1.319
 2609SOL    HW2 8727   0.153   1.783   1.359
 2610SOL     OW 8728   1.733   4.640   4.839
 2610SOL    HW1 8729   1.640   4.670   4.822
 2610SOL    HW2 8730   1.748   4.630   4.938
 2611SOL     OW 8731   5.683   1.835   5.524
 2611SOL    HW1 8732   5.744   1.803   5.452
 2611SOL    HW2 8733   5.591   1.846   5.487
 2612SOL     OW 8734   6.878   6.452   6.983
 2612SOL    HW1 8735   6.891   6.545   6.948
 2612SOL    HW2 8736   6.966   6.417   7.017
 2613SOL     OW 8737   1.958   0.002   0.827
 2613SOL    HW1 8738   1.958   0.086   0.881
 2613SOL    HW2 8739   1.930   0.023   0.733
 2614SOL     OW 8740   6.181   2.127   0.970
 2614SOL    HW1 8741   6.243   2.052   0.948
 2614SOL    HW2 8742   6.188   2.149   1.067
 2615SOL     OW 8743   0.879   3.473   0.133
 2615SOL    HW1 8744   0.925   3.384   0.124
 2615SOL    HW2 8745   0.795   3.473   0.078
 2616SOL     OW 8746   1.252   1.302   5.224
 2616SOL    HW1 8747   1.184   1.375   5.219
 2616SOL    HW2 8748   1.305   1.298   5.140
 2617SOL     OW 8749   5.568   0.157   6.967
 2617SOL    HW1 8750   5.573   0.197   0.040
 2617SOL    HW2 8751   5.473   0.141   6.942
 2618SOL     OW 8752   1.596   0.798   0.114
 2618SOL    HW1 8753   1.533   0.875   0.101
 2618SOL    HW2 8754   1.650   0.813   0.196
 2619SOL     OW 8755   4.621   1.137   2.826
 2619SOL    HW1 8756   4.717   1.111   2.840
 2619SOL    HW2 8757   4.616   1.204   2.752
 2620SOL     OW 8758   5.610   2.404   1.883
 2620SOL    HW1 8759   5.571   2.358   1.804
 2620SOL    HW2 8760   5.683   2.465   1.854
 2621SOL     OW 8761   2.664   6.379   0.786
 2621SOL    HW1 8762   2.631   6.419   0.871
 2621SOL    HW2 8763   2.734   6.438   0.746
 2622SOL     OW 8764   2.461   4.010   6.698
 2622SOL    HW1 8765   2.484   4.072   6.773
 2622SOL    HW2 8766   2.362   3.996   6.695
 2623SOL     OW 8767   0.449   1.750   4.014
 2623SOL    HW1 8768   0.514   1.768   4.088
 2623SOL    HW2 8769   0.493   1.769   3.926
 2624SOL     OW 8770   1.724   1.795   5.253
 2624SOL    HW1 8771   1.676   1.881   5.235
 2624SOL    HW2 8772   1.663   1.732   5.300
 2625SOL     OW 8773   2.874   5.226   6.042
 2625SOL    HW1 8774   2.778   5.214   6.015
 2625SOL    HW2 8775   2.923   5.273   5.970
 2626SOL     OW 8776   6.713   6.637   0.541
 2626SOL    HW1 8777   6.805   6.675   0.553
 2626SOL    HW2 8778   6.702   6.558   0.600
 2627SOL     OW 8779   2.478   0.275   6.119
 2627SOL    HW1 8780   2.477   0.318   6.028
 2627SOL    HW2 8781   2.537   0.195   6.118
 2628SOL     OW 8782   6.825   5.350   1.308
 2628SOL    HW1 8783   6.818   5.442   1.269
 2628SOL    HW2 8784   6.770   5.344   1.391
 2629SOL     OW 8785   3.165   3.462   3.027
 2629SOL    HW1 8786   3.068   3.464   3.003
 2629SOL    HW2 8787   3.176   3.434   3.123
 2630SOL     OW 8788   3.035   0.969   4.789
 2630SOL    HW1 8789   3.108   0.909   4.822
 2630SOL    HW2 8790   3.076   1.049   4.746
 2631SOL     OW 8791   5.152   6.217   0.547
 2631SOL    HW1 8792   5.135   6.255   0.638
 2631SOL    HW2 8793   5.176   6.120   0.555
 2632SOL     OW 8794   4.520   5.124   1.943
 2632SOL    HW1 8795   4.491   5.217   1.969
 2632SOL    HW2 8796   4.551   5.075   2.025
 2633SOL     OW 8797   6.765   2.817   5.834
 2633SOL    HW1 8798   6.730   2.773   5.751
 2633SOL    HW2 8799   6.787   2.746   5.902
 2634SOL     OW 8800   1.731   2.322   6.158
 2634SOL    HW1 8801   1.748   2.243   6.218
 2634SOL    HW2 8802   1.633   2.341   6.154
 2635SOL     OW 8803   4.297   5.393   2.896
 2635SOL    HW1 8804   4.323   5.374   2.801
 2635SOL    HW2 8805   4.333   5.483   2.922
 2636SOL     OW 8806   3.179   6.644   6.192
 2636SOL    HW1 8807   3.259   6.585   6.203
 2636SOL    HW2 8808   3.209   6.738   6.178
 2637SOL     OW 8809   0.011   1.069   2.819
 2637SOL    HW1 8810   6.947   1.116   2.850
 2637SOL    HW2 8811   0.008   0.973   2.848
 2638SOL     OW 8812   0.739   6.308   5.010
 2638SOL    HW1 8813   0.766   6.371   5.084
 2638SOL    HW2 8814   0.820   6.275   4.963
 2639SOL     OW 8815   4.721   5.512   4.755
 2639SOL    HW1 8816   4.694   5.579   4.824
 2639SOL    HW2 8817   4.743   5.559   4.669
 2640SOL     OW 8818   2.010   0.881   3.184
 2640SOL    HW1 8819   2.064   0.944   3.129
 2640SOL    HW2 8820   1.919   0.920   3.199
 2641SOL     OW 8821   5.585   2.479   0.618
 2641SOL    HW1 8822   5.555   2.538   0.693
 2641SOL    HW2 8823   5.681   2.452   0.633
 2642SOL     OW 8824   0.285   0.357   2.983
 2642SOL    HW1 8825   0.376   0.390   3.007
 2642SOL    HW2 8826   0.248   0.304   3.059
 2643SOL     OW 8827   1.997   4.469   4.054
 2643SOL    HW1 8828   1.980   4.485   4.152
 2643SOL    HW2 8829   1.992   4.555   4.005
 2644SOL     OW 8830   5.939   5.532   3.431
 2644SOL    HW1 8831   5.981   5.442   3.443
 2644SOL    HW2 8832   5.843   5.528   3.460
 2645SOL     OW 8833   4.757   5.152   2.517
 2645SOL    HW1 8834   4.798   5.199   2.439
 2645SOL    HW2 8835   4.763   5.209   2.599
 2646SOL     OW 8836   0.916   1.719   6.836
 2646SOL    HW1 8837   0.857   1.674   6.769
 2646SOL    HW2 8838   0.954   1.650   6.899
 2647SOL     OW 8839   4.329   0.330   3.412
 2647SOL    HW1 8840   4.376   0.414   3.386
 2647SOL    HW2 8841   4.384   0.280   3.478
 2648SOL     OW 8842   1.942   0.455   5.911
 2648SOL    HW1 8843   1.900   0.536   5.952
 2648SOL    HW2 8844   1.988   0.402   5.982
 2649SOL     OW 8845   6.065   1.843   3.814
 2649SOL    HW1 8846   5.969   1.866   3.803
 2649SOL    HW2 8847   6.121   1.924   3.797
 2650SOL     OW 8848   1.798   6.994   4.523
 2650SOL    HW1 8849   1.875   6.975   4.462
 2650SOL    HW2 8850   1.713   6.982   4.473
 2651SOL     OW 8851   3.243   1.954   2.785
 2651SOL    HW1 8852   3.324   1.973   2.730
 2651SOL    HW2 8853   3.261   1.875   2.844
 2652SOL     OW 8854   4.739   3.428   6.259
 2652SOL    HW1 8855   4.821   3.484   6.266
 2652SOL    HW2 8856   4.701   3.414   6.350
 2653SOL     OW 8857   2.294   6.546   6.959
 2653SOL    HW1 8858   2.269   6.464   7.011
 2653SOL    HW2 8859   2.369   6.593   7.006
 2654SOL     OW 8860   6.664   0.413   1.025
 2654SOL    HW1 8861   6.735   0.454   1.082
 2654SOL    HW2 8862   6.702   0.334   0.975
 2655SOL     OW 8863   5.106   6.621   3.769
 2655SOL    HW1 8864   5.186   6.674   3.797
 2655SOL    HW2 8865   5.058   6.669   3.696
 2656SOL     OW 8866   4.486   6.817   5.156
 2656SOL    HW1 8867   4.478   6.797   5.253
 2656SOL    HW2 8868   4.582   6.825   5.131
 2657SOL     OW 8869   1.806   3.364   5.633
 2657SOL    HW1 8870   1.832   3.321   5.547
 2657SOL    HW2 8871   1.781   3.459   5.616
 2658SOL     OW 8872   3.791   4.374   0.891
 2658SOL    HW1 8873   3.789   4.311   0.813
 2658SOL    HW2 8874   3.843   4.334   0.965
 2659SOL     OW 8875   0.529   2.059   5.590
 2659SOL    HW1 8876   0.449   2.112   5.560
 2659SOL    HW2 8877   0.550   1.990   5.522
 2660SOL     OW 8878   1.375   1.812   0.582
 2660SOL    HW1 8879   1.289   1.863   0.587
 2660SOL    HW2 8880   1.377   1.758   0.497
 2661SOL     OW 8881   2.163   1.053   1.310
 2661SOL    HW1 8882   2.098   1.066   1.385
 2661SOL    HW2 8883   2.132   1.106   1.231
 2662SOL     OW 8884   2.608   1.570   1.641
 2662SOL    HW1 8885   2.636   1.519   1.723
 2662SOL    HW2 8886   2.569   1.507   1.574
 2663SOL     OW 8887   3.820   0.216   0.993
 2663SOL    HW1 8888   3.891   0.173   0.938
 2663SOL    HW2 8889   3.731   0.202   0.950
 2664SOL     OW 8890   5.061   3.451   5.578
 2664SOL    HW1 8891   5.046   3.486   5.671
 2664SOL    HW2 8892   4.975   3.454   5.527
 2665SOL     OW 8893   0.991   3.481   4.141
 2665SOL    HW1 8894   0.912   3.502   4.198
 2665SOL    HW2 8895   1.071   3.467   4.200
 2666SOL     OW 8896   1.949   3.809   1.666
 2666SOL    HW1 8897   1.928   3.713   1.651
 2666SOL    HW2 8898   1.875   3.852   1.717
 2667SOL     OW 8899   6.116   2.478   4.616
 2667SOL    HW1 8900   6.213   2.478   4.595
 2667SOL    HW2 8901   6.102   2.442   4.708
 2668SOL     OW 8902   5.808   0.858   4.199
 2668SOL    HW1 8903   5.752   0.807   4.264
 2668SOL    HW2 8904   5.876   0.797   4.158
 2669SOL     OW 8905   2.484   1.724   2.052
 2669SOL    HW1 8906   2.501   1.630   2.019
 2669SOL    HW2 8907   2.563   1.781   2.030
 2670SOL     OW 8908   0.297   0.118   1.023
 2670SOL    HW1 8909   0.199   0.099   1.024
 2670SOL    HW2 8910   0.312   0.217   1.022
 2671SOL     OW 8911   5.331   4.275   6.263
 2671SOL    HW1 8912   5.431   4.276   6.267
 2671SOL    HW2 8913   5.298   4.367   6.239
 2672SOL     OW 8914   1.863   1.492   2.312
 2672SOL    HW1 8915   1.922   1.513   2.391
 2672SOL    HW2 8916   1.786   1.556   2.312
 2673SOL     OW 8917   3.291   0.708   3.156
 2673SOL    HW1 8918   3.363   0.776   3.175
 2673SOL    HW2 8919   3.201   0.751   3.165
 2674SOL     OW 8920   5.939   6.051   3.486
 2674SOL    HW1 8921   5.945   5.954   3.507
 2674SOL    HW2 8922   6.019   6.079   3.434
 2675SOL     OW 8923   4.760   1.021   4.172
 2675SOL    HW1 8924   4.841   1.054   4.124
 2675SOL    HW2 8925   4.687   1.089   4.167
 2676SOL     OW 8926   3.966   3.738   5.558
 2676SOL    HW1 8927   3.881   3.760   5.510
 2676SOL    HW2 8928   4.037   3.714   5.492
 2677SOL     OW 8929   1.508   5.951   1.198
 2677SOL    HW1 8930   1.464   5.864   1.175
 2677SOL    HW2 8931   1.605   5.945   1.174
 2678SOL     OW 8932   3.407   2.047   1.995
 2678SOL    HW1 8933   3.496   2.094   1.995
 2678SOL    HW2 8934   3.416   1.958   2.040
 2679SOL     OW 8935   2.153   3.918   2.622
 2679SOL    HW1 8936   2.133   3.831   2.575
 2679SOL    HW2 8937   2.198   3.980   2.557
 2680SOL     OW 8938   6.146   1.788   6.432
 2680SOL    HW1 8939   6.109   1.839   6.354
 2680SOL    HW2 8940   6.071   1.743   6.481
 2681SOL     OW 8941   2.381   2.593   3.352
 2681SOL    HW1 8942   2.451   2.526   3.375
 2681SOL    HW2 8943   2.295   2.569   3.396
 2682SOL     OW 8944   3.326   3.952   2.557
 2682SOL    HW1 8945   3.423   3.974   2.558
 2682SOL    HW2 8946   3.288   3.959   2.649
 2683SOL     OW 8947   1.707   3.079   0.804
 2683SOL    HW1 8948   1.613   3.050   0.820
 2683SOL    HW2 8949   1.728   3.159   0.859
 2684SOL     OW 8950   5.942   0.249   4.011
 2684SOL    HW1 8951   6.028   0.272   4.056
 2684SOL    HW2 8952   5.907   0.330   3.963
 2685SOL     OW 8953   1.622   6.571   6.002
 2685SOL    HW1 8954   1.575   6.639   6.059
 2685SOL    HW2 8955   1.689   6.522   6.058
 2686SOL     OW 8956   2.227   2.489   6.035
 2686SOL    HW1 8957   2.317   2.524   6.062
 2686SOL    HW2 8958   2.178   2.457   6.115
 2687SOL     OW 8959   3.748   2.529   1.675
 2687SOL    HW1 8960   3.726   2.607   1.734
 2687SOL    HW2 8961   3.690   2.451   1.701
 2688SOL     OW 8962   4.685   2.214   0.280
 2688SOL    HW1 8963   4.726   2.287   0.335
 2688SOL    HW2 8964   4.612   2.252   0.224
 2689SOL     OW 8965   0.041   4.105   2.413
 2689SOL    HW1 8966   0.098   4.058   2.346
 2689SOL    HW2 8967   6.982   4.047   2.437
 2690SOL     OW 8968   5.222   1.269   4.536
 2690SOL    HW1 8969   5.154   1.197   4.528
 2690SOL    HW2 8970   5.180   1.357   4.512
 2691SOL     OW 8971   5.311   3.550   3.839
 2691SOL    HW1 8972   5.394   3.602   3.858
 2691SOL    HW2 8973   5.241   3.574   3.906
 2692SOL     OW 8974   1.412   5.679   1.094
 2692SOL    HW1 8975   1.464   5.613   1.040
 2692SOL    HW2 8976   1.391   5.640   1.183
 2693SOL     OW 8977   0.798   6.165   2.474
 2693SOL    HW1 8978   0.707   6.186   2.437
 2693SOL    HW2 8979   0.868   6.208   2.416
 2694SOL     OW 8980   2.288   0.534   2.995
 2694SOL    HW1 8981   2.361   0.491   3.049
 2694SOL    HW2 8982   2.252   0.468   2.929
 2695SOL     OW 8983   6.756   6.107   3.251
 2695SOL    HW1 8984   6.743   6.048   3.331
 2695SOL    HW2 8985   6.723   6.059   3.169
 2696SOL     OW 8986   3.446   4.750   6.283
 2696SOL    HW1 8987   3.522   4.814   6.297
 2696SOL    HW2 8988   3.383   4.789   6.216
 2697SOL     OW 8989   4.741   2.712   0.654
 2697SOL    HW1 8990   4.811   2.783   0.642
 2697SOL    HW2 8991   4.664   2.731   0.593
 2698SOL     OW 8992   1.923   5.590   0.198
 2698SOL    HW1 8993   1.982   5.666   0.224
 2698SOL    HW2 8994   1.965   5.504   0.226
 2699SOL     OW 8995   2.815   6.749   2.809
 2699SOL    HW1 8996   2.873   6.681   2.763
 2699SOL    HW2 8997   2.764   6.704   2.882
 2700SOL     OW 8998   4.549   1.945   1.172
 2700SOL    HW1 8999   4.503   1.947   1.083
 2700SOL    HW2 9000   4.625   2.010   1.172
 2701SOL     OW 9001   5.090   3.971   5.271
 2701SOL    HW1 9002   5.178   3.925   5.280
 2701SOL    HW2 9003   5.067   4.016   5.358
 2702SOL     OW 9004   1.534   1.788   4.945
 2702SOL    HW1 9005   1.438   1.817   4.936
 2702SOL    HW2 9006   1.538   1.703   4.997
 2703SOL     OW 9007   2.104   6.232   1.649
 2703SOL    HW1 9008   2.074   6.140   1.624
 2703SOL    HW2 9009   2.142   6.230   1.741
 2704SOL     OW 9010   4.567   0.674   3.661
 2704SOL    HW1 9011   4.497   0.745   3.653
 2704SOL    HW2 9012   4.587   0.658   3.758
 2705SOL     OW 9013   1.357   0.153   5.725
 2705SOL    HW1 9014   1.330   0.201   5.808
 2705SOL    HW2 9015   1.275   0.129   5.672
 2706SOL     OW 9016   0.303   4.600   4.349
 2706SOL    HW1 9017   0.312   4.608   4.249
 2706SOL    HW2 9018   0.335   4.510   4.378
 2707SOL     OW 9019   4.408   1.028   2.968
 2707SOL    HW1 9020   4.405   1.053   3.065
 2707SOL    HW2 9021   4.489   1.070   2.926
 2708SOL     OW 9022   5.520   3.246   5.527
 2708SOL    HW1 9023   5.518   3.346   5.524
 2708SOL    HW2 9024   5.458   3.213   5.599
 2709SOL     OW 9025   4.874   1.203   5.777
 2709SOL    HW1 9026   4.835   1.155   5.855
 2709SOL    HW2 9027   4.811   1.274   5.747
 2710SOL     OW 9028   1.109   2.966   4.120
 2710SOL    HW1 9029   1.192   2.982   4.174
 2710SOL    HW2 9030   1.061   3.052   4.105
 2711SOL     OW 9031   5.130   0.923   1.544
 2711SOL    HW1 9032   5.154   0.865   1.467
 2711SOL    HW2 9033   5.067   0.874   1.604
 2712SOL     OW 9034   5.021   6.291   1.959
 2712SOL    HW1 9035   4.967   6.303   2.042
 2712SOL    HW2 9036   5.064   6.378   1.934
 2713SOL     OW 9037   3.807   4.723   5.440
 2713SOL    HW1 9038   3.868   4.740   5.362
 2713SOL    HW2 9039   3.862   4.705   5.522
 2714SOL     OW 9040   2.836   4.465   6.030
 2714SOL    HW1 9041   2.846   4.368   6.049
 2714SOL    HW2 9042   2.906   4.517   6.080
 2715SOL     OW 9043   4.582   6.646   0.214
 2715SOL    HW1 9044   4.670   6.661   0.259
 2715SOL    HW2 9045   4.549   6.731   0.174
 2716SOL     OW 9046   4.617   1.120   2.198
 2716SOL    HW1 9047   4.701   1.165   2.228
 2716SOL    HW2 9048   4.630   1.021   2.201
 2717SOL     OW 9049   0.339   1.672   2.312
 2717SOL    HW1 9050   0.249   1.641   2.279
 2717SOL    HW2 9051   0.359   1.629   2.400
 2718SOL     OW 9052   6.542   1.071   6.019
 2718SOL    HW1 9053   6.531   1.050   6.116
 2718SOL    HW2 9054   6.469   1.027   5.967
 2719SOL     OW 9055   0.951   4.391   3.787
 2719SOL    HW1 9056   0.941   4.484   3.751
 2719SOL    HW2 9057   1.011   4.392   3.866
 2720SOL     OW 9058   2.158   5.246   6.287
 2720SOL    HW1 9059   2.182   5.262   6.191
 2720SOL    HW2 9060   2.202   5.163   6.319
 2721SOL     OW 9061   2.366   5.889   3.471
 2721SOL    HW1 9062   2.443   5.953   3.476
 2721SOL    HW2 9063   2.333   5.870   3.563
 2722SOL     OW 9064   3.501   4.273   6.903
 2722SOL    HW1 9065   3.486   4.213   6.981
 2722SOL    HW2 9066   3.470   4.365   6.926
 2723SOL     OW 9067   4.500   5.309   0.366
 2723SOL    HW1 9068   4.467   5.282   0.456
 2723SOL    HW2 9069   4.478   5.406   0.351
 2724SOL     OW 9070   6.896   6.128   1.034
 2724SOL    HW1 9071   6.872   6.226   1.033
 2724SOL    HW2 9072   6.835   6.079   0.972
 2725SOL     OW 9073   5.768   3.823   2.911
 2725SOL    HW1 9074   5.717   3.906   2.935
 2725SOL    HW2 9075   5.749   3.752   2.979
 2726SOL     OW 9076   6.430   2.651   2.371
 2726SOL    HW1 9077   6.432   2.709   2.453
 2726SOL    HW2 9078   6.507   2.676   2.311
 2727SOL     OW 9079   1.384   4.637   3.906
 2727SOL    HW1 9080   1.414   4.674   3.818
 2727SOL    HW2 9081   1.295   4.676   3.930
 2728SOL     OW 9082   4.697   4.927   6.146
 2728SOL    HW1 9083   4.646   4.860   6.092
 2728SOL    HW2 9084   4.701   5.013   6.096
 2729SOL     OW 9085   0.289   0.257   0.657
 2729SOL    HW1 9086   0.233   0.255   0.574
 2729SOL    HW2 9087   0.231   0.281   0.735
 2730SOL     OW 9088   1.294   5.319   3.078
 2730SOL    HW1 9089   1.200   5.352   3.070
 2730SOL    HW2 9090   1.311   5.249   3.008
 2731SOL     OW 9091   3.947   3.525   5.734
 2731SOL    HW1 9092   4.026   3.561   5.784
 2731SOL    HW2 9093   3.918   3.590   5.664
 2732SOL     OW 9094   4.340   0.867   2.330
 2732SOL    HW1 9095   4.257   0.823   2.365
 2732SOL    HW2 9096   4.420   0.813   2.357
 2733SOL     OW 9097   0.660   0.410   0.808
 2733SOL    HW1 9098   0.678   0.312   0.805
 2733SOL    HW2 9099   0.618   0.433   0.896
 2734SOL     OW 9100   3.381   0.440   1.812
 2734SOL    HW1 9101   3.388   0.440   1.912
 2734SOL    HW2 9102   3.374   0.535   1.779
 2735SOL     OW 9103   0.604   2.797   2.616
 2735SOL    HW1 9104   0.527   2.738   2.593
 2735SOL    HW2 9105   0.570   2.889   2.638
 2736SOL     OW 9106   5.388   4.529   2.664
 2736SOL    HW1 9107   5.351   4.452   2.715
 2736SOL    HW2 9108   5.455   4.578   2.720
 2737SOL     OW 9109   2.696   0.166   6.656
 2737SOL    HW1 9110   2.598   0.172   6.638
 2737SOL    HW2 9111   2.715   0.198   6.749
 2738SOL     OW 9112   5.358   6.319   1.633
 2738SOL    HW1 9113   5.425   6.247   1.612
 2738SOL    HW2 9114   5.341   6.373   1.551
 2739SOL     OW 9115   0.594   5.350   1.706
 2739SOL    HW1 9116   0.636   5.436   1.735
 2739SOL    HW2 9117   0.613   5.279   1.773
 2740SOL     OW 9118   6.693   5.680   5.380
 2740SOL    HW1 9119   6.664   5.775   5.388
 2740SOL    HW2 9120   6.624   5.627   5.331
 2741SOL     OW 9121   0.064   0.063   6.734
 2741SOL    HW1 9122   0.002   0.024   6.803
 2741SOL    HW2 9123   0.139   7.017   6.716
 2742SOL     OW 9124   2.797   4.994   2.056
 2742SOL    HW1 9125   2.720   4.931   2.044
 2742SOL    HW2 9126   2.873   4.964   1.999
 2743SOL     OW 9127   5.733   1.743   2.750
 2743SOL    HW1 9128   5.686   1.824   2.716
 2743SOL    HW2 9129   5.811   1.723   2.690
 2744SOL     OW 9130   2.868   3.542   2.732
 2744SOL    HW1 9131   2.838   3.634   2.705
 2744SOL    HW2 9132   2.824   3.517   2.818
 2745SOL     OW 9133   0.667   5.972   6.801
 2745SOL    HW1 9134   0.646   5.916   6.721
 2745SOL    HW2 9135   0.761   5.953   6.831
 2746SOL     OW 9136   1.770   0.792   4.427
 2746SOL    HW1 9137   1.803   0.776   4.334
 2746SOL    HW2 9138   1.817   0.730   4.490
 2747SOL     OW 9139   5.012   5.028   0.207
 2747SOL    HW1 9140   5.013   4.935   0.172
 2747SOL    HW2 9141   4.937   5.039   0.271
 2748SOL     OW 9142   4.025   0.086   0.362
 2748SOL    HW1 9143   3.977   0.085   0.275
 2748SOL    HW2 9144   4.110   0.137   0.353
 2749SOL     OW 9145   3.987   0.426   0.400
 2749SOL    HW1 9146   4.027   0.501   0.454
 2749SOL    HW2 9147   4.058   0.359   0.380
 2750SOL     OW 9148   1.750   6.080   1.716
 2750SOL    HW1 9149   1.785   6.113   1.803
 2750SOL    HW2 9150   1.808   6.005   1.683
 2751SOL     OW 9151   6.333   5.461   1.808
 2751SOL    HW1 9152   6.430   5.440   1.821
 2751SOL    HW2 9153   6.311   5.462   1.710
 2752SOL     OW 9154   4.186   5.147   6.321
 2752SOL    HW1 9155   4.260   5.201   6.282
 2752SOL    HW2 9156   4.136   5.101   6.247
 2753SOL     OW 9157   4.262   5.118   5.743
 2753SOL    HW1 9158   4.267   5.072   5.655
 2753SOL    HW2 9159   4.287   5.054   5.816
 2754SOL     OW 9160   1.005   0.862   4.670
 2754SOL    HW1 9161   0.974   0.953   4.642
 2754SOL    HW2 9162   1.083   0.871   4.732
 2755SOL     OW 9163   3.916   0.031   2.316
 2755SOL    HW1 9164   3.911   7.011   2.224
 2755SOL    HW2 9165   3.828   0.074   2.339
 2756SOL     OW 9166   4.665   5.189   6.064
 2756SOL    HW1 9167   4.757   5.226   6.075
 2756SOL    HW2 9168   4.604   5.260   6.030
 2757SOL     OW 9169   1.108   4.684   0.530
 2757SOL    HW1 9170   1.069   4.637   0.450
 2757SOL    HW2 9171   1.057   4.768   0.547
 2758SOL     OW 9172   4.743   0.301   6.082
 2758SOL    HW1 9173   4.763   0.365   6.155
 2758SOL    HW2 9174   4.825   0.289   6.025
 2759SOL     OW 9175   4.768   5.056   3.193
 2759SOL    HW1 9176   4.736   5.045   3.287
 2759SOL    HW2 9177   4.689   5.060   3.131
 2760SOL     OW 9178   0.681   6.193   3.637
 2760SOL    HW1 9179   0.722   6.191   3.727
 2760SOL    HW2 9180   0.663   6.288   3.611
 2761SOL     OW 9181   2.685   4.871   4.925
 2761SOL    HW1 9182   2.716   4.777   4.943
 2761SOL    HW2 9183   2.654   4.913   5.010
 2762SOL     OW 9184   1.700   2.321   5.834
 2762SOL    HW1 9185   1.652   2.249   5.884
 2762SOL    HW2 9186   1.783   2.282   5.792
 2763SOL     OW 9187   5.452   0.001   2.336
 2763SOL    HW1 9188   5.405   0.050   2.409
 2763SOL    HW2 9189   5.542   0.042   2.319
 2764SOL     OW 9190   6.428   0.588   1.750
 2764SOL    HW1 9191   6.335   0.567   1.721
 2764SOL    HW2 9192   6.437   0.568   1.848
 2765SOL     OW 9193   5.335   1.683   3.850
 2765SOL    HW1 9194   5.235   1.688   3.840
 2765SOL    HW2 9195   5.367   1.594   3.817
 2766SOL     OW 9196   5.460   6.764   2.360
 2766SOL    HW1 9197   5.518   6.761   2.441
 2766SOL    HW2 9198   5.451   6.859   2.329
 2767SOL     OW 9199   6.403   3.957   5.438
 2767SOL    HW1 9200   6.412   4.009   5.523
 2767SOL    HW2 9201   6.343   3.879   5.452
 2768SOL     OW 9202   5.469   0.461   6.269
 2768SOL    HW1 9203   5.506   0.487   6.180
 2768SOL    HW2 9204   5.401   0.528   6.299
 2769SOL     OW 9205   1.368   3.895   1.150
 2769SOL    HW1 9206   1.398   3.989   1.168
 2769SOL    HW2 9207   1.371   3.878   1.051
 2770SOL     OW 9208   4.823   5.881   2.177
 2770SOL    HW1 9209   4.807   5.972   2.137
 2770SOL    HW2 9210   4.814   5.886   2.276
 2771SOL     OW 9211   4.457   0.756   1.525
 2771SOL    HW1 9212   4.480   0.667   1.485
 2771SOL    HW2 9213   4.480   0.828   1.460
 2772SOL     OW 9214   3.410   1.030   0.240
 2772SOL    HW1 9215   3.319   1.012   0.277
 2772SOL    HW2 9216   3.477   1.030   0.314
 2773SOL     OW 9217   2.987   4.600   1.485
 2773SOL    HW1 9218   2.940   4.512   1.495
 2773SOL    HW2 9219   3.036   4.602   1.398
 2774SOL     OW 9220   4.936   2.940   1.739
 2774SOL    HW1 9221   4.951   3.007   1.666
 2774SOL    HW2 9222   4.858   2.968   1.795
 2775SOL     OW 9223   0.371   0.132   2.485
 2775SOL    HW1 9224   0.400   0.098   2.574
 2775SOL    HW2 9225   0.431   0.096   2.414
 2776SOL     OW 9226   2.918   6.036   6.926
 2776SOL    HW1 9227   2.917   6.102   6.851
 2776SOL    HW2 9228   2.980   5.961   6.905
 2777SOL     OW 9229   1.385   2.626   4.056
 2777SOL    HW1 9230   1.358   2.534   4.029
 2777SOL    HW2 9231   1.409   2.679   3.974
 2778SOL     OW 9232   3.210   2.184   5.325
 2778SOL    HW1 9233   3.194   2.267   5.271
 2778SOL    HW2 9234   3.178   2.104   5.275
 2779SOL     OW 9235   6.341   0.383   0.536
 2779SOL    HW1 9236   6.324   0.472   0.579
 2779SOL    HW2 9237   6.424   0.343   0.576
 2780SOL     OW 9238   3.423   5.971   6.355
 2780SOL    HW1 9239   3.367   6.027   6.417
 2780SOL    HW2 9240   3.514   5.960   6.394
 2781SOL     OW 9241   5.374   4.073   6.675
 2781SOL    HW1 9242   5.471   4.048   6.675
 2781SOL    HW2 9243   5.339   4.069   6.581
 2782SOL     OW 9244   3.418   0.671   5.274
 2782SOL    HW1 9245   3.498   0.717   5.314
 2782SOL    HW2 9246   3.354   0.647   5.347
 2783SOL     OW 9247   0.254   3.878   5.079
 2783SOL    HW1 9248   0.306   3.825   5.012
 2783SOL    HW2 9249   0.317   3.929   5.138
 2784SOL     OW 9250   2.826   1.966   1.521
 2784SOL    HW1 9251   2.843   2.028   1.445
 2784SOL    HW2 9252   2.766   2.011   1.587
 2785SOL     OW 9253   5.928   2.387   2.292
 2785SOL    HW1 9254   5.960   2.456   2.357
 2785SOL    HW2 9255   5.905   2.303   2.341
 2786SOL     OW 9256   3.671   0.628   1.349
 2786SOL    HW1 9257   3.699   0.639   1.445
 2786SOL    HW2 9258   3.696   0.537   1.317
 2787SOL     OW 9259   1.811   4.381   5.940
 2787SOL    HW1 9260   1.713   4.402   5.931
 2787SOL    HW2 9261   1.847   4.350   5.853
 2788SOL     OW 9262   1.480   2.875   0.544
 2788SOL    HW1 9263   1.458   2.808   0.615
 2788SOL    HW2 9264   1.578   2.875   0.527
 2789SOL     OW 9265   6.839   3.300   3.498
 2789SOL    HW1 9266   6.828   3.338   3.407
 2789SOL    HW2 9267   6.796   3.209   3.501
 2790SOL     OW 9268   3.342   6.158   4.378
 2790SOL    HW1 9269   3.356   6.091   4.450
 2790SOL    HW2 9270   3.414   6.148   4.309
 2791SOL     OW 9271   2.084   3.360   2.424
 2791SOL    HW1 9272   2.113   3.441   2.372
 2791SOL    HW2 9273   2.071   3.385   2.520
 2792SOL     OW 9274   0.351   1.678   6.195
 2792SOL    HW1 9275   0.340   1.663   6.097
 2792SOL    HW2 9276   0.414   1.610   6.232
 2793SOL     OW 9277   4.838   0.618   4.434
 2793SOL    HW1 9278   4.756   0.593   4.383
 2793SOL    HW2 9279   4.914   0.635   4.371
 2794SOL     OW 9280   1.005   1.465   2.205
 2794SOL    HW1 9281   0.931   1.460   2.273
 2794SOL    HW2 9282   1.085   1.508   2.247
 2795SOL     OW 9283   0.661   3.597   0.701
 2795SOL    HW1 9284   0.617   3.529   0.759
 2795SOL    HW2 9285   0.594   3.635   0.637
 2796SOL     OW 9286   4.025   5.108   1.955
 2796SOL    HW1 9287   3.963   5.030   1.966
 2796SOL    HW2 9288   3.980   5.191   1.988
 2797SOL     OW 9289   4.956   4.344   5.108
 2797SOL    HW1 9290   4.922   4.321   5.199
 2797SOL    HW2 9291   4.984   4.260   5.061
 2798SOL     OW 9292   2.115   3.697   3.207
 2798SOL    HW1 9293   2.070   3.742   3.129
 2798SOL    HW2 9294   2.115   3.598   3.193
 2799SOL     OW 9295   6.789   5.368   5.884
 2799SOL    HW1 9296   6.733   5.417   5.951
 2799SOL    HW2 9297   6.856   5.431   5.844
 2800SOL     OW 9298   2.569   0.505   6.643
 2800SOL    HW1 9299   2.518   0.571   6.698
 2800SOL    HW2 9300   2.540   0.511   6.547
 2801SOL     OW 9301   3.788   5.347   1.836
 2801SOL    HW1 9302   3.705   5.367   1.784
 2801SOL    HW2 9303   3.841   5.277   1.788
 2802SOL     OW 9304   6.379   0.115   6.370
 2802SOL    HW1 9305   6.472   0.080   6.375
 2802SOL    HW2 9306   6.328   0.067   6.298
 2803SOL     OW 9307   2.518   6.018   4.769
 2803SOL    HW1 9308   2.543   5.961   4.847
 2803SOL    HW2 9309   2.440   5.977   4.721
 2804SOL     OW 9310   0.502   4.879   2.621
 2804SOL    HW1 9311   0.517   4.970   2.584
 2804SOL    HW2 9312   0.581   4.852   2.676
 2805SOL     OW 9313   6.866   3.946   6.414
 2805SOL    HW1 9314   6.937   4.015   6.431
 2805SOL    HW2 9315   6.903   3.855   6.429
 2806SOL     OW 9316   5.970   4.749   2.629
 2806SOL    HW1 9317   6.058   4.702   2.630
 2806SOL    HW2 9318   5.902   4.691   2.584
 2807SOL     OW 9319   3.975   4.848   3.410
 2807SOL    HW1 9320   3.962   4.816   3.317
 2807SOL    HW2 9321   4.060   4.810   3.447
 2808SOL     OW 9322   4.585   6.870   4.590
 2808SOL    HW1 9323   4.630   6.783   4.572
 2808SOL    HW2 9324   4.650   6.934   4.632
 2809SOL     OW 9325   5.379   1.841   0.261
 2809SOL    HW1 9326   5.304   1.907   0.257
 2809SOL    HW2 9327   5.353   1.765   0.322
 2810SOL     OW 9328   2.317   1.057   6.094
 2810SOL    HW1 9329   2.413   1.031   6.091
 2810SOL    HW2 9330   2.280   1.037   6.185
 2811SOL     OW 9331   0.450   0.567   4.310
 2811SOL    HW1 9332   0.352   0.579   4.293
 2811SOL    HW2 9333   0.486   0.497   4.249
 2812SOL     OW 9334   4.790   4.451   2.906
 2812SOL    HW1 9335   4.750   4.377   2.960
 2812SOL    HW2 9336   4.794   4.534   2.961
 2813SOL     OW 9337   6.142   2.004   5.663
 2813SOL    HW1 9338   6.146   1.973   5.758
 2813SOL    HW2 9339   6.148   2.103   5.660
 2814SOL     OW 9340   5.416   4.681   5.710
 2814SOL    HW1 9341   5.403   4.608   5.643
 2814SOL    HW2 9342   5.352   4.669   5.786
 2815SOL     OW 9343   1.669   0.990   3.831
 2815SOL    HW1 9344   1.719   0.912   3.871
 2815SOL    HW2 9345   1.584   1.004   3.881
 2816SOL     OW 9346   4.305   6.197   3.451
 2816SOL    HW1 9347   4.405   6.196   3.443
 2816SOL    HW2 9348   4.265   6.218   3.362
 2817SOL     OW 9349   1.292   1.339   1.268
 2817SOL    HW1 9350   1.298   1.439   1.280
 2817SOL    HW2 9351   1.350   1.312   1.191
 2818SOL     OW 9352   1.538   2.192   6.506
 2818SOL    HW1 9353   1.628   2.207   6.546
 2818SOL    HW2 9354   1.506   2.276   6.463
 2819SOL     OW 9355   6.445   3.628   1.981
 2819SOL    HW1 9356   6.511   3.556   1.958
 2819SOL    HW2 9357   6.391   3.599   2.060
 2820SOL     OW 9358   5.151   3.178   3.910
 2820SOL    HW1 9359   5.204   3.173   3.995
 2820SOL    HW2 9360   5.178   3.259   3.858
 2821SOL     OW 9361   1.483   3.274   2.678
 2821SOL    HW1 9362   1.527   3.210   2.741
 2821SOL    HW2 9363   1.386   3.284   2.703
 2822SOL     OW 9364   3.402   2.472   0.567
 2822SOL    HW1 9365   3.437   2.436   0.481
 2822SOL    HW2 9366   3.411   2.571   0.568
 2823SOL     OW 9367   1.233   0.541   4.460
 2823SOL    HW1 9368   1.250   0.472   4.531
 2823SOL    HW2 9369   1.255   0.502   4.371
 2824SOL     OW 9370   3.658   2.443   6.140
 2824SOL    HW1 9371   3.606   2.359   6.122
 2824SOL    HW2 9372   3.595   2.518   6.158
 2825SOL     OW 9373   5.727   5.891   1.303
 2825SOL    HW1 9374   5.789   5.966   1.326
 2825SOL    HW2 9375   5.661   5.878   1.378
 2826SOL     OW 9376   5.079   3.865   4.437
 2826SOL    HW1 9377   5.026   3.799   4.490
 2826SOL    HW2 9378   5.095   3.947   4.491
 2827SOL     OW 9379   0.127   0.022   6.075
 2827SOL    HW1 9380   0.056   6.972   6.086
 2827SOL    HW2 9381   0.207   7.015   6.129
 2828SOL     OW 9382   3.488   2.307   6.474
 2828SOL    HW1 9383   3.515   2.402   6.460
 2828SOL    HW2 9384   3.394   2.294   6.442
 2829SOL     OW 9385   2.925   1.470   6.873
 2829SOL    HW1 9386   2.940   1.487   6.775
 2829SOL    HW2 9387   2.968   1.383   6.898
 2830SOL     OW 9388   3.228   3.851   6.793
 2830SOL    HW1 9389   3.227   3.947   6.820
 2830SOL    HW2 9390   3.135   3.821   6.773
 2831SOL     OW 9391   6.724   6.479   4.163
 2831SOL    HW1 9392   6.672   6.407   4.207
 2831SOL    HW2 9393   6.670   6.519   4.089
 2832SOL     OW 9394   0.362   0.747   2.447
 2832SOL    HW1 9395   0.269   0.766   2.477
 2832SOL    HW2 9396   0.363   0.661   2.396
 2833SOL     OW 9397   5.801   3.420   2.614
 2833SOL    HW1 9398   5.821   3.387   2.522
 2833SOL    HW2 9399   5.703   3.437   2.623
 2834SOL     OW 9400   4.492   0.965   5.429
 2834SOL    HW1 9401   4.522   0.933   5.340
 2834SOL    HW2 9402   4.463   0.886   5.484
 2835SOL     OW 9403   6.191   6.412   3.081
 2835SOL    HW1 9404   6.288   6.389   3.095
 2835SOL    HW2 9405   6.178   6.510   3.092
 2836SOL     OW 9406   6.392   6.781   1.425
 2836SOL    HW1 9407   6.425   6.713   1.360
 2836SOL    HW2 9408   6.320   6.740   1.482
 2837SOL     OW 9409   6.056   2.334   3.855
 2837SOL    HW1 9410   6.060   2.399   3.779
 2837SOL    HW2 9411   6.058   2.240   3.820
 2838SOL     OW 9412   1.914   4.680   4.365
 2838SOL    HW1 9413   1.864   4.596   4.383
 2838SOL    HW2 9414   1.997   4.683   4.422
 2839SOL     OW 9415   5.327   2.904   0.928
 2839SOL    HW1 9416   5.300   2.820   0.881
 2839SOL    HW2 9417   5.360   2.970   0.860
 2840SOL     OW 9418   0.218   2.765   4.672
 2840SOL    HW1 9419   0.167   2.699   4.617
 2840SOL    HW2 9420   0.282   2.716   4.731
 2841SOL     OW 9421   0.092   5.829   6.989
 2841SOL    HW1 9422   0.114   5.927   6.992
 2841SOL    HW2 9423   0.003   5.817   6.946
 2842SOL     OW 9424   5.736   3.202   2.779
 2842SOL    HW1 9425   5.761   3.286   2.730
 2842SOL    HW2 9426   5.637   3.197   2.786
 2843SOL     OW 9427   4.009   0.635   3.477
 2843SOL    HW1 9428   3.923   0.671   3.439
 2843SOL    HW2 9429   3.998   0.539   3.500
 2844SOL     OW 9430   1.368   4.201   5.131
 2844SOL    HW1 9431   1.393   4.241   5.043
 2844SOL    HW2 9432   1.451   4.175   5.181
 2845SOL     OW 9433   0.547   4.049   6.534
 2845SOL    HW1 9434   0.561   3.975   6.600
 2845SOL    HW2 9435   0.517   4.011   6.447
 2846SOL     OW 9436   5.444   1.235   5.961
 2846SOL    HW1 9437   5.515   1.178   5.921
 2846SOL    HW2 9438   5.367   1.177   5.989
 2847SOL     OW 9439   4.209   4.775   4.248
 2847SOL    HW1 9440   4.243   4.868   4.241
 2847SOL    HW2 9441   4.116   4.775   4.285
 2848SOL     OW 9442   2.268   6.867   5.880
 2848SOL    HW1 9443   2.278   6.767   5.883
 2848SOL    HW2 9444   2.171   6.890   5.868
 2849SOL     OW 9445   2.320   2.728   1.243
 2849SOL    HW1 9446   2.377   2.689   1.170
 2849SOL    HW2 9447   2.271   2.655   1.290
 2850SOL     OW 9448   4.348   1.904   0.638
 2850SOL    HW1 9449   4.435   1.932   0.678
 2850SOL    HW2 9450   4.324   1.812   0.670
 2851SOL     OW 9451   3.088   5.715   5.171
 2851SOL    HW1 9452   3.146   5.635   5.185
 2851SOL    HW2 9453   2.995   5.685   5.150
 2852SOL     OW 9454   0.181   2.077   6.581
 2852SOL    HW1 9455   0.141   1.987   6.597
 2852SOL    HW2 9456   0.109   2.141   6.554
 2853SOL     OW 9457   4.050   2.688   1.305
 2853SOL    HW1 9458   4.010   2.606   1.344
 2853SOL    HW2 9459   3.989   2.724   1.234
 2854SOL     OW 9460   0.591   0.712   3.634
 2854SOL    HW1 9461   0.551   0.624   3.659
 2854SOL    HW2 9462   0.529   0.761   3.572
 2855SOL     OW 9463   3.202   1.600   4.203
 2855SOL    HW1 9464   3.279   1.575   4.262
 2855SOL    HW2 9465   3.116   1.589   4.254
 2856SOL     OW 9466   3.104   1.302   5.741
 2856SOL    HW1 9467   3.020   1.354   5.727
 2856SOL    HW2 9468   3.088   1.230   5.808
 2857SOL     OW 9469   3.509   2.867   4.032
 2857SOL    HW1 9470   3.433   2.927   4.004
 2857SOL    HW2 9471   3.505   2.852   4.130
 2858SOL     OW 9472   5.218   2.757   2.869
 2858SOL    HW1 9473   5.274   2.776   2.789
 2858SOL    HW2 9474   5.134   2.710   2.841
 2859SOL     OW 9475   5.845   5.507   6.851
 2859SOL    HW1 9476   5.943   5.518   6.872
 2859SOL    HW2 9477   5.832   5.431   6.788
 2860SOL     OW 9478   4.518   2.795   1.190
 2860SOL    HW1 9479   4.460   2.745   1.126
 2860SOL    HW2 9480   4.585   2.849   1.139
 2861SOL     OW 9481   4.446   4.463   5.822
 2861SOL    HW1 9482   4.391   4.397   5.874
 2861SOL    HW2 9483   4.398   4.488   5.738
 2862SOL     OW 9484   6.617   6.598   3.688
 2862SOL    HW1 9485   6.536   6.611   3.630
 2862SOL    HW2 9486   6.627   6.501   3.709
 2863SOL     OW 9487   6.021   6.981   0.022
 2863SOL    HW1 9488   6.039   6.896   0.071
 2863SOL    HW2 9489   5.949   0.014   0.069
 2864SOL     OW 9490   4.498   2.498   0.598
 2864SOL    HW1 9491   4.466   2.457   0.513
 2864SOL    HW2 9492   4.492   2.598   0.591
 2865SOL     OW 9493   4.632   5.115   4.972
 2865SOL    HW1 9494   4.554   5.163   4.932
 2865SOL    HW2 9495   4.684   5.070   4.901
 2866SOL     OW 9496   0.301   0.032   6.297
 2866SOL    HW1 9497   0.250   0.091   6.360
 2866SOL    HW2 9498   0.322   6.964   6.341
 2867SOL     OW 9499   6.041   4.389   4.702
 2867SOL    HW1 9500   5.976   4.407   4.628
 2867SOL    HW2 9501   5.999   4.412   4.790
 2868SOL     OW 9502   1.919   5.168   4.840
 2868SOL    HW1 9503   1.894   5.072   4.853
 2868SOL    HW2 9504   2.016   5.174   4.815
 2869SOL     OW 9505   6.153   1.307   2.236
 2869SOL    HW1 9506   6.083   1.379   2.239
 2869SOL    HW2 9507   6.120   1.231   2.180
 2870SOL     OW 9508   4.529   2.098   1.657
 2870SOL    HW1 9509   4.452   2.140   1.704
 2870SOL    HW2 9510   4.505   2.080   1.562
 2871SOL     OW 9511   1.259   1.406   5.737
 2871SOL    HW1 9512   1.178   1.419   5.794
 2871SOL    HW2 9513   1.249   1.457   5.652
 2872SOL     OW 9514   1.446   0.211   4.070
 2872SOL    HW1 9515   1.476   0.276   4.140
 2872SOL    HW2 9516   1.431   0.259   3.984
 2873SOL     OW 9517   6.338   5.087   2.474
 2873SOL    HW1 9518   6.268   5.157   2.463
 2873SOL    HW2 9519   6.340   5.056   2.569
 2874SOL     OW 9520   5.133   2.067   1.798
 2874SOL    HW1 9521   5.086   2.155   1.803
 2874SOL    HW2 9522   5.107   2.011   1.876
 2875SOL     OW 9523   3.205   4.771   0.713
 2875SOL    HW1 9524   3.242   4.828   0.786
 2875SOL    HW2 9525   3.107   4.756   0.729
 2876SOL     OW 9526   5.909   2.184   1.787
 2876SOL    HW1 9527   5.893   2.101   1.840
 2876SOL    HW2 9528   5.906   2.263   1.847
 2877SOL     OW 9529   1.109   3.680   5.636
 2877SOL    HW1 9530   1.037   3.749   5.629
 2877SOL    HW2 9531   1.190   3.721   5.677
 2878SOL     OW 9532   4.840   5.040   0.407
 2878SOL    HW1 9533   4.818   4.990   0.491
 2878SOL    HW2 9534   4.803   5.133   0.414
 2879SOL     OW 9535   4.969   4.519   6.920
 2879SOL    HW1 9536   5.032   4.476   6.985
 2879SOL    HW2 9537   4.954   4.458   6.843
 2880SOL     OW 9538   1.643   6.483   3.181
 2880SOL    HW1 9539   1.591   6.423   3.242
 2880SOL    HW2 9540   1.580   6.538   3.126
 2881SOL     OW 9541   6.876   6.960   6.885
 2881SOL    HW1 9542   6.802   6.951   6.818
 2881SOL    HW2 9543   6.843   7.008   6.966
 2882SOL     OW 9544   6.415   4.029   3.450
 2882SOL    HW1 9545   6.429   4.128   3.443
 2882SOL    HW2 9546   6.503   3.983   3.460
 2883SOL     OW 9547   3.596   6.708   2.522
 2883SOL    HW1 9548   3.519   6.643   2.513
 2883SOL    HW2 9549   3.588   6.757   2.608
 2884SOL     OW 9550   1.983   5.134   3.124
 2884SOL    HW1 9551   1.887   5.135   3.154
 2884SOL    HW2 9552   1.989   5.090   3.034
 2885SOL     OW 9553   1.080   2.108   4.708
 2885SOL    HW1 9554   1.167   2.098   4.660
 2885SOL    HW2 9555   1.087   2.181   4.776
 2886SOL     OW 9556   2.358   2.744   6.291
 2886SOL    HW1 9557   2.384   2.831   6.250
 2886SOL    HW2 9558   2.271   2.755   6.340
 2887SOL     OW 9559   2.613   0.908   5.163
 2887SOL    HW1 9560   2.628   0.853   5.245
 2887SOL    HW2 9561   2.700   0.922   5.116
 2888SOL     OW 9562   6.933   6.045   6.652
 2888SOL    HW1 9563   6.979   5.980   6.592
 2888SOL    HW2 9564   6.834   6.036   6.641
 2889SOL     OW 9565   1.123   1.079   0.865
 2889SOL    HW1 9566   1.155   1.063   0.772
 2889SOL    HW2 9567   1.172   1.018   0.928
 2890SOL     OW 9568   2.648   0.471   1.061
 2890SOL    HW1 9569   2.713   0.523   1.005
 2890SOL    HW2 9570   2.586   0.534   1.108
 2891SOL     OW 9571   2.993   4.801   5.138
 2891SOL    HW1 9572   2.926   4.728   5.124
 2891SOL    HW2 9573   3.037   4.788   5.227
 2892SOL     OW 9574   4.177   3.741   5.373
 2892SOL    HW1 9575   4.121   3.822   5.392
 2892SOL    HW2 9576   4.206   3.742   5.277
 2893SOL     OW 9577   3.181   0.525   5.024
 2893SOL    HW1 9578   3.136   0.529   5.113
 2893SOL    HW2 9579   3.112   0.516   4.952
 2894SOL     OW 9580   4.161   3.175   1.944
 2894SOL    HW1 9581   4.180   3.184   1.846
 2894SOL    HW2 9582   4.235   3.123   1.987
 2895SOL     OW 9583   3.832   2.823   0.359
 2895SOL    HW1 9584   3.863   2.817   0.264
 2895SOL    HW2 9585   3.759   2.757   0.375
 2896SOL     OW 9586   1.188   4.747   0.007
 2896SOL    HW1 9587   1.266   4.794   0.049
 2896SOL    HW2 9588   1.141   4.810   6.964
 2897SOL     OW 9589   0.538   6.920   3.405
 2897SOL    HW1 9590   0.571   7.004   3.448
 2897SOL    HW2 9591   0.605   6.847   3.420
 2898SOL     OW 9592   1.770   5.197   2.741
 2898SOL    HW1 9593   1.750   5.270   2.675
 2898SOL    HW2 9594   1.703   5.199   2.815
 2899SOL     OW 9595   5.585   0.598   0.970
 2899SOL    HW1 9596   5.513   0.617   0.904
 2899SOL    HW2 9597   5.558   0.521   1.028
 2900SOL     OW 9598   2.461   5.487   6.478
 2900SOL    HW1 9599   2.367   5.503   6.507
 2900SOL    HW2 9600   2.523   5.542   6.532
 2901SOL     OW 9601   2.804   6.548   1.708
 2901SOL    HW1 9602   2.898   6.548   1.675
 2901SOL    HW2 9603   2.796   6.611   1.785
 2902SOL     OW 9604   4.585   5.468   1.261
 2902SOL    HW1 9605   4.555   5.376   1.238
 2902SOL    HW2 9606   4.645   5.503   1.190
 2903SOL     OW 9607   3.061   2.594   1.745
 2903SOL    HW1 9608   3.013   2.544   1.817
 2903SOL    HW2 9609   3.146   2.546   1.722
 2904SOL     OW 9610   2.882   1.900   4.378
 2904SOL    HW1 9611   2.897   1.928   4.473
 2904SOL    HW2 9612   2.940   1.956   4.318
 2905SOL     OW 9613   1.070   2.277   1.882
 2905SOL    HW1 9614   0.996   2.216   1.911
 2905SOL    HW2 9615   1.101   2.331   1.960
 2906SOL     OW 9616   5.201   5.134   2.625
 2906SOL    HW1 9617   5.282   5.104   2.676
 2906SOL    HW2 9618   5.159   5.211   2.672
 2907SOL     OW 9619   5.796   0.415   4.962
 2907SOL    HW1 9620   5.701   0.436   4.942
 2907SOL    HW2 9621   5.832   0.351   4.894
 2908SOL     OW 9622   4.102   6.249   4.824
 2908SOL    HW1 9623   4.079   6.325   4.763
 2908SOL    HW2 9624   4.131   6.170   4.768
 2909SOL     OW 9625   2.439   6.175   5.634
 2909SOL    HW1 9626   2.513   6.163   5.701
 2909SOL    HW2 9627   2.436   6.095   5.574
 2910SOL     OW 9628   3.964   5.241   4.989
 2910SOL    HW1 9629   4.033   5.172   5.014
 2910SOL    HW2 9630   3.966   5.316   5.056
 2911SOL     OW 9631   2.334   4.577   2.923
 2911SOL    HW1 9632   2.258   4.639   2.944
 2911SOL    HW2 9633   2.335   4.501   2.988
 2912SOL     OW 9634   2.688   5.183   1.249
 2912SOL    HW1 9635   2.659   5.118   1.319
 2912SOL    HW2 9636   2.669   5.145   1.158
 2913SOL     OW 9637   0.319   2.700   1.196
 2913SOL    HW1 9638   0.239   2.757   1.218
 2913SOL    HW2 9639   0.314   2.614   1.246
 2914SOL     OW 9640   4.949   4.541   6.268
 2914SOL    HW1 9641   4.873   4.600   6.295
 2914SOL    HW2 9642   4.930   4.447   6.298
 2915SOL     OW 9643   4.898   1.090   3.147
 2915SOL    HW1 9644   4.825   1.024   3.165
 2915SOL    HW2 9645   4.965   1.087   3.221
 2916SOL     OW 9646   4.966   0.277   4.250
 2916SOL    HW1 9647   4.986   0.197   4.307
 2916SOL    HW2 9648   5.043   0.340   4.255
 2917SOL     OW 9649   3.912   0.373   2.288
 2917SOL    HW1 9650   4.003   0.339   2.266
 2917SOL    HW2 9651   3.907   0.395   2.385
 2918SOL     OW 9652   1.070   3.381   4.521
 2918SOL    HW1 9653   1.148   3.333   4.562
 2918SOL    HW2 9654   1.045   3.335   4.436
 2919SOL     OW 9655   5.492   5.513   0.083
 2919SOL    HW1 9656   5.443   5.433   0.048
 2919SOL    HW2 9657   5.429   5.571   0.134
 2920SOL     OW 9658   4.402   1.459   2.723
 2920SOL    HW1 9659   4.315   1.417   2.698
 2920SOL    HW2 9660   4.474   1.422   2.665
 2921SOL     OW 9661   6.697   1.316   0.414
 2921SOL    HW1 9662   6.620   1.341   0.355
 2921SOL    HW2 9663   6.782   1.354   0.377
 2922SOL     OW 9664   4.956   0.499   4.939
 2922SOL    HW1 9665   4.966   0.533   4.846
 2922SOL    HW2 9666   4.959   0.399   4.939
 2923SOL     OW 9667   0.268   4.510   6.912
 2923SOL    HW1 9668   0.232   4.523   6.819
 2923SOL    HW2 9669   0.210   4.445   6.961
 2924SOL     OW 9670   6.097   6.924   6.341
 2924SOL    HW1 9671   6.076   6.880   6.428
 2924SOL    HW2 9672   6.020   6.983   6.314
 2925SOL     OW 9673   6.531   4.608   0.277
 2925SOL    HW1 9674   6.564   4.554   0.200
 2925SOL    HW2 9675   6.548   4.557   0.362
 2926SOL     OW 9676   0.203   1.257   2.853
 2926SOL    HW1 9677   0.150   1.327   2.900
 2926SOL    HW2 9678   0.142   1.185   2.820
 2927SOL     OW 9679   6.662   3.173   2.870
 2927SOL    HW1 9680   6.571   3.190   2.832
 2927SOL    HW2 9681   6.655   3.156   2.968
 2928SOL     OW 9682   5.316   5.975   0.843
 2928SOL    HW1 9683   5.402   5.942   0.881
 2928SOL    HW2 9684   5.305   5.940   0.750
 2929SOL     OW 9685   0.395   0.678   5.622
 2929SOL    HW1 9686   0.301   0.711   5.609
 2929SOL    HW2 9687   0.410   0.657   5.719
 2930SOL     OW 9688   2.480   0.224   4.036
 2930SOL    HW1 9689   2.472   0.323   4.050
 2930SOL    HW2 9690   2.408   0.177   4.088
 2931SOL     OW 9691   4.556   4.665   6.125
 2931SOL    HW1 9692   4.543   4.684   6.027
 2931SOL    HW2 9693   4.491   4.719   6.178
 2932SOL     OW 9694   0.961   4.705   1.405
 2932SOL    HW1 9695   1.060   4.694   1.402
 2932SOL    HW2 9696   0.932   4.769   1.335
 2933SOL     OW 9697   4.806   2.243   3.043
 2933SOL    HW1 9698   4.895   2.274   3.075
 2933SOL    HW2 9699   4.812   2.217   2.947
 2934SOL     OW 9700   1.858   1.145   1.250
 2934SOL    HW1 9701   1.886   1.238   1.228
 2934SOL    HW2 9702   1.902   1.117   1.336
 2935SOL     OW 9703   0.160   1.059   1.193
 2935SOL    HW1 9704   0.105   0.977   1.182
 2935SOL    HW2 9705   0.170   1.079   1.291
 2936SOL     OW 9706   4.027   4.986   1.241
 2936SOL    HW1 9707   4.000   4.925   1.167
 2936SOL    HW2 9708   4.052   4.932   1.322
 2937SOL     OW 9709   2.563   4.563   0.257
 2937SOL    HW1 9710   2.480   4.558   0.201
 2937SOL    HW2 9711   2.619   4.482   0.242
 2938SOL     OW 9712   4.264   5.503   6.880
 2938SOL    HW1 9713   4.256   5.601   6.898
 2938SOL    HW2 9714   4.173   5.462   6.876
 2939SOL     OW 9715   6.858   6.599   5.973
 2939SOL    HW1 9716   6.767   6.640   5.979
 2939SOL    HW2 9717   6.925   6.670   5.951
 2940SOL     OW 9718   3.572   6.960   5.908
 2940SOL    HW1 9719   3.586   0.032   5.865
 2940SOL    HW2 9720   3.636   6.950   5.984
 2941SOL     OW 9721   4.149   1.531   5.430
 2941SOL    HW1 9722   4.084   1.506   5.501
 2941SOL    HW2 9723   4.242   1.528   5.468
 2942SOL     OW 9724   3.226   6.668   4.140
 2942SOL    HW1 9725   3.302   6.658   4.076
 2942SOL    HW2 9726   3.149   6.613   4.109
 2943SOL     OW 9727   5.596   4.643   2.805
 2943SOL    HW1 9728   5.639   4.597   2.883
 2943SOL    HW2 9729   5.624   4.739   2.804
 2944SOL     OW 9730   5.230   5.964   0.267
 2944SOL    HW1 9731   5.190   6.056   0.267
 2944SOL    HW2 9732   5.282   5.950   0.183
 2945SOL     OW 9733   3.226   3.468   4.530
 2945SOL    HW1 9734   3.256   3.376   4.557
 2945SOL    HW2 9735   3.269   3.535   4.591
 2946SOL     OW 9736   1.184   6.377   5.434
 2946SOL    HW1 9737   1.140   6.464   5.415
 2946SOL    HW2 9738   1.176   6.317   5.354
 2947SOL     OW 9739   0.021   5.496   6.556
 2947SOL    HW1 9740   0.103   5.551   6.571
 2947SOL    HW2 9741   7.016   5.447   6.640
 2948SOL     OW 9742   6.275   3.211   5.470
 2948SOL    HW1 9743   6.335   3.248   5.542
 2948SOL    HW2 9744   6.328   3.196   5.387
 2949SOL     OW 9745   0.572   6.766   0.707
 2949SOL    HW1 9746   0.575   6.782   0.608
 2949SOL    HW2 9747   0.655   6.802   0.750
 2950SOL     OW 9748   5.109   3.430   4.917
 2950SOL    HW1 9749   5.156   3.344   4.897
 2950SOL    HW2 9750   5.024   3.436   4.864
 2951SOL     OW 9751   5.944   0.431   0.122
 2951SOL    HW1 9752   5.981   0.461   0.035
 2951SOL    HW2 9753   6.018   0.412   0.186
 2952SOL     OW 9754   0.711   3.460   1.815
 2952SOL    HW1 9755   0.673   3.456   1.908
 2952SOL    HW2 9756   0.647   3.509   1.756
 2953SOL     OW 9757   5.947   1.687   1.841
 2953SOL    HW1 9758   5.858   1.684   1.796
 2953SOL    HW2 9759   6.009   1.623   1.796
 2954SOL     OW 9760   4.858   5.650   2.037
 2954SOL    HW1 9761   4.919   5.586   2.084
 2954SOL    HW2 9762   4.847   5.732   2.093
 2955SOL     OW 9763   5.881   1.664   1.195
 2955SOL    HW1 9764   5.896   1.680   1.293
 2955SOL    HW2 9765   5.911   1.572   1.172
 2956SOL     OW 9766   5.763   6.357   3.891
 2956SOL    HW1 9767   5.710   6.435   3.859
 2956SOL    HW2 9768   5.730   6.274   3.848
 2957SOL     OW 9769   1.578   4.616   1.821
 2957SOL    HW1 9770   1.487   4.613   1.780
 2957SOL    HW2 9771   1.570   4.626   1.920
 2958SOL     OW 9772   2.760   4.740   6.233
 2958SOL    HW1 9773   2.764   4.652   6.279
 2958SOL    HW2 9774   2.722   4.809   6.295
 2959SOL     OW 9775   3.769   5.261   6.968
 2959SOL    HW1 9776   3.673   5.281   6.988
 2959SOL    HW2 9777   3.777   5.225   6.875
 2960SOL     OW 9778   2.964   1.887   0.362
 2960SOL    HW1 9779   2.967   1.805   0.305
 2960SOL    HW2 9780   2.900   1.873   0.437
 2961SOL     OW 9781   5.389   1.291   4.050
 2961SOL    HW1 9782   5.412   1.372   4.104
 2961SOL    HW2 9783   5.425   1.209   4.093
 2962SOL     OW 9784   4.607   0.116   2.542
 2962SOL    HW1 9785   4.608   0.210   2.577
 2962SOL    HW2 9786   4.567   0.056   2.610
 2963SOL     OW 9787   2.156   3.087   4.955
 2963SOL    HW1 9788   2.123   3.156   5.020
 2963SOL    HW2 9789   2.236   3.041   4.994
 2964SOL     OW 9790   2.573   5.907   0.215
 2964SOL    HW1 9791   2.613   5.830   0.266
 2964SOL    HW2 9792   2.591   5.992   0.264
 2965SOL     OW 9793   0.853   2.630   6.198
 2965SOL    HW1 9794   0.819   2.679   6.279
 2965SOL    HW2 9795   0.918   2.688   6.149
 2966SOL     OW 9796   4.527   5.329   3.406
 2966SOL    HW1 9797   4.475   5.297   3.326
 2966SOL    HW2 9798   4.570   5.251   3.451
 2967SOL     OW 9799   5.670   2.490   4.321
 2967SOL    HW1 9800   5.769   2.504   4.315
 2967SOL    HW2 9801   5.648   2.449   4.409
 2968SOL     OW 9802   6.521   4.639   3.746
 2968SOL    HW1 9803   6.539   4.594   3.833
 2968SOL    HW2 9804   6.468   4.578   3.688
 2969SOL     OW 9805   3.266   1.251   4.964
 2969SOL    HW1 9806   3.299   1.340   4.994
 2969SOL    HW2 9807   3.197   1.218   5.028
 2970SOL     OW 9808   1.339   4.274   6.062
 2970SOL    HW1 9809   1.266   4.264   6.130
 2970SOL    HW2 9810   1.299   4.301   5.974
 2971SOL     OW 9811   5.586   2.802   1.971
 2971SOL    HW1 9812   5.640   2.750   2.037
 2971SOL    HW2 9813   5.600   2.765   1.879
 2972SOL     OW 9814   0.404   4.312   4.390
 2972SOL    HW1 9815   0.411   4.269   4.480
 2972SOL    HW2 9816   0.357   4.250   4.327
 2973SOL     OW 9817   6.444   6.983   4.037
 2973SOL    HW1 9818   6.348   6.958   4.026
 2973SOL    HW2 9819   6.477   6.952   4.126
 2974SOL     OW 9820   6.482   4.308   0.995
 2974SOL    HW1 9821   6.426   4.248   0.938
 2974SOL    HW2 9822   6.578   4.301   0.966
 2975SOL     OW 9823   6.215   1.388   4.003
 2975SOL    HW1 9824   6.128   1.436   3.986
 2975SOL    HW2 9825   6.287   1.430   3.949
 2976SOL     OW 9826   2.379   5.762   1.055
 2976SOL    HW1 9827   2.380   5.830   1.128
 2976SOL    HW2 9828   2.474   5.740   1.030
 2977SOL     OW 9829   2.884   6.844   3.554
 2977SOL    HW1 9830   2.964   6.796   3.517
 2977SOL    HW2 9831   2.869   6.928   3.502
 2978SOL     OW 9832   2.188   0.490   6.685
 2978SOL    HW1 9833   2.271   0.519   6.734
 2978SOL    HW2 9834   2.211   0.470   6.590
 2979SOL     OW 9835   2.288   1.249   3.284
 2979SOL    HW1 9836   2.308   1.167   3.230
 2979SOL    HW2 9837   2.190   1.254   3.303
 2980SOL     OW 9838   6.094   0.105   3.253
 2980SOL    HW1 9839   6.154   0.135   3.179
 2980SOL    HW2 9840   6.150   0.079   3.332
 2981SOL     OW 9841   1.552   1.343   5.670
 2981SOL    HW1 9842   1.527   1.318   5.577
 2981SOL    HW2 9843   1.500   1.424   5.698
 2982SOL     OW 9844   5.260   5.627   2.336
 2982SOL    HW1 9845   5.336   5.683   2.369
 2982SOL    HW2 9846   5.287   5.583   2.250
 2983SOL     OW 9847   0.739   1.001   2.480
 2983SOL    HW1 9848   0.775   1.037   2.566
 2983SOL    HW2 9849   0.795   0.924   2.450
 2984SOL     OW 9850   6.313   4.300   1.485
 2984SOL    HW1 9851   6.370   4.353   1.422
 2984SOL    HW2 9852   6.371   4.262   1.558
 2985SOL     OW 9853   6.119   2.282   3.074
 2985SOL    HW1 9854   6.076   2.372   3.081
 2985SOL    HW2 9855   6.215   2.294   3.048
 2986SOL     OW 9856   1.409   3.484   4.770
 2986SOL    HW1 9857   1.450   3.573   4.749
 2986SOL    HW2 9858   1.320   3.498   4.814
 2987SOL     OW 9859   4.900   1.918   4.761
 2987SOL    HW1 9860   4.984   1.868   4.784
 2987SOL    HW2 9861   4.822   1.856   4.769
 2988SOL     OW 9862   0.666   0.782   2.846
 2988SOL    HW1 9863   0.637   0.872   2.814
 2988SOL    HW2 9864   0.719   0.737   2.775
 2989SOL     OW 9865   0.100   5.306   0.438
 2989SOL    HW1 9866   0.019   5.271   0.485
 2989SOL    HW2 9867   0.094   5.284   0.341
 2990SOL     OW 9868   2.792   1.433   1.429
 2990SOL    HW1 9869   2.777   1.344   1.472
 2990SOL    HW2 9870   2.764   1.505   1.493
 2991SOL     OW 9871   6.397   4.730   6.765
 2991SOL    HW1 9872   6.368   4.735   6.861
 2991SOL    HW2 9873   6.398   4.635   6.735
 2992SOL     OW 9874   4.356   4.669   6.573
 2992SOL    HW1 9875   4.280   4.670   6.638
 2992SOL    HW2 9876   4.398   4.759   6.569
 2993SOL     OW 9877   1.394   4.210   6.985
 2993SOL    HW1 9878   1.402   4.114   6.959
 2993SOL    HW2 9879   1.484   4.254   6.976
 2994SOL     OW 9880   4.277   6.648   6.861
 2994SOL    HW1 9881   4.333   6.572   6.894
 2994SOL    HW2 9882   4.209   6.614   6.796
 2995SOL     OW 9883   2.594   0.573   5.712
 2995SOL    HW1 9884   2.598   0.655   5.655
 2995SOL    HW2 9885   2.575   0.599   5.807
 2996SOL     OW 9886   4.507   6.643   5.999
 2996SOL    HW1 9887   4.468   6.561   5.957
 2996SOL    HW2 9888   4.452   6.668   6.079
 2997SOL     OW 9889   3.719   5.635   0.373
 2997SOL    HW1 9890   3.790   5.663   0.309
 2997SOL    HW2 9891   3.642   5.698   0.366
 2998SOL     OW 9892   6.357   3.878   5.990
 2998SOL    HW1 9893   6.434   3.877   5.926
 2998SOL    HW2 9894   6.359   3.962   6.044
 2999SOL     OW 9895   2.495   1.447   1.953
 2999SOL    HW1 9896   2.576   1.424   1.900
 2999SOL    HW2 9897   2.413   1.428   1.899
 3000SOL     OW 9898   1.304   1.943   5.073
 3000SOL    HW1 9899   1.386   1.993   5.044
 3000SOL    HW2 9900   1.257   1.995   5.145
 3001SOL     OW 9901   4.895   5.912   5.795
 3001SOL    HW1 9902   4.920   5.992   5.740
 3001SOL    HW2 9903   4.926   5.829   5.749
 3002SOL     OW 9904   3.115   0.198   5.290
 3002SOL    HW1 9905   3.134   0.100   5.301
 3002SOL    HW2 9906   3.016   0.214   5.292
 3003SOL     OW 9907   1.591   0.096   5.994
 3003SOL    HW1 9908   1.574   0.111   6.091
 3003SOL    HW2 9909   1.552   0.008   5.966
 3004SOL     OW 9910   0.062   2.668   5.878
 3004SOL    HW1 9911   0.052   2.625   5.968
 3004SOL    HW2 9912   7.009   2.634   5.817
 3005SOL     OW 9913   4.757   1.917   0.499
 3005SOL    HW1 9914   4.735   1.942   0.405
 3005SOL    HW2 9915   4.777   1.819   0.503
 3006SOL     OW 9916   4.705   6.542   1.952
 3006SOL    HW1 9917   4.668   6.558   2.043
 3006SOL    HW2 9918   4.673   6.454   1.918
 3007SOL     OW 9919   6.038   5.171   1.654
 3007SOL    HW1 9920   5.944   5.194   1.679
 3007SOL    HW2 9921   6.101   5.210   1.721
 3008SOL     OW 9922   4.512   5.005   5.574
 3008SOL    HW1 9923   4.522   5.090   5.625
 3008SOL    HW2 9924   4.602   4.971   5.547
 3009SOL     OW 9925   1.549   0.455   2.476
 3009SOL    HW1 9926   1.552   0.406   2.389
 3009SOL    HW2 9927   1.611   0.533   2.473
 3010SOL     OW 9928   3.295   0.520   3.575
 3010SOL    HW1 9929   3.218   0.572   3.538
 3010SOL    HW2 9930   3.263   0.461   3.648
 3011SOL     OW 9931   4.915   0.186   0.584
 3011SOL    HW1 9932   4.977   0.251   0.540
 3011SOL    HW2 9933   4.838   0.236   0.624
 3012SOL     OW 9934   0.182   5.236   1.082
 3012SOL    HW1 9935   0.106   5.173   1.064
 3012SOL    HW2 9936   0.151   5.310   1.142
 3013SOL     OW 9937   6.071   4.797   1.769
 3013SOL    HW1 9938   5.989   4.847   1.741
 3013SOL    HW2 9939   6.145   4.861   1.788
 3014SOL     OW 9940   5.644   6.147   5.189
 3014SOL    HW1 9941   5.650   6.166   5.287
 3014SOL    HW2 9942   5.702   6.211   5.139
 3015SOL     OW 9943   3.120   1.304   0.404
 3015SOL    HW1 9944   3.144   1.334   0.312
 3015SOL    HW2 9945   3.202   1.305   0.461
 3016SOL     OW 9946   4.083   6.083   4.372
 3016SOL    HW1 9947   4.002   6.042   4.329
 3016SOL    HW2 9948   4.081   6.182   4.358
 3017SOL     OW 9949   0.894   6.664   1.664
 3017SOL    HW1 9950   0.794   6.660   1.671
 3017SOL    HW2 9951   0.921   6.668   1.567
 3018SOL     OW 9952   4.503   6.817   5.708
 3018SOL    HW1 9953   4.590   6.773   5.688
 3018SOL    HW2 9954   4.430   6.749   5.703
 3019SOL     OW 9955   4.939   0.835   1.728
 3019SOL    HW1 9956   4.847   0.874   1.738
 3019SOL    HW2 9957   4.937   0.740   1.760
 3020SOL     OW 9958   1.685   0.465   1.833
 3020SOL    HW1 9959   1.749   0.520   1.779
 3020SOL    HW2 9960   1.692   0.369   1.805
 3021SOL     OW 9961   4.261   0.985   6.470
 3021SOL    HW1 9962   4.273   0.963   6.373
 3021SOL    HW2 9963   4.163   0.985   6.492
 3022SOL     OW 9964   0.123   0.783   3.244
 3022SOL    HW1 9965   0.206   0.749   3.200
 3022SOL    HW2 9966   0.058   0.707   3.257
 3023SOL     OW 9967   5.556   0.282   1.825
 3023SOL    HW1 9968   5.529   0.374   1.854
 3023SOL    HW2 9969   5.545   0.219   1.901
 3024SOL     OW 9970   1.713   0.070   0.014
 3024SOL    HW1 9971   1.795   0.126   0.007
 3024SOL    HW2 9972   1.727   7.018   0.084
 3025SOL     OW 9973   1.972   2.503   1.581
 3025SOL    HW1 9974   1.904   2.570   1.611
 3025SOL    HW2 9975   2.027   2.543   1.508
 3026SOL     OW 9976   2.979   5.966   0.607
 3026SOL    HW1 9977   2.920   5.919   0.672
 3026SOL    HW2 9978   3.023   5.899   0.547
 3027SOL     OW 9979   1.205   1.981   3.789
 3027SOL    HW1 9980   1.275   1.988   3.718
 3027SOL    HW2 9981   1.246   1.998   3.879
 3028SOL     OW 9982   1.354   0.714   4.654
 3028SOL    HW1 9983   1.278   0.751   4.707
 3028SOL    HW2 9984   1.318   0.662   4.576
 3029SOL     OW 9985   6.280   4.745   5.862
 3029SOL    HW1 9986   6.181   4.760   5.857
 3029SOL    HW2 9987   6.302   4.701   5.949
 3030SOL     OW 9988   1.009   0.995   5.751
 3030SOL    HW1 9989   1.109   0.993   5.750
 3030SOL    HW2 9990   0.975   0.902   5.735
 3031SOL     OW 9991   6.919   5.828   6.023
 3031SOL    HW1 9992   6.919   5.728   6.035
 3031SOL    HW2 9993   6.971   5.852   5.941
 3032SOL     OW 9994   3.802   6.495   5.797
 3032SOL    HW1 9995   3.717   6.479   5.847
 3032SOL    HW2 9996   3.795   6.454   5.706
 3033SOL     OW 9997   4.784   4.621   5.986
 3033SOL    HW1 9998   4.720   4.642   6.060
 3033SOL    HW2 9999   4.818   4.528   5.996
 3034SOL     OW10000   2.482   6.860   4.978
 3034SOL    HW110001   2.479   6.782   4.917
 3034SOL    HW210002   2.469   6.829   5.073
 3035SOL     OW10003   6.081   6.803   0.279
 3035SOL    HW110004   6.050   6.781   0.371
 3035SOL    HW210005   6.116   6.719   0.236
 3036SOL     OW10006   0.547   5.017   5.731
 3036SOL    HW110007   0.562   4.968   5.645
 3036SOL    HW210008   0.565   4.955   5.807
 3037SOL     OW10009   5.463   6.346   6.125
 3037SOL    HW110010   5.377   6.307   6.157
 3037SOL    HW210011   5.531   6.342   6.198
 3038SOL     OW10012   5.732   6.008   5.605
 3038SOL    HW110013   5.772   5.950   5.534
 3038SOL    HW210014   5.792   6.008   5.685
 3039SOL     OW10015   0.489   5.056   0.470
 3039SOL    HW110016   0.547   5.124   0.424
 3039SOL    HW210017   0.490   4.971   0.417
 3040SOL     OW10018   2.615   1.179   0.352
 3040SOL    HW110019   2.580   1.231   0.274
 3040SOL    HW210020   2.611   1.236   0.434
 3041SOL     OW10021   1.691   2.021   5.976
 3041SOL    HW110022   1.785   2.022   5.941
 3041SOL    HW210023   1.692   2.038   6.075
 3042SOL     OW10024   5.871   0.223   1.351
 3042SOL    HW110025   5.841   0.170   1.430
 3042SOL    HW210026   5.944   0.286   1.378
 3043SOL     OW10027   0.373   5.326   6.331
 3043SOL    HW110028   0.467   5.303   6.308
 3043SOL    HW210029   0.364   5.424   6.347
 3044SOL     OW10030   2.478   3.311   6.591
 3044SOL    HW110031   2.484   3.213   6.573
 3044SOL    HW210032   2.446   3.358   6.509
 3045SOL     OW10033   4.725   2.720   4.693
 3045SOL    HW110034   4.699   2.736   4.597
 3045SOL    HW210035   4.757   2.626   4.703
 3046SOL     OW10036   2.474   2.573   6.091
 3046SOL    HW110037   2.552   2.576   6.028
 3046SOL    HW210038   2.478   2.652   6.153
 3047SOL     OW10039   6.940   5.499   1.994
 3047SOL    HW110040   6.944   5.568   1.922
 3047SOL    HW210041   6.908   5.541   2.079
 3048SOL     OW10042   3.851   2.980   2.278
 3048SOL    HW110043   3.820   2.983   2.183
 3048SOL    HW210044   3.903   2.896   2.294
 3049SOL     OW10045   0.961   0.398   0.757
 3049SOL    HW110046   0.949   0.300   0.773
 3049SOL    HW210047   0.876   0.446   0.782
 3050SOL     OW10048   1.442   0.410   4.259
 3050SOL    HW110049   1.446   0.500   4.216
 3050SOL    HW210050   1.533   0.384   4.290
 3051SOL     OW10051   2.922   4.998   5.575
 3051SOL    HW110052   2.910   4.908   5.618
 3051SOL    HW210053   3.012   5.002   5.532
 3052SOL     OW10054   4.804   6.203   2.528
 3052SOL    HW110055   4.843   6.268   2.462
 3052SOL    HW210056   4.806   6.244   2.620
 3053SOL     OW10057   3.913   6.383   2.164
 3053SOL    HW110058   3.864   6.470   2.155
 3053SOL    HW210059   3.953   6.358   2.075
 3054SOL     OW10060   1.612   4.145   5.247
 3054SOL    HW110061   1.685   4.142   5.178
 3054SOL    HW210062   1.635   4.083   5.322
 3055SOL     OW10063   6.397   6.595   2.831
 3055SOL    HW110064   6.415   6.668   2.898
 3055SOL    HW210065   6.479   6.539   2.822
 3056SOL     OW10066   5.085   0.841   2.458
 3056SOL    HW110067   5.154   0.813   2.524
 3056SOL    HW210068   4.996   0.845   2.504
 3057SOL     OW10069   6.664   4.908   2.651
 3057SOL    HW110070   6.637   5.001   2.677
 3057SOL    HW210071   6.692   4.907   2.555
 3058SOL     OW10072   5.712   6.445   1.505
 3058SOL    HW110073   5.649   6.496   1.446
 3058SOL    HW210074   5.734   6.501   1.585
 3059SOL     OW10075   2.674   2.780   6.543
 3059SOL    HW110076   2.659   2.862   6.487
 3059SOL    HW210077   2.606   2.710   6.519
 3060SOL     OW10078   0.216   6.142   6.128
 3060SOL    HW110079   0.277   6.109   6.200
 3060SOL    HW210080   0.122   6.115   6.150
 3061SOL     OW10081   0.137   0.974   5.947
 3061SOL    HW110082   0.102   0.954   6.038
 3061SOL    HW210083   0.233   1.000   5.952
 3062SOL     OW10084   3.197   5.065   6.310
 3062SOL    HW110085   3.105   5.104   6.315
 3062SOL    HW210086   3.236   5.060   6.402
 3063SOL     OW10087   2.769   5.857   0.804
 3063SOL    HW110088   2.777   5.760   0.825
 3063SOL    HW210089   2.676   5.877   0.771
 3064SOL     OW10090   0.130   4.577   2.877
 3064SOL    HW110091   0.104   4.621   2.963
 3064SOL    HW210092   0.221   4.608   2.850
 3065SOL     OW10093   3.682   1.641   1.281
 3065SOL    HW110094   3.603   1.673   1.333
 3065SOL    HW210095   3.734   1.720   1.247
 3066SOL     OW10096   5.578   5.010   0.955
 3066SOL    HW110097   5.490   5.011   1.003
 3066SOL    HW210098   5.621   4.920   0.968
 3067SOL     OW10099   4.085   6.946   3.118
 3067SOL    HW110100   4.053   6.862   3.161
 3067SOL    HW210101   4.022   0.002   3.140
 3068SOL     OW10102   6.315   4.195   6.828
 3068SOL    HW110103   6.404   4.162   6.858
 3068SOL    HW210104   6.243   4.148   6.879
 3069SOL     OW10105   1.232   4.799   3.262
 3069SOL    HW110106   1.180   4.727   3.216
 3069SOL    HW210107   1.200   4.889   3.230
 3070SOL     OW10108   4.632   1.539   3.591
 3070SOL    HW110109   4.693   1.531   3.670
 3070SOL    HW210110   4.686   1.558   3.509
 3071SOL     OW10111   5.895   0.291   3.643
 3071SOL    HW110112   5.814   0.244   3.607
 3071SOL    HW210113   5.957   0.225   3.685
 3072SOL     OW10114   6.809   0.488   1.486
 3072SOL    HW110115   6.736   0.436   1.529
 3072SOL    HW210116   6.771   0.569   1.441
 3073SOL     OW10117   1.824   1.666   5.018
 3073SOL    HW110118   1.773   1.703   5.097
 3073SOL    HW210119   1.808   1.568   5.011
 3074SOL     OW10120   4.783   3.802   6.017
 3074SOL    HW110121   4.684   3.787   6.021
 3074SOL    HW210122   4.823   3.792   6.108
 3075SOL     OW10123   0.180   5.520   0.941
 3075SOL    HW110124   0.123   5.572   0.878
 3075SOL    HW210125   0.127   5.443   0.978
 3076SOL     OW10126   0.687   0.803   5.322
 3076SOL    HW110127   0.674   0.712   5.361
 3076SOL    HW210128   0.717   0.866   5.394
 3077SOL     OW10129   4.386   4.642   3.242
 3077SOL    HW110130   4.411   4.556   3.198
 3077SOL    HW210131   4.321   4.691   3.184
 3078SOL     OW10132   2.034   3.084   0.548
 3078SOL    HW110133   2.091   3.083   0.466
 3078SOL    HW210134   2.085   3.122   0.625
 3079SOL     OW10135   5.456   3.233   6.057
 3079SOL    HW110136   5.408   3.155   6.017
 3079SOL    HW210137   5.390   3.297   6.096
 3080SOL     OW10138   6.160   6.836   2.357
 3080SOL    HW110139   6.107   6.921   2.368
 3080SOL    HW210140   6.135   6.792   2.271
 3081SOL     OW10141   0.865   4.543   5.888
 3081SOL    HW110142   0.866   4.643   5.892
 3081SOL    HW210143   0.929   4.512   5.819
 3082SOL     OW10144   3.805   6.986   2.769
 3082SOL    HW110145   3.859   0.009   2.695
 3082SOL    HW210146   3.719   6.952   2.732
 3083SOL     OW10147   3.819   6.604   2.428
 3083SOL    HW110148   3.728   6.644   2.435
 3083SOL    HW210149   3.814   6.505   2.441
 3084SOL     OW10150   4.526   6.748   4.054
 3084SOL    HW110151   4.470   6.749   3.972
 3084SOL    HW210152   4.597   6.818   4.047
 3085SOL     OW10153   1.110   5.167   2.432
 3085SOL    HW110154   1.146   5.073   2.431
 3085SOL    HW210155   1.027   5.170   2.376
 3086SOL     OW10156   6.339   1.422   4.525
 3086SOL    HW110157   6.239   1.424   4.517
 3086SOL    HW210158   6.379   1.410   4.434
 3087SOL     OW10159   5.759   3.572   1.458
 3087SOL    HW110160   5.821   3.580   1.535
 3087SOL    HW210161   5.768   3.653   1.400
 3088SOL     OW10162   3.074   3.682   6.413
 3088SOL    HW110163   3.124   3.764   6.441
 3088SOL    HW210164   3.036   3.637   6.494
 3089SOL     OW10165   3.427   1.961   1.633
 3089SOL    HW110166   3.364   1.917   1.698
 3089SOL    HW210167   3.519   1.964   1.673
 3090SOL     OW10168   6.188   1.685   0.900
 3090SOL    HW110169   6.183   1.672   0.999
 3090SOL    HW210170   6.174   1.781   0.878
 3091SOL     OW10171   2.128   6.019   6.640
 3091SOL    HW110172   2.176   5.970   6.567
 3091SOL    HW210173   2.057   5.961   6.678
 3092SOL     OW10174   4.250   5.228   0.588
 3092SOL    HW110175   4.188   5.260   0.516
 3092SOL    HW210176   4.235   5.281   0.671
 3093SOL     OW10177   4.667   6.765   3.121
 3093SOL    HW110178   4.595   6.723   3.176
 3093SOL    HW210179   4.727   6.819   3.180
 3094SOL     OW10180   3.575   5.402   4.409
 3094SOL    HW110181   3.553   5.377   4.314
 3094SOL    HW210182   3.521   5.346   4.471
 3095SOL     OW10183   1.760   5.289   4.660
 3095SOL    HW110184   1.816   5.253   4.735
 3095SOL    HW210185   1.682   5.229   4.644
 3096SOL     OW10186   0.802   1.759   5.564
 3096SOL    HW110187   0.891   1.736   5.603
 3096SOL    HW210188   0.750   1.814   5.629
 3097SOL     OW10189   1.664   0.788   6.819
 3097SOL    HW110190   1.680   0.753   6.912
 3097SOL    HW210191   1.610   0.723   6.767
 3098SOL     OW10192   3.832   2.456   0.550
 3098SOL    HW110193   3.764   2.517   0.509
 3098SOL    HW210194   3.913   2.453   0.491
 3099SOL     OW10195   1.286   5.807   5.657
 3099SOL    HW110196   1.234   5.891   5.639
 3099SOL    HW210197   1.365   5.803   5.595
 3100SOL     OW10198   6.521   0.240   6.067
 3100SOL    HW110199   6.609   0.263   6.109
 3100SOL    HW210200   6.447   0.272   6.126
 3101SOL     OW10201   3.360   0.336   1.143
 3101SOL    HW110202   3.319   0.282   1.069
 3101SOL    HW210203   3.329   0.431   1.136
 3102SOL     OW10204   1.391   5.993   0.427
 3102SOL    HW110205   1.432   5.988   0.518
 3102SOL    HW210206   1.320   5.922   0.418
 3103SOL     OW10207   4.331   4.482   1.725
 3103SOL    HW110208   4.386   4.407   1.760
 3103SOL    HW210209   4.376   4.569   1.745
 3104SOL     OW10210   5.611   5.838   3.919
 3104SOL    HW110211   5.573   5.897   3.989
 3104SOL    HW210212   5.544   5.825   3.846
 3105SOL     OW10213   6.039   5.936   4.047
 3105SOL    HW110214   6.041   5.837   4.055
 3105SOL    HW210215   6.132   5.970   4.030
 3106SOL     OW10216   6.751   3.528   4.388
 3106SOL    HW110217   6.717   3.527   4.482
 3106SOL    HW210218   6.810   3.607   4.375
 3107SOL     OW10219   2.559   0.003   3.898
 3107SOL    HW110220   2.536   0.089   3.943
 3107SOL    HW210221   2.653   0.008   3.864
 3108SOL     OW10222   1.972   6.998   2.867
 3108SOL    HW110223   2.069   7.017   2.885
 3108SOL    HW210224   1.963   6.953   2.778
 3109SOL     OW10225   4.676   5.916   3.428
 3109SOL    HW110226   4.768   5.916   3.467
 3109SOL    HW210227   4.610   5.947   3.497
 3110SOL     OW10228   0.389   2.629   1.733
 3110SOL    HW110229   0.488   2.621   1.745
 3110SOL    HW210230   0.363   2.588   1.645
 3111SOL     OW10231   0.622   4.891   2.232
 3111SOL    HW110232   0.640   4.989   2.234
 3111SOL    HW210233   0.527   4.874   2.255
 3112SOL     OW10234   3.343   3.415   5.714
 3112SOL    HW110235   3.413   3.357   5.673
 3112SOL    HW210236   3.360   3.424   5.812
 3113SOL     OW10237   4.125   6.729   4.152
 3113SOL    HW110238   4.028   6.704   4.148
 3113SOL    HW210239   4.174   6.683   4.077
 3114SOL     OW10240   5.076   5.744   0.700
 3114SOL    HW110241   5.025   5.780   0.778
 3114SOL    HW210242   5.012   5.700   0.637
 3115SOL     OW10243   3.665   2.897   2.482
 3115SOL    HW110244   3.578   2.942   2.463
 3115SOL    HW210245   3.736   2.936   2.424
 3116SOL     OW10246   0.002   1.367   6.681
 3116SOL    HW110247   0.090   1.321   6.698
 3116SOL    HW210248   0.018   1.450   6.627
 3117SOL     OW10249   3.164   4.327   6.362
 3117SOL    HW110250   3.251   4.343   6.408
 3117SOL    HW210251   3.127   4.239   6.390
 3118SOL     OW10252   6.154   5.162   0.050
 3118SOL    HW110253   6.183   5.082   7.015
 3118SOL    HW210254   6.227   5.186   0.114
 3119SOL     OW10255   2.298   4.402   6.679
 3119SOL    HW110256   2.233   4.337   6.719
 3119SOL    HW210257   2.364   4.429   6.749
 3120SOL     OW10258   2.501   5.350   6.979
 3120SOL    HW110259   2.533   5.442   7.003
 3120SOL    HW210260   2.553   5.282   0.013
 3121SOL     OW10261   0.063   5.589   4.013
 3121SOL    HW110262   0.002   5.555   4.084
 3121SOL    HW210263   0.102   5.512   3.962
 3122SOL     OW10264   3.244   6.110   1.310
 3122SOL    HW110265   3.281   6.128   1.401
 3122SOL    HW210266   3.144   6.113   1.314
 3123SOL     OW10267   3.381   0.020   4.092
 3123SOL    HW110268   3.394   0.089   4.163
 3123SOL    HW210269   3.378   0.065   4.003
 3124SOL     OW10270   3.857   6.757   5.837
 3124SOL    HW110271   3.954   6.739   5.820
 3124SOL    HW210272   3.806   6.671   5.831
 3125SOL     OW10273   6.919   1.680   6.032
 3125SOL    HW110274   6.943   1.775   6.050
 3125SOL    HW210275   7.002   1.627   6.015
 3126SOL     OW10276   3.761   6.232   6.571
 3126SOL    HW110277   3.726   6.176   6.647
 3126SOL    HW210278   3.704   6.313   6.560
 3127SOL     OW10279   1.118   1.031   4.424
 3127SOL    HW110280   1.177   0.997   4.351
 3127SOL    HW210281   1.022   1.021   4.396
 3128SOL     OW10282   1.560   1.039   0.881
 3128SOL    HW110283   1.479   0.985   0.905
 3128SOL    HW210284   1.566   1.046   0.782
 3129SOL     OW10285   1.159   3.098   2.992
 3129SOL    HW110286   1.108   3.042   2.927
 3129SOL    HW210287   1.249   3.058   3.006
 3130SOL     OW10288   2.310   5.489   2.974
 3130SOL    HW110289   2.398   5.449   2.947
 3130SOL    HW210290   2.260   5.423   3.031
 3131SOL     OW10291   0.807   2.946   4.027
 3131SOL    HW110292   0.818   3.044   4.009
 3131SOL    HW210293   0.710   2.923   4.026
 3132SOL     OW10294   5.030   3.673   5.863
 3132SOL    HW110295   4.955   3.609   5.843
 3132SOL    HW210296   5.112   3.621   5.888
 3133SOL     OW10297   2.281   1.806   3.845
 3133SOL    HW110298   2.377   1.835   3.847
 3133SOL    HW210299   2.276   1.713   3.806
 3134SOL     OW10300   5.937   2.432   2.026
 3134SOL    HW110301   6.035   2.423   2.009
 3134SOL    HW210302   5.918   2.421   2.124
 3135SOL     OW10303   1.086   2.477   3.007
 3135SOL    HW110304   1.027   2.457   2.929
 3135SOL    HW210305   1.182   2.472   2.979
 3136SOL     OW10306   6.394   0.925   4.788
 3136SOL    HW110307   6.397   0.966   4.879
 3136SOL    HW210308   6.446   0.981   4.724
 3137SOL     OW10309   0.493   1.705   4.465
 3137SOL    HW110310   0.426   1.764   4.510
 3137SOL    HW210311   0.574   1.697   4.522
 3138SOL     OW10312   6.255   2.207   4.272
 3138SOL    HW110313   6.255   2.306   4.260
 3138SOL    HW210314   6.199   2.164   4.200
 3139SOL     OW10315   4.822   5.666   5.234
 3139SOL    HW110316   4.722   5.678   5.238
 3139SOL    HW210317   4.860   5.728   5.166
 3140SOL     OW10318   5.913   5.861   5.389
 3140SOL    HW110319   5.990   5.863   5.454
 3140SOL    HW210320   5.853   5.784   5.411
 3141SOL     OW10321   0.705   0.398   1.811
 3141SOL    HW110322   0.678   0.308   1.778
 3141SOL    HW210323   0.795   0.422   1.773
 3142SOL     OW10324   3.459   6.949   0.655
 3142SOL    HW110325   3.413   6.883   0.715
 3142SOL    HW210326   3.396   0.006   0.636
 3143SOL     OW10327   0.221   1.713   0.335
 3143SOL    HW110328   0.316   1.713   0.365
 3143SOL    HW210329   0.164   1.753   0.407
 3144SOL     OW10330   2.956   2.927   0.153
 3144SOL    HW110331   2.935   2.907   0.249
 3144SOL    HW210332   3.044   2.974   0.147
 3145SOL     OW10333   2.259   5.219   2.742
 3145SOL    HW110334   2.175   5.254   2.783
 3145SOL    HW210335   2.329   5.291   2.740
 3146SOL     OW10336   2.123   0.020   4.025
 3146SOL    HW110337   2.161   6.990   4.103
 3146SOL    HW210338   2.138   6.984   3.942
 3147SOL     OW10339   3.947   4.254   1.084
 3147SOL    HW110340   3.944   4.156   1.065
 3147SOL    HW210341   4.040   4.279   1.112
 3148SOL     OW10342   2.697   5.860   4.556
 3148SOL    HW110343   2.742   5.781   4.598
 3148SOL    HW210344   2.699   5.937   4.619
 3149SOL     OW10345   2.219   6.331   5.640
 3149SOL    HW110346   2.141   6.299   5.586
 3149SOL    HW210347   2.296   6.269   5.628
 3150SOL     OW10348   6.437   0.313   4.427
 3150SOL    HW110349   6.421   0.401   4.382
 3150SOL    HW210350   6.382   0.308   4.510
 3151SOL     OW10351   3.637   6.855   1.677
 3151SOL    HW110352   3.614   6.774   1.622
 3151SOL    HW210353   3.722   6.838   1.727
 3152SOL     OW10354   1.477   4.980   6.572
 3152SOL    HW110355   1.419   4.898   6.566
 3152SOL    HW210356   1.476   5.015   6.665
 3153SOL     OW10357   6.888   3.977   3.614
 3153SOL    HW110358   6.952   3.962   3.539
 3153SOL    HW210359   6.915   3.922   3.693
 3154SOL     OW10360   5.902   2.776   6.101
 3154SOL    HW110361   5.823   2.825   6.139
 3154SOL    HW210362   5.985   2.802   6.151
 3155SOL     OW10363   4.305   5.936   0.165
 3155SOL    HW110364   4.397   5.899   0.177
 3155SOL    HW210365   4.246   5.902   0.238
 3156SOL     OW10366   3.469   3.763   3.614
 3156SOL    HW110367   3.522   3.744   3.532
 3156SOL    HW210368   3.529   3.798   3.686
 3157SOL     OW10369   2.174   2.413   4.742
 3157SOL    HW110370   2.100   2.350   4.718
 3157SOL    HW210371   2.227   2.435   4.660
 3158SOL     OW10372   4.498   6.846   1.875
 3158SOL    HW110373   4.557   6.769   1.851
 3158SOL    HW210374   4.403   6.815   1.880
 3159SOL     OW10375   5.728   4.590   0.812
 3159SOL    HW110376   5.776   4.514   0.855
 3159SOL    HW210377   5.718   4.665   0.878
 3160SOL     OW10378   6.116   4.689   0.473
 3160SOL    HW110379   6.182   4.694   0.548
 3160SOL    HW210380   6.023   4.695   0.509
 3161SOL     OW10381   0.835   1.535   4.252
 3161SOL    HW110382   0.811   1.629   4.226
 3161SOL    HW210383   0.932   1.530   4.274
 3162SOL     OW10384   0.249   0.436   6.301
 3162SOL    HW110385   0.343   0.461   6.324
 3162SOL    HW210386   0.190   0.447   6.381
 3163SOL     OW10387   1.702   4.524   5.374
 3163SOL    HW110388   1.634   4.453   5.393
 3163SOL    HW210389   1.659   4.614   5.380
 3164SOL     OW10390   6.372   5.148   5.480
 3164SOL    HW110391   6.441   5.169   5.550
 3164SOL    HW210392   6.330   5.060   5.500
 3165SOL     OW10393   0.133   2.842   1.352
 3165SOL    HW110394   0.195   2.901   1.403
 3165SOL    HW210395   0.070   2.796   1.415
 3166SOL     OW10396   3.617   3.192   6.423
 3166SOL    HW110397   3.620   3.292   6.422
 3166SOL    HW210398   3.525   3.161   6.399
 3167SOL     OW10399   0.339   4.909   2.277
 3167SOL    HW110400   0.296   4.832   2.325
 3167SOL    HW210401   0.292   4.923   2.190
 3168SOL     OW10402   6.416   2.901   0.749
 3168SOL    HW110403   6.416   2.805   0.720
 3168SOL    HW210404   6.496   2.947   0.711
 3169SOL     OW10405   3.122   2.398   5.833
 3169SOL    HW110406   3.072   2.314   5.858
 3169SOL    HW210407   3.074   2.477   5.872
 3170SOL     OW10408   3.413   0.363   5.005
 3170SOL    HW110409   3.360   0.284   5.034
 3170SOL    HW210410   3.355   0.445   5.005
 3171SOL     OW10411   6.449   5.583   3.047
 3171SOL    HW110412   6.404   5.513   3.103
 3171SOL    HW210413   6.384   5.622   2.983
 3172SOL     OW10414   5.307   6.543   5.296
 3172SOL    HW110415   5.233   6.591   5.344
 3172SOL    HW210416   5.381   6.608   5.276
 3173SOL     OW10417   1.648   1.041   1.752
 3173SOL    HW110418   1.660   1.125   1.804
 3173SOL    HW210419   1.562   1.046   1.700
 3174SOL     OW10420   2.598   3.141   0.063
 3174SOL    HW110421   2.582   3.174   6.988
 3174SOL    HW210422   2.525   3.174   0.123
 3175SOL     OW10423   6.808   6.075   0.334
 3175SOL    HW110424   6.757   6.095   0.250
 3175SOL    HW210425   6.752   6.099   0.413
 3176SOL     OW10426   0.561   5.473   6.896
 3176SOL    HW110427   0.507   5.468   6.980
 3176SOL    HW210428   0.647   5.424   6.909
 3177SOL     OW10429   0.928   0.221   3.749
 3177SOL    HW110430   0.876   0.304   3.730
 3177SOL    HW210431   0.931   0.205   3.847
 3178SOL     OW10432   3.860   3.324   0.184
 3178SOL    HW110433   3.772   3.311   0.139
 3178SOL    HW210434   3.854   3.292   0.279
 3179SOL     OW10435   1.331   2.738   4.555
 3179SOL    HW110436   1.258   2.686   4.599
 3179SOL    HW210437   1.332   2.719   4.457
 3180SOL     OW10438   6.616   1.226   7.010
 3180SOL    HW110439   6.660   1.253   6.924
 3180SOL    HW210440   6.615   1.126   7.016
 3181SOL     OW10441   0.253   1.360   2.076
 3181SOL    HW110442   0.248   1.260   2.076
 3181SOL    HW210443   0.302   1.390   2.158
 3182SOL     OW10444   1.957   5.865   5.950
 3182SOL    HW110445   2.007   5.817   5.878
 3182SOL    HW210446   1.999   5.844   6.038
 3183SOL     OW10447   4.981   3.977   1.224
 3183SOL    HW110448   4.893   3.953   1.184
 3183SOL    HW210449   5.050   3.911   1.195
 3184SOL     OW10450   0.034   2.013   2.822
 3184SOL    HW110451   0.030   1.934   2.883
 3184SOL    HW210452   0.126   2.020   2.783
 3185SOL     OW10453   0.596   6.165   6.982
 3185SOL    HW110454   0.632   6.112   6.905
 3185SOL    HW210455   0.613   6.262   6.966
 3186SOL     OW10456   3.520   0.287   1.591
 3186SOL    HW110457   3.484   0.339   1.668
 3186SOL    HW210458   3.608   0.326   1.563
 3187SOL     OW10459   3.844   4.350   0.369
 3187SOL    HW110460   3.874   4.444   0.381
 3187SOL    HW210461   3.786   4.344   0.287
 3188SOL     OW10462   4.035   0.145   3.981
 3188SOL    HW110463   4.049   0.066   4.041
 3188SOL    HW210464   3.965   0.205   4.021
 3189SOL     OW10465   6.103   6.210   2.140
 3189SOL    HW110466   6.131   6.294   2.186
 3189SOL    HW210467   6.130   6.214   2.044
 3190SOL     OW10468   1.057   0.223   2.031
 3190SOL    HW110469   1.139   0.174   2.001
 3190SOL    HW210470   1.074   0.321   2.028
 3191SOL     OW10471   3.124   1.377   0.961
 3191SOL    HW110472   3.163   1.371   0.869
 3191SOL    HW210473   3.195   1.401   1.027
 3192SOL     OW10474   5.411   3.115   4.396
 3192SOL    HW110475   5.429   3.169   4.479
 3192SOL    HW210476   5.497   3.084   4.357
 3193SOL     OW10477   5.420   4.508   1.899
 3193SOL    HW110478   5.427   4.566   1.818
 3193SOL    HW210479   5.361   4.429   1.878
 3194SOL     OW10480   2.985   5.791   4.626
 3194SOL    HW110481   3.000   5.695   4.649
 3194SOL    HW210482   2.959   5.842   4.708
 3195SOL     OW10483   6.203   4.530   4.180
 3195SOL    HW110484   6.246   4.475   4.108
 3195SOL    HW210485   6.239   4.503   4.269
 3196SOL     OW10486   6.634   6.179   6.234
 3196SOL    HW110487   6.719   6.214   6.275
 3196SOL    HW210488   6.556   6.219   6.281
 3197SOL     OW10489   0.319   4.422   5.746
 3197SOL    HW110490   0.278   4.503   5.703
 3197SOL    HW210491   0.418   4.435   5.754
 3198SOL     OW10492   6.008   0.035   1.121
 3198SOL    HW110493   6.039   0.043   1.216
 3198SOL    HW210494   5.976   6.960   1.104
 3199SOL     OW10495   3.095   1.580   3.434
 3199SOL    HW110496   3.136   1.489   3.428
 3199SOL    HW210497   3.122   1.634   3.354
 3200SOL     OW10498   6.481   1.867   0.111
 3200SOL    HW110499   6.535   1.792   0.150
 3200SOL    HW210500   6.486   1.863   0.011
 3201SOL     OW10501   4.021   4.864   2.837
 3201SOL    HW110502   4.055   4.783   2.789
 3201SOL    HW210503   3.930   4.887   2.802
 3202SOL     OW10504   1.201   5.048   2.042
 3202SOL    HW110505   1.253   4.970   2.076
 3202SOL    HW210506   1.167   5.027   1.950
 3203SOL     OW10507   4.606   0.049   0.914
 3203SOL    HW110508   4.616   0.134   0.861
 3203SOL    HW210509   4.511   0.039   0.942
 3204SOL     OW10510   6.721   6.640   2.232
 3204SOL    HW110511   6.653   6.711   2.252
 3204SOL    HW210512   6.675   6.560   2.194
 3205SOL     OW10513   1.378   4.021   4.197
 3205SOL    HW110514   1.334   4.088   4.257
 3205SOL    HW210515   1.369   4.050   4.101
 3206SOL     OW10516   2.104   6.301   0.529
 3206SOL    HW110517   2.167   6.326   0.603
 3206SOL    HW210518   2.060   6.213   0.550
 3207SOL     OW10519   1.773   1.007   3.149
 3207SOL    HW110520   1.753   0.987   3.054
 3207SOL    HW210521   1.706   1.073   3.185
 3208SOL     OW10522   6.028   6.480   5.846
 3208SOL    HW110523   6.050   6.514   5.755
 3208SOL    HW210524   6.099   6.508   5.911
 3209SOL     OW10525   1.127   6.788   3.372
 3209SOL    HW110526   1.069   6.756   3.447
 3209SOL    HW210527   1.179   6.867   3.402
 3210SOL     OW10528   0.592   6.177   1.928
 3210SOL    HW110529   0.568   6.083   1.952
 3210SOL    HW210530   0.568   6.238   2.003
 3211SOL     OW10531   0.253   4.479   3.747
 3211SOL    HW110532   0.214   4.571   3.741
 3211SOL    HW210533   0.225   4.437   3.834
 3212SOL     OW10534   4.469   2.366   5.081
 3212SOL    HW110535   4.375   2.369   5.114
 3212SOL    HW210536   4.496   2.271   5.064
 3213SOL     OW10537   5.063   0.217   2.071
 3213SOL    HW110538   5.020   0.307   2.070
 3213SOL    HW210539   4.998   0.149   2.036
 3214SOL     OW10540   4.907   3.777   0.519
 3214SOL    HW110541   4.916   3.770   0.419
 3214SOL    HW210542   4.838   3.846   0.541
 3215SOL     OW10543   6.522   1.355   0.210
 3215SOL    HW110544   6.455   1.412   0.163
 3215SOL    HW210545   6.568   1.296   0.144
 3216SOL     OW10546   5.118   6.452   5.829
 3216SOL    HW110547   5.185   6.430   5.758
 3216SOL    HW210548   5.110   6.551   5.838
 3217SOL     OW10549   0.200   4.429   6.437
 3217SOL    HW110550   0.266   4.371   6.389
 3217SOL    HW210551   0.245   4.515   6.465
 3218SOL     OW10552   4.032   2.527   1.656
 3218SOL    HW110553   3.936   2.544   1.678
 3218SOL    HW210554   4.050   2.429   1.663
 3219SOL     OW10555   0.868   1.899   3.482
 3219SOL    HW110556   0.852   1.936   3.573
 3219SOL    HW210557   0.874   1.974   3.416
 3220SOL     OW10558   6.619   2.903   6.608
 3220SOL    HW110559   6.576   2.979   6.656
 3220SOL    HW210560   6.697   2.937   6.555
 3221SOL     OW10561   4.033   0.399   1.679
 3221SOL    HW110562   4.088   0.480   1.657
 3221SOL    HW210563   4.057   0.366   1.770
 3222SOL     OW10564   6.120   3.446   2.032
 3222SOL    HW110565   6.164   3.378   1.975
 3222SOL    HW210566   6.021   3.441   2.020
 3223SOL     OW10567   0.981   4.331   5.086
 3223SOL    HW110568   1.018   4.244   5.120
 3223SOL    HW210569   0.898   4.354   5.138
 3224SOL     OW10570   2.732   6.116   1.144
 3224SOL    HW110571   2.795   6.082   1.074
 3224SOL    HW210572   2.643   6.135   1.103
 3225SOL     OW10573   1.513   1.686   0.791
 3225SOL    HW110574   1.474   1.722   0.707
 3225SOL    HW210575   1.583   1.618   0.769
 3226SOL     OW10576   6.842   1.359   3.840
 3226SOL    HW110577   6.836   1.451   3.880
 3226SOL    HW210578   6.752   1.332   3.806
 3227SOL     OW10579   2.706   1.503   4.912
 3227SOL    HW110580   2.621   1.515   4.861
 3227SOL    HW210581   2.770   1.449   4.858
 3228SOL     OW10582   4.860   3.190   4.894
 3228SOL    HW110583   4.832   3.117   4.833
 3228SOL    HW210584   4.894   3.151   4.980
 3229SOL     OW10585   4.507   1.696   4.611
 3229SOL    HW110586   4.438   1.637   4.653
 3229SOL    HW210587   4.472   1.734   4.526
 3230SOL     OW10588   1.581   6.983   4.374
 3230SOL    HW110589   1.488   0.001   4.381
 3230SOL    HW210590   1.625   0.003   4.293
 3231SOL     OW10591   4.312   4.429   0.477
 3231SOL    HW110592   4.230   4.469   0.518
 3231SOL    HW210593   4.338   4.347   0.528
 3232SOL     OW10594   1.099   3.971   3.778
 3232SOL    HW110595   1.113   4.019   3.691
 3232SOL    HW210596   1.045   3.888   3.763
 3233SOL     OW10597   2.368   4.192   0.323
 3233SOL    HW110598   2.347   4.095   0.316
 3233SOL    HW210599   2.292   4.240   0.367
 3234SOL     OW10600   6.986   1.629   4.092
 3234SOL    HW110601   6.945   1.702   4.038
 3234SOL    HW210602   0.063   1.616   4.063
 3235SOL     OW10603   6.275   0.943   2.367
 3235SOL    HW110604   6.232   1.017   2.419
 3235SOL    HW210605   6.207   0.872   2.348
 3236SOL     OW10606   6.603   1.623   1.415
 3236SOL    HW110607   6.528   1.677   1.454
 3236SOL    HW210608   6.598   1.530   1.450
 3237SOL     OW10609   2.775   6.148   4.717
 3237SOL    HW110610   2.787   6.241   4.752
 3237SOL    HW210611   2.689   6.110   4.752
 3238SOL     OW10612   6.866   6.300   6.366
 3238SOL    HW110613   6.869   6.392   6.326
 3238SOL    HW210614   6.821   6.305   6.455
 3239SOL     OW10615   2.284   6.332   6.391
 3239SOL    HW110616   2.275   6.426   6.358
 3239SOL    HW210617   2.287   6.332   6.491
 3240SOL     OW10618   1.178   2.563   4.772
 3240SOL    HW110619   1.107   2.560   4.702
 3240SOL    HW210620   1.212   2.471   4.790
 3241SOL     OW10621   3.783   6.262   5.249
 3241SOL    HW110622   3.722   6.186   5.271
 3241SOL    HW210623   3.821   6.250   5.158
 3242SOL     OW10624   2.679   0.846   1.009
 3242SOL    HW110625   2.699   0.930   0.959
 3242SOL    HW210626   2.581   0.838   1.024
 3243SOL     OW10627   3.573   5.990   2.196
 3243SOL    HW110628   3.643   6.061   2.183
 3243SOL    HW210629   3.603   5.925   2.265
 3244SOL     OW10630   1.307   0.129   5.275
 3244SOL    HW110631   1.326   0.225   5.256
 3244SOL    HW210632   1.385   0.088   5.322
 3245SOL     OW10633   3.135   2.089   5.740
 3245SOL    HW110634   3.221   2.131   5.714
 3245SOL    HW210635   3.070   2.096   5.664
 3246SOL     OW10636   6.086   6.597   2.501
 3246SOL    HW110637   6.176   6.571   2.538
 3246SOL    HW210638   6.092   6.687   2.459
 3247SOL     OW10639   5.894   2.994   4.703
 3247SOL    HW110640   5.897   2.927   4.629
 3247SOL    HW210641   5.809   2.983   4.754
 3248SOL     OW10642   5.389   4.288   3.190
 3248SOL    HW110643   5.363   4.369   3.137
 3248SOL    HW210644   5.337   4.209   3.157
 3249SOL     OW10645   3.479   5.082   6.023
 3249SOL    HW110646   3.566   5.080   5.973
 3249SOL    HW210647   3.477   5.160   6.085
 3250SOL     OW10648   4.699   4.907   0.663
 3250SOL    HW110649   4.653   4.845   0.600
 3250SOL    HW210650   4.639   4.985   0.683
 3251SOL     OW10651   2.467   1.601   3.480
 3251SOL    HW110652   2.405   1.553   3.419
 3251SOL    HW210653   2.415   1.651   3.549
 3252SOL     OW10654   3.135   2.174   3.172
 3252SOL    HW110655   3.116   2.200   3.077
 3252SOL    HW210656   3.205   2.104   3.174
 3253SOL     OW10657   4.988   4.338   2.049
 3253SOL    HW110658   4.948   4.425   2.079
 3253SOL    HW210659   5.067   4.316   2.106
 3254SOL     OW10660   5.932   3.823   3.217
 3254SOL    HW110661   5.935   3.755   3.290
 3254SOL    HW210662   5.850   3.808   3.161
 3255SOL     OW10663   3.301   4.708   0.426
 3255SOL    HW110664   3.399   4.696   0.441
 3255SOL    HW210665   3.262   4.761   0.502
 3256SOL     OW10666   6.405   0.416   5.390
 3256SOL    HW110667   6.384   0.320   5.372
 3256SOL    HW210668   6.504   0.427   5.400
 3257SOL     OW10669   2.615   1.148   1.948
 3257SOL    HW110670   2.708   1.150   1.984
 3257SOL    HW210671   2.602   1.067   1.892
 3258SOL     OW10672   4.495   6.986   2.728
 3258SOL    HW110673   4.425   6.929   2.683
 3258SOL    HW210674   4.543   6.932   2.797
 3259SOL     OW10675   6.080   5.437   3.105
 3259SOL    HW110676   6.038   5.447   3.015
 3259SOL    HW210677   6.049   5.510   3.166
 3260SOL     OW10678   2.080   1.490   1.343
 3260SOL    HW110679   2.084   1.463   1.247
 3260SOL    HW210680   2.126   1.421   1.400
 3261SOL     OW10681   4.768   6.923   4.117
 3261SOL    HW110682   4.725   6.989   4.179
 3261SOL    HW210683   4.851   6.888   4.159
 3262SOL     OW10684   4.961   2.110   3.347
 3262SOL    HW110685   4.863   2.120   3.335
 3262SOL    HW210686   5.004   2.200   3.350
 3263SOL     OW10687   3.110   4.813   3.150
 3263SOL    HW110688   3.196   4.849   3.186
 3263SOL    HW210689   3.127   4.766   3.063
 3264SOL     OW10690   5.214   3.890   6.310
 3264SOL    HW110691   5.175   3.896   6.218
 3264SOL    HW210692   5.312   3.909   6.305
 3265SOL     OW10693   5.089   6.731   5.781
 3265SOL    HW110694   5.176   6.775   5.760
 3265SOL    HW210695   5.014   6.788   5.748
 3266SOL     OW10696   1.107   2.366   5.992
 3266SOL    HW110697   1.116   2.462   5.965
 3266SOL    HW210698   1.158   2.308   5.928
 3267SOL     OW10699   5.780   4.181   1.018
 3267SOL    HW110700   5.815   4.131   0.939
 3267SOL    HW210701   5.844   4.173   1.094
 3268SOL     OW10702   1.906   5.374   0.389
 3268SOL    HW110703   1.911   5.458   0.443
 3268SOL    HW210704   1.817   5.331   0.403
 3269SOL     OW10705   4.419   3.019   1.397
 3269SOL    HW110706   4.476   2.965   1.336
 3269SOL    HW210707   4.330   2.974   1.408
 3270SOL     OW10708   6.715   5.559   3.076
 3270SOL    HW110709   6.720   5.526   3.170
 3270SOL    HW210710   6.619   5.571   3.051
 3271SOL     OW10711   4.784   6.870   0.736
 3271SOL    HW110712   4.718   6.915   0.796
 3271SOL    HW210713   4.859   6.932   0.715
 3272SOL     OW10714   4.480   5.886   5.753
 3272SOL    HW110715   4.428   5.802   5.734
 3272SOL    HW210716   4.534   5.910   5.673
 3273SOL     OW10717   0.097   6.897   3.202
 3273SOL    HW110718   0.073   6.869   3.109
 3273SOL    HW210719   0.196   6.911   3.208
 3274SOL     OW10720   3.174   0.628   1.424
 3274SOL    HW110721   3.098   0.688   1.450
 3274SOL    HW210722   3.152   0.534   1.450
 3275SOL     OW10723   4.520   0.703   6.093
 3275SOL    HW110724   4.545   0.680   5.999
 3275SOL    HW210725   4.477   0.624   6.137
 3276SOL     OW10726   1.747   5.392   1.406
 3276SOL    HW110727   1.788   5.312   1.450
 3276SOL    HW210728   1.685   5.362   1.334
 3277SOL     OW10729   0.422   6.027   6.556
 3277SOL    HW110730   0.399   5.980   6.641
 3277SOL    HW210731   0.424   6.126   6.571
 3278SOL     OW10732   1.039   6.793   0.353
 3278SOL    HW110733   1.135   6.788   0.324
 3278SOL    HW210734   0.984   6.830   0.278
 3279SOL     OW10735   2.072   6.607   1.531
 3279SOL    HW110736   2.020   6.554   1.465
 3279SOL    HW210737   2.161   6.564   1.546
 3280SOL     OW10738   2.917   5.732   3.464
 3280SOL    HW110739   2.986   5.672   3.423
 3280SOL    HW210740   2.904   5.813   3.406
 3281SOL     OW10741   1.407   6.943   1.198
 3281SOL    HW110742   1.440   6.891   1.119
 3281SOL    HW210743   1.407   6.883   1.279
 3282SOL     OW10744   1.730   4.587   2.199
 3282SOL    HW110745   1.711   4.491   2.217
 3282SOL    HW210746   1.670   4.644   2.255
 3283SOL     OW10747   1.373   0.660   2.905
 3283SOL    HW110748   1.289   0.626   2.863
 3283SOL    HW210749   1.386   0.615   2.994
 3284SOL     OW10750   2.136   5.969   5.527
 3284SOL    HW110751   2.202   5.999   5.459
 3284SOL    HW210752   2.093   5.883   5.497
 3285SOL     OW10753   0.671   3.367   4.112
 3285SOL    HW110754   0.675   3.433   4.186
 3285SOL    HW210755   0.699   3.411   4.026
 3286SOL     OW10756   4.990   4.690   6.699
 3286SOL    HW110757   5.009   4.616   6.765
 3286SOL    HW210758   4.891   4.704   6.693
 3287SOL     OW10759   0.599   2.284   1.038
 3287SOL    HW110760   0.590   2.208   1.102
 3287SOL    HW210761   0.549   2.263   0.954
 3288SOL     OW10762   0.785   0.125   0.313
 3288SOL    HW110763   0.715   0.164   0.254
 3288SOL    HW210764   0.745   0.098   0.400
 3289SOL     OW10765   1.411   0.272   3.807
 3289SOL    HW110766   1.341   0.241   3.742
 3289SOL    HW210767   1.500   0.272   3.762
 3290SOL     OW10768   6.809   4.892   4.476
 3290SOL    HW110769   6.846   4.835   4.550
 3290SOL    HW210770   6.721   4.930   4.504
 3291SOL     OW10771   1.259   1.715   1.845
 3291SOL    HW110772   1.312   1.642   1.801
 3291SOL    HW210773   1.297   1.734   1.935
 3292SOL     OW10774   1.249   6.858   4.483
 3292SOL    HW110775   1.322   6.835   4.547
 3292SOL    HW210776   1.271   6.822   4.393
 3293SOL     OW10777   5.962   0.467   2.866
 3293SOL    HW110778   5.918   0.555   2.884
 3293SOL    HW210779   6.009   0.437   2.950
 3294SOL     OW10780   6.990   6.532   1.498
 3294SOL    HW110781   0.020   6.588   1.565
 3294SOL    HW210782   6.895   6.561   1.493
 3295SOL     OW10783   2.903   3.343   6.184
 3295SOL    HW110784   2.994   3.330   6.145
 3295SOL    HW210785   2.901   3.429   6.237
 3296SOL     OW10786   0.761   6.964   1.598
 3296SOL    HW110787   0.682   6.902   1.590
 3296SOL    HW210788   0.833   6.935   1.535
 3297SOL     OW10789   3.548   0.454   5.734
 3297SOL    HW110790   3.491   0.495   5.805
 3297SOL    HW210791   3.514   0.482   5.644
 3298SOL     OW10792   0.186   5.511   3.212
 3298SOL    HW110793   0.224   5.549   3.127
 3298SOL    HW210794   0.109   5.452   3.190
 3299SOL     OW10795   2.032   1.379   4.464
 3299SOL    HW110796   2.019   1.471   4.427
 3299SOL    HW210797   1.945   1.331   4.466
 3300SOL     OW10798   0.603   0.156   5.045
 3300SOL    HW110799   0.603   0.182   4.948
 3300SOL    HW210800   0.664   0.216   5.096
 3301SOL     OW10801   6.422   3.914   2.210
 3301SOL    HW110802   6.417   3.998   2.264
 3301SOL    HW210803   6.360   3.846   2.248
 3302SOL     OW10804   1.482   5.680   5.984
 3302SOL    HW110805   1.567   5.644   6.022
 3302SOL    HW210806   1.488   5.779   5.976
 3303SOL     OW10807   3.405   3.569   5.332
 3303SOL    HW110808   3.438   3.495   5.391
 3303SOL    HW210809   3.365   3.641   5.387
 3304SOL     OW10810   1.777   0.520   3.991
 3304SOL    HW110811   1.873   0.503   3.971
 3304SOL    HW210812   1.741   0.445   4.048
 3305SOL     OW10813   1.051   2.174   0.262
 3305SOL    HW110814   1.086   2.213   0.348
 3305SOL    HW210815   1.011   2.084   0.280
 3306SOL     OW10816   1.251   1.505   0.656
 3306SOL    HW110817   1.242   1.597   0.617
 3306SOL    HW210818   1.166   1.480   0.702
 3307SOL     OW10819   0.421   6.556   0.026
 3307SOL    HW110820   0.406   6.654   0.012
 3307SOL    HW210821   0.414   6.535   0.123
 3308SOL     OW10822   5.652   6.361   0.158
 3308SOL    HW110823   5.698   6.431   0.214
 3308SOL    HW210824   5.581   6.405   0.103
 3309SOL     OW10825   0.430   4.683   1.936
 3309SOL    HW110826   0.407   4.646   1.846
 3309SOL    HW210827   0.522   4.654   1.961
 3310SOL     OW10828   2.247   6.427   2.354
 3310SOL    HW110829   2.184   6.482   2.408
 3310SOL    HW210830   2.204   6.402   2.267
 3311SOL     OW10831   4.454   5.462   0.876
 3311SOL    HW110832   4.411   5.372   0.889
 3311SOL    HW210833   4.406   5.529   0.933
 3312SOL     OW10834   1.733   2.744   5.915
 3312SOL    HW110835   1.703   2.787   6.000
 3312SOL    HW210836   1.832   2.750   5.907
 3313SOL     OW10837   5.384   6.576   4.953
 3313SOL    HW110838   5.390   6.590   4.854
 3313SOL    HW210839   5.474   6.592   4.994
 3314SOL     OW10840   1.092   3.717   6.421
 3314SOL    HW110841   1.059   3.719   6.327
 3314SOL    HW210842   1.027   3.764   6.481
 3315SOL     OW10843   6.540   3.202   3.500
 3315SOL    HW110844   6.565   3.212   3.596
 3315SOL    HW210845   6.554   3.289   3.452
 3316SOL     OW10846   3.392   0.548   6.318
 3316SOL    HW110847   3.432   0.633   6.353
 3316SOL    HW210848   3.346   0.566   6.232
 3317SOL     OW10849   6.105   3.069   1.354
 3317SOL    HW110850   6.067   3.159   1.377
 3317SOL    HW210851   6.035   2.999   1.369
 3318SOL     OW10852   2.627   4.920   6.664
 3318SOL    HW110853   2.551   4.858   6.684
 3318SOL    HW210854   2.619   5.002   6.720
 3319SOL     OW10855   0.867   5.828   6.277
 3319SOL    HW110856   0.812   5.897   6.325
 3319SOL    HW210857   0.932   5.787   6.341
 3320SOL     OW10858   1.028   0.652   1.042
 3320SOL    HW110859   1.000   0.649   1.138
 3320SOL    HW210860   1.084   0.571   1.021
 3321SOL     OW10861   3.597   3.889   4.272
 3321SOL    HW110862   3.584   3.984   4.301
 3321SOL    HW210863   3.591   3.883   4.173
 3322SOL     OW10864   5.122   3.827   2.772
 3322SOL    HW110865   5.025   3.803   2.779
 3322SOL    HW210866   5.161   3.783   2.691
 3323SOL     OW10867   1.496   4.281   0.722
 3323SOL    HW110868   1.540   4.368   0.747
 3323SOL    HW210869   1.559   4.228   0.666
 3324SOL     OW10870   6.221   3.253   1.869
 3324SOL    HW110871   6.173   3.279   1.785
 3324SOL    HW210872   6.255   3.159   1.860
 3325SOL     OW10873   1.294   4.956   5.757
 3325SOL    HW110874   1.238   4.972   5.838
 3325SOL    HW210875   1.389   4.976   5.777
 3326SOL     OW10876   4.585   6.793   2.267
 3326SOL    HW110877   4.556   6.840   2.351
 3326SOL    HW210878   4.590   6.860   2.193
 3327SOL     OW10879   5.366   5.986   1.745
 3327SOL    HW110880   5.284   6.037   1.718
 3327SOL    HW210881   5.344   5.921   1.817
 3328SOL     OW10882   6.552   6.104   3.553
 3328SOL    HW110883   6.647   6.071   3.552
 3328SOL    HW210884   6.494   6.035   3.596
 3329SOL     OW10885   5.623   0.210   5.936
 3329SOL    HW110886   5.603   0.211   5.838
 3329SOL    HW210887   5.605   0.301   5.974
 3330SOL     OW10888   5.914   0.460   3.423
 3330SOL    HW110889   5.895   0.392   3.493
 3330SOL    HW210890   5.931   0.414   3.335
 3331SOL     OW10891   0.241   3.142   2.151
 3331SOL    HW110892   0.212   3.049   2.130
 3331SOL    HW210893   0.341   3.148   2.144
 3332SOL     OW10894   4.535   5.180   1.337
 3332SOL    HW110895   4.622   5.224   1.360
 3332SOL    HW210896   4.549   5.082   1.325
 3333SOL     OW10897   2.278   3.755   0.936
 3333SOL    HW110898   2.301   3.732   1.030
 3333SOL    HW210899   2.361   3.775   0.884
 3334SOL     OW10900   2.282   2.864   1.884
 3334SOL    HW110901   2.348   2.841   1.812
 3334SOL    HW210902   2.255   2.960   1.874
 3335SOL     OW10903   4.585   4.105   6.706
 3335SOL    HW110904   4.627   4.032   6.651
 3335SOL    HW210905   4.486   4.104   6.693
 3336SOL     OW10906   3.621   5.557   5.962
 3336SOL    HW110907   3.589   5.612   5.884
 3336SOL    HW210908   3.560   5.572   6.040
 3337SOL     OW10909   3.010   3.834   4.093
 3337SOL    HW110910   2.972   3.787   4.173
 3337SOL    HW210911   3.037   3.927   4.119
 3338SOL     OW10912   3.318   2.872   1.854
 3338SOL    HW110913   3.224   2.861   1.823
 3338SOL    HW210914   3.363   2.943   1.799
 3339SOL     OW10915   0.802   0.093   6.234
 3339SOL    HW110916   0.712   0.116   6.197
 3339SOL    HW210917   0.793   0.074   6.332
 3340SOL     OW10918   4.876   1.860   6.734
 3340SOL    HW110919   4.925   1.936   6.778
 3340SOL    HW210920   4.939   1.811   6.673
 3341SOL     OW10921   1.284   3.614   1.698
 3341SOL    HW110922   1.292   3.594   1.600
 3341SOL    HW210923   1.187   3.614   1.723
 3342SOL     OW10924   5.938   0.313   3.138
 3342SOL    HW110925   5.981   0.243   3.194
 3342SOL    HW210926   5.845   0.284   3.114
 3343SOL     OW10927   3.587   4.904   0.401
 3343SOL    HW110928   3.613   4.816   0.440
 3343SOL    HW210929   3.627   4.913   0.310
 3344SOL     OW10930   1.848   3.675   0.966
 3344SOL    HW110931   1.928   3.629   0.929
 3344SOL    HW210932   1.806   3.731   0.894
 3345SOL     OW10933   4.664   4.803   0.913
 3345SOL    HW110934   4.657   4.827   0.817
 3345SOL    HW210935   4.574   4.774   0.947
 3346SOL     OW10936   0.776   0.718   0.461
 3346SOL    HW110937   0.768   0.620   0.477
 3346SOL    HW210938   0.788   0.735   0.363
 3347SOL     OW10939   0.747   3.131   5.981
 3347SOL    HW110940   0.768   3.224   5.951
 3347SOL    HW210941   0.818   3.069   5.949
 3348SOL     OW10942   3.060   4.300   5.873
 3348SOL    HW110943   2.990   4.286   5.943
 3348SOL    HW210944   3.077   4.398   5.862
 3349SOL     OW10945   2.463   5.197   1.622
 3349SOL    HW110946   2.563   5.197   1.633
 3349SOL    HW210947   2.420   5.191   1.713
 3350SOL     OW10948   3.172   5.438   4.029
 3350SOL    HW110949   3.194   5.439   4.126
 3350SOL    HW210950   3.255   5.450   3.975
 3351SOL     OW10951   4.608   7.014   2.074
 3351SOL    HW110952   4.603   6.927   2.025
 3351SOL    HW210953   4.567   0.067   2.018
 3352SOL     OW10954   6.006   0.935   0.792
 3352SOL    HW110955   5.907   0.932   0.808
 3352SOL    HW210956   6.041   0.842   0.783
 3353SOL     OW10957   4.548   0.573   5.860
 3353SOL    HW110958   4.515   0.479   5.865
 3353SOL    HW210959   4.636   0.575   5.813
 3354SOL     OW10960   3.503   1.649   0.426
 3354SOL    HW110961   3.558   1.732   0.439
 3354SOL    HW210962   3.407   1.674   0.415
 3355SOL     OW10963   0.956   2.124   5.770
 3355SOL    HW110964   0.956   2.220   5.744
 3355SOL    HW210965   0.946   2.117   5.870
 3356SOL     OW10966   2.671   0.199   5.403
 3356SOL    HW110967   2.680   0.259   5.482
 3356SOL    HW210968   2.720   0.238   5.325
 3357SOL     OW10969   3.036   3.461   4.325
 3357SOL    HW110970   3.111   3.476   4.389
 3357SOL    HW210971   2.991   3.548   4.305
 3358SOL     OW10972   6.682   1.990   1.572
 3358SOL    HW110973   6.738   1.995   1.654
 3358SOL    HW210974   6.672   2.081   1.533
 3359SOL     OW10975   0.752   6.744   3.423
 3359SOL    HW110976   0.825   6.721   3.488
 3359SOL    HW210977   0.779   6.717   3.331
 3360SOL     OW10978   1.467   5.432   4.847
 3360SOL    HW110979   1.557   5.451   4.807
 3360SOL    HW210980   1.401   5.418   4.774
 3361SOL     OW10981   0.648   0.118   4.773
 3361SOL    HW110982   0.732   0.163   4.741
 3361SOL    HW210983   0.637   0.031   4.724
 3362SOL     OW10984   2.879   0.544   5.476
 3362SOL    HW110985   2.826   0.479   5.531
 3362SOL    HW210986   2.915   0.616   5.534
 3363SOL     OW10987   5.236   3.357   0.654
 3363SOL    HW110988   5.143   3.388   0.674
 3363SOL    HW210989   5.283   3.426   0.598
 3364SOL     OW10990   2.152   2.908   0.946
 3364SOL    HW110991   2.114   2.826   0.902
 3364SOL    HW210992   2.081   2.978   0.951
 3365SOL     OW10993   0.541   3.053   2.662
 3365SOL    HW110994   0.478   3.122   2.628
 3365SOL    HW210995   0.593   3.090   2.739
 3366SOL     OW10996   5.893   3.366   3.248
 3366SOL    HW110997   5.938   3.418   3.321
 3366SOL    HW210998   5.958   3.351   3.173
 3367SOL     OW10999   3.141   3.467   3.503
 3367SOL    HW111000   3.175   3.531   3.571
 3367SOL    HW211001   3.086   3.396   3.548
 3368SOL     OW11002   1.449   1.201   3.542
 3368SOL    HW111003   1.500   1.286   3.529
 3368SOL    HW211004   1.508   1.123   3.523
 3369SOL     OW11005   6.183   2.647   0.665
 3369SOL    HW111006   6.165   2.549   0.656
 3369SOL    HW211007   6.237   2.679   0.587
 3370SOL     OW11008   0.261   5.798   3.848
 3370SOL    HW111009   0.274   5.806   3.749
 3370SOL    HW211010   0.171   5.759   3.867
 3371SOL     OW11011   3.058   2.856   1.760
 3371SOL    HW111012   3.001   2.874   1.680
 3371SOL    HW211013   3.071   2.757   1.769
 3372SOL     OW11014   5.342   3.115   3.553
 3372SOL    HW111015   5.302   3.067   3.632
 3372SOL    HW211016   5.396   3.051   3.500
 3373SOL     OW11017   1.153   4.666   0.819
 3373SOL    HW111018   1.144   4.662   0.719
 3373SOL    HW211019   1.175   4.575   0.854
 3374SOL     OW11020   1.102   5.438   3.985
 3374SOL    HW111021   1.085   5.451   3.888
 3374SOL    HW211022   1.143   5.348   4.000
 3375SOL     OW11023   6.687   0.048   5.573
 3375SOL    HW111024   6.779   0.017   5.596
 3375SOL    HW211025   6.653   0.108   5.646
 3376SOL     OW11026   3.559   3.894   5.217
 3376SOL    HW111027   3.589   3.891   5.121
 3376SOL    HW211028   3.627   3.945   5.270
 3377SOL     OW11029   6.155   5.504   4.783
 3377SOL    HW111030   6.215   5.430   4.811
 3377SOL    HW211031   6.094   5.472   4.710
 3378SOL     OW11032   1.186   6.099   7.017
 3378SOL    HW111033   1.250   6.171   0.024
 3378SOL    HW211034   1.150   6.057   0.082
 3379SOL     OW11035   5.566   5.026   3.880
 3379SOL    HW111036   5.509   5.071   3.812
 3379SOL    HW211037   5.540   5.055   3.971
 3380SOL     OW11038   1.444   4.538   2.104
 3380SOL    HW111039   1.358   4.524   2.054
 3380SOL    HW211040   1.513   4.474   2.069
 3381SOL     OW11041   3.432   4.541   6.927
 3381SOL    HW111042   3.523   4.558   6.890
 3381SOL    HW211043   3.365   4.594   6.876
 3382SOL     OW11044   0.554   3.867   6.725
 3382SOL    HW111045   0.579   3.770   6.720
 3382SOL    HW211046   0.604   3.909   6.801
 3383SOL     OW11047   3.665   5.981   0.165
 3383SOL    HW111048   3.657   5.953   0.261
 3383SOL    HW211049   3.741   6.046   0.156
 3384SOL     OW11050   3.158   2.564   6.540
 3384SOL    HW111051   3.171   2.481   6.593
 3384SOL    HW211052   3.122   2.541   6.449
 3385SOL     OW11053   5.993   1.986   4.497
 3385SOL    HW111054   5.991   2.086   4.485
 3385SOL    HW211055   5.933   1.944   4.429
 3386SOL     OW11056   6.873   4.772   5.113
 3386SOL    HW111057   6.856   4.870   5.127
 3386SOL    HW211058   6.824   4.720   5.183
 3387SOL     OW11059   6.276   0.618   3.055
 3387SOL    HW111060   6.232   0.681   2.991
 3387SOL    HW211061   6.288   0.664   3.144
 3388SOL     OW11062   1.079   3.936   0.954
 3388SOL    HW111063   1.061   3.978   1.043
 3388SOL    HW211064   1.067   4.003   0.882
 3389SOL     OW11065   6.183   5.054   5.718
 3389SOL    HW111066   6.132   4.975   5.750
 3389SOL    HW211067   6.261   5.071   5.778
 3390SOL     OW11068   2.934   4.455   0.858
 3390SOL    HW111069   2.986   4.425   0.779
 3390SOL    HW211070   2.837   4.464   0.833
 3391SOL     OW11071   5.322   4.122   5.471
 3391SOL    HW111072   5.375   4.135   5.554
 3391SOL    HW211073   5.225   4.119   5.493
 3392SOL     OW11074   4.803   5.362   5.688
 3392SOL    HW111075   4.859   5.316   5.756
 3392SOL    HW211076   4.833   5.457   5.678
 3393SOL     OW11077   3.238   0.860   0.550
 3393SOL    HW111078   3.239   0.927   0.475
 3393SOL    HW211079   3.192   0.899   0.629
 3394SOL     OW11080   3.167   5.892   1.691
 3394SOL    HW111081   3.122   5.963   1.746
 3394SOL    HW211082   3.120   5.883   1.603
 3395SOL     OW11083   1.277   5.896   2.785
 3395SOL    HW111084   1.342   5.831   2.747
 3395SOL    HW211085   1.305   5.921   2.877
 3396SOL     OW11086   3.730   0.099   4.228
 3396SOL    HW111087   3.741   7.018   4.229
 3396SOL    HW211088   3.789   0.139   4.298
 3397SOL     OW11089   3.302   6.092   2.191
 3397SOL    HW111090   3.274   6.106   2.287
 3397SOL    HW211091   3.400   6.073   2.188
 3398SOL     OW11092   6.460   0.262   1.179
 3398SOL    HW111093   6.448   0.188   1.245
 3398SOL    HW211094   6.546   0.309   1.196
 3399SOL     OW11095   6.358   6.486   2.477
 3399SOL    HW111096   6.416   6.564   2.503
 3399SOL    HW211097   6.414   6.418   2.429
 3400SOL     OW11098   3.593   3.141   5.696
 3400SOL    HW111099   3.593   3.042   5.711
 3400SOL    HW211100   3.520   3.165   5.631
 3401SOL     OW11101   6.478   3.624   3.864
 3401SOL    HW111102   6.432   3.710   3.885
 3401SOL    HW211103   6.427   3.548   3.905
 3402SOL     OW11104   6.524   4.122   0.112
 3402SOL    HW111105   6.442   4.174   0.136
 3402SOL    HW211106   6.504   4.065   0.031
 3403SOL     OW11107   5.435   0.061   3.780
 3403SOL    HW111108   5.465   0.145   3.826
 3403SOL    HW211109   5.393   7.017   3.847
 3404SOL     OW11110   5.307   4.801   2.728
 3404SOL    HW111111   5.335   4.736   2.658
 3404SOL    HW211112   5.217   4.839   2.704
 3405SOL     OW11113   4.823   6.977   0.410
 3405SOL    HW111114   4.806   0.019   0.332
 3405SOL    HW211115   4.887   0.002   0.473
 3406SOL     OW11116   4.853   4.838   1.331
 3406SOL    HW111117   4.951   4.831   1.345
 3406SOL    HW211118   4.821   4.927   1.365
 3407SOL     OW11119   2.339   1.640   0.684
 3407SOL    HW111120   2.393   1.575   0.631
 3407SOL    HW211121   2.400   1.692   0.744
 3408SOL     OW11122   2.691   6.736   4.505
 3408SOL    HW111123   2.735   6.804   4.446
 3408SOL    HW211124   2.732   6.740   4.596
 3409SOL     OW11125   4.716   1.902   7.010
 3409SOL    HW111126   4.634   1.845   7.010
 3409SOL    HW211127   4.739   1.928   6.916
 3410SOL     OW11128   6.308   1.716   2.273
 3410SOL    HW111129   6.224   1.691   2.322
 3410SOL    HW211130   6.285   1.778   2.197
 3411SOL     OW11131   5.506   3.783   6.500
 3411SOL    HW111132   5.424   3.770   6.555
 3411SOL    HW211133   5.586   3.786   6.560
 3412SOL     OW11134   4.875   3.741   2.823
 3412SOL    HW111135   4.812   3.813   2.852
 3412SOL    HW211136   4.873   3.667   2.891
 3413SOL     OW11137   1.374   2.743   0.782
 3413SOL    HW111138   1.296   2.696   0.822
 3413SOL    HW211139   1.457   2.689   0.797
 3414SOL     OW11140   3.399   3.373   1.862
 3414SOL    HW111141   3.455   3.397   1.782
 3414SOL    HW211142   3.403   3.448   1.929
 3415SOL     OW11143   2.729   1.023   0.050
 3415SOL    HW111144   2.689   1.023   0.141
 3415SOL    HW211145   2.829   1.020   0.057
 3416SOL     OW11146   5.276   6.263   6.469
 3416SOL    HW111147   5.235   6.231   6.383
 3416SOL    HW211148   5.374   6.245   6.468
 3417SOL     OW11149   6.100   0.526   2.620
 3417SOL    HW111150   6.168   0.595   2.644
 3417SOL    HW211151   6.067   0.482   2.703
 3418SOL     OW11152   4.565   5.833   1.148
 3418SOL    HW111153   4.656   5.818   1.111
 3418SOL    HW211154   4.564   5.809   1.245
 3419SOL     OW11155   2.807   4.698   5.407
 3419SOL    HW111156   2.850   4.655   5.327
 3419SOL    HW211157   2.708   4.695   5.397
 3420SOL     OW11158   5.219   0.407   2.535
 3420SOL    HW111159   5.255   0.449   2.451
 3420SOL    HW211160   5.119   0.406   2.532
 3421SOL     OW11161   0.603   1.474   4.397
 3421SOL    HW111162   0.689   1.494   4.351
 3421SOL    HW211163   0.554   1.560   4.414
 3422SOL     OW11164   3.179   5.256   1.319
 3422SOL    HW111165   3.224   5.170   1.296
 3422SOL    HW211166   3.089   5.259   1.276
 3423SOL     OW11167   1.524   5.710   5.520
 3423SOL    HW111168   1.608   5.730   5.471
 3423SOL    HW211169   1.513   5.610   5.527
 3424SOL     OW11170   5.997   5.616   2.654
 3424SOL    HW111171   6.092   5.585   2.656
 3424SOL    HW211172   5.992   5.707   2.614
 3425SOL     OW11173   5.796   3.071   6.453
 3425SOL    HW111174   5.809   3.121   6.367
 3425SOL    HW211175   5.878   3.017   6.472
 3426SOL     OW11176   6.418   5.390   5.756
 3426SOL    HW111177   6.476   5.320   5.714
 3426SOL    HW211178   6.475   5.455   5.806
 3427SOL     OW11179   1.479   0.992   6.830
 3427SOL    HW111180   1.494   1.051   6.751
 3427SOL    HW211181   1.557   0.930   6.841
 3428SOL     OW11182   4.100   0.931   3.805
 3428SOL    HW111183   4.038   0.952   3.880
 3428SOL    HW211184   4.055   0.953   3.718
 3429SOL     OW11185   5.192   5.237   0.194
 3429SOL    HW111186   5.104   5.191   0.178
 3429SOL    HW211187   5.188   5.330   0.159
 3430SOL     OW11188   3.039   4.354   6.945
 3430SOL    HW111189   2.947   4.316   6.941
 3430SOL    HW211190   3.044   4.438   6.890
 3431SOL     OW11191   1.472   3.813   1.680
 3431SOL    HW111192   1.512   3.864   1.756
 3431SOL    HW211193   1.415   3.739   1.715
 3432SOL     OW11194   6.631   5.490   6.354
 3432SOL    HW111195   6.723   5.454   6.342
 3432SOL    HW211196   6.626   5.540   6.441
 3433SOL     OW11197   0.613   1.296   0.289
 3433SOL    HW111198   0.645   1.202   0.277
 3433SOL    HW211199   0.554   1.321   0.212
 3434SOL     OW11200   4.144   2.774   1.692
 3434SOL    HW111201   4.166   2.815   1.603
 3434SOL    HW211202   4.114   2.680   1.678
 3435SOL     OW11203   2.920   2.589   1.307
 3435SOL    HW111204   2.916   2.545   1.397
 3435SOL    HW211205   3.013   2.621   1.289
 3436SOL     OW11206   4.520   5.453   5.072
 3436SOL    HW111207   4.481   5.439   4.981
 3436SOL    HW211208   4.447   5.481   5.135
 3437SOL     OW11209   2.852   5.625   0.612
 3437SOL    HW111210   2.906   5.574   0.680
 3437SOL    HW211211   2.756   5.601   0.621
 3438SOL     OW11212   2.555   4.172   0.591
 3438SOL    HW111213   2.512   4.177   0.500
 3438SOL    HW211214   2.484   4.157   0.660
 3439SOL     OW11215   2.664   5.662   1.048
 3439SOL    HW111216   2.710   5.673   1.136
 3439SOL    HW211217   2.701   5.582   1.001
 3440SOL     OW11218   4.090   4.872   5.550
 3440SOL    HW111219   4.182   4.865   5.510
 3440SOL    HW211220   4.071   4.789   5.604
 3441SOL     OW11221   0.221   5.578   5.683
 3441SOL    HW111222   0.186   5.554   5.593
 3441SOL    HW211223   0.310   5.622   5.674
 3442SOL     OW11224   1.956   1.861   0.584
 3442SOL    HW111225   1.889   1.904   0.644
 3442SOL    HW211226   2.045   1.904   0.597
 3443SOL     OW11227   6.579   5.663   2.193
 3443SOL    HW111228   6.548   5.582   2.242
 3443SOL    HW211229   6.669   5.691   2.227
 3444SOL     OW11230   1.356   3.789   5.747
 3444SOL    HW111231   1.411   3.849   5.806
 3444SOL    HW211232   1.402   3.778   5.659
 3445SOL     OW11233   5.862   4.894   4.298
 3445SOL    HW111234   5.873   4.982   4.252
 3445SOL    HW211235   5.893   4.901   4.393
 3446SOL     OW11236   5.403   1.484   6.865
 3446SOL    HW111237   5.439   1.411   6.923
 3446SOL    HW211238   5.304   1.490   6.878
 3447SOL     OW11239   5.271   1.783   6.335
 3447SOL    HW111240   5.327   1.739   6.266
 3447SOL    HW211241   5.298   1.879   6.345
 3448SOL     OW11242   0.992   5.453   4.694
 3448SOL    HW111243   0.907   5.443   4.745
 3448SOL    HW211244   1.004   5.549   4.666
 3449SOL     OW11245   1.279   4.533   4.492
 3449SOL    HW111246   1.259   4.628   4.512
 3449SOL    HW211247   1.216   4.500   4.421
 3450SOL     OW11248   1.819   6.272   3.040
 3450SOL    HW111249   1.761   6.341   3.083
 3450SOL    HW211250   1.782   6.248   2.951
 3451SOL     OW11251   2.574   1.834   1.436
 3451SOL    HW111252   2.664   1.815   1.474
 3451SOL    HW211253   2.549   1.763   1.371
 3452SOL     OW11254   4.474   1.211   5.283
 3452SOL    HW111255   4.458   1.130   5.339
 3452SOL    HW211256   4.549   1.264   5.321
 3453SOL     OW11257   4.360   6.581   5.668
 3453SOL    HW111258   4.371   6.488   5.704
 3453SOL    HW211259   4.359   6.578   5.568
 3454SOL     OW11260   1.233   3.370   3.814
 3454SOL    HW111261   1.232   3.277   3.777
 3454SOL    HW211262   1.316   3.417   3.785
 3455SOL     OW11263   1.693   3.710   5.986
 3455SOL    HW111264   1.782   3.710   6.030
 3455SOL    HW211265   1.668   3.616   5.961
 3456SOL     OW11266   4.768   5.165   2.823
 3456SOL    HW111267   4.740   5.072   2.801
 3456SOL    HW211268   4.863   5.166   2.853
 3457SOL     OW11269   4.040   4.047   0.235
 3457SOL    HW111270   4.073   4.083   0.322
 3457SOL    HW211271   3.973   3.974   0.252
 3458SOL     OW11272   4.134   1.722   1.263
 3458SOL    HW111273   4.035   1.730   1.256
 3458SOL    HW211274   4.163   1.750   1.355
 3459SOL     OW11275   6.611   0.935   2.815
 3459SOL    HW111276   6.586   0.951   2.911
 3459SOL    HW211277   6.650   1.019   2.776
 3460SOL     OW11278   4.987   1.736   5.191
 3460SOL    HW111279   5.086   1.723   5.189
 3460SOL    HW211280   4.941   1.650   5.170
 3461SOL     OW11281   4.890   4.360   4.571
 3461SOL    HW111282   4.961   4.408   4.519
 3461SOL    HW211283   4.886   4.264   4.541
 3462SOL     OW11284   1.556   3.968   6.959
 3462SOL    HW111285   1.491   3.917   7.017
 3462SOL    HW211286   1.615   3.903   6.911
 3463SOL     OW11287   6.559   3.327   6.628
 3463SOL    HW111288   6.475   3.314   6.575
 3463SOL    HW211289   6.538   3.319   6.726
 3464SOL     OW11290   0.369   5.108   4.709
 3464SOL    HW111291   0.307   5.182   4.734
 3464SOL    HW211292   0.316   5.029   4.677
 3465SOL     OW11293   0.976   2.835   1.298
 3465SOL    HW111294   1.044   2.896   1.256
 3465SOL    HW211295   0.898   2.825   1.236
 3466SOL     OW11296   5.116   4.236   2.992
 3466SOL    HW111297   5.056   4.171   2.944
 3466SOL    HW211298   5.113   4.217   3.090
 3467SOL     OW11299   1.882   1.407   6.214
 3467SOL    HW111300   1.830   1.492   6.211
 3467SOL    HW211301   1.907   1.380   6.121
 3468SOL     OW11302   5.794   4.916   1.697
 3468SOL    HW111303   5.711   4.902   1.751
 3468SOL    HW211304   5.797   5.010   1.664
 3469SOL     OW11305   5.725   3.425   0.764
 3469SOL    HW111306   5.672   3.387   0.840
 3469SOL    HW211307   5.814   3.455   0.797
 3470SOL     OW11308   6.292   5.991   6.566
 3470SOL    HW111309   6.234   5.939   6.503
 3470SOL    HW211310   6.293   5.946   6.655
 3471SOL     OW11311   3.787   6.856   4.232
 3471SOL    HW111312   3.828   6.778   4.183
 3471SOL    HW211313   3.778   6.833   4.328
 3472SOL     OW11314   3.494   0.641   4.047
 3472SOL    HW111315   3.481   0.651   3.948
 3472SOL    HW211316   3.592   0.642   4.068
 3473SOL     OW11317   5.111   6.767   3.529
 3473SOL    HW111318   5.152   6.693   3.476
 3473SOL    HW211319   5.178   6.840   3.542
 3474SOL     OW11320   5.690   5.102   0.465
 3474SOL    HW111321   5.789   5.094   0.456
 3474SOL    HW211322   5.667   5.193   0.500
 3475SOL     OW11323   1.733   5.754   4.947
 3475SOL    HW111324   1.713   5.697   5.027
 3475SOL    HW211325   1.728   5.698   4.865
 3476SOL     OW11326   2.833   1.862   3.221
 3476SOL    HW111327   2.917   1.818   3.253
 3476SOL    HW211328   2.773   1.878   3.300
 3477SOL     OW11329   4.860   5.271   2.321
 3477SOL    HW111330   4.880   5.230   2.233
 3477SOL    HW211331   4.934   5.333   2.347
 3478SOL     OW11332   3.623   5.097   0.153
 3478SOL    HW111333   3.716   5.119   0.123
 3478SOL    HW211334   3.599   5.152   0.233
 3479SOL     OW11335   1.944   0.855   0.562
 3479SOL    HW111336   1.938   0.761   0.595
 3479SOL    HW211337   2.020   0.901   0.607
 3480SOL     OW11338   1.700   6.526   4.255
 3480SOL    HW111339   1.725   6.592   4.183
 3480SOL    HW211340   1.775   6.518   4.320
 3481SOL     OW11341   1.859   4.314   0.632
 3481SOL    HW111342   1.790   4.242   0.626
 3481SOL    HW211343   1.937   4.281   0.686
 3482SOL     OW11344   6.902   2.030   1.367
 3482SOL    HW111345   6.843   1.950   1.352
 3482SOL    HW211346   6.852   2.097   1.422
 3483SOL     OW11347   4.292   1.783   1.025
 3483SOL    HW111348   4.241   1.771   1.110
 3483SOL    HW211349   4.281   1.877   0.993
 3484SOL     OW11350   3.343   4.125   3.764
 3484SOL    HW111351   3.382   4.148   3.675
 3484SOL    HW211352   3.250   4.089   3.751
 3485SOL     OW11353   6.108   2.804   3.701
 3485SOL    HW111354   6.123   2.903   3.691
 3485SOL    HW211355   6.071   2.785   3.792
 3486SOL     OW11356   6.204   1.638   2.687
 3486SOL    HW111357   6.185   1.732   2.657
 3486SOL    HW211358   6.279   1.640   2.753
 3487SOL     OW11359   1.410   6.546   1.185
 3487SOL    HW111360   1.363   6.565   1.099
 3487SOL    HW211361   1.397   6.449   1.209
 3488SOL     OW11362   6.536   3.189   5.319
 3488SOL    HW111363   6.623   3.234   5.337
 3488SOL    HW211364   6.526   3.174   5.220
 3489SOL     OW11365   2.239   5.713   6.983
 3489SOL    HW111366   2.237   5.758   0.054
 3489SOL    HW211367   2.319   5.744   6.932
 3490SOL     OW11368   5.540   3.644   0.180
 3490SOL    HW111369   5.492   3.688   0.104
 3490SOL    HW211370   5.579   3.557   0.149
 3491SOL     OW11371   5.995   2.683   5.049
 3491SOL    HW111372   5.895   2.683   5.058
 3491SOL    HW211373   6.029   2.777   5.049
 3492SOL     OW11374   0.760   4.202   6.479
 3492SOL    HW111375   0.844   4.148   6.483
 3492SOL    HW211376   0.684   4.148   6.514
 3493SOL     OW11377   0.309   5.030   0.935
 3493SOL    HW111378   0.289   5.080   1.019
 3493SOL    HW211379   0.285   5.087   0.856
 3494SOL     OW11380   3.018   0.063   1.434
 3494SOL    HW111381   2.932   0.056   1.485
 3494SOL    HW211382   3.095   0.057   1.496
 3495SOL     OW11383   5.681   4.078   6.059
 3495SOL    HW111384   5.687   4.178   6.061
 3495SOL    HW211385   5.677   4.043   6.152
 3496SOL     OW11386   0.537   6.418   1.366
 3496SOL    HW111387   0.623   6.414   1.315
 3496SOL    HW211388   0.555   6.396   1.462
 3497SOL     OW11389   3.192   0.190   5.007
 3497SOL    HW111390   3.107   0.208   4.959
 3497SOL    HW211391   3.175   0.183   5.105
 3498SOL     OW11392   1.647   2.092   0.336
 3498SOL    HW111393   1.743   2.083   0.308
 3498SOL    HW211394   1.637   2.069   0.432
 3499SOL     OW11395   6.786   3.820   3.227
 3499SOL    HW111396   6.760   3.755   3.155
 3499SOL    HW211397   6.883   3.808   3.248
 3500SOL     OW11398   6.802   2.137   0.605
 3500SOL    HW111399   6.874   2.186   0.556
 3500SOL    HW211400   6.782   2.051   0.557
 3501SOL     OW11401   6.997   5.326   3.124
 3501SOL    HW111402   6.950   5.276   3.052
 3501SOL    HW211403   6.934   5.343   3.200
 3502SOL     OW11404   0.964   6.584   1.395
 3502SOL    HW111405   1.002   6.499   1.432
 3502SOL    HW211406   0.901   6.563   1.320
 3503SOL     OW11407   2.733   1.288   3.597
 3503SOL    HW111408   2.723   1.304   3.499
 3503SOL    HW211409   2.687   1.361   3.648
 3504SOL     OW11410   2.052   2.580   2.698
 3504SOL    HW111411   2.088   2.502   2.749
 3504SOL    HW211412   2.127   2.642   2.675
 3505SOL     OW11413   4.381   6.926   4.772
 3505SOL    HW111414   4.436   6.945   4.691
 3505SOL    HW211415   4.332   6.840   4.759
 3506SOL     OW11416   6.885   3.160   2.716
 3506SOL    HW111417   6.806   3.164   2.777
 3506SOL    HW211418   6.854   3.151   2.622
 3507SOL     OW11419   0.125   0.090   5.349
 3507SOL    HW111420   0.175   0.038   5.419
 3507SOL    HW211421   0.049   0.034   5.315
 3508SOL     OW11422   0.517   4.616   6.957
 3508SOL    HW111423   0.423   4.583   6.958
 3508SOL    HW211424   0.549   4.629   0.033
 3509SOL     OW11425   3.910   6.764   6.775
 3509SOL    HW111426   3.818   6.795   6.797
 3509SOL    HW211427   3.960   6.746   6.860
 3510SOL     OW11428   2.099   1.790   2.963
 3510SOL    HW111429   2.188   1.803   2.921
 3510SOL    HW211430   2.105   1.807   3.062
 3511SOL     OW11431   1.088   1.131   3.941
 3511SOL    HW111432   1.182   1.109   3.968
 3511SOL    HW211433   1.024   1.095   4.009
 3512SOL     OW11434   3.265   2.899   2.234
 3512SOL    HW111435   3.255   2.969   2.163
 3512SOL    HW211436   3.321   2.824   2.199
 3513SOL     OW11437   6.634   5.090   0.419
 3513SOL    HW111438   6.661   4.996   0.401
 3513SOL    HW211439   6.555   5.091   0.480
 3514SOL     OW11440   3.547   5.533   3.335
 3514SOL    HW111441   3.605   5.586   3.397
 3514SOL    HW211442   3.542   5.439   3.367
 3515SOL     OW11443   3.788   5.563   4.255
 3515SOL    HW111444   3.799   5.463   4.251
 3515SOL    HW211445   3.697   5.588   4.223
 3516SOL     OW11446   1.717   1.349   0.815
 3516SOL    HW111447   1.799   1.331   0.869
 3516SOL    HW211448   1.725   1.437   0.770
 3517SOL     OW11449   0.181   0.796   6.450
 3517SOL    HW111450   0.111   0.867   6.448
 3517SOL    HW211451   0.181   0.751   6.540
 3518SOL     OW11452   4.182   4.140   6.296
 3518SOL    HW111453   4.235   4.140   6.211
 3518SOL    HW211454   4.166   4.046   6.325
 3519SOL     OW11455   4.067   0.224   6.517
 3519SOL    HW111456   4.158   0.247   6.551
 3519SOL    HW211457   4.071   0.209   6.418
 3520SOL     OW11458   4.409   5.189   0.928
 3520SOL    HW111459   4.340   5.132   0.882
 3520SOL    HW211460   4.412   5.166   1.025
 3521SOL     OW11461   0.342   1.863   5.704
 3521SOL    HW111462   0.350   1.794   5.632
 3521SOL    HW211463   0.411   1.934   5.690
 3522SOL     OW11464   2.383   0.339   0.980
 3522SOL    HW111465   2.465   0.384   1.018
 3522SOL    HW211466   2.302   0.384   1.016
 3523SOL     OW11467   2.322   4.336   4.234
 3523SOL    HW111468   2.394   4.331   4.303
 3523SOL    HW211469   2.236   4.364   4.278
 3524SOL     OW11470   2.847   1.552   3.518
 3524SOL    HW111471   2.944   1.539   3.500
 3524SOL    HW211472   2.794   1.514   3.442
 3525SOL     OW11473   2.081   3.386   4.158
 3525SOL    HW111474   2.080   3.402   4.257
 3525SOL    HW211475   2.106   3.291   4.141
 3526SOL     OW11476   3.701   5.772   3.847
 3526SOL    HW111477   3.753   5.846   3.804
 3526SOL    HW211478   3.730   5.684   3.809
 3527SOL     OW11479   0.100   3.625   6.090
 3527SOL    HW111480   0.105   3.525   6.083
 3527SOL    HW211481   0.058   3.650   6.177
 3528SOL     OW11482   1.306   6.502   3.766
 3528SOL    HW111483   1.365   6.423   3.750
 3528SOL    HW211484   1.290   6.513   3.864
 3529SOL     OW11485   3.716   6.762   0.488
 3529SOL    HW111486   3.703   6.861   0.494
 3529SOL    HW211487   3.752   6.738   0.398
 3530SOL     OW11488   1.470   5.680   2.287
 3530SOL    HW111489   1.447   5.726   2.201
 3530SOL    HW211490   1.544   5.729   2.332
 3531SOL     OW11491   5.229   4.043   6.908
 3531SOL    HW111492   5.286   4.083   6.836
 3531SOL    HW211493   5.286   3.991   6.971
 3532SOL     OW11494   2.575   6.968   6.488
 3532SOL    HW111495   2.526   0.016   6.544
 3532SOL    HW211496   2.638   7.016   6.427
 3533SOL     OW11497   1.389   1.533   2.704
 3533SOL    HW111498   1.443   1.520   2.787
 3533SOL    HW211499   1.335   1.617   2.713
 3534SOL     OW11500   4.690   6.625   4.513
 3534SOL    HW111501   4.600   6.583   4.506
 3534SOL    HW211502   4.758   6.555   4.536
 3535SOL     OW11503   4.062   4.593   0.041
 3535SOL    HW111504   4.051   4.494   0.039
 3535SOL    HW211505   4.135   4.617   0.105
 3536SOL     OW11506   2.113   3.098   2.389
 3536SOL    HW111507   2.123   3.196   2.376
 3536SOL    HW211508   2.091   3.055   2.301
 3537SOL     OW11509   3.042   5.172   1.560
 3537SOL    HW111510   3.081   5.182   1.468
 3537SOL    HW211511   2.986   5.089   1.562
 3538SOL     OW11512   2.599   0.419   3.662
 3538SOL    HW111513   2.664   0.461   3.726
 3538SOL    HW211514   2.620   0.322   3.652
 3539SOL     OW11515   5.065   5.354   5.986
 3539SOL    HW111516   4.984   5.367   6.044
 3539SOL    HW211517   5.045   5.285   5.917
 3540SOL     OW11518   5.041   4.122   0.420
 3540SOL    HW111519   5.104   4.166   0.356
 3540SOL    HW211520   4.970   4.074   0.369
 3541SOL     OW11521   0.025   2.837   2.086
 3541SOL    HW111522   6.953   2.819   2.046
 3541SOL    HW211523   0.089   2.767   2.054
 3542SOL     OW11524   6.156   0.981   6.865
 3542SOL    HW111525   6.193   0.930   6.788
 3542SOL    HW211526   6.220   0.976   6.942
 3543SOL     OW11527   0.044   3.007   4.679
 3543SOL    HW111528   0.027   3.014   4.581
 3543SOL    HW211529   0.087   2.919   4.699
 3544SOL     OW11530   3.954   4.634   5.667
 3544SOL    HW111531   3.861   4.613   5.695
 3544SOL    HW211532   4.018   4.569   5.708
 3545SOL     OW11533   2.755   6.271   1.640
 3545SOL    HW111534   2.724   6.206   1.710
 3545SOL    HW211535   2.742   6.364   1.674
 3546SOL     OW11536   0.271   4.583   0.847
 3546SOL    HW111537   0.209   4.653   0.812
 3546SOL    HW211538   0.318   4.538   0.772
 3547SOL     OW11539   1.808   3.912   4.368
 3547SOL    HW111540   1.879   3.944   4.305
 3547SOL    HW211541   1.845   3.912   4.462
 3548SOL     OW11542   6.157   6.949   5.252
 3548SOL    HW111543   6.097   6.870   5.235
 3548SOL    HW211544   6.115   7.008   5.321
 3549SOL     OW11545   1.596   0.125   6.701
 3549SOL    HW111546   1.650   0.044   6.720
 3549SOL    HW211547   1.587   0.180   6.784
 3550SOL     OW11548   6.585   2.491   4.766
 3550SOL    HW111549   6.596   2.433   4.685
 3550SOL    HW211550   6.667   2.548   4.777
 3551SOL     OW11551   6.472   1.529   5.270
 3551SOL    HW111552   6.387   1.502   5.223
 3551SOL    HW211553   6.472   1.489   5.362
 3552SOL     OW11554   6.471   0.698   3.857
 3552SOL    HW111555   6.376   0.692   3.827
 3552SOL    HW211556   6.522   0.620   3.821
 3553SOL     OW11557   5.799   6.208   6.463
 3553SOL    HW111558   5.878   6.220   6.523
 3553SOL    HW211559   5.825   6.225   6.368
 3554SOL     OW11560   6.328   3.528   6.749
 3554SOL    HW111561   6.322   3.558   6.654
 3554SOL    HW211562   6.248   3.472   6.772
 3555SOL     OW11563   3.139   1.133   5.159
 3555SOL    HW111564   3.234   1.105   5.175
 3555SOL    HW211565   3.081   1.100   5.234
 3556SOL     OW11566   5.425   1.221   0.462
 3556SOL    HW111567   5.382   1.201   0.551
 3556SOL    HW211568   5.512   1.268   0.477
 3557SOL     OW11569   4.934   0.332   0.970
 3557SOL    HW111570   4.877   0.348   1.051
 3557SOL    HW211571   4.961   0.236   0.967
 3558SOL     OW11572   4.554   5.954   3.172
 3558SOL    HW111573   4.599   5.979   3.258
 3558SOL    HW211574   4.472   5.901   3.191
 3559SOL     OW11575   4.691   6.149   6.482
 3559SOL    HW111576   4.655   6.210   6.553
 3559SOL    HW211577   4.730   6.068   6.525
 3560SOL     OW11578   1.853   5.732   4.573
 3560SOL    HW111579   1.941   5.780   4.563
 3560SOL    HW211580   1.856   5.646   4.522
 3561SOL     OW11581   4.298   3.014   6.368
 3561SOL    HW111582   4.242   2.986   6.446
 3561SOL    HW211583   4.394   3.019   6.396
 3562SOL     OW11584   2.589   1.112   0.632
 3562SOL    HW111585   2.524   1.101   0.557
 3562SOL    HW211586   2.673   1.061   0.612
 3563SOL     OW11587   5.942   2.143   5.940
 3563SOL    HW111588   5.895   2.141   5.852
 3563SOL    HW211589   5.878   2.170   6.012
 3564SOL     OW11590   5.699   2.619   3.034
 3564SOL    HW111591   5.656   2.610   3.124
 3564SOL    HW211592   5.786   2.668   3.043
 3565SOL     OW11593   4.802   6.166   5.419
 3565SOL    HW111594   4.855   6.164   5.504
 3565SOL    HW211595   4.859   6.135   5.343
 3566SOL     OW11596   0.556   0.932   4.872
 3566SOL    HW111597   0.570   0.978   4.960
 3566SOL    HW211598   0.636   0.875   4.852
 3567SOL     OW11599   1.142   4.440   6.989
 3567SOL    HW111600   1.045   4.461   6.974
 3567SOL    HW211601   1.176   4.493   0.048
 3568SOL     OW11602   1.681   3.922   5.422
 3568SOL    HW111603   1.597   3.875   5.393
 3568SOL    HW211604   1.670   3.952   5.517
 3569SOL     OW11605   0.599   0.241   3.795
 3569SOL    HW111606   0.537   0.188   3.853
 3569SOL    HW211607   0.694   0.223   3.822
 3570SOL     OW11608   0.532   1.761   4.907
 3570SOL    HW111609   0.568   1.839   4.855
 3570SOL    HW211610   0.439   1.740   4.876
 3571SOL     OW11611   6.929   5.629   5.131
 3571SOL    HW111612   6.906   5.594   5.040
 3571SOL    HW211613   7.015   5.680   5.126
 3572SOL     OW11614   5.283   6.768   5.468
 3572SOL    HW111615   5.348   6.715   5.524
 3572SOL    HW211616   5.286   6.864   5.494
 3573SOL     OW11617   0.046   2.915   1.772
 3573SOL    HW111618   0.031   3.005   1.812
 3573SOL    HW211619   0.068   2.850   1.845
 3574SOL     OW11620   0.498   3.679   0.426
 3574SOL    HW111621   0.438   3.756   0.447
 3574SOL    HW211622   0.593   3.710   0.427
 3575SOL     OW11623   6.697   0.517   2.670
 3575SOL    HW111624   6.728   0.594   2.726
 3575SOL    HW211625   6.627   0.465   2.720
 3576SOL     OW11626   0.367   1.383   1.060
 3576SOL    HW111627   0.447   1.397   1.001
 3576SOL    HW211628   0.339   1.471   1.100
 3577SOL     OW11629   2.166   4.366   0.431
 3577SOL    HW111630   2.166   4.357   0.530
 3577SOL    HW211631   2.178   4.462   0.406
 3578SOL     OW11632   3.520   4.806   1.609
 3578SOL    HW111633   3.527   4.730   1.674
 3578SOL    HW211634   3.572   4.785   1.527
 3579SOL     OW11635   2.525   3.029   6.536
 3579SOL    HW111636   2.444   3.012   6.481
 3579SOL    HW211637   2.515   2.984   6.625
 3580SOL     OW11638   5.624   1.152   2.146
 3580SOL    HW111639   5.577   1.128   2.231
 3580SOL    HW211640   5.624   1.251   2.135
 3581SOL     OW11641   0.038   1.618   2.688
 3581SOL    HW111642   6.990   1.561   2.736
 3581SOL    HW211643   0.117   1.634   2.746
 3582SOL     OW11644   1.009   0.746   5.969
 3582SOL    HW111645   0.980   0.751   5.873
 3582SOL    HW211646   0.937   0.784   6.027
 3583SOL     OW11647   1.227   6.861   2.458
 3583SOL    HW111648   1.308   6.802   2.460
 3583SOL    HW211649   1.231   6.919   2.377
 3584SOL     OW11650   5.129   0.506   5.177
 3584SOL    HW111651   5.166   0.595   5.150
 3584SOL    HW211652   5.059   0.478   5.110
 3585SOL     OW11653   2.428   4.814   2.785
 3585SOL    HW111654   2.340   4.860   2.771
 3585SOL    HW211655   2.413   4.723   2.823
 3586SOL     OW11656   1.265   1.251   0.130
 3586SOL    HW111657   1.236   1.244   0.034
 3586SOL    HW211658   1.192   1.219   0.189
 3587SOL     OW11659   3.977   6.029   5.967
 3587SOL    HW111660   4.053   6.077   6.010
 3587SOL    HW211661   3.987   6.034   5.867
 3588SOL     OW11662   2.532   2.648   5.536
 3588SOL    HW111663   2.462   2.576   5.530
 3588SOL    HW211664   2.532   2.701   5.450
 3589SOL     OW11665   2.729   6.181   4.435
 3589SOL    HW111666   2.751   6.157   4.529
 3589SOL    HW211667   2.630   6.177   4.421
 3590SOL     OW11668   1.198   5.817   6.843
 3590SOL    HW111669   1.226   5.899   6.894
 3590SOL    HW211670   1.250   5.738   6.875
 3591SOL     OW11671   4.749   2.160   4.601
 3591SOL    HW111672   4.805   2.079   4.616
 3591SOL    HW211673   4.737   2.209   4.687
 3592SOL     OW11674   5.549   1.096   2.416
 3592SOL    HW111675   5.537   1.144   2.503
 3592SOL    HW211676   5.515   1.002   2.425
 3593SOL     OW11677   0.842   4.938   4.700
 3593SOL    HW111678   0.866   4.885   4.781
 3593SOL    HW211679   0.775   5.008   4.725
 3594SOL     OW11680   4.314   1.497   4.725
 3594SOL    HW111681   4.279   1.482   4.817
 3594SOL    HW211682   4.273   1.431   4.662
 3595SOL     OW11683   2.162   6.770   6.839
 3595SOL    HW111684   2.085   6.777   6.902
 3595SOL    HW211685   2.215   6.688   6.861
 3596SOL     OW11686   6.315   3.447   2.950
 3596SOL    HW111687   6.283   3.534   2.912
 3596SOL    HW211688   6.374   3.402   2.883
 3597SOL     OW11689   4.299   0.509   3.735
 3597SOL    HW111690   4.358   0.444   3.687
 3597SOL    HW211691   4.214   0.463   3.762
 3598SOL     OW11692   2.132   7.017   0.177
 3598SOL    HW111693   2.171   6.983   0.092
 3598SOL    HW211694   2.184   0.079   0.207
 3599SOL     OW11695   0.402   2.100   4.169
 3599SOL    HW111696   0.339   2.023   4.176
 3599SOL    HW211697   0.370   2.174   4.228
 3600SOL     OW11698   6.582   6.399   1.248
 3600SOL    HW111699   6.531   6.484   1.261
 3600SOL    HW211700   6.677   6.414   1.275
 3601SOL     OW11701   6.830   3.862   5.873
 3601SOL    HW111702   6.827   3.786   5.809
 3601SOL    HW211703   6.824   3.827   5.967
 3602SOL     OW11704   3.321   2.498   0.929
 3602SOL    HW111705   3.375   2.413   0.929
 3602SOL    HW211706   3.381   2.576   0.941
 3603SOL     OW11707   3.609   5.347   5.118
 3603SOL    HW111708   3.667   5.399   5.181
 3603SOL    HW211709   3.637   5.251   5.121
 3604SOL     OW11710   5.760   4.271   3.497
 3604SOL    HW111711   5.853   4.287   3.464
 3604SOL    HW211712   5.758   4.189   3.554
 3605SOL     OW11713   5.787   1.345   6.615
 3605SOL    HW111714   5.725   1.364   6.691
 3605SOL    HW211715   5.741   1.368   6.529
 3606SOL     OW11716   1.758   3.686   2.746
 3606SOL    HW111717   1.694   3.609   2.736
 3606SOL    HW211718   1.769   3.707   2.843
 3607SOL     OW11719   4.290   6.439   5.041
 3607SOL    HW111720   4.377   6.416   5.085
 3607SOL    HW211721   4.222   6.369   5.061
 3608SOL     OW11722   6.493   3.483   2.724
 3608SOL    HW111723   6.459   3.398   2.684
 3608SOL    HW211724   6.530   3.542   2.652
 3609SOL     OW11725   0.929   0.917   4.099
 3609SOL    HW111726   0.919   0.845   4.167
 3609SOL    HW211727   0.838   0.944   4.065
 3610SOL     OW11728   1.213   4.647   5.751
 3610SOL    HW111729   1.229   4.729   5.696
 3610SOL    HW211730   1.284   4.639   5.821
 3611SOL     OW11731   4.521   4.885   6.487
 3611SOL    HW111732   4.508   4.888   6.388
 3611SOL    HW211733   4.525   4.978   6.524
 3612SOL     OW11734   2.390   5.601   1.273
 3612SOL    HW111735   2.338   5.601   1.187
 3612SOL    HW211736   2.478   5.556   1.258
 3613SOL     OW11737   5.406   4.603   6.189
 3613SOL    HW111738   5.426   4.645   6.277
 3613SOL    HW211739   5.491   4.573   6.146
 3614SOL     OW11740   3.842   3.259   4.999
 3614SOL    HW111741   3.874   3.206   4.921
 3614SOL    HW211742   3.753   3.226   5.028
 3615SOL     OW11743   5.895   0.103   6.461
 3615SOL    HW111744   5.845   0.141   6.539
 3615SOL    HW211745   5.829   0.068   6.394
 3616SOL     OW11746   7.000   1.262   4.082
 3616SOL    HW111747   6.959   1.307   4.003
 3616SOL    HW211748   0.023   1.330   4.142
 3617SOL     OW11749   0.203   0.306   1.323
 3617SOL    HW111750   0.265   0.381   1.298
 3617SOL    HW211751   0.152   0.331   1.405
 3618SOL     OW11752   3.939   5.563   6.322
 3618SOL    HW111753   3.919   5.605   6.234
 3618SOL    HW211754   3.911   5.467   6.321
 3619SOL     OW11755   4.915   3.408   3.808
 3619SOL    HW111756   5.006   3.417   3.768
 3619SOL    HW211757   4.884   3.313   3.798
 3620SOL     OW11758   5.721   1.942   5.190
 3620SOL    HW111759   5.667   2.023   5.164
 3620SOL    HW211760   5.663   1.861   5.187
 3621SOL     OW11761   2.230   2.656   6.558
 3621SOL    HW111762   2.224   2.725   6.630
 3621SOL    HW211763   2.170   2.682   6.482
 3622SOL     OW11764   1.453   4.071   0.892
 3622SOL    HW111765   1.461   4.159   0.846
 3622SOL    HW211766   1.523   4.065   0.963
 3623SOL     OW11767   6.437   5.300   4.550
 3623SOL    HW111768   6.423   5.243   4.470
 3623SOL    HW211769   6.391   5.388   4.537
 3624SOL     OW11770   1.801   0.236   1.753
 3624SOL    HW111771   1.858   0.257   1.674
 3624SOL    HW211772   1.859   0.227   1.834
 3625SOL     OW11773   1.611   2.059   5.236
 3625SOL    HW111774   1.601   2.108   5.149
 3625SOL    HW211775   1.529   2.074   5.292
 3626SOL     OW11776   1.576   3.310   5.385
 3626SOL    HW111777   1.627   3.370   5.322
 3626SOL    HW211778   1.479   3.331   5.379
 3627SOL     OW11779   3.991   3.539   4.421
 3627SOL    HW111780   3.894   3.557   4.430
 3627SOL    HW211781   4.042   3.589   4.492
 3628SOL     OW11782   2.980   5.289   3.882
 3628SOL    HW111783   2.929   5.368   3.847
 3628SOL    HW211784   3.058   5.321   3.936
 3629SOL     OW11785   6.132   3.736   4.942
 3629SOL    HW111786   6.098   3.831   4.949
 3629SOL    HW211787   6.224   3.731   4.980
 3630SOL     OW11788   6.384   2.039   4.462
 3630SOL    HW111789   6.455   1.984   4.418
 3630SOL    HW211790   6.333   2.089   4.392
 3631SOL     OW11791   2.176   0.853   4.253
 3631SOL    HW111792   2.183   0.920   4.327
 3631SOL    HW211793   2.190   0.898   4.165
 3632SOL     OW11794   4.888   6.777   6.302
 3632SOL    HW111795   4.958   6.848   6.295
 3632SOL    HW211796   4.821   6.789   6.229
 3633SOL     OW11797   0.899   2.909   5.644
 3633SOL    HW111798   0.947   2.866   5.568
 3633SOL    HW211799   0.836   2.844   5.685
 3634SOL     OW11800   2.441   4.668   6.447
 3634SOL    HW111801   2.464   4.571   6.451
 3634SOL    HW211802   2.435   4.698   6.352
 3635SOL     OW11803   1.572   1.914   4.440
 3635SOL    HW111804   1.648   1.893   4.379
 3635SOL    HW211805   1.587   1.870   4.528
 3636SOL     OW11806   0.323   6.884   1.262
 3636SOL    HW111807   0.243   6.824   1.261
 3636SOL    HW211808   0.355   6.898   1.169
 3637SOL     OW11809   5.016   1.391   2.557
 3637SOL    HW111810   5.087   1.375   2.489
 3637SOL    HW211811   4.959   1.468   2.529
 3638SOL     OW11812   6.763   5.010   3.454
 3638SOL    HW111813   6.708   4.943   3.504
 3638SOL    HW211814   6.709   5.093   3.438
 3639SOL     OW11815   2.630   5.674   6.610
 3639SOL    HW111816   2.604   5.737   6.536
 3639SOL    HW211817   2.730   5.666   6.612
 3640SOL     OW11818   2.210   6.576   2.936
 3640SOL    HW111819   2.122   6.540   2.904
 3640SOL    HW211820   2.264   6.501   2.976
 3641SOL     OW11821   2.129   0.744   5.042
 3641SOL    HW111822   2.106   0.696   4.957
 3641SOL    HW211823   2.228   0.752   5.051
 3642SOL     OW11824   6.290   0.171   3.019
 3642SOL    HW111825   6.296   0.249   3.081
 3642SOL    HW211826   6.375   0.164   2.967
 3643SOL     OW11827   4.066   7.015   4.218
 3643SOL    HW111828   4.154   6.968   4.206
 3643SOL    HW211829   3.995   6.949   4.240
 3644SOL     OW11830   6.175   0.538   1.712
 3644SOL    HW111831   6.158   0.555   1.809
 3644SOL    HW211832   6.097   0.571   1.659
 3645SOL     OW11833   4.746   5.606   4.071
 3645SOL    HW111834   4.649   5.601   4.092
 3645SOL    HW211835   4.783   5.514   4.056
 3646SOL     OW11836   0.526   5.454   5.171
 3646SOL    HW111837   0.565   5.502   5.250
 3646SOL    HW211838   0.442   5.499   5.142
 3647SOL     OW11839   4.008   3.022   1.008
 3647SOL    HW111840   3.933   2.962   1.034
 3647SOL    HW211841   4.039   2.998   0.916
 3648SOL     OW11842   2.496   6.438   3.739
 3648SOL    HW111843   2.421   6.438   3.673
 3648SOL    HW211844   2.466   6.481   3.824
 3649SOL     OW11845   4.087   3.318   3.370
 3649SOL    HW111846   4.166   3.257   3.377
 3649SOL    HW211847   4.005   3.263   3.354
 3650SOL     OW11848   5.815   6.169   1.950
 3650SOL    HW111849   5.718   6.144   1.962
 3650SOL    HW211850   5.825   6.268   1.964
 3651SOL     OW11851   1.996   5.314   1.742
 3651SOL    HW111852   1.997   5.256   1.823
 3651SOL    HW211853   1.902   5.326   1.711
 3652SOL     OW11854   4.210   6.358   4.115
 3652SOL    HW111855   4.306   6.361   4.085
 3652SOL    HW211856   4.153   6.404   4.046
 3653SOL     OW11857   0.372   3.440   3.230
 3653SOL    HW111858   0.285   3.449   3.279
 3653SOL    HW211859   0.447   3.465   3.290
 3654SOL     OW11860   2.374   6.781   1.773
 3654SOL    HW111861   2.430   6.813   1.697
 3654SOL    HW211862   2.277   6.784   1.747
 3655SOL     OW11863   6.384   1.129   3.746
 3655SOL    HW111864   6.334   1.144   3.661
 3655SOL    HW211865   6.321   1.098   3.817
 3656SOL     OW11866   1.881   1.806   2.758
 3656SOL    HW111867   1.915   1.848   2.674
 3656SOL    HW211868   1.957   1.766   2.808
 3657SOL     OW11869   5.831   5.024   1.156
 3657SOL    HW111870   5.774   5.099   1.123
 3657SOL    HW211871   5.872   4.977   1.079
 3658SOL     OW11872   2.571   4.532   5.501
 3658SOL    HW111873   2.611   4.503   5.414
 3658SOL    HW211874   2.635   4.511   5.575
 3659SOL     OW11875   1.735   3.497   6.661
 3659SOL    HW111876   1.826   3.536   6.647
 3659SOL    HW211877   1.743   3.409   6.708
 3660SOL     OW11878   5.014   4.202   0.865
 3660SOL    HW111879   5.018   4.206   0.964
 3660SOL    HW211880   5.097   4.159   0.830
 3661SOL     OW11881   5.241   0.775   2.009
 3661SOL    HW111882   5.224   0.860   1.959
 3661SOL    HW211883   5.338   0.770   2.033
 3662SOL     OW11884   1.649   6.279   4.193
 3662SOL    HW111885   1.659   6.376   4.213
 3662SOL    HW211886   1.737   6.233   4.209
 3663SOL     OW11887   2.380   2.782   5.754
 3663SOL    HW111888   2.451   2.715   5.732
 3663SOL    HW211889   2.301   2.767   5.695
 3664SOL     OW11890   3.926   0.030   2.016
 3664SOL    HW111891   4.004   6.989   2.036
 3664SOL    HW211892   3.957   0.125   2.009
 3665SOL     OW11893   2.703   1.814   5.226
 3665SOL    HW111894   2.778   1.880   5.222
 3665SOL    HW211895   2.740   1.722   5.239
 3666SOL     OW11896   0.838   4.864   3.052
 3666SOL    HW111897   0.792   4.822   3.130
 3666SOL    HW211898   0.922   4.814   3.031
 3667SOL     OW11899   0.128   0.541   0.132
 3667SOL    HW111900   0.161   0.556   0.225
 3667SOL    HW211901   0.076   0.621   0.103
 3668SOL     OW11902   2.061   0.081   1.151
 3668SOL    HW111903   1.999   0.036   1.216
 3668SOL    HW211904   2.011   0.147   1.096
 3669SOL     OW11905   5.176   1.615   4.519
 3669SOL    HW111906   5.209   1.709   4.533
 3669SOL    HW211907   5.146   1.604   4.425
 3670SOL     OW11908   3.299   5.015   5.805
 3670SOL    HW111909   3.219   4.973   5.847
 3670SOL    HW211910   3.376   5.012   5.870
 3671SOL     OW11911   1.892   1.502   3.342
 3671SOL    HW111912   1.889   1.496   3.242
 3671SOL    HW211913   1.914   1.596   3.369
 3672SOL     OW11914   6.109   5.979   7.000
 3672SOL    HW111915   6.168   6.006   0.057
 3672SOL    HW211916   6.079   5.885   7.013
 3673SOL     OW11917   3.830   6.716   6.196
 3673SOL    HW111918   3.759   6.786   6.189
 3673SOL    HW211919   3.789   6.629   6.221
 3674SOL     OW11920   1.224   6.589   0.953
 3674SOL    HW111921   1.166   6.671   0.957
 3674SOL    HW211922   1.260   6.579   0.860
 3675SOL     OW11923   2.063   2.178   4.067
 3675SOL    HW111924   1.985   2.213   4.118
 3675SOL    HW211925   2.033   2.146   3.978
 3676SOL     OW11926   0.714   4.865   2.786
 3676SOL    HW111927   0.785   4.910   2.731
 3676SOL    HW211928   0.739   4.871   2.882
 3677SOL     OW11929   6.445   0.941   3.290
 3677SOL    HW111930   6.387   0.868   3.327
 3677SOL    HW211931   6.499   0.982   3.364
 3678SOL     OW11932   0.660   2.688   4.216
 3678SOL    HW111933   0.618   2.603   4.248
 3678SOL    HW211934   0.744   2.667   4.167
 3679SOL     OW11935   6.187   1.237   1.769
 3679SOL    HW111936   6.256   1.248   1.840
 3679SOL    HW211937   6.210   1.159   1.711
 3680SOL     OW11938   6.213   4.598   5.013
 3680SOL    HW111939   6.146   4.672   5.003
 3680SOL    HW211940   6.184   4.519   4.961
 3681SOL     OW11941   5.559   0.462   4.876
 3681SOL    HW111942   5.488   0.401   4.911
 3681SOL    HW211943   5.518   0.549   4.849
 3682SOL     OW11944   0.426   1.998   0.039
 3682SOL    HW111945   0.437   1.924   6.991
 3682SOL    HW211946   0.467   2.082   0.002
 3683SOL     OW11947   4.749   6.466   3.993
 3683SOL    HW111948   4.756   6.552   4.043
 3683SOL    HW211949   4.659   6.426   4.008
 3684SOL     OW11950   2.402   3.980   1.805
 3684SOL    HW111951   2.402   4.023   1.895
 3684SOL    HW211952   2.333   3.907   1.803
 3685SOL     OW11953   5.756   5.527   5.676
 3685SOL    HW111954   5.801   5.531   5.765
 3685SOL    HW211955   5.694   5.449   5.673
 3686SOL     OW11956   0.606   4.223   0.425
 3686SOL    HW111957   0.531   4.158   0.412
 3686SOL    HW211958   0.596   4.298   0.360
 3687SOL     OW11959   3.968   0.872   0.650
 3687SOL    HW111960   3.998   0.796   0.593
 3687SOL    HW211961   4.035   0.888   0.723
 3688SOL     OW11962   0.044   2.633   6.512
 3688SOL    HW111963   0.117   2.598   6.572
 3688SOL    HW211964   6.980   2.578   6.525
 3689SOL     OW11965   1.324   6.196   3.792
 3689SOL    HW111966   1.415   6.153   3.784
 3689SOL    HW211967   1.291   6.185   3.885
 3690SOL     OW11968   4.728   4.717   5.715
 3690SOL    HW111969   4.740   4.810   5.748
 3690SOL    HW211970   4.729   4.653   5.793
 3691SOL     OW11971   3.183   3.366   6.386
 3691SOL    HW111972   3.220   3.450   6.346
 3691SOL    HW211973   3.104   3.388   6.443
 3692SOL     OW11974   6.722   0.435   5.205
 3692SOL    HW111975   6.662   0.412   5.128
 3692SOL    HW211976   6.733   0.354   5.263
 3693SOL     OW11977   1.693   1.353   3.461
 3693SOL    HW111978   1.687   1.379   3.557
 3693SOL    HW211979   1.771   1.399   3.419
 3694SOL     OW11980   1.531   4.776   3.714
 3694SOL    HW111981   1.491   4.793   3.624
 3694SOL    HW211982   1.570   4.861   3.750
 3695SOL     OW11983   2.330   2.601   0.783
 3695SOL    HW111984   2.330   2.516   0.835
 3695SOL    HW211985   2.352   2.581   0.687
 3696SOL     OW11986   2.933   5.821   5.594
 3696SOL    HW111987   2.936   5.895   5.660
 3696SOL    HW211988   3.024   5.779   5.587
 3697SOL     OW11989   5.307   1.015   3.373
 3697SOL    HW111990   5.362   1.016   3.290
 3697SOL    HW211991   5.352   1.071   3.443
 3698SOL     OW11992   3.411   6.774   6.017
 3698SOL    HW111993   3.314   6.799   6.025
 3698SOL    HW211994   3.462   6.852   5.981
 3699SOL     OW11995   0.860   5.454   1.985
 3699SOL    HW111996   0.912   5.433   2.068
 3699SOL    HW211997   0.810   5.372   1.955
 3700SOL     OW11998   6.233   0.438   3.900
 3700SOL    HW111999   6.210   0.523   3.853
 3700SOL    HW212000   6.275   0.374   3.835
 3701SOL     OW12001   4.427   1.194   3.696
 3701SOL    HW112002   4.460   1.233   3.782
 3701SOL    HW212003   4.329   1.213   3.687
 3702SOL     OW12004   4.414   1.409   6.658
 3702SOL    HW112005   4.488   1.426   6.724
 3702SOL    HW212006   4.372   1.320   6.678
 3703SOL     OW12007   3.539   4.943   0.852
 3703SOL    HW112008   3.564   4.932   0.949
 3703SOL    HW212009   3.572   4.864   0.800
 3704SOL     OW12010   3.255   6.639   1.009
 3704SOL    HW112011   3.350   6.640   1.041
 3704SOL    HW212012   3.193   6.634   1.088
 3705SOL     OW12013   0.325   1.069   3.883
 3705SOL    HW112014   0.341   0.995   3.818
 3705SOL    HW212015   0.403   1.132   3.881
 3706SOL     OW12016   2.441   2.283   3.264
 3706SOL    HW112017   2.500   2.297   3.184
 3706SOL    HW212018   2.479   2.333   3.342
 3707SOL     OW12019   4.371   2.358   5.369
 3707SOL    HW112020   4.430   2.400   5.300
 3707SOL    HW212021   4.408   2.374   5.460
 3708SOL     OW12022   6.353   6.978   0.844
 3708SOL    HW112023   6.261   7.008   0.868
 3708SOL    HW212024   6.367   6.989   0.746
 3709SOL     OW12025   0.403   6.358   6.206
 3709SOL    HW112026   0.319   6.313   6.177
 3709SOL    HW212027   0.460   6.293   6.256
 3710SOL     OW12028   0.802   5.015   6.401
 3710SOL    HW112029   0.877   5.062   6.354
 3710SOL    HW212030   0.767   5.073   6.474
 3711SOL     OW12031   6.553   5.000   2.288
 3711SOL    HW112032   6.514   4.956   2.207
 3711SOL    HW212033   6.483   5.058   2.331
 3712SOL     OW12034   1.484   6.876   5.932
 3712SOL    HW112035   1.537   6.834   5.859
 3712SOL    HW212036   1.487   6.818   6.013
 3713SOL     OW12037   3.310   4.912   6.117
 3713SOL    HW112038   3.265   4.959   6.193
 3713SOL    HW212039   3.389   4.965   6.087
 3714SOL     OW12040   4.705   2.187   4.872
 3714SOL    HW112041   4.645   2.172   4.951
 3714SOL    HW212042   4.776   2.116   4.870
 3715SOL     OW12043   4.736   4.446   3.630
 3715SOL    HW112044   4.820   4.414   3.587
 3715SOL    HW212045   4.712   4.386   3.707
 3716SOL     OW12046   1.483   1.032   4.750
 3716SOL    HW112047   1.528   0.962   4.694
 3716SOL    HW212048   1.462   1.112   4.694
 3717SOL     OW12049   5.983   0.254   6.740
 3717SOL    HW112050   6.061   0.218   6.792
 3717SOL    HW212051   5.915   0.182   6.729
 3718SOL     OW12052   0.819   6.398   6.204
 3718SOL    HW112053   0.789   6.319   6.151
 3718SOL    HW212054   0.917   6.391   6.221
 3719SOL     OW12055   3.764   4.099   0.444
 3719SOL    HW112056   3.668   4.080   0.426
 3719SOL    HW212057   3.792   4.180   0.391
 3720SOL     OW12058   6.917   1.223   6.394
 3720SOL    HW112059   6.970   1.276   6.460
 3720SOL    HW212060   6.833   1.272   6.371
 3721SOL     OW12061   5.497   3.094   0.165
 3721SOL    HW112062   5.459   3.002   0.165
 3721SOL    HW212063   5.592   3.090   0.197
 3722SOL     OW12064   4.333   6.115   0.479
 3722SOL    HW112065   4.401   6.043   0.493
 3722SOL    HW212066   4.379   6.202   0.462
 3723SOL     OW12067   4.371   1.385   0.442
 3723SOL    HW112068   4.393   1.456   0.375
 3723SOL    HW212069   4.398   1.416   0.533
 3724SOL     OW12070   1.243   4.018   6.327
 3724SOL    HW112071   1.285   3.962   6.255
 3724SOL    HW212072   1.215   3.959   6.403
 3725SOL     OW12073   5.123   6.157   1.747
 3725SOL    HW112074   5.069   6.172   1.829
 3725SOL    HW212075   5.177   6.238   1.726
 3726SOL     OW12076   6.129   2.940   1.860
 3726SOL    HW112077   6.056   3.008   1.849
 3726SOL    HW212078   6.102   2.856   1.813
 3727SOL     OW12079   2.794   2.626   5.669
 3727SOL    HW112080   2.740   2.650   5.749
 3727SOL    HW212081   2.735   2.626   5.588
 3728SOL     OW12082   0.898   3.785   6.617
 3728SOL    HW112083   0.920   3.883   6.626
 3728SOL    HW212084   0.858   3.768   6.528
 3729SOL     OW12085   1.104   3.662   3.571
 3729SOL    HW112086   1.173   3.657   3.643
 3729SOL    HW212087   1.027   3.717   3.603
 3730SOL     OW12088   1.802   0.006   1.291
 3730SOL    HW112089   1.791   0.106   1.293
 3730SOL    HW212090   1.787   6.992   1.197
 3731SOL     OW12091   2.825   6.169   0.111
 3731SOL    HW112092   2.859   6.124   0.028
 3731SOL    HW212093   2.899   6.219   0.155
 3732SOL     OW12094   1.784   3.627   4.372
 3732SOL    HW112095   1.737   3.605   4.287
 3732SOL    HW212096   1.800   3.726   4.377
 3733SOL     OW12097   3.524   3.111   2.141
 3733SOL    HW112098   3.510   3.012   2.151
 3733SOL    HW212099   3.445   3.150   2.092
 3734SOL     OW12100   4.393   1.729   3.152
 3734SOL    HW112101   4.374   1.672   3.072
 3734SOL    HW212102   4.484   1.708   3.188
 3735SOL     OW12103   3.931   2.163   1.938
 3735SOL    HW112104   3.916   2.065   1.950
 3735SOL    HW212105   3.849   2.213   1.966
 3736SOL     OW12106   5.071   0.745   6.231
 3736SOL    HW112107   4.974   0.747   6.257
 3736SOL    HW212108   5.098   0.835   6.197
 3737SOL     OW12109   2.821   0.033   3.856
 3737SOL    HW112110   2.870   6.968   3.882
 3737SOL    HW212111   2.833   0.050   3.758
 3738SOL     OW12112   0.583   0.743   4.118
 3738SOL    HW112113   0.508   0.702   4.170
 3738SOL    HW212114   0.639   0.798   4.180
 3739SOL     OW12115   0.307   3.527   0.843
 3739SOL    HW112116   0.234   3.525   0.912
 3739SOL    HW212117   0.269   3.498   0.755
 3740SOL     OW12118   5.672   6.845   0.426
 3740SOL    HW112119   5.660   6.866   0.329
 3740SOL    HW212120   5.766   6.816   0.443
 3741SOL     OW12121   3.679   0.641   0.089
 3741SOL    HW112122   3.647   0.619   7.015
 3741SOL    HW212123   3.770   0.601   0.104
 3742SOL     OW12124   3.626   3.442   6.302
 3742SOL    HW112125   3.558   3.514   6.286
 3742SOL    HW212126   3.716   3.483   6.313
 3743SOL     OW12127   0.931   6.207   5.886
 3743SOL    HW112128   0.842   6.187   5.926
 3743SOL    HW212129   0.981   6.121   5.871
 3744SOL     OW12130   6.126   4.656   3.403
 3744SOL    HW112131   6.085   4.742   3.434
 3744SOL    HW212132   6.059   4.604   3.351
 3745SOL     OW12133   5.148   4.867   1.373
 3745SOL    HW112134   5.127   4.771   1.354
 3745SOL    HW212135   5.214   4.873   1.447
 3746SOL     OW12136   4.130   1.407   1.176
 3746SOL    HW112137   4.052   1.377   1.231
 3746SOL    HW212138   4.104   1.490   1.126
 3747SOL     OW12139   3.065   6.621   1.639
 3747SOL    HW112140   3.081   6.563   1.559
 3747SOL    HW212141   3.143   6.681   1.652
 3748SOL     OW12142   5.521   0.545   1.862
 3748SOL    HW112143   5.421   0.538   1.866
 3748SOL    HW212144   5.546   0.616   1.797
 3749SOL     OW12145   1.273   0.583   4.062
 3749SOL    HW112146   1.317   0.548   3.979
 3749SOL    HW212147   1.333   0.650   4.105
 3750SOL     OW12148   0.624   3.984   6.965
 3750SOL    HW112149   0.552   4.021   0.006
 3750SOL    HW212150   0.695   3.941   0.003
 3751SOL     OW12151   2.073   5.066   1.537
 3751SOL    HW112152   2.079   5.153   1.587
 3751SOL    HW212153   1.977   5.044   1.520
 3752SOL     OW12154   5.602   5.152   6.419
 3752SOL    HW112155   5.522   5.158   6.479
 3752SOL    HW212156   5.574   5.173   6.325
 3753SOL     OW12157   0.323   1.598   3.554
 3753SOL    HW112158   0.388   1.541   3.605
 3753SOL    HW212159   0.250   1.628   3.615
 3754SOL     OW12160   3.790   1.531   1.509
 3754SOL    HW112161   3.750   1.570   1.426
 3754SOL    HW212162   3.766   1.589   1.587
 3755SOL     OW12163   2.767   6.217   3.980
 3755SOL    HW112164   2.818   6.155   4.039
 3755SOL    HW212165   2.698   6.265   4.034
 3756SOL     OW12166   1.327   6.530   0.712
 3756SOL    HW112167   1.363   6.440   0.739
 3756SOL    HW212168   1.268   6.520   0.632
 3757SOL     OW12169   0.777   5.297   6.935
 3757SOL    HW112170   0.861   5.328   6.980
 3757SOL    HW212171   0.796   5.212   6.884
 3758SOL     OW12172   0.650   6.084   3.931
 3758SOL    HW112173   0.627   6.030   4.012
 3758SOL    HW212174   0.691   6.025   3.861
 3759SOL     OW12175   4.809   0.577   3.598
 3759SOL    HW112176   4.792   0.482   3.571
 3759SOL    HW212177   4.722   0.622   3.618
 3760SOL     OW12178   0.475   1.052   3.335
 3760SOL    HW112179   0.535   0.979   3.303
 3760SOL    HW212180   0.414   1.081   3.261
 3761SOL     OW12181   4.227   1.221   4.582
 3761SOL    HW112182   4.142   1.248   4.538
 3761SOL    HW212183   4.213   1.136   4.633
 3762SOL     OW12184   6.923   2.389   3.149
 3762SOL    HW112185   6.956   2.339   3.068
 3762SOL    HW212186   6.870   2.327   3.207
 3763SOL     OW12187   0.743   6.741   6.594
 3763SOL    HW112188   0.650   6.711   6.614
 3763SOL    HW212189   0.798   6.742   6.678
 3764SOL     OW12190   4.028   1.972   2.531
 3764SOL    HW112191   4.040   1.882   2.574
 3764SOL    HW212192   4.026   1.961   2.431
 3765SOL     OW12193   5.774   3.794   2.294
 3765SOL    HW112194   5.767   3.817   2.391
 3765SOL    HW212195   5.748   3.873   2.239
 3766SOL     OW12196   2.250   2.792   2.411
 3766SOL    HW112197   2.218   2.887   2.414
 3766SOL    HW212198   2.282   2.765   2.502
 3767SOL     OW12199   1.414   6.425   5.924
 3767SOL    HW112200   1.494   6.461   5.972
 3767SOL    HW212201   1.340   6.492   5.928
 3768SOL     OW12202   1.589   6.781   3.768
 3768SOL    HW112203   1.573   6.686   3.742
 3768SOL    HW212204   1.629   6.831   3.691
 3769SOL     OW12205   4.957   5.003   6.031
 3769SOL    HW112206   4.951   4.911   5.992
 3769SOL    HW212207   5.030   5.006   6.099
 3770SOL     OW12208   2.662   0.094   0.805
 3770SOL    HW112209   2.582   0.143   0.770
 3770SOL    HW212210   2.698   0.033   0.734
 3771SOL     OW12211   6.469   6.300   5.775
 3771SOL    HW112212   6.520   6.240   5.837
 3771SOL    HW212213   6.372   6.299   5.799
 3772SOL     OW12214   3.425   5.727   1.475
 3772SOL    HW112215   3.390   5.820   1.492
 3772SOL    HW212216   3.479   5.697   1.554
 3773SOL     OW12217   4.993   4.168   6.877
 3773SOL    HW112218   5.080   4.120   6.887
 3773SOL    HW212219   5.007   4.253   6.827
 3774SOL     OW12220   0.175   4.292   0.604
 3774SOL    HW112221   0.161   4.254   0.695
 3774SOL    HW212222   0.239   4.369   0.610
 3775SOL     OW12223   5.412   6.757   4.769
 3775SOL    HW112224   5.435   6.828   4.835
 3775SOL    HW212225   5.491   6.740   4.710
 3776SOL     OW12226   4.300   2.573   6.396
 3776SOL    HW112227   4.338   2.663   6.375
 3776SOL    HW212228   4.262   2.533   6.312
 3777SOL     OW12229   3.252   5.195   3.409
 3777SOL    HW112230   3.251   5.101   3.374
 3777SOL    HW212231   3.214   5.196   3.502
 3778SOL     OW12232   2.945   5.571   6.643
 3778SOL    HW112233   3.028   5.567   6.699
 3778SOL    HW212234   2.950   5.502   6.571
 3779SOL     OW12235   6.768   4.797   6.090
 3779SOL    HW112236   6.766   4.756   6.182
 3779SOL    HW212237   6.773   4.896   6.098
 3780SOL     OW12238   6.069   2.204   1.554
 3780SOL    HW112239   5.997   2.207   1.623
 3780SOL    HW212240   6.135   2.133   1.578
 3781SOL     OW12241   1.338   0.033   6.715
 3781SOL    HW112242   1.359   7.015   6.806
 3781SOL    HW212243   1.421   0.069   6.673
 3782SOL     OW12244   3.330   5.271   0.221
 3782SOL    HW112245   3.310   5.175   0.203
 3782SOL    HW212246   3.418   5.295   0.179
 3783SOL     OW12247   4.728   5.216   5.456
 3783SOL    HW112248   4.698   5.257   5.370
 3783SOL    HW212249   4.739   5.288   5.525
 3784SOL     OW12250   5.358   3.560   5.008
 3784SOL    HW112251   5.277   3.617   5.023
 3784SOL    HW212252   5.416   3.601   4.938
 3785SOL     OW12253   0.822   3.414   2.374
 3785SOL    HW112254   0.910   3.459   2.394
 3785SOL    HW212255   0.807   3.339   2.438
 3786SOL     OW12256   2.955   3.133   5.964
 3786SOL    HW112257   2.914   3.104   5.877
 3786SOL    HW212258   2.893   3.197   6.010
 3787SOL     OW12259   5.413   6.168   5.375
 3787SOL    HW112260   5.487   6.233   5.395
 3787SOL    HW212261   5.443   6.076   5.396
 3788SOL     OW12262   5.681   3.161   6.175
 3788SOL    HW112263   5.601   3.198   6.127
 3788SOL    HW212264   5.730   3.099   6.114
 3789SOL     OW12265   2.083   4.677   1.389
 3789SOL    HW112266   2.161   4.615   1.375
 3789SOL    HW212267   2.071   4.693   1.487
 3790SOL     OW12268   2.677   0.207   1.703
 3790SOL    HW112269   2.613   0.279   1.728
 3790SOL    HW212270   2.735   0.238   1.627
 3791SOL     OW12271   5.079   0.925   3.952
 3791SOL    HW112272   5.155   0.985   3.925
 3791SOL    HW212273   5.069   0.852   3.886
 3792SOL     OW12274   6.223   0.477   3.464
 3792SOL    HW112275   6.138   0.518   3.498
 3792SOL    HW212276   6.277   0.444   3.541
 3793SOL     OW12277   5.126   3.236   6.916
 3793SOL    HW112278   5.118   3.141   6.945
 3793SOL    HW212279   5.206   3.246   6.857
 3794SOL     OW12280   1.583   5.423   5.520
 3794SOL    HW112281   1.549   5.392   5.609
 3794SOL    HW212282   1.510   5.411   5.452
 3795SOL     OW12283   3.430   6.094   0.397
 3795SOL    HW112284   3.467   6.180   0.361
 3795SOL    HW212285   3.335   6.107   0.423
 3796SOL     OW12286   5.271   0.958   0.360
 3796SOL    HW112287   5.292   1.044   0.406
 3796SOL    HW212288   5.255   0.975   0.263
 3797SOL     OW12289   6.798   1.891   1.028
 3797SOL    HW112290   6.850   1.859   1.107
 3797SOL    HW212291   6.850   1.961   0.979
 3798SOL     OW12292   6.546   3.821   4.262
 3798SOL    HW112293   6.588   3.893   4.316
 3798SOL    HW212294   6.514   3.858   4.175
 3799SOL     OW12295   6.507   2.043   2.652
 3799SOL    HW112296   6.600   2.034   2.687
 3799SOL    HW212297   6.510   2.057   2.553
 3800SOL     OW12298   5.677   3.687   1.863
 3800SOL    HW112299   5.614   3.623   1.819
 3800SOL    HW212300   5.636   3.720   1.949
 3801SOL     OW12301   5.679   1.315   0.475
 3801SOL    HW112302   5.749   1.289   0.542
 3801SOL    HW212303   5.711   1.392   0.421
 3802SOL     OW12304   6.021   3.579   3.819
 3802SOL    HW112305   6.072   3.532   3.746
 3802SOL    HW212306   5.932   3.608   3.785
 3803SOL     OW12307   3.959   4.259   6.238
 3803SOL    HW112308   3.977   4.250   6.140
 3803SOL    HW212309   4.032   4.213   6.289
 3804SOL     OW12310   3.379   6.297   3.020
 3804SOL    HW112311   3.339   6.311   2.929
 3804SOL    HW212312   3.379   6.200   3.042
 3805SOL     OW12313   2.842   1.903   6.887
 3805SOL    HW112314   2.764   1.882   6.828
 3805SOL    HW212315   2.817   1.977   6.950
 3806SOL     OW12316   1.676   3.603   1.919
 3806SOL    HW112317   1.686   3.526   1.982
 3806SOL    HW212318   1.580   3.626   1.909
 3807SOL     OW12319   0.001   4.072   3.955
 3807SOL    HW112320   6.982   3.995   4.006
 3807SOL    HW212321   6.945   4.131   3.925
 3808SOL     OW12322   2.438   6.537   5.627
 3808SOL    HW112323   2.470   6.508   5.537
 3808SOL    HW212324   2.360   6.481   5.654
 3809SOL     OW12325   5.826   2.181   1.124
 3809SOL    HW112326   5.751   2.173   1.190
 3809SOL    HW212327   5.879   2.096   1.124
 3810SOL     OW12328   4.579   1.952   3.761
 3810SOL    HW112329   4.658   1.953   3.700
 3810SOL    HW212330   4.518   1.877   3.736
 3811SOL     OW12331   0.124   6.125   5.524
 3811SOL    HW112332   0.092   6.089   5.612
 3811SOL    HW212333   0.129   6.051   5.457
 3812SOL     OW12334   4.164   5.768   6.953
 3812SOL    HW112335   4.200   5.828   0.005
 3812SOL    HW212336   4.081   5.808   6.913
 3813SOL     OW12337   0.145   3.024   6.448
 3813SOL    HW112338   0.127   3.005   6.352
 3813SOL    HW212339   0.064   3.001   6.502
 3814SOL     OW12340   6.929   0.601   4.799
 3814SOL    HW112341   6.944   0.564   4.891
 3814SOL    HW212342   6.850   0.557   4.757
 3815SOL     OW12343   4.705   2.252   5.470
 3815SOL    HW112344   4.643   2.182   5.435
 3815SOL    HW212345   4.651   2.325   5.513
 3816SOL     OW12346   6.625   6.704   1.713
 3816SOL    HW112347   6.580   6.629   1.762
 3816SOL    HW212348   6.591   6.792   1.748
 3817SOL     OW12349   3.472   3.715   2.880
 3817SOL    HW112350   3.404   3.695   2.951
 3817SOL    HW212351   3.450   3.801   2.836
 3818SOL     OW12352   4.608   5.480   1.924
 3818SOL    HW112353   4.540   5.513   1.859
 3818SOL    HW212354   4.603   5.534   2.008
 3819SOL     OW12355   5.916   2.818   2.829
 3819SOL    HW112356   5.845   2.858   2.770
 3819SOL    HW212357   5.991   2.883   2.839
 3820SOL     OW12358   2.998   6.360   5.868
 3820SOL    HW112359   2.998   6.380   5.770
 3820SOL    HW212360   2.965   6.440   5.918
 3821SOL     OW12361   1.710   6.806   1.404
 3821SOL    HW112362   1.736   6.893   1.362
 3821SOL    HW212363   1.729   6.731   1.339
 3822SOL     OW12364   5.742   6.624   1.703
 3822SOL    HW112365   5.674   6.689   1.669
 3822SOL    HW212366   5.830   6.641   1.659
 3823SOL     OW12367   5.690   6.062   4.285
 3823SOL    HW112368   5.720   6.080   4.191
 3823SOL    HW212369   5.651   6.146   4.324
 3824SOL     OW12370   1.990   2.527   0.593
 3824SOL    HW112371   2.063   2.481   0.543
 3824SOL    HW212372   1.934   2.581   0.530
 3825SOL     OW12373   0.312   4.293   5.255
 3825SOL    HW112374   0.352   4.313   5.345
 3825SOL    HW212375   0.212   4.293   5.263
 3826SOL     OW12376   4.857   4.056   3.721
 3826SOL    HW112377   4.938   4.058   3.779
 3826SOL    HW212378   4.776   4.070   3.777
 3827SOL     OW12379   0.444   1.349   0.094
 3827SOL    HW112380   0.395   1.263   0.111
 3827SOL    HW212381   0.381   1.417   0.057
 3828SOL     OW12382   3.412   3.208   5.498
 3828SOL    HW112383   3.355   3.279   5.457
 3828SOL    HW212384   3.418   3.130   5.435
 3829SOL     OW12385   6.712   2.888   1.487
 3829SOL    HW112386   6.628   2.906   1.538
 3829SOL    HW212387   6.753   2.976   1.460
 3830SOL     OW12388   5.485   6.331   3.730
 3830SOL    HW112389   5.490   6.344   3.631
 3830SOL    HW212390   5.542   6.254   3.757
 3831SOL     OW12391   5.394   2.375   3.920
 3831SOL    HW112392   5.353   2.284   3.931
 3831SOL    HW212393   5.342   2.427   3.853
 3832SOL     OW12394   6.590   1.283   3.832
 3832SOL    HW112395   6.554   1.373   3.860
 3832SOL    HW212396   6.519   1.234   3.781
 3833SOL     OW12397   2.314   2.955   5.931
 3833SOL    HW112398   2.318   2.873   5.875
 3833SOL    HW212399   2.235   3.010   5.905
 3834SOL     OW12400   5.055   4.532   1.090
 3834SOL    HW112401   5.125   4.524   1.019
 3834SOL    HW212402   4.966   4.546   1.047
 3835SOL     OW12403   4.645   5.378   4.244
 3835SOL    HW112404   4.683   5.357   4.154
 3835SOL    HW212405   4.672   5.307   4.309
 3836SOL     OW12406   0.389   6.974   5.002
 3836SOL    HW112407   0.295   7.007   5.004
 3836SOL    HW212408   0.452   0.034   5.008
 3837SOL     OW12409   5.038   4.118   5.489
 3837SOL    HW112410   5.010   4.200   5.438
 3837SOL    HW212411   4.995   4.119   5.579
 3838SOL     OW12412   0.697   1.691   3.717
 3838SOL    HW112413   0.629   1.635   3.670
 3838SOL    HW212414   0.788   1.652   3.705
 3839SOL     OW12415   4.435   1.757   3.626
 3839SOL    HW112416   4.486   1.678   3.592
 3839SOL    HW212417   4.342   1.755   3.590
 3840SOL     OW12418   3.698   1.370   5.987
 3840SOL    HW112419   3.753   1.325   6.058
 3840SOL    HW212420   3.611   1.400   6.026
 3841SOL     OW12421   5.238   4.067   2.787
 3841SOL    HW112422   5.289   4.060   2.873
 3841SOL    HW212423   5.186   3.983   2.772
 3842SOL     OW12424   1.737   4.175   4.806
 3842SOL    HW112425   1.742   4.223   4.718
 3842SOL    HW212426   1.664   4.215   4.862
 3843SOL     OW12427   5.996   1.954   6.828
 3843SOL    HW112428   5.938   2.002   6.762
 3843SOL    HW212429   5.939   1.892   6.883
 3844SOL     OW12430   6.081   6.635   0.790
 3844SOL    HW112431   6.080   6.651   0.889
 3844SOL    HW212432   6.067   6.721   0.742
 3845SOL     OW12433   2.246   5.403   0.370
 3845SOL    HW112434   2.307   5.477   0.342
 3845SOL    HW212435   2.196   5.430   0.452
 3846SOL     OW12436   6.771   3.080   2.493
 3846SOL    HW112437   6.730   3.156   2.442
 3846SOL    HW212438   6.853   3.048   2.445
 3847SOL     OW12439   0.787   1.057   0.077
 3847SOL    HW112440   0.715   0.988   0.079
 3847SOL    HW212441   0.863   1.025   0.020
 3848SOL     OW12442   5.775   4.534   2.608
 3848SOL    HW112443   5.750   4.439   2.590
 3848SOL    HW212444   5.710   4.574   2.672
 3849SOL     OW12445   0.176   2.883   5.688
 3849SOL    HW112446   0.164   2.815   5.616
 3849SOL    HW212447   0.147   2.843   5.776
 3850SOL     OW12448   3.679   2.939   1.263
 3850SOL    HW112449   3.593   2.990   1.260
 3850SOL    HW212450   3.723   2.954   1.351
 3851SOL     OW12451   0.018   5.685   2.332
 3851SOL    HW112452   0.005   5.586   2.329
 3851SOL    HW212453   0.074   5.713   2.254
 3852SOL     OW12454   2.658   0.746   5.389
 3852SOL    HW112455   2.719   0.670   5.410
 3852SOL    HW212456   2.647   0.803   5.471
 3853SOL     OW12457   2.144   1.041   3.012
 3853SOL    HW112458   2.231   1.083   2.987
 3853SOL    HW212459   2.110   0.987   2.936
 3854SOL     OW12460   0.262   1.483   1.786
 3854SOL    HW112461   0.282   1.483   1.884
 3854SOL    HW212462   0.347   1.496   1.735
 3855SOL     OW12463   3.104   5.811   6.566
 3855SOL    HW112464   3.023   5.768   6.606
 3855SOL    HW212465   3.077   5.885   6.505
 3856SOL     OW12466   0.236   2.688   6.316
 3856SOL    HW112467   0.153   2.672   6.370
 3856SOL    HW212468   0.223   2.769   6.259
 3857SOL     OW12469   1.143   0.365   6.120
 3857SOL    HW112470   1.095   0.328   6.200
 3857SOL    HW212471   1.129   0.464   6.116
 3858SOL     OW12472   3.470   0.813   5.043
 3858SOL    HW112473   3.514   0.765   4.967
 3858SOL    HW212474   3.454   0.750   5.118
 3859SOL     OW12475   5.416   0.453   2.735
 3859SOL    HW112476   5.337   0.420   2.684
 3859SOL    HW212477   5.385   0.494   2.821
 3860SOL     OW12478   1.465   6.291   4.652
 3860SOL    HW112479   1.494   6.218   4.714
 3860SOL    HW212480   1.387   6.260   4.598
 3861SOL     OW12481   3.031   5.897   2.427
 3861SOL    HW112482   3.036   5.996   2.414
 3861SOL    HW212483   2.936   5.869   2.439
 3862SOL     OW12484   1.753   0.325   4.198
 3862SOL    HW112485   1.806   0.245   4.168
 3862SOL    HW212486   1.768   0.340   4.296
 3863SOL     OW12487   4.296   0.285   1.175
 3863SOL    HW112488   4.245   0.292   1.089
 3863SOL    HW212489   4.242   0.324   1.250
 3864SOL     OW12490   0.923   0.616   5.329
 3864SOL    HW112491   0.958   0.659   5.246
 3864SOL    HW212492   0.980   0.642   5.407
 3865SOL     OW12493   5.304   1.117   0.954
 3865SOL    HW112494   5.326   1.169   1.036
 3865SOL    HW212495   5.299   1.020   0.976
 3866SOL     OW12496   3.393   1.203   6.691
 3866SOL    HW112497   3.487   1.188   6.720
 3866SOL    HW212498   3.336   1.225   6.771
 3867SOL     OW12499   6.393   3.237   2.091
 3867SOL    HW112500   6.356   3.144   2.093
 3867SOL    HW212501   6.354   3.287   2.015
 3868SOL     OW12502   4.096   0.764   0.336
 3868SOL    HW112503   4.106   0.826   0.258
 3868SOL    HW212504   4.013   0.710   0.325
 3869SOL     OW12505   3.636   0.876   3.806
 3869SOL    HW112506   3.693   0.802   3.772
 3869SOL    HW212507   3.544   0.842   3.824
 3870SOL     OW12508   6.910   1.629   5.741
 3870SOL    HW112509   6.982   1.559   5.735
 3870SOL    HW212510   6.894   1.652   5.837
 3871SOL     OW12511   2.664   4.956   4.048
 3871SOL    HW112512   2.743   4.917   4.096
 3871SOL    HW212513   2.662   4.923   3.954
 3872SOL     OW12514   3.088   3.901   5.395
 3872SOL    HW112515   3.186   3.898   5.377
 3872SOL    HW212516   3.067   3.838   5.470
 3873SOL     OW12517   5.205   2.427   6.601
 3873SOL    HW112518   5.299   2.462   6.602
 3873SOL    HW212519   5.205   2.334   6.565
 3874SOL     OW12520   1.965   1.153   1.511
 3874SOL    HW112521   1.865   1.148   1.507
 3874SOL    HW212522   1.993   1.220   1.580
 3875SOL     OW12523   0.923   1.190   6.793
 3875SOL    HW112524   0.907   1.275   6.843
 3875SOL    HW212525   0.853   1.123   6.819
 3876SOL     OW12526   3.127   5.414   2.086
 3876SOL    HW112527   3.053   5.383   2.146
 3876SOL    HW212528   3.090   5.438   1.997
 3877SOL     OW12529   1.043   1.430   5.903
 3877SOL    HW112530   0.985   1.352   5.878
 3877SOL    HW212531   1.074   1.419   5.998
 3878SOL     OW12532   4.357   1.742   4.977
 3878SOL    HW112533   4.367   1.775   4.883
 3878SOL    HW212534   4.354   1.819   5.040
 3879SOL     OW12535   5.276   5.743   6.727
 3879SOL    HW112536   5.186   5.781   6.702
 3879SOL    HW212537   5.332   5.816   6.767
 3880SOL     OW12538   5.018   4.706   3.762
 3880SOL    HW112539   5.004   4.747   3.672
 3880SOL    HW212540   5.115   4.684   3.773
 3881SOL     OW12541   1.513   2.676   0.002
 3881SOL    HW112542   1.452   2.656   0.079
 3881SOL    HW212543   1.557   2.591   6.989
 3882SOL     OW12544   0.604   2.018   6.011
 3882SOL    HW112545   0.640   2.106   6.039
 3882SOL    HW212546   0.650   1.987   5.928
 3883SOL     OW12547   4.329   6.092   3.974
 3883SOL    HW112548   4.301   5.998   3.994
 3883SOL    HW212549   4.269   6.155   4.022
 3884SOL     OW12550   6.785   3.266   1.955
 3884SOL    HW112551   6.779   3.236   2.051
 3884SOL    HW212552   6.877   3.250   1.921
 3885SOL     OW12553   4.236   5.332   1.776
 3885SOL    HW112554   4.318   5.297   1.732
 3885SOL    HW212555   4.229   5.295   1.869
 3886SOL     OW12556   2.897   5.094   6.314
 3886SOL    HW112557   2.881   5.142   6.227
 3886SOL    HW212558   2.810   5.080   6.361
 3887SOL     OW12559   1.952   5.698   1.914
 3887SOL    HW112560   2.029   5.653   1.869
 3887SOL    HW212561   1.987   5.757   1.987
 3888SOL     OW12562   5.355   4.744   3.195
 3888SOL    HW112563   5.256   4.738   3.208
 3888SOL    HW212564   5.401   4.745   3.283
 3889SOL     OW12565   6.054   3.540   0.314
 3889SOL    HW112566   6.103   3.504   0.234
 3889SOL    HW212567   5.962   3.501   0.318
 3890SOL     OW12568   5.321   3.973   3.881
 3890SOL    HW112569   5.368   3.960   3.794
 3890SOL    HW212570   5.384   4.013   3.948
 3891SOL     OW12571   4.872   4.990   3.796
 3891SOL    HW112572   4.784   5.027   3.825
 3891SOL    HW212573   4.893   4.909   3.850
 3892SOL     OW12574   6.744   2.238   1.478
 3892SOL    HW112575   6.645   2.251   1.473
 3892SOL    HW212576   6.785   2.316   1.525
 3893SOL     OW12577   3.726   3.291   3.759
 3893SOL    HW112578   3.762   3.200   3.739
 3893SOL    HW212579   3.627   3.292   3.742
 3894SOL     OW12580   4.041   0.918   5.970
 3894SOL    HW112581   4.079   0.840   5.920
 3894SOL    HW212582   3.997   0.886   6.054
 3895SOL     OW12583   0.908   0.302   4.385
 3895SOL    HW112584   0.951   0.372   4.329
 3895SOL    HW212585   0.809   0.312   4.382
 3896SOL     OW12586   2.044   1.385   6.748
 3896SOL    HW112587   2.072   1.367   6.842
 3896SOL    HW212588   2.124   1.413   6.694
 3897SOL     OW12589   3.049   6.191   0.755
 3897SOL    HW112590   3.018   6.118   0.695
 3897SOL    HW212591   3.135   6.163   0.799
 3898SOL     OW12592   3.995   3.171   1.365
 3898SOL    HW112593   4.057   3.150   1.289
 3898SOL    HW212594   3.922   3.230   1.332
 3899SOL     OW12595   2.983   6.669   5.283
 3899SOL    HW112596   3.052   6.673   5.355
 3899SOL    HW212597   2.916   6.599   5.305
 3900SOL     OW12598   4.503   4.819   2.838
 3900SOL    HW112599   4.475   4.896   2.781
 3900SOL    HW212600   4.433   4.748   2.836
 3901SOL     OW12601   2.993   1.540   0.229
 3901SOL    HW112602   3.067   1.473   0.228
 3901SOL    HW212603   2.982   1.578   0.137
 3902SOL     OW12604   5.116   2.997   2.654
 3902SOL    HW112605   5.149   3.063   2.587
 3902SOL    HW212606   5.183   2.922   2.662
 3903SOL     OW12607   3.675   4.639   6.804
 3903SOL    HW112608   3.738   4.608   6.732
 3903SOL    HW212609   3.717   4.714   6.855
 3904SOL     OW12610   1.664   6.579   0.985
 3904SOL    HW112611   1.726   6.591   0.908
 3904SOL    HW212612   1.703   6.514   1.050
 3905SOL     OW12613   6.842   6.520   5.372
 3905SOL    HW112614   6.906   6.588   5.336
 3905SOL    HW212615   6.796   6.555   5.453
 3906SOL     OW12616   0.299   6.377   5.570
 3906SOL    HW112617   0.273   6.281   5.555
 3906SOL    HW212618   0.359   6.407   5.496
 3907SOL     OW12619   5.299   2.103   3.980
 3907SOL    HW112620   5.253   2.019   4.006
 3907SOL    HW212621   5.303   2.110   3.880
 3908SOL     OW12622   2.732   3.996   6.033
 3908SOL    HW112623   2.738   3.915   5.976
 3908SOL    HW212624   2.636   4.013   6.058
 3909SOL     OW12625   4.932   5.871   3.834
 3909SOL    HW112626   4.860   5.934   3.805
 3909SOL    HW212627   5.011   5.923   3.867
 3910SOL     OW12628   3.616   3.774   2.453
 3910SOL    HW112629   3.637   3.868   2.479
 3910SOL    HW212630   3.693   3.715   2.476
 3911SOL     OW12631   5.799   2.143   5.423
 3911SOL    HW112632   5.822   2.045   5.420
 3911SOL    HW212633   5.815   2.184   5.333
 3912SOL     OW12634   5.648   2.827   6.199
 3912SOL    HW112635   5.582   2.895   6.232
 3912SOL    HW212636   5.600   2.746   6.167
 3913SOL     OW12637   1.238   6.806   1.577
 3913SOL    HW112638   1.267   6.896   1.612
 3913SOL    HW212639   1.290   6.785   1.494
 3914SOL     OW12640   3.346   5.918   5.148
 3914SOL    HW112641   3.319   5.822   5.142
 3914SOL    HW212642   3.375   5.951   5.059
 3915SOL     OW12643   5.664   5.828   1.686
 3915SOL    HW112644   5.608   5.851   1.606
 3915SOL    HW212645   5.681   5.729   1.687
 3916SOL     OW12646   0.239   0.185   3.508
 3916SOL    HW112647   0.154   0.169   3.457
 3916SOL    HW212648   0.306   0.229   3.449
 3917SOL     OW12649   2.875   0.014   6.852
 3917SOL    HW112650   2.802   7.013   6.786
 3917SOL    HW212651   2.950   6.968   6.839
 3918SOL     OW12652   6.072   3.662   6.959
 3918SOL    HW112653   5.979   3.638   6.932
 3918SOL    HW212654   6.091   3.757   6.932
 3919SOL     OW12655   3.490   6.608   0.559
 3919SOL    HW112656   3.436   6.668   0.617
 3919SOL    HW212657   3.567   6.659   0.520
 3920SOL     OW12658   2.222   0.965   0.288
 3920SOL    HW112659   2.131   0.952   0.329
 3920SOL    HW212660   2.248   0.882   0.239
 3921SOL     OW12661   0.921   3.253   0.909
 3921SOL    HW112662   0.858   3.307   0.965
 3921SOL    HW212663   0.889   3.251   0.814
 3922SOL     OW12664   0.648   5.515   1.022
 3922SOL    HW112665   0.567   5.534   1.076
 3922SOL    HW212666   0.649   5.419   0.995
 3923SOL     OW12667   7.010   5.927   0.628
 3923SOL    HW112668   0.014   5.973   0.542
 3923SOL    HW212669   6.931   5.867   0.614
 3924SOL     OW12670   6.132   5.008   4.294
 3924SOL    HW112671   6.133   4.918   4.338
 3924SOL    HW212672   6.093   5.075   4.357
 3925SOL     OW12673   1.179   4.862   1.005
 3925SOL    HW112674   1.139   4.789   0.949
 3925SOL    HW212675   1.106   4.923   1.037
 3926SOL     OW12676   3.579   5.408   3.045
 3926SOL    HW112677   3.564   5.474   2.972
 3926SOL    HW212678   3.555   5.449   3.133
 3927SOL     OW12679   2.489   3.639   6.606
 3927SOL    HW112680   2.437   3.707   6.657
 3927SOL    HW212681   2.519   3.566   6.667
 3928SOL     OW12682   6.896   6.566   6.283
 3928SOL    HW112683   6.978   6.618   6.306
 3928SOL    HW212684   6.874   6.580   6.187
 3929SOL     OW12685   1.078   1.784   5.027
 3929SOL    HW112686   1.175   1.803   5.045
 3929SOL    HW212687   1.062   1.782   4.929
 3930SOL     OW12688   3.119   1.322   4.144
 3930SOL    HW112689   3.020   1.330   4.153
 3930SOL    HW212690   3.164   1.400   4.187
 3931SOL     OW12691   3.972   6.785   2.204
 3931SOL    HW112692   4.043   6.717   2.225
 3931SOL    HW212693   3.957   6.843   2.284
 3932SOL     OW12694   1.969   3.013   3.497
 3932SOL    HW112695   2.063   3.045   3.485
 3932SOL    HW212696   1.960   2.970   3.586
 3933SOL     OW12697   2.140   1.310   6.273
 3933SOL    HW112698   2.147   1.228   6.217
 3933SOL    HW212699   2.048   1.348   6.267
 3934SOL     OW12700   5.394   6.046   6.765
 3934SOL    HW112701   5.381   6.143   6.787
 3934SOL    HW212702   5.471   6.036   6.702
 3935SOL     OW12703   4.898   6.636   2.200
 3935SOL    HW112704   4.983   6.684   2.217
 3935SOL    HW212705   4.821   6.691   2.232
 3936SOL     OW12706   0.947   4.156   2.173
 3936SOL    HW112707   0.874   4.091   2.197
 3936SOL    HW212708   1.006   4.171   2.252
 3937SOL     OW12709   0.266   2.006   2.645
 3937SOL    HW112710   0.224   1.946   2.577
 3937SOL    HW212711   0.327   1.953   2.704
 3938SOL     OW12712   6.251   3.063   3.187
 3938SOL    HW112713   6.312   3.014   3.248
 3938SOL    HW212714   6.273   3.040   3.092
 3939SOL     OW12715   2.103   2.126   1.297
 3939SOL    HW112716   2.067   2.172   1.378
 3939SOL    HW212717   2.162   2.189   1.246
 3940SOL     OW12718   4.235   4.619   0.935
 3940SOL    HW112719   4.149   4.613   0.883
 3940SOL    HW212720   4.219   4.590   1.029
 3941SOL     OW12721   5.373   3.343   0.111
 3941SOL    HW112722   5.422   3.268   0.155
 3941SOL    HW212723   5.286   3.358   0.158
 3942SOL     OW12724   6.667   6.838   1.136
 3942SOL    HW112725   6.587   6.838   1.075
 3942SOL    HW212726   6.664   6.919   1.194
 3943SOL     OW12727   6.546   2.909   5.075
 3943SOL    HW112728   6.492   2.993   5.070
 3943SOL    HW212729   6.487   2.832   5.099
 3944SOL     OW12730   5.747   1.684   4.924
 3944SOL    HW112731   5.746   1.770   4.874
 3944SOL    HW212732   5.836   1.640   4.915
 3945SOL     OW12733   0.292   6.803   0.696
 3945SOL    HW112734   0.392   6.815   0.700
 3945SOL    HW212735   0.255   6.812   0.789
 3946SOL     OW12736   3.679   4.888   3.402
 3946SOL    HW112737   3.666   4.867   3.305
 3946SOL    HW212738   3.771   4.858   3.430
 3947SOL     OW12739   6.936   4.106   5.969
 3947SOL    HW112740   0.006   4.152   5.957
 3947SOL    HW212741   6.941   4.013   5.933
 3948SOL     OW12742   6.483   4.017   0.991
 3948SOL    HW112743   6.579   4.025   1.014
 3948SOL    HW212744   6.429   4.080   1.047
 3949SOL     OW12745   5.515   6.531   2.866
 3949SOL    HW112746   5.600   6.583   2.876
 3949SOL    HW212747   5.537   6.435   2.849
 3950SOL     OW12748   1.621   6.510   0.397
 3950SOL    HW112749   1.535   6.462   0.379
 3950SOL    HW212750   1.674   6.459   0.465
 3951SOL     OW12751   5.717   5.524   1.977
 3951SOL    HW112752   5.654   5.522   1.899
 3951SOL    HW212753   5.678   5.471   2.052
 3952SOL     OW12754   6.116   1.342   6.197
 3952SOL    HW112755   6.186   1.344   6.126
 3952SOL    HW212756   6.140   1.405   6.271
 3953SOL     OW12757   2.982   3.185   2.904
 3953SOL    HW112758   3.020   3.131   2.980
 3953SOL    HW212759   3.042   3.178   2.825
 3954SOL     OW12760   3.955   4.185   5.931
 3954SOL    HW112761   3.937   4.223   5.840
 3954SOL    HW212762   3.939   4.086   5.929
 3955SOL     OW12763   3.528   1.146   4.950
 3955SOL    HW112764   3.430   1.163   4.966
 3955SOL    HW212765   3.547   1.049   4.962
 3956SOL     OW12766   2.067   1.640   0.722
 3956SOL    HW112767   2.166   1.641   0.710
 3956SOL    HW212768   2.027   1.721   0.679
 3957SOL     OW12769   4.255   1.486   3.885
 3957SOL    HW112770   4.285   1.576   3.854
 3957SOL    HW212771   4.159   1.491   3.914
 3958SOL     OW12772   5.293   6.560   6.071
 3958SOL    HW112773   5.202   6.523   6.087
 3958SOL    HW212774   5.362   6.488   6.081
 3959SOL     OW12775   5.737   5.475   6.269
 3959SOL    HW112776   5.710   5.380   6.285
 3959SOL    HW212777   5.750   5.522   6.357
 3960SOL     OW12778   5.792   2.760   4.528
 3960SOL    HW112779   5.697   2.780   4.503
 3960SOL    HW212780   5.793   2.702   4.609
 3961SOL     OW12781   5.006   6.844   4.258
 3961SOL    HW112782   5.039   6.781   4.188
 3961SOL    HW212783   5.063   6.926   4.260
 3962SOL     OW12784   6.429   4.929   4.777
 3962SOL    HW112785   6.477   4.913   4.863
 3962SOL    HW212786   6.330   4.920   4.791
 3963SOL     OW12787   3.719   6.623   2.115
 3963SOL    HW112788   3.784   6.680   2.165
 3963SOL    HW212789   3.631   6.623   2.162
 3964SOL     OW12790   5.536   2.795   3.702
 3964SOL    HW112791   5.592   2.725   3.658
 3964SOL    HW212792   5.440   2.781   3.679
 3965SOL     OW12793   5.201   4.286   4.119
 3965SOL    HW112794   5.207   4.290   4.219
 3965SOL    HW212795   5.189   4.379   4.083
 3966SOL     OW12796   2.630   6.562   6.569
 3966SOL    HW112797   2.564   6.634   6.550
 3966SOL    HW212798   2.615   6.525   6.661
 3967SOL     OW12799   1.476   3.906   3.814
 3967SOL    HW112800   1.420   3.973   3.863
 3967SOL    HW212801   1.572   3.933   3.818
 3968SOL     OW12802   4.295   0.020   0.983
 3968SOL    HW112803   4.325   0.017   1.078
 3968SOL    HW212804   4.270   0.114   0.959
 3969SOL     OW12805   0.303   4.458   3.336
 3969SOL    HW112806   0.301   4.407   3.250
 3969SOL    HW212807   0.325   4.395   3.411
 3970SOL     OW12808   4.540   6.056   1.441
 3970SOL    HW112809   4.481   6.133   1.465
 3970SOL    HW212810   4.540   5.990   1.516
 3971SOL     OW12811   1.072   6.067   3.695
 3971SOL    HW112812   1.158   6.020   3.714
 3971SOL    HW212813   1.076   6.160   3.733
 3972SOL     OW12814   1.339   3.860   0.138
 3972SOL    HW112815   1.348   3.766   0.172
 3972SOL    HW212816   1.264   3.905   0.186
 3973SOL     OW12817   1.919   4.517   0.896
 3973SOL    HW112818   1.974   4.569   0.831
 3973SOL    HW212819   1.929   4.556   0.988
 3974SOL     OW12820   2.712   0.542   6.119
 3974SOL    HW112821   2.637   0.581   6.067
 3974SOL    HW212822   2.744   0.459   6.074
 3975SOL     OW12823   6.773   3.283   6.996
 3975SOL    HW112824   6.835   3.295   0.055
 3975SOL    HW212825   6.822   3.300   6.911
 3976SOL     OW12826   1.632   4.181   2.570
 3976SOL    HW112827   1.602   4.251   2.635
 3976SOL    HW212828   1.559   4.164   2.503
 3977SOL     OW12829   0.669   2.646   6.934
 3977SOL    HW112830   0.585   2.648   6.880
 3977SOL    HW212831   0.700   2.552   6.945
 3978SOL     OW12832   5.813   4.223   4.019
 3978SOL    HW112833   5.773   4.226   4.110
 3978SOL    HW212834   5.880   4.296   4.009
 3979SOL     OW12835   4.330   5.617   6.002
 3979SOL    HW112836   4.316   5.552   6.076
 3979SOL    HW212837   4.317   5.710   6.037
 3980SOL     OW12838   5.465   4.856   6.032
 3980SOL    HW112839   5.438   4.932   5.974
 3980SOL    HW212840   5.455   4.881   6.128
 3981SOL     OW12841   4.693   5.492   6.923
 3981SOL    HW112842   4.733   5.551   6.853
 3981SOL    HW212843   4.672   5.403   6.884
 3982SOL     OW12844   2.294   6.108   2.916
 3982SOL    HW112845   2.356   6.187   2.909
 3982SOL    HW212846   2.228   6.125   2.989
 3983SOL     OW12847   3.617   6.229   4.241
 3983SOL    HW112848   3.662   6.142   4.222
 3983SOL    HW212849   3.586   6.269   4.154
 3984SOL     OW12850   6.585   2.840   3.154
 3984SOL    HW112851   6.680   2.872   3.159
 3984SOL    HW212852   6.565   2.811   3.061
 3985SOL     OW12853   4.026   5.306   6.057
 3985SOL    HW112854   4.041   5.207   6.059
 3985SOL    HW212855   3.929   5.326   6.073
 3986SOL     OW12856   5.352   0.603   2.971
 3986SOL    HW112857   5.410   0.673   3.013
 3986SOL    HW212858   5.256   0.626   2.985
 3987SOL     OW12859   3.452   5.246   5.684
 3987SOL    HW112860   3.390   5.184   5.733
 3987SOL    HW212861   3.460   5.216   5.589
 3988SOL     OW12862   4.672   5.838   0.870
 3988SOL    HW112863   4.573   5.850   0.873
 3988SOL    HW212864   4.697   5.788   0.787
 3989SOL     OW12865   6.280   2.808   1.361
 3989SOL    HW112866   6.349   2.824   1.431
 3989SOL    HW212867   6.269   2.891   1.305
 3990SOL     OW12868   6.666   1.501   1.885
 3990SOL    HW112869   6.602   1.561   1.934
 3990SOL    HW212870   6.686   1.421   1.941
 3991SOL     OW12871   5.485   1.564   3.519
 3991SOL    HW112872   5.552   1.632   3.548
 3991SOL    HW212873   5.497   1.480   3.571
 3992SOL     OW12874   4.573   1.474   1.585
 3992SOL    HW112875   4.644   1.419   1.540
 3992SOL    HW212876   4.511   1.510   1.515
 3993SOL     OW12877   1.165   3.332   1.324
 3993SOL    HW112878   1.130   3.370   1.409
 3993SOL    HW212879   1.147   3.395   1.249
 3994SOL     OW12880   2.547   5.587   4.330
 3994SOL    HW112881   2.554   5.681   4.299
 3994SOL    HW212882   2.634   5.557   4.369
 3995SOL     OW12883   1.610   2.205   4.097
 3995SOL    HW112884   1.614   2.148   4.015
 3995SOL    HW212885   1.701   2.211   4.138
 3996SOL     OW12886   0.143   5.624   4.534
 3996SOL    HW112887   0.072   5.554   4.527
 3996SOL    HW212888   0.204   5.618   4.455
 3997SOL     OW12889   2.927   0.708   3.066
 3997SOL    HW112890   3.006   0.655   3.037
 3997SOL    HW212891   2.861   0.713   2.990
 3998SOL     OW12892   4.297   2.237   2.820
 3998SOL    HW112893   4.328   2.174   2.749
 3998SOL    HW212894   4.361   2.314   2.827
 3999SOL     OW12895   4.560   1.233   4.271
 3999SOL    HW112896   4.519   1.324   4.263
 3999SOL    HW212897   4.619   1.230   4.352
 4000SOL     OW12898   4.462   5.706   4.591
 4000SOL    HW112899   4.421   5.791   4.559
 4000SOL    HW212900   4.448   5.634   4.522
 4001SOL     OW12901   0.921   1.905   4.772
 4001SOL    HW112902   0.920   1.854   4.685
 4001SOL    HW212903   0.995   1.973   4.770
 4002SOL     OW12904   1.990   4.786   1.663
 4002SOL    HW112905   1.906   4.735   1.681
 4002SOL    HW212906   1.981   4.878   1.702
 4003SOL     OW12907   3.857   2.113   4.969
 4003SOL    HW112908   3.884   2.202   4.932
 4003SOL    HW212909   3.939   2.061   4.992
 4004SOL     OW12910   6.804   1.664   6.325
 4004SOL    HW112911   6.766   1.639   6.236
 4004SOL    HW212912   6.733   1.709   6.380
 4005SOL     OW12913   6.708   4.563   4.458
 4005SOL    HW112914   6.682   4.562   4.362
 4005SOL    HW212915   6.756   4.478   4.480
 4006SOL     OW12916   3.724   6.144   3.271
 4006SOL    HW112917   3.646   6.082   3.264
 4006SOL    HW212918   3.801   6.105   3.221
 4007SOL     OW12919   0.347   1.647   5.542
 4007SOL    HW112920   0.427   1.587   5.531
 4007SOL    HW212921   0.297   1.651   5.456
 4008SOL     OW12922   2.919   1.403   5.452
 4008SOL    HW112923   2.856   1.448   5.389
 4008SOL    HW212924   3.010   1.399   5.411
 4009SOL     OW12925   3.238   3.727   3.024
 4009SOL    HW112926   3.207   3.633   3.009
 4009SOL    HW212927   3.159   3.789   3.020
 4010SOL     OW12928   1.201   3.226   0.296
 4010SOL    HW112929   1.283   3.213   0.352
 4010SOL    HW212930   1.120   3.207   0.352
 4011SOL     OW12931   0.684   1.907   0.837
 4011SOL    HW112932   0.601   1.877   0.789
 4011SOL    HW212933   0.695   1.853   0.921
 4012SOL     OW12934   5.634   3.368   3.331
 4012SOL    HW112935   5.585   3.289   3.295
 4012SOL    HW212936   5.732   3.357   3.315
 4013SOL     OW12937   4.929   2.652   3.072
 4013SOL    HW112938   4.876   2.589   3.129
 4013SOL    HW212939   4.955   2.732   3.127
 4014SOL     OW12940   5.434   4.588   2.405
 4014SOL    HW112941   5.525   4.627   2.391
 4014SOL    HW212942   5.413   4.586   2.503
 4015SOL     OW12943   5.423   3.443   0.419
 4015SOL    HW112944   5.341   3.412   0.370
 4015SOL    HW212945   5.478   3.501   0.359
 4016SOL     OW12946   3.064   6.503   4.758
 4016SOL    HW112947   3.056   6.408   4.727
 4016SOL    HW212948   3.156   6.537   4.739
 4017SOL     OW12949   5.430   0.048   6.120
 4017SOL    HW112950   5.384   6.992   6.070
 4017SOL    HW212951   5.516   0.070   6.074
 4018SOL     OW12952   2.359   0.350   6.982
 4018SOL    HW112953   2.457   0.357   6.961
 4018SOL    HW212954   2.336   0.256   7.005
 4019SOL     OW12955   5.281   6.349   3.924
 4019SOL    HW112956   5.325   6.351   3.834
 4019SOL    HW212957   5.183   6.367   3.914
 4020SOL     OW12958   5.601   1.504   4.419
 4020SOL    HW112959   5.602   1.436   4.492
 4020SOL    HW212960   5.642   1.589   4.452
 4021SOL     OW12961   5.451   3.877   0.001
 4021SOL    HW112962   5.398   3.816   6.961
 4021SOL    HW212963   5.541   3.893   6.978
 4022SOL     OW12964   5.941   0.725   1.212
 4022SOL    HW112965   5.897   0.798   1.265
 4022SOL    HW212966   5.871   0.670   1.166
 4023SOL     OW12967   6.601   5.921   5.427
 4023SOL    HW112968   6.674   5.980   5.460
 4023SOL    HW212969   6.544   5.971   5.362
 4024SOL     OW12970   4.486   4.257   5.257
 4024SOL    HW112971   4.395   4.284   5.227
 4024SOL    HW212972   4.510   4.306   5.341
 4025SOL     OW12973   6.920   3.829   4.045
 4025SOL    HW112974   6.833   3.817   3.997
 4025SOL    HW212975   6.964   3.741   4.057
 4026SOL     OW12976   5.838   1.102   5.179
 4026SOL    HW112977   5.841   1.058   5.089
 4026SOL    HW212978   5.876   1.040   5.248
 4027SOL     OW12979   2.628   5.147   2.974
 4027SOL    HW112980   2.621   5.047   2.972
 4027SOL    HW212981   2.691   5.174   3.047
 4028SOL     OW12982   1.523   5.446   3.170
 4028SOL    HW112983   1.591   5.375   3.187
 4028SOL    HW212984   1.441   5.405   3.130
 4029SOL     OW12985   1.535   3.747   3.231
 4029SOL    HW112986   1.488   3.813   3.172
 4029SOL    HW212987   1.488   3.659   3.225
 4030SOL     OW12988   2.293   1.228   6.481
 4030SOL    HW112989   2.228   1.238   6.405
 4030SOL    HW212990   2.271   1.145   6.533
 4031SOL     OW12991   6.791   5.946   4.442
 4031SOL    HW112992   6.850   6.009   4.393
 4031SOL    HW212993   6.695   5.971   4.429
 4032SOL     OW12994   3.105   6.631   4.997
 4032SOL    HW112995   3.065   6.573   4.926
 4032SOL    HW212996   3.040   6.638   5.073
 4033SOL     OW12997   3.654   3.995   6.157
 4033SOL    HW112998   3.673   4.085   6.118
 4033SOL    HW212999   3.740   3.955   6.190
 4034SOL     OW13000   5.701   3.583   5.090
 4034SOL    HW113001   5.661   3.510   5.146
 4034SOL    HW213002   5.734   3.656   5.150
 4035SOL     OW13003   0.128   6.357   2.145
 4035SOL    HW113004   0.165   6.321   2.059
 4035SOL    HW213005   0.201   6.403   2.195
 4036SOL     OW13006   6.050   6.021   1.504
 4036SOL    HW113007   6.001   5.962   1.439
 4036SOL    HW213008   5.994   6.034   1.586
 4037SOL     OW13009   0.784   3.749   6.370
 4037SOL    HW113010   0.813   3.791   6.284
 4037SOL    HW213011   0.693   3.783   6.394
 4038SOL     OW13012   6.291   5.446   3.708
 4038SOL    HW113013   6.290   5.469   3.611
 4038SOL    HW213014   6.207   5.478   3.751
 4039SOL     OW13015   2.582   4.727   0.964
 4039SOL    HW113016   2.567   4.823   0.989
 4039SOL    HW213017   2.606   4.675   1.046
 4040SOL     OW13018   3.548   6.905   0.054
 4040SOL    HW113019   3.554   6.984   7.011
 4040SOL    HW213020   3.532   6.937   0.148
 4041SOL     OW13021   0.524   5.886   3.520
 4041SOL    HW113022   0.510   5.818   3.591
 4041SOL    HW213023   0.497   5.848   3.431
 4042SOL     OW13024   5.637   5.804   1.953
 4042SOL    HW113025   5.661   5.814   1.856
 4042SOL    HW213026   5.647   5.709   1.981
 4043SOL     OW13027   6.813   3.530   0.924
 4043SOL    HW113028   6.743   3.548   0.992
 4043SOL    HW213029   6.892   3.588   0.941
 4044SOL     OW13030   5.666   4.767   2.337
 4044SOL    HW113031   5.735   4.837   2.318
 4044SOL    HW213032   5.586   4.809   2.379
 4045SOL     OW13033   2.556   4.968   5.421
 4045SOL    HW113034   2.530   4.885   5.469
 4045SOL    HW213035   2.488   5.039   5.439
 4046SOL     OW13036   0.363   3.325   0.641
 4046SOL    HW113037   0.414   3.244   0.614
 4046SOL    HW213038   0.406   3.367   0.721
 4047SOL     OW13039   2.892   3.374   3.262
 4047SOL    HW113040   2.982   3.361   3.303
 4047SOL    HW213041   2.822   3.338   3.323
 4048SOL     OW13042   5.103   2.228   0.367
 4048SOL    HW113043   5.097   2.326   0.346
 4048SOL    HW213044   5.139   2.179   0.288
 4049SOL     OW13045   6.993   6.810   6.524
 4049SOL    HW113046   6.993   6.746   6.601
 4049SOL    HW213047   0.041   6.780   6.456
 4050SOL     OW13048   2.186   0.884   2.570
 4050SOL    HW113049   2.203   0.880   2.472
 4050SOL    HW213050   2.269   0.855   2.619
 4051SOL     OW13051   2.752   3.333   0.685
 4051SOL    HW113052   2.725   3.423   0.649
 4051SOL    HW213053   2.843   3.339   0.725
 4052SOL     OW13054   1.494   0.194   0.815
 4052SOL    HW113055   1.429   0.267   0.792
 4052SOL    HW213056   1.559   0.183   0.741
 4053SOL     OW13057   2.470   5.474   2.650
 4053SOL    HW113058   2.547   5.444   2.594
 4053SOL    HW213059   2.487   5.451   2.746
 4054SOL     OW13060   5.322   1.471   6.560
 4054SOL    HW113061   5.396   1.481   6.627
 4054SOL    HW213062   5.259   1.548   6.568
 4055SOL     OW13063   4.677   3.461   6.805
 4055SOL    HW113064   4.692   3.465   6.706
 4055SOL    HW213065   4.703   3.548   6.847
 4056SOL     OW13066   4.682   2.890   7.013
 4056SOL    HW113067   4.643   2.976   0.027
 4056SOL    HW213068   4.616   2.816   0.006
 4057SOL     OW13069   6.555   2.506   0.644
 4057SOL    HW113070   6.529   2.539   0.735
 4057SOL    HW213071   6.570   2.407   0.648
 4058SOL     OW13072   0.713   3.468   3.844
 4058SOL    HW113073   0.808   3.499   3.831
 4058SOL    HW213074   0.651   3.544   3.827
 4059SOL     OW13075   0.286   2.075   4.815
 4059SOL    HW113076   0.226   2.147   4.850
 4059SOL    HW213077   0.278   1.994   4.873
 4060SOL     OW13078   2.102   6.752   5.598
 4060SOL    HW113079   2.039   6.801   5.658
 4060SOL    HW213080   2.110   6.657   5.628
 4061SOL     OW13081   2.086   2.924   1.287
 4061SOL    HW113082   2.156   2.858   1.258
 4061SOL    HW213083   1.995   2.884   1.274
 4062SOL     OW13084   2.960   0.325   3.157
 4062SOL    HW113085   2.988   0.414   3.121
 4062SOL    HW213086   3.014   0.302   3.238
 4063SOL     OW13087   3.717   6.216   6.295
 4063SOL    HW113088   3.729   6.200   6.393
 4063SOL    HW213089   3.751   6.137   6.244
 4064SOL     OW13090   6.361   6.858   4.505
 4064SOL    HW113091   6.303   6.902   4.436
 4064SOL    HW213092   6.317   6.867   4.595
 4065SOL     OW13093   1.061   4.166   5.643
 4065SOL    HW113094   0.977   4.148   5.693
 4065SOL    HW213095   1.051   4.250   5.590
 4066SOL     OW13096   4.862   4.563   2.151
 4066SOL    HW113097   4.864   4.650   2.200
 4066SOL    HW213098   4.796   4.502   2.194
 4067SOL     OW13099   5.422   0.385   1.516
 4067SOL    HW113100   5.431   0.414   1.612
 4067SOL    HW213101   5.510   0.395   1.470
 4068SOL     OW13102   5.247   0.766   4.625
 4068SOL    HW113103   5.167   0.732   4.675
 4068SOL    HW213104   5.217   0.816   4.545
 4069SOL     OW13105   6.718   6.077   0.615
 4069SOL    HW113106   6.763   6.124   0.690
 4069SOL    HW213107   6.636   6.031   0.649
 4070SOL     OW13108   6.675   3.650   2.555
 4070SOL    HW113109   6.736   3.623   2.480
 4070SOL    HW213110   6.583   3.663   2.518
 4071SOL     OW13111   2.761   0.071   5.037
 4071SOL    HW113112   2.782   7.005   5.086
 4071SOL    HW213113   2.832   0.088   4.969
 4072SOL     OW13114   0.619   0.369   4.439
 4072SOL    HW113115   0.553   0.441   4.420
 4072SOL    HW213116   0.570   0.286   4.467
 4073SOL     OW13117   2.585   4.677   1.986
 4073SOL    HW113118   2.555   4.651   1.894
 4073SOL    HW213119   2.683   4.663   1.994
 4074SOL     OW13120   0.339   3.004   1.434
 4074SOL    HW113121   0.328   2.960   1.523
 4074SOL    HW213122   0.262   3.065   1.417
 4075SOL     OW13123   6.694   0.672   3.472
 4075SOL    HW113124   6.686   0.671   3.372
 4075SOL    HW213125   6.665   0.761   3.507
 4076SOL     OW13126   1.672   3.454   3.433
 4076SOL    HW113127   1.729   3.536   3.433
 4076SOL    HW213128   1.580   3.477   3.400
 4077SOL     OW13129   3.729   0.775   1.583
 4077SOL    HW113130   3.656   0.826   1.538
 4077SOL    HW213131   3.802   0.837   1.610
 4078SOL     OW13132   5.057   4.494   2.602
 4078SOL    HW113133   5.102   4.518   2.688
 4078SOL    HW213134   4.963   4.529   2.603
 4079SOL     OW13135   4.726   0.876   3.203
 4079SOL    HW113136   4.671   0.845   3.126
 4079SOL    HW213137   4.673   0.867   3.287
 4080SOL     OW13138   3.099   3.788   4.455
 4080SOL    HW113139   3.174   3.742   4.409
 4080SOL    HW213140   3.132   3.828   4.541
 4081SOL     OW13141   2.820   6.983   0.187
 4081SOL    HW113142   2.804   6.961   0.091
 4081SOL    HW213143   2.781   0.054   0.207
 4082SOL     OW13144   2.051   1.489   5.676
 4082SOL    HW113145   2.007   1.528   5.594
 4082SOL    HW213146   2.005   1.404   5.702
 4083SOL     OW13147   5.764   4.268   2.548
 4083SOL    HW113148   5.734   4.213   2.626
 4083SOL    HW213149   5.698   4.259   2.473
 4084SOL     OW13150   4.242   6.332   2.402
 4084SOL    HW113151   4.231   6.397   2.477
 4084SOL    HW213152   4.327   6.352   2.353
 4085SOL     OW13153   1.393   4.416   2.677
 4085SOL    HW113154   1.472   4.470   2.706
 4085SOL    HW213155   1.383   4.421   2.577
 4086SOL     OW13156   5.432   5.286   4.733
 4086SOL    HW113157   5.334   5.301   4.735
 4086SOL    HW213158   5.477   5.350   4.795
 4087SOL     OW13159   1.685   0.971   1.401
 4087SOL    HW113160   1.665   1.068   1.411
 4087SOL    HW213161   1.653   0.939   1.312
 4088SOL     OW13162   0.133   2.454   5.281
 4088SOL    HW113163   0.167   2.386   5.216
 4088SOL    HW213164   0.134   2.415   5.373
 4089SOL     OW13165   6.716   6.656   2.629
 4089SOL    HW113166   6.736   6.667   2.726
 4089SOL    HW213167   6.756   6.570   2.596
 4090SOL     OW13168   3.561   2.553   5.394
 4090SOL    HW113169   3.660   2.538   5.382
 4090SOL    HW213170   3.515   2.465   5.399
 4091SOL     OW13171   3.940   6.703   3.266
 4091SOL    HW113172   3.958   6.737   3.358
 4091SOL    HW213173   3.845   6.721   3.241
 4092SOL     OW13174   4.622   2.040   6.504
 4092SOL    HW113175   4.702   2.095   6.525
 4092SOL    HW213176   4.614   1.965   6.570
 4093SOL     OW13177   5.820   4.411   1.753
 4093SOL    HW113178   5.814   4.348   1.676
 4093SOL    HW213179   5.859   4.363   1.832
 4094SOL     OW13180   6.172   6.307   0.452
 4094SOL    HW113181   6.262   6.343   0.476
 4094SOL    HW213182   6.114   6.305   0.533
 4095SOL     OW13183   1.546   5.081   0.304
 4095SOL    HW113184   1.612   5.030   0.250
 4095SOL    HW213185   1.535   5.038   0.393
 4096SOL     OW13186   1.075   6.526   5.996
 4096SOL    HW113187   1.099   6.465   6.071
 4096SOL    HW213188   1.093   6.481   5.909
 4097SOL     OW13189   1.543   3.911   5.873
 4097SOL    HW113190   1.594   3.958   5.802
 4097SOL    HW213191   1.593   3.829   5.902
 4098SOL     OW13192   1.148   6.092   1.705
 4098SOL    HW113193   1.184   6.185   1.702
 4098SOL    HW213194   1.137   6.057   1.612
 4099SOL     OW13195   6.883   2.190   5.996
 4099SOL    HW113196   6.909   2.112   6.052
 4099SOL    HW213197   6.850   2.158   5.907
 4100SOL     OW13198   2.238   1.113   3.621
 4100SOL    HW113199   2.225   1.207   3.590
 4100SOL    HW213200   2.161   1.057   3.590
 4101SOL     OW13201   5.829   6.409   6.014
 4101SOL    HW113202   5.878   6.461   5.943
 4101SOL    HW213203   5.760   6.351   5.971
 4102SOL     OW13204   2.791   5.068   0.490
 4102SOL    HW113205   2.789   4.985   0.434
 4102SOL    HW213206   2.762   5.046   0.584
 4103SOL     OW13207   1.926   5.181   2.472
 4103SOL    HW113208   1.977   5.267   2.472
 4103SOL    HW213209   1.915   5.150   2.566
 4104SOL     OW13210   2.510   5.705   5.629
 4104SOL    HW113211   2.438   5.642   5.603
 4104SOL    HW213212   2.486   5.798   5.599
 4105SOL     OW13213   3.582   0.112   2.012
 4105SOL    HW113214   3.666   0.078   1.971
 4105SOL    HW213215   3.602   0.191   2.070
 4106SOL     OW13216   1.496   6.554   2.932
 4106SOL    HW113217   1.565   6.594   2.873
 4106SOL    HW213218   1.409   6.602   2.919
 4107SOL     OW13219   2.209   1.962   0.592
 4107SOL    HW113220   2.306   1.940   0.577
 4107SOL    HW213221   2.201   2.055   0.626
 4108SOL     OW13222   0.666   5.637   5.335
 4108SOL    HW113223   0.684   5.691   5.252
 4108SOL    HW213224   0.752   5.623   5.384
 4109SOL     OW13225   5.066   0.293   5.332
 4109SOL    HW113226   5.100   0.381   5.299
 4109SOL    HW213227   4.975   0.306   5.371
 4110SOL     OW13228   4.993   2.084   0.584
 4110SOL    HW113229   5.038   2.122   0.504
 4110SOL    HW213230   4.930   2.012   0.556
 4111SOL     OW13231   6.498   4.445   3.987
 4111SOL    HW113232   6.400   4.424   3.994
 4111SOL    HW213233   6.550   4.376   4.037
 4112SOL     OW13234   3.827   5.282   5.489
 4112SOL    HW113235   3.863   5.218   5.557
 4112SOL    HW213236   3.754   5.337   5.529
 4113SOL     OW13237   5.284   5.901   5.667
 4113SOL    HW113238   5.232   5.881   5.750
 4113SOL    HW213239   5.378   5.868   5.676
 4114SOL     OW13240   6.554   1.632   3.431
 4114SOL    HW113241   6.482   1.571   3.466
 4114SOL    HW213242   6.511   1.713   3.391
 4115SOL     OW13243   4.616   0.181   4.949
 4115SOL    HW113244   4.625   0.265   4.895
 4115SOL    HW213245   4.595   0.105   4.888
 4116SOL     OW13246   5.986   3.578   3.442
 4116SOL    HW113247   6.061   3.538   3.495
 4116SOL    HW213248   5.941   3.650   3.496
 4117SOL     OW13249   0.838   2.943   2.584
 4117SOL    HW113250   0.747   2.902   2.577
 4117SOL    HW213251   0.891   2.923   2.502
 4118SOL     OW13252   0.924   1.269   1.945
 4118SOL    HW113253   0.949   1.297   1.853
 4118SOL    HW213254   1.008   1.251   1.997
 4119SOL     OW13255   6.579   1.215   4.361
 4119SOL    HW113256   6.559   1.251   4.270
 4119SOL    HW213257   6.665   1.254   4.394
 4120SOL     OW13258   1.722   0.265   0.328
 4120SOL    HW113259   1.713   0.224   0.418
 4120SOL    HW213260   1.633   0.269   0.283
 4121SOL     OW13261   6.832   0.248   1.302
 4121SOL    HW113262   6.832   0.317   1.375
 4121SOL    HW213263   6.873   0.286   1.220
 4122SOL     OW13264   0.947   4.406   3.022
 4122SOL    HW113265   0.891   4.363   3.092
 4122SOL    HW213266   1.024   4.346   2.999
 4123SOL     OW13267   6.012   4.551   2.142
 4123SOL    HW113268   6.074   4.534   2.218
 4123SOL    HW213269   5.918   4.536   2.173
 4124SOL     OW13270   5.671   6.217   0.439
 4124SOL    HW113271   5.701   6.247   0.349
 4124SOL    HW213272   5.578   6.249   0.456
 4125SOL     OW13273   0.835   2.770   0.140
 4125SOL    HW113274   0.790   2.742   0.056
 4125SOL    HW213275   0.826   2.698   0.209
 4126SOL     OW13276   1.637   4.088   3.447
 4126SOL    HW113277   1.728   4.126   3.463
 4126SOL    HW213278   1.640   3.989   3.455
 4127SOL     OW13279   4.484   2.489   4.413
 4127SOL    HW113280   4.484   2.587   4.398
 4127SOL    HW213281   4.578   2.454   4.406
 4128SOL     OW13282   6.160   2.835   6.259
 4128SOL    HW113283   6.167   2.735   6.266
 4128SOL    HW213284   6.226   2.877   6.321
 4129SOL     OW13285   3.172   0.100   2.243
 4129SOL    HW113286   3.251   0.048   2.209
 4129SOL    HW213287   3.088   0.064   2.202
 4130SOL     OW13288   4.914   0.964   0.373
 4130SOL    HW113289   4.903   0.948   0.275
 4130SOL    HW213290   4.896   1.060   0.394
 4131SOL     OW13291   5.403   5.962   4.382
 4131SOL    HW113292   5.500   5.985   4.379
 4131SOL    HW213293   5.366   5.967   4.289
 4132SOL     OW13294   6.843   3.491   2.352
 4132SOL    HW113295   6.901   3.409   2.352
 4132SOL    HW213296   6.865   3.547   2.271
 4133SOL     OW13297   5.629   6.104   3.765
 4133SOL    HW113298   5.613   6.066   3.674
 4133SOL    HW213299   5.575   6.053   3.832
 4134SOL     OW13300   2.050   2.706   0.799
 4134SOL    HW113301   1.999   2.648   0.735
 4134SOL    HW213302   2.148   2.698   0.781
 4135SOL     OW13303   6.171   0.600   1.006
 4135SOL    HW113304   6.087   0.626   1.052
 4135SOL    HW213305   6.206   0.515   1.044
 4136SOL     OW13306   0.595   4.943   0.076
 4136SOL    HW113307   0.673   4.985   0.123
 4136SOL    HW213308   0.624   4.908   7.005
 4137SOL     OW13309   0.480   2.522   5.095
 4137SOL    HW113310   0.530   2.579   5.161
 4137SOL    HW213311   0.507   2.427   5.106
 4138SOL     OW13312   5.817   6.747   6.455
 4138SOL    HW113313   5.802   6.800   6.372
 4138SOL    HW213314   5.915   6.727   6.463
 4139SOL     OW13315   1.493   4.150   2.313
 4139SOL    HW113316   1.419   4.120   2.252
 4139SOL    HW213317   1.555   4.211   2.263
 4140SOL     OW13318   2.478   6.719   0.858
 4140SOL    HW113319   2.573   6.706   0.829
 4140SOL    HW213320   2.468   6.809   0.900
 4141SOL     OW13321   4.850   6.993   5.876
 4141SOL    HW113322   4.787   6.985   5.799
 4141SOL    HW213323   4.937   0.011   5.843
 4142SOL     OW13324   0.235   6.858   1.862
 4142SOL    HW113325   0.322   6.810   1.857
 4142SOL    HW213326   0.245   6.939   1.919
 4143SOL     OW13327   6.680   3.270   6.312
 4143SOL    HW113328   6.598   3.264   6.369
 4143SOL    HW213329   6.761   3.253   6.369
 4144SOL     OW13330   4.913   0.632   1.889
 4144SOL    HW113331   4.830   0.679   1.918
 4144SOL    HW213332   4.969   0.611   1.970
 4145SOL     OW13333   4.557   0.953   1.330
 4145SOL    HW113334   4.597   1.000   1.252
 4145SOL    HW213335   4.558   1.013   1.410
 4146SOL     OW13336   3.401   1.597   2.233
 4146SOL    HW113337   3.480   1.573   2.178
 4146SOL    HW213338   3.407   1.553   2.322
 4147SOL     OW13339   5.193   4.347   6.564
 4147SOL    HW113340   5.244   4.350   6.651
 4147SOL    HW213341   5.187   4.252   6.534
 4148SOL     OW13342   3.170   0.765   6.238
 4148SOL    HW113343   3.226   0.816   6.173
 4148SOL    HW213344   3.124   0.689   6.190
 4149SOL     OW13345   1.775   2.294   6.602
 4149SOL    HW113346   1.764   2.365   6.533
 4149SOL    HW213347   1.850   2.319   6.663
 4150SOL     OW13348   0.049   1.423   1.222
 4150SOL    HW113349   0.021   1.499   1.164
 4150SOL    HW213350   7.001   1.412   1.296
 4151SOL     OW13351   2.775   5.502   4.435
 4151SOL    HW113352   2.861   5.533   4.394
 4151SOL    HW213353   2.756   5.555   4.517
 4152SOL     OW13354   2.937   4.037   1.422
 4152SOL    HW113355   2.844   4.066   1.404
 4152SOL    HW213356   2.957   3.954   1.368
 4153SOL     OW13357   6.018   6.329   0.701
 4153SOL    HW113358   6.038   6.282   0.787
 4153SOL    HW213359   6.044   6.425   0.708
 4154SOL     OW13360   0.696   6.470   3.851
 4154SOL    HW113361   0.775   6.528   3.874
 4154SOL    HW213362   0.652   6.505   3.769
 4155SOL     OW13363   5.200   1.021   2.276
 4155SOL    HW113364   5.299   1.015   2.270
 4155SOL    HW213365   5.165   0.947   2.334
 4156SOL     OW13366   0.759   5.533   5.923
 4156SOL    HW113367   0.819   5.605   5.959
 4156SOL    HW213368   0.807   5.445   5.926
 4157SOL     OW13369   4.472   6.376   0.511
 4157SOL    HW113370   4.447   6.462   0.467
 4157SOL    HW213371   4.523   6.394   0.595
 4158SOL     OW13372   6.486   1.124   6.742
 4158SOL    HW113373   6.423   1.181   6.794
 4158SOL    HW213374   6.569   1.176   6.721
 4159SOL     OW13375   3.050   0.620   4.521
 4159SOL    HW113376   3.028   0.665   4.608
 4159SOL    HW213377   3.098   0.684   4.461
 4160SOL     OW13378   1.500   0.495   6.095
 4160SOL    HW113379   1.422   0.556   6.078
 4160SOL    HW213380   1.555   0.488   6.013
 4161SOL     OW13381   3.439   3.519   5.061
 4161SOL    HW113382   3.525   3.562   5.034
 4161SOL    HW213383   3.418   3.541   5.156
 4162SOL     OW13384   4.408   6.522   1.009
 4162SOL    HW113385   4.450   6.468   1.081
 4162SOL    HW213386   4.311   6.535   1.028
 4163SOL     OW13387   3.627   6.149   1.444
 4163SOL    HW113388   3.540   6.156   1.493
 4163SOL    HW213389   3.610   6.154   1.345
 4164SOL     OW13390   5.887   1.085   6.942
 4164SOL    HW113391   5.981   1.051   6.938
 4164SOL    HW213392   5.886   1.178   6.977
 4165SOL     OW13393   3.161   1.629   4.599
 4165SOL    HW113394   3.200   1.700   4.540
 4165SOL    HW213395   3.216   1.621   4.682
 4166SOL     OW13396   5.655   1.833   2.384
 4166SOL    HW113397   5.719   1.779   2.329
 4166SOL    HW213398   5.572   1.779   2.402
 4167SOL     OW13399   3.687   6.350   4.727
 4167SOL    HW113400   3.618   6.381   4.662
 4167SOL    HW213401   3.723   6.262   4.698
 4168SOL     OW13402   5.312   3.712   6.835
 4168SOL    HW113403   5.356   3.623   6.833
 4168SOL    HW213404   5.290   3.740   6.742
 4169SOL     OW13405   5.292   4.392   6.878
 4169SOL    HW113406   5.257   4.312   6.927
 4169SOL    HW213407   5.292   4.471   6.939
 4170SOL     OW13408   0.938   3.050   5.218
 4170SOL    HW113409   0.999   3.024   5.144
 4170SOL    HW213410   0.937   2.979   5.287
 4171SOL     OW13411   0.270   0.751   6.202
 4171SOL    HW113412   0.232   0.751   6.295
 4171SOL    HW213413   0.315   0.663   6.185
 4172SOL     OW13414   3.586   3.263   0.085
 4172SOL    HW113415   3.517   3.333   0.102
 4172SOL    HW213416   3.571   3.221   7.014
 4173SOL     OW13417   5.576   1.429   6.110
 4173SOL    HW113418   5.517   1.361   6.066
 4173SOL    HW213419   5.648   1.456   6.047
 4174SOL     OW13420   2.459   6.919   3.666
 4174SOL    HW113421   2.506   6.958   3.745
 4174SOL    HW213422   2.422   6.992   3.609
 4175SOL     OW13423   1.515   3.562   6.247
 4175SOL    HW113424   1.432   3.510   6.226
 4175SOL    HW213425   1.577   3.560   6.168
 4176SOL     OW13426   4.236   6.723   5.028
 4176SOL    HW113427   4.304   6.796   5.030
 4176SOL    HW213428   4.279   6.637   5.055
 4177SOL     OW13429   5.249   6.331   4.213
 4177SOL    HW113430   5.171   6.393   4.207
 4177SOL    HW213431   5.291   6.322   4.122
 4178SOL     OW13432   3.074   6.630   1.197
 4178SOL    HW113433   3.106   6.721   1.172
 4178SOL    HW213434   3.103   6.609   1.291
 4179SOL     OW13435   4.057   1.816   6.883
 4179SOL    HW113436   3.983   1.750   6.866
 4179SOL    HW213437   4.063   1.835   6.981
 4180SOL     OW13438   4.113   4.122   6.877
 4180SOL    HW113439   4.111   4.201   6.937
 4180SOL    HW213440   4.027   4.072   6.883
 4181SOL     OW13441   5.299   6.158   5.755
 4181SOL    HW113442   5.327   6.073   5.710
 4181SOL    HW213443   5.378   6.203   5.796
 4182SOL     OW13444   6.586   4.990   5.297
 4182SOL    HW113445   6.637   4.956   5.376
 4182SOL    HW213446   6.506   5.040   5.329
 4183SOL     OW13447   5.381   2.852   0.117
 4183SOL    HW113448   5.350   2.858   0.022
 4183SOL    HW213449   5.369   2.759   0.151
 4184SOL     OW13450   3.705   5.710   3.471
 4184SOL    HW113451   3.773   5.744   3.535
 4184SOL    HW213452   3.615   5.749   3.492
 4185SOL     OW13453   4.522   4.465   3.089
 4185SOL    HW113454   4.597   4.522   3.122
 4185SOL    HW213455   4.555   4.372   3.075
 4186SOL     OW13456   1.908   4.894   0.996
 4186SOL    HW113457   1.917   4.946   1.081
 4186SOL    HW213458   1.872   4.803   1.016
 4187SOL     OW13459   1.487   3.804   6.403
 4187SOL    HW113460   1.492   3.720   6.348
 4187SOL    HW213461   1.417   3.793   6.474
 4188SOL     OW13462   5.257   0.587   6.349
 4188SOL    HW113463   5.211   0.517   6.404
 4188SOL    HW213464   5.189   0.655   6.319
 4189SOL     OW13465   4.165   5.669   3.621
 4189SOL    HW113466   4.148   5.642   3.716
 4189SOL    HW213467   4.258   5.646   3.595
 4190SOL     OW13468   6.344   5.812   0.996
 4190SOL    HW113469   6.345   5.910   0.975
 4190SOL    HW213470   6.411   5.793   1.067
 4191SOL     OW13471   4.802   2.771   5.811
 4191SOL    HW113472   4.854   2.836   5.756
 4191SOL    HW213473   4.800   2.802   5.906
 4192SOL     OW13474   1.912   3.648   6.229
 4192SOL    HW113475   1.838   3.715   6.239
 4192SOL    HW213476   1.979   3.661   6.302
 4193SOL     OW13477   5.635   6.651   1.318
 4193SOL    HW113478   5.651   6.742   1.356
 4193SOL    HW213479   5.564   6.656   1.248
 4194SOL     OW13480   5.290   0.399   6.915
 4194SOL    HW113481   5.193   0.405   6.889
 4194SOL    HW213482   5.308   0.307   6.951
 4195SOL     OW13483   1.956   6.105   0.628
 4195SOL    HW113484   1.955   6.019   0.679
 4195SOL    HW213485   1.886   6.166   0.664
 4196SOL     OW13486   6.481   3.285   3.174
 4196SOL    HW113487   6.411   3.214   3.167
 4196SOL    HW213488   6.437   3.375   3.175
 4197SOL     OW13489   4.160   0.571   0.043
 4197SOL    HW113490   4.174   0.667   0.069
 4197SOL    HW213491   4.062   0.553   0.035
 4198SOL     OW13492   6.574   2.270   1.796
 4198SOL    HW113493   6.494   2.226   1.756
 4198SOL    HW213494   6.592   2.357   1.749
 4199SOL     OW13495   1.655   3.709   0.142
 4199SOL    HW113496   1.625   3.711   0.046
 4199SOL    HW213497   1.602   3.775   0.195
 4200SOL     OW13498   5.512   1.165   2.709
 4200SOL    HW113499   5.413   1.162   2.704
 4200SOL    HW213500   5.542   1.260   2.724
 4201SOL     OW13501   4.801   0.346   5.403
 4201SOL    HW113502   4.730   0.396   5.453
 4201SOL    HW213503   4.767   0.319   5.314
 4202SOL     OW13504   4.479   4.534   1.423
 4202SOL    HW113505   4.499   4.509   1.518
 4202SOL    HW213506   4.562   4.565   1.378
 4203SOL     OW13507   6.417   3.762   4.743
 4203SOL    HW113508   6.437   3.726   4.651
 4203SOL    HW213509   6.473   3.843   4.761
 4204SOL     OW13510   2.526   4.283   5.915
 4204SOL    HW113511   2.501   4.222   5.990
 4204SOL    HW213512   2.450   4.345   5.896
 4205SOL     OW13513   5.483   5.318   5.597
 4205SOL    HW113514   5.397   5.305   5.645
 4205SOL    HW213515   5.466   5.326   5.498
 4206SOL     OW13516   2.647   2.416   5.053
 4206SOL    HW113517   2.708   2.382   5.125
 4206SOL    HW213518   2.588   2.487   5.092
 4207SOL     OW13519   2.474   2.370   1.231
 4207SOL    HW113520   2.556   2.319   1.204
 4207SOL    HW213521   2.473   2.458   1.184
 4208SOL     OW13522   1.765   2.524   2.701
 4208SOL    HW113523   1.863   2.506   2.687
 4208SOL    HW213524   1.744   2.518   2.799
 4209SOL     OW13525   6.600   5.183   2.795
 4209SOL    HW113526   6.660   5.262   2.790
 4209SOL    HW213527   6.556   5.180   2.884
 4210SOL     OW13528   3.215   5.460   5.143
 4210SOL    HW113529   3.301   5.481   5.097
 4210SOL    HW213530   3.165   5.391   5.090
 4211SOL     OW13531   4.957   3.100   5.857
 4211SOL    HW113532   4.925   3.151   5.937
 4211SOL    HW213533   5.046   3.059   5.878
 4212SOL     OW13534   0.761   2.892   2.957
 4212SOL    HW113535   0.752   2.967   3.022
 4212SOL    HW213536   0.681   2.831   2.964
 4213SOL     OW13537   2.902   0.634   3.753
 4213SOL    HW113538   2.933   0.554   3.806
 4213SOL    HW213539   2.944   0.631   3.662
 4214SOL     OW13540   6.327   6.409   4.071
 4214SOL    HW113541   6.317   6.467   3.990
 4214SOL    HW213542   6.296   6.458   4.152
 4215SOL     OW13543   5.845   0.209   5.300
 4215SOL    HW113544   5.840   0.148   5.221
 4215SOL    HW213545   5.921   0.273   5.288
 4216SOL     OW13546   1.964   5.815   2.430
 4216SOL    HW113547   2.025   5.829   2.508
 4216SOL    HW213548   1.882   5.767   2.459
 4217SOL     OW13549   0.149   0.234   3.188
 4217SOL    HW113550   0.115   0.324   3.213
 4217SOL    HW213551   0.111   0.166   3.251
 4218SOL     OW13552   2.589   0.915   1.770
 4218SOL    HW113553   2.663   0.852   1.748
 4218SOL    HW213554   2.501   0.867   1.766
 4219SOL     OW13555   3.189   5.666   2.512
 4219SOL    HW113556   3.285   5.668   2.483
 4219SOL    HW213557   3.140   5.742   2.470
 4220SOL     OW13558   5.595   1.664   1.391
 4220SOL    HW113559   5.517   1.636   1.447
 4220SOL    HW213560   5.612   1.596   1.320
 4221SOL     OW13561   0.436   0.361   1.086
 4221SOL    HW113562   0.482   0.441   1.047
 4221SOL    HW213563   0.362   0.391   1.145
 4222SOL     OW13564   4.870   3.700   4.244
 4222SOL    HW113565   4.871   3.645   4.328
 4222SOL    HW213566   4.894   3.642   4.166
 4223SOL     OW13567   3.578   4.044   2.581
 4223SOL    HW113568   3.527   4.079   2.660
 4223SOL    HW213569   3.676   4.063   2.595
 4224SOL     OW13570   4.719   4.102   4.900
 4224SOL    HW113571   4.659   4.178   4.873
 4224SOL    HW213572   4.723   4.096   5.000
 4225SOL     OW13573   0.758   1.494   6.163
 4225SOL    HW113574   0.836   1.553   6.185
 4225SOL    HW213575   0.789   1.399   6.156
 4226SOL     OW13576   5.222   5.258   4.067
 4226SOL    HW113577   5.128   5.261   4.101
 4226SOL    HW213578   5.285   5.287   4.138
 4227SOL     OW13579   5.585   5.928   0.929
 4227SOL    HW113580   5.658   5.901   0.867
 4227SOL    HW213581   5.608   5.900   1.022
 4228SOL     OW13582   1.731   4.537   3.291
 4228SOL    HW113583   1.825   4.566   3.308
 4228SOL    HW213584   1.676   4.546   3.374
 4229SOL     OW13585   6.249   6.534   5.985
 4229SOL    HW113586   6.277   6.485   6.068
 4229SOL    HW213587   6.330   6.563   5.935
 4230SOL     OW13588   0.777   1.821   2.153
 4230SOL    HW113589   0.726   1.898   2.193
 4230SOL    HW213590   0.714   1.749   2.126
 4231SOL     OW13591   0.175   0.669   5.800
 4231SOL    HW113592   0.212   0.596   5.857
 4231SOL    HW213593   0.167   0.753   5.854
 4232SOL     OW13594   1.950   4.513   2.583
 4232SOL    HW113595   1.891   4.434   2.603
 4232SOL    HW213596   2.006   4.534   2.663
 4233SOL     OW13597   4.540   5.227   2.372
 4233SOL    HW113598   4.608   5.194   2.438
 4233SOL    HW213599   4.461   5.264   2.422
 4234SOL     OW13600   3.302   5.531   6.533
 4234SOL    HW113601   3.275   5.530   6.436
 4234SOL    HW213602   3.346   5.618   6.554
 4235SOL     OW13603   6.703   6.112   0.103
 4235SOL    HW113604   6.642   6.048   0.057
 4235SOL    HW213605   6.727   6.186   0.041
 4236SOL     OW13606   7.015   4.966   3.586
 4236SOL    HW113607   0.043   4.940   3.501
 4236SOL    HW213608   6.921   4.995   3.566
 4237SOL     OW13609   6.354   4.756   4.178
 4237SOL    HW113610   6.311   4.765   4.268
 4237SOL    HW213611   6.286   4.724   4.112
 4238SOL     OW13612   1.771   5.945   3.044
 4238SOL    HW113613   1.761   5.978   3.138
 4238SOL    HW213614   1.803   5.850   3.045
 4239SOL     OW13615   4.210   0.988   3.424
 4239SOL    HW113616   4.123   1.023   3.458
 4239SOL    HW213617   4.205   0.888   3.416
 4240SOL     OW13618   4.872   6.800   1.858
 4240SOL    HW113619   4.951   6.773   1.803
 4240SOL    HW213620   4.814   6.720   1.874
 4241SOL     OW13621   0.447   4.422   6.668
 4241SOL    HW113622   0.439   4.504   6.611
 4241SOL    HW213623   0.467   4.449   6.762
 4242SOL     OW13624   3.690   2.093   2.703
 4242SOL    HW113625   3.730   2.123   2.789
 4242SOL    HW213626   3.740   2.134   2.626
 4243SOL     OW13627   2.855   1.886   2.929
 4243SOL    HW113628   2.837   1.888   3.027
 4243SOL    HW213629   2.808   1.962   2.885
 4244SOL     OW13630   2.829   3.439   5.167
 4244SOL    HW113631   2.893   3.516   5.158
 4244SOL    HW213632   2.749   3.469   5.219
 4245SOL     OW13633   6.756   1.324   5.581
 4245SOL    HW113634   6.849   1.356   5.597
 4245SOL    HW213635   6.757   1.250   5.513
 4246SOL     OW13636   0.995   4.698   6.286
 4246SOL    HW113637   0.907   4.725   6.324
 4246SOL    HW213638   0.983   4.620   6.224
 4247SOL     OW13639   0.471   4.641   4.941
 4247SOL    HW113640   0.533   4.609   4.870
 4247SOL    HW213641   0.445   4.565   5.000
 4248SOL     OW13642   2.155   3.342   6.838
 4248SOL    HW113643   2.115   3.281   6.769
 4248SOL    HW213644   2.110   3.431   6.833
 4249SOL     OW13645   5.329   3.358   6.349
 4249SOL    HW113646   5.267   3.304   6.293
 4249SOL    HW213647   5.343   3.448   6.307
 4250SOL     OW13648   6.632   4.102   3.789
 4250SOL    HW113649   6.696   4.171   3.754
 4250SOL    HW213650   6.548   4.104   3.735
 4251SOL     OW13651   5.960   4.869   6.173
 4251SOL    HW113652   5.900   4.930   6.120
 4251SOL    HW213653   6.053   4.875   6.138
 4252SOL     OW13654   5.930   4.787   5.329
 4252SOL    HW113655   5.983   4.852   5.383
 4252SOL    HW213656   5.833   4.811   5.333
 4253SOL     OW13657   3.247   0.221   3.202
 4253SOL    HW113658   3.265   0.318   3.221
 4253SOL    HW213659   3.282   0.165   3.276
 4254SOL     OW13660   3.683   3.158   2.945
 4254SOL    HW113661   3.763   3.099   2.951
 4254SOL    HW213662   3.712   3.253   2.940
 4255SOL     OW13663   0.800   2.291   4.115
 4255SOL    HW113664   0.898   2.290   4.132
 4255SOL    HW213665   0.783   2.319   4.020
 4256SOL     OW13666   1.101   0.994   1.745
 4256SOL    HW113667   1.037   0.920   1.724
 4256SOL    HW213668   1.185   0.982   1.692
 4257SOL     OW13669   4.256   2.314   4.837
 4257SOL    HW113670   4.204   2.356   4.911
 4257SOL    HW213671   4.200   2.244   4.792
 4258SOL     OW13672   5.537   5.921   2.184
 4258SOL    HW113673   5.580   6.003   2.224
 4258SOL    HW213674   5.579   5.900   2.096
 4259SOL     OW13675   2.858   3.154   1.674
 4259SOL    HW113676   2.864   3.160   1.773
 4259SOL    HW213677   2.902   3.070   1.642
 4260SOL     OW13678   3.918   6.235   4.989
 4260SOL    HW113679   3.993   6.249   4.924
 4260SOL    HW213680   3.860   6.160   4.957
 4261SOL     OW13681   1.293   1.297   3.105
 4261SOL    HW113682   1.267   1.384   3.063
 4261SOL    HW213683   1.239   1.224   3.064
 4262SOL     OW13684   0.772   6.765   5.374
 4262SOL    HW113685   0.869   6.791   5.373
 4262SOL    HW213686   0.735   6.771   5.281
 4263SOL     OW13687   4.408   5.332   6.731
 4263SOL    HW113688   4.465   5.295   6.804
 4263SOL    HW213689   4.345   5.401   6.768
 4264SOL     OW13690   1.478   0.683   1.316
 4264SOL    HW113691   1.468   0.780   1.292
 4264SOL    HW213692   1.388   0.640   1.323
 4265SOL     OW13693   1.963   1.596   0.983
 4265SOL    HW113694   2.022   1.592   0.902
 4265SOL    HW213695   1.883   1.653   0.963
 4266SOL     OW13696   2.943   4.749   0.485
 4266SOL    HW113697   2.854   4.711   0.461
 4266SOL    HW213698   3.015   4.698   0.438
 4267SOL     OW13699   1.448   3.842   5.083
 4267SOL    HW113700   1.527   3.897   5.054
 4267SOL    HW213701   1.372   3.857   5.020
 4268SOL     OW13702   0.594   1.624   1.252
 4268SOL    HW113703   0.590   1.606   1.351
 4268SOL    HW213704   0.635   1.546   1.206
 4269SOL     OW13705   2.935   3.624   0.733
 4269SOL    HW113706   2.839   3.635   0.709
 4269SOL    HW213707   2.957   3.526   0.738
 4270SOL     OW13708   3.881   2.936   6.972
 4270SOL    HW113709   3.806   2.910   6.912
 4270SOL    HW213710   3.912   3.028   6.950
 4271SOL     OW13711   1.811   0.612   1.631
 4271SOL    HW113712   1.726   0.651   1.596
 4271SOL    HW213713   1.883   0.681   1.629
 4272SOL     OW13714   1.216   4.497   3.458
 4272SOL    HW113715   1.284   4.424   3.451
 4272SOL    HW213716   1.124   4.458   3.445
 4273SOL     OW13717   6.487   6.620   3.453
 4273SOL    HW113718   6.407   6.670   3.485
 4273SOL    HW213719   6.547   6.682   3.402
 4274SOL     OW13720   1.647   0.312   3.432
 4274SOL    HW113721   1.572   0.332   3.369
 4274SOL    HW213722   1.733   0.308   3.381
 4275SOL     OW13723   0.717   0.608   5.985
 4275SOL    HW113724   0.794   0.670   5.994
 4275SOL    HW213725   0.734   0.544   5.910
 4276SOL     OW13726   2.036   3.559   3.756
 4276SOL    HW113727   1.945   3.568   3.797
 4276SOL    HW213728   2.081   3.648   3.754
 4277SOL     OW13729   0.480   5.663   5.695
 4277SOL    HW113730   0.521   5.732   5.755
 4277SOL    HW213731   0.552   5.605   5.656
 4278SOL     OW13732   0.949   6.194   6.562
 4278SOL    HW113733   0.980   6.289   6.553
 4278SOL    HW213734   1.005   6.148   6.631
 4279SOL     OW13735   3.927   6.001   3.095
 4279SOL    HW113736   3.929   6.025   2.998
 4279SOL    HW213737   3.868   5.922   3.109
 4280SOL     OW13738   4.821   2.929   4.258
 4280SOL    HW113739   4.907   2.879   4.274
 4280SOL    HW213740   4.839   3.005   4.196
 4281SOL     OW13741   1.964   4.050   4.862
 4281SOL    HW113742   1.996   4.054   4.957
 4281SOL    HW213743   1.873   4.091   4.856
 4282SOL     OW13744   0.852   1.413   6.927
 4282SOL    HW113745   0.758   1.411   6.891
 4282SOL    HW213746   0.851   1.386   0.005
 4283SOL     OW13747   2.920   1.188   3.780
 4283SOL    HW113748   2.859   1.247   3.726
 4283SOL    HW213749   2.866   1.135   3.845
 4284SOL     OW13750   0.120   2.510   2.896
 4284SOL    HW113751   0.041   2.553   2.940
 4284SOL    HW213752   0.119   2.412   2.914
 4285SOL     OW13753   0.837   6.085   4.385
 4285SOL    HW113754   0.782   6.078   4.302
 4285SOL    HW213755   0.848   6.182   4.410
 4286SOL     OW13756   4.541   5.571   0.142
 4286SOL    HW113757   4.551   5.669   0.123
 4286SOL    HW213758   4.548   5.520   0.057
 4287SOL     OW13759   4.272   5.665   5.732
 4287SOL    HW113760   4.187   5.649   5.683
 4287SOL    HW213761   4.264   5.630   5.826
 4288SOL     OW13762   1.210   6.165   4.087
 4288SOL    HW113763   1.252   6.227   4.153
 4288SOL    HW213764   1.122   6.201   4.058
 4289SOL     OW13765   0.708   4.168   6.794
 4289SOL    HW113766   0.683   4.086   6.845
 4289SOL    HW213767   0.630   4.199   6.740
 4290SOL     OW13768   1.595   1.915   2.755
 4290SOL    HW113769   1.678   1.869   2.725
 4290SOL    HW213770   1.616   2.012   2.772
 4291SOL     OW13771   6.945   4.247   1.124
 4291SOL    HW113772   6.868   4.291   1.076
 4291SOL    HW213773   0.012   4.290   1.095
 4292SOL     OW13774   5.484   5.575   4.856
 4292SOL    HW113775   5.584   5.587   4.861
 4292SOL    HW213776   5.440   5.636   4.921
 4293SOL     OW13777   0.858   1.701   0.580
 4293SOL    HW113778   0.893   1.715   0.673
 4293SOL    HW213779   0.851   1.790   0.534
 4294SOL     OW13780   4.427   2.469   5.959
 4294SOL    HW113781   4.385   2.440   5.874
 4294SOL    HW213782   4.369   2.441   6.036
 4295SOL     OW13783   3.370   5.196   5.189
 4295SOL    HW113784   3.446   5.243   5.145
 4295SOL    HW213785   3.284   5.239   5.162
 4296SOL     OW13786   2.038   1.623   2.505
 4296SOL    HW113787   2.138   1.624   2.510
 4296SOL    HW213788   2.005   1.715   2.485
 4297SOL     OW13789   5.297   7.015   0.688
 4297SOL    HW113790   5.207   0.002   0.730
 4297SOL    HW213791   5.366   7.005   0.759
 4298SOL     OW13792   1.598   4.328   1.751
 4298SOL    HW113793   1.692   4.302   1.775
 4298SOL    HW213794   1.600   4.412   1.697
 4299SOL     OW13795   1.161   5.637   5.022
 4299SOL    HW113796   1.130   5.731   5.016
 4299SOL    HW213797   1.083   5.576   5.035
 4300SOL     OW13798   5.463   0.454   5.476
 4300SOL    HW113799   5.554   0.485   5.448
 4300SOL    HW213800   5.418   0.526   5.529
 4301SOL     OW13801   3.066   0.905   0.762
 4301SOL    HW113802   3.078   0.807   0.772
 4301SOL    HW213803   3.065   0.948   0.852
 4302SOL     OW13804   0.845   0.341   0.066
 4302SOL    HW113805   0.935   0.374   0.037
 4302SOL    HW213806   0.831   0.249   0.031
 4303SOL     OW13807   0.688   4.222   1.886
 4303SOL    HW113808   0.670   4.147   1.823
 4303SOL    HW213809   0.676   4.190   1.980
 4304SOL     OW13810   3.013   3.801   5.651
 4304SOL    HW113811   3.029   3.891   5.692
 4304SOL    HW213812   2.977   3.739   5.720
 4305SOL     OW13813   0.544   1.498   5.018
 4305SOL    HW113814   0.522   1.422   4.958
 4305SOL    HW213815   0.529   1.585   4.971
 4306SOL     OW13816   6.160   5.484   5.739
 4306SOL    HW113817   6.245   5.443   5.772
 4306SOL    HW213818   6.125   5.549   5.807
 4307SOL     OW13819   6.239   3.889   0.968
 4307SOL    HW113820   6.334   3.914   0.984
 4307SOL    HW213821   6.222   3.880   0.870
 4308SOL     OW13822   2.865   0.039   5.491
 4308SOL    HW113823   2.784   0.076   5.445
 4308SOL    HW213824   2.836   6.991   5.560
 4309SOL     OW13825   1.179   0.287   1.481
 4309SOL    HW113826   1.147   0.193   1.476
 4309SOL    HW213827   1.139   0.333   1.560
 4310SOL     OW13828   1.513   6.951   2.734
 4310SOL    HW113829   1.578   6.875   2.741
 4310SOL    HW213830   1.555   0.009   2.687
 4311SOL     OW13831   1.241   4.801   4.817
 4311SOL    HW113832   1.189   4.753   4.747
 4311SOL    HW213833   1.195   4.887   4.840
 4312SOL     OW13834   1.166   5.238   2.694
 4312SOL    HW113835   1.148   5.222   2.597
 4312SOL    HW213836   1.080   5.237   2.745
 4313SOL     OW13837   4.964   1.228   1.202
 4313SOL    HW113838   4.995   1.187   1.287
 4313SOL    HW213839   4.980   1.165   1.126
 4314SOL     OW13840   6.572   3.232   1.322
 4314SOL    HW113841   6.499   3.198   1.262
 4314SOL    HW213842   6.531   3.280   1.400
 4315SOL     OW13843   1.479   0.747   2.265
 4315SOL    HW113844   1.444   0.758   2.358
 4315SOL    HW213845   1.426   0.676   2.218
 4316SOL     OW13846   0.371   1.210   2.593
 4316SOL    HW113847   0.339   1.178   2.682
 4316SOL    HW213848   0.421   1.136   2.548
 4317SOL     OW13849   4.256   0.722   3.276
 4317SOL    HW113850   4.276   0.753   3.184
 4317SOL    HW213851   4.334   0.671   3.312
 4318SOL     OW13852   0.079   2.221   4.941
 4318SOL    HW113853   6.997   2.219   4.936
 4318SOL    HW213854   0.108   2.206   5.035
 4319SOL     OW13855   4.128   2.953   6.557
 4319SOL    HW113856   4.071   3.028   6.590
 4319SOL    HW213857   4.073   2.888   6.505
 4320SOL     OW13858   6.657   6.325   3.618
 4320SOL    HW113859   6.749   6.329   3.580
 4320SOL    HW213860   6.623   6.231   3.614
 4321SOL     OW13861   0.468   0.842   4.499
 4321SOL    HW113862   0.481   0.746   4.525
 4321SOL    HW213863   0.394   0.849   4.432
 4322SOL     OW13864   6.451   0.885   0.724
 4322SOL    HW113865   6.475   0.982   0.715
 4322SOL    HW213866   6.413   0.868   0.815
 4323SOL     OW13867   0.003   2.332   3.846
 4323SOL    HW113868   6.933   2.291   3.824
 4323SOL    HW213869   0.076   2.266   3.829
 4324SOL     OW13870   5.585   2.323   5.865
 4324SOL    HW113871   5.527   2.253   5.906
 4324SOL    HW213872   5.587   2.312   5.766
 4325SOL     OW13873   1.778   2.497   6.423
 4325SOL    HW113874   1.811   2.591   6.434
 4325SOL    HW213875   1.709   2.495   6.349
 4326SOL     OW13876   6.636   2.588   5.314
 4326SOL    HW113877   6.669   2.681   5.296
 4326SOL    HW213878   6.698   2.523   5.271
 4327SOL     OW13879   5.077   0.701   3.322
 4327SOL    HW113880   5.061   0.666   3.415
 4327SOL    HW213881   5.070   0.801   3.323
 4328SOL     OW13882   6.423   5.019   0.566
 4328SOL    HW113883   6.434   4.941   0.504
 4328SOL    HW213884   6.380   4.988   0.651
 4329SOL     OW13885   4.993   1.712   6.506
 4329SOL    HW113886   4.984   1.643   6.435
 4329SOL    HW213887   4.971   1.802   6.468
 4330SOL     OW13888   1.053   1.059   6.094
 4330SOL    HW113889   1.131   1.113   6.061
 4330SOL    HW213890   1.041   0.978   6.035
 4331SOL     OW13891   5.164   2.741   6.281
 4331SOL    HW113892   5.248   2.707   6.323
 4331SOL    HW213893   5.094   2.670   6.285
 4332SOL     OW13894   6.351   4.614   2.040
 4332SOL    HW113895   6.368   4.522   2.005
 4332SOL    HW213896   6.279   4.611   2.109
 4333SOL     OW13897   6.369   1.523   4.909
 4333SOL    HW113898   6.456   1.509   4.862
 4333SOL    HW213899   6.311   1.584   4.856
 4334SOL     OW13900   4.198   6.931   2.055
 4334SOL    HW113901   4.273   6.941   2.120
 4334SOL    HW213902   4.186   6.835   2.032
 4335SOL     OW13903   3.725   4.467   6.134
 4335SOL    HW113904   3.820   4.490   6.156
 4335SOL    HW213905   3.665   4.499   6.208
 4336SOL     OW13906   1.429   0.275   6.235
 4336SOL    HW113907   1.424   0.361   6.185
 4336SOL    HW213908   1.437   0.294   6.333
 4337SOL     OW13909   0.928   5.404   6.260
 4337SOL    HW113910   0.925   5.413   6.160
 4337SOL    HW213911   0.977   5.320   6.284
 4338SOL     OW13912   5.517   6.761   3.189
 4338SOL    HW113913   5.605   6.788   3.150
 4338SOL    HW213914   5.452   6.837   3.182
 4339SOL     OW13915   6.696   0.821   0.252
 4339SOL    HW113916   6.647   0.734   0.265
 4339SOL    HW213917   6.645   0.895   0.296
 4340SOL     OW13918   4.954   3.540   1.859
 4340SOL    HW113919   4.909   3.469   1.807
 4340SOL    HW213920   4.887   3.607   1.891
 4341SOL     OW13921   0.936   3.484   0.390
 4341SOL    HW113922   0.916   3.387   0.405
 4341SOL    HW213923   0.914   3.508   0.295
 4342SOL     OW13924   0.399   2.621   2.295
 4342SOL    HW113925   0.439   2.530   2.280
 4342SOL    HW213926   0.305   2.611   2.328
 4343SOL     OW13927   3.414   3.037   1.335
 4343SOL    HW113928   3.334   3.061   1.281
 4343SOL    HW213929   3.395   2.955   1.390
 4344SOL     OW13930   2.397   3.195   1.723
 4344SOL    HW113931   2.475   3.166   1.668
 4344SOL    HW213932   2.423   3.273   1.780
 4345SOL     OW13933   2.855   0.788   6.136
 4345SOL    HW113934   2.817   0.700   6.107
 4345SOL    HW213935   2.878   0.842   6.055
 4346SOL     OW13936   0.395   4.085   1.176
 4346SOL    HW113937   0.419   4.166   1.229
 4346SOL    HW213938   0.402   4.107   1.078
 4347SOL     OW13939   5.139   6.023   2.417
 4347SOL    HW113940   5.134   5.952   2.347
 4347SOL    HW213941   5.176   6.107   2.377
 4348SOL     OW13942   1.183   3.597   0.448
 4348SOL    HW113943   1.187   3.695   0.465
 4348SOL    HW213944   1.088   3.569   0.434
 4349SOL     OW13945   6.216   1.327   1.090
 4349SOL    HW113946   6.210   1.292   1.183
 4349SOL    HW213947   6.220   1.250   1.026
 4350SOL     OW13948   3.410   0.349   2.979
 4350SOL    HW113949   3.353   0.272   3.007
 4350SOL    HW213950   3.377   0.385   2.892
 4351SOL     OW13951   3.648   0.002   0.492
 4351SOL    HW113952   3.719   0.061   0.529
 4351SOL    HW213953   3.585   6.994   0.565
 4352SOL     OW13954   6.172   1.960   1.597
 4352SOL    HW113955   6.231   1.879   1.584
 4352SOL    HW213956   6.104   1.963   1.525
 4353SOL     OW13957   3.330   5.684   0.792
 4353SOL    HW113958   3.407   5.621   0.798
 4353SOL    HW213959   3.275   5.677   0.875
 4354SOL     OW13960   2.891   1.019   1.416
 4354SOL    HW113961   2.825   1.092   1.439
 4354SOL    HW213962   2.872   0.985   1.325
 4355SOL     OW13963   4.533   6.757   6.790
 4355SOL    HW113964   4.556   6.854   6.796
 4355SOL    HW213965   4.446   6.740   6.837
 4356SOL     OW13966   3.443   4.057   1.263
 4356SOL    HW113967   3.475   4.088   1.352
 4356SOL    HW213968   3.480   3.966   1.244
 4357SOL     OW13969   5.775   0.170   0.982
 4357SOL    HW113970   5.823   0.102   1.037
 4357SOL    HW213971   5.835   0.248   0.966
 4358SOL     OW13972   6.596   0.753   1.061
 4358SOL    HW113973   6.549   0.685   1.006
 4358SOL    HW213974   6.639   0.820   1.001
 4359SOL     OW13975   6.887   3.973   4.388
 4359SOL    HW113976   6.820   4.043   4.414
 4359SOL    HW213977   6.962   4.015   4.338
 4360SOL     OW13978   2.390   3.394   1.051
 4360SOL    HW113979   2.290   3.393   1.047
 4360SOL    HW213980   2.425   3.301   1.046
 4361SOL     OW13981   5.129   1.702   2.371
 4361SOL    HW113982   5.120   1.794   2.333
 4361SOL    HW213983   5.058   1.688   2.440
 4362SOL     OW13984   4.770   4.204   2.412
 4362SOL    HW113985   4.740   4.221   2.506
 4362SOL    HW213986   4.858   4.156   2.414
 4363SOL     OW13987   4.958   0.562   6.678
 4363SOL    HW113988   4.860   0.546   6.668
 4363SOL    HW213989   5.004   0.542   6.591
 4364SOL     OW13990   4.439   3.691   5.463
 4364SOL    HW113991   4.474   3.597   5.454
 4364SOL    HW213992   4.339   3.691   5.456
 4365SOL     OW13993   5.220   2.552   0.064
 4365SOL    HW113994   5.191   2.474   0.009
 4365SOL    HW213995   5.142   2.585   0.118
 4366SOL     OW13996   4.815   5.188   0.881
 4366SOL    HW113997   4.901   5.176   0.833
 4366SOL    HW213998   4.833   5.218   0.975
 4367SOL     OW13999   6.144   6.401   1.003
 4367SOL    HW114000   6.115   6.466   1.073
 4367SOL    HW214001   6.072   6.332   0.990
 4368SOL     OW14002   4.548   5.592   2.174
 4368SOL    HW114003   4.560   5.615   2.271
 4368SOL    HW214004   4.451   5.576   2.155
 4369SOL     OW14005   3.228   5.573   1.645
 4369SOL    HW114006   3.223   5.550   1.548
 4369SOL    HW214007   3.198   5.668   1.658
 4370SOL     OW14008   5.196   4.325   1.653
 4370SOL    HW114009   5.222   4.233   1.682
 4370SOL    HW214010   5.238   4.344   1.564
 4371SOL     OW14011   0.989   1.607   2.676
 4371SOL    HW114012   0.944   1.664   2.607
 4371SOL    HW214013   1.055   1.663   2.727
 4372SOL     OW14014   5.273   6.877   3.880
 4372SOL    HW114015   5.243   6.844   3.970
 4372SOL    HW214016   5.196   6.921   3.833
 4373SOL     OW14017   0.575   1.869   5.404
 4373SOL    HW114018   0.542   1.862   5.310
 4373SOL    HW214019   0.671   1.843   5.408
 4374SOL     OW14020   3.841   1.362   0.235
 4374SOL    HW114021   3.871   1.370   0.140
 4374SOL    HW214022   3.917   1.385   0.296
 4375SOL     OW14023   3.232   5.418   4.301
 4375SOL    HW114024   3.296   5.488   4.333
 4375SOL    HW214025   3.217   5.351   4.374
 4376SOL     OW14026   0.219   2.794   3.214
 4376SOL    HW114027   0.202   2.717   3.153
 4376SOL    HW214028   0.179   2.877   3.175
 4377SOL     OW14029   6.966   4.405   6.053
 4377SOL    HW114030   6.989   4.341   6.127
 4377SOL    HW214031   6.972   4.358   5.965
 4378SOL     OW14032   3.112   2.039   4.280
 4378SOL    HW114033   3.078   2.099   4.207
 4378SOL    HW214034   3.121   2.091   4.365
 4379SOL     OW14035   3.541   1.640   6.191
 4379SOL    HW114036   3.534   1.684   6.101
 4379SOL    HW214037   3.596   1.697   6.252
 4380SOL     OW14038   0.074   2.236   2.964
 4380SOL    HW114039   0.026   2.161   2.918
 4380SOL    HW214040   0.173   2.224   2.952
 4381SOL     OW14041   1.085   4.868   6.814
 4381SOL    HW114042   1.068   4.965   6.799
 4381SOL    HW214043   1.119   4.826   6.730
 4382SOL     OW14044   1.501   4.795   4.685
 4382SOL    HW114045   1.481   4.828   4.593
 4382SOL    HW214046   1.416   4.790   4.738
 4383SOL     OW14047   0.618   4.649   0.266
 4383SOL    HW114048   0.676   4.634   0.346
 4383SOL    HW214049   0.551   4.721   0.286
 4384SOL     OW14050   5.005   6.402   3.888
 4384SOL    HW114051   4.939   6.416   3.961
 4384SOL    HW214052   5.032   6.490   3.849
 4385SOL     OW14053   4.033   0.200   5.936
 4385SOL    HW114054   4.004   0.233   5.846
 4385SOL    HW214055   4.123   0.157   5.928
 4386SOL     OW14056   2.049   3.422   4.428
 4386SOL    HW114057   1.971   3.444   4.487
 4386SOL    HW214058   2.121   3.380   4.482
 4387SOL     OW14059   4.937   1.885   0.959
 4387SOL    HW114060   5.030   1.921   0.966
 4387SOL    HW214061   4.927   1.837   0.872
 4388SOL     OW14062   6.165   3.445   0.550
 4388SOL    HW114063   6.217   3.362   0.530
 4388SOL    HW214064   6.122   3.479   0.467
 4389SOL     OW14065   2.303   1.546   6.695
 4389SOL    HW114066   2.370   1.473   6.683
 4389SOL    HW214067   2.317   1.617   6.626
 4390SOL     OW14068   6.955   1.167   0.792
 4390SOL    HW114069   0.030   1.133   0.806
 4390SOL    HW214070   6.917   1.196   0.879
 4391SOL     OW14071   0.218   6.114   1.315
 4391SOL    HW114072   0.214   6.038   1.379
 4391SOL    HW214073   0.167   6.090   1.232
 4392SOL     OW14074   1.384   2.877   6.116
 4392SOL    HW114075   1.418   2.816   6.186
 4392SOL    HW214076   1.410   2.843   6.026
 4393SOL     OW14077   6.505   0.493   2.031
 4393SOL    HW114078   6.456   0.556   2.092
 4393SOL    HW214079   6.511   0.403   2.073
 4394SOL     OW14080   6.951   1.148   2.505
 4394SOL    HW114081   6.872   1.104   2.465
 4394SOL    HW214082   6.943   1.146   2.605
 4395SOL     OW14083   1.302   3.622   1.390
 4395SOL    HW114084   1.216   3.627   1.338
 4395SOL    HW214085   1.350   3.710   1.384
 4396SOL     OW14086   2.528   1.884   2.404
 4396SOL    HW114087   2.621   1.878   2.367
 4396SOL    HW214088   2.471   1.814   2.361
 4397SOL     OW14089   3.676   0.464   4.869
 4397SOL    HW114090   3.591   0.419   4.897
 4397SOL    HW214091   3.655   0.558   4.839
 4398SOL     OW14092   1.647   3.284   6.120
 4398SOL    HW114093   1.693   3.288   6.209
 4398SOL    HW214094   1.716   3.287   6.047
 4399SOL     OW14095   2.573   5.874   1.628
 4399SOL    HW114096   2.614   5.792   1.668
 4399SOL    HW214097   2.638   5.918   1.566
 4400SOL     OW14098   1.302   6.129   5.545
 4400SOL    HW114099   1.290   6.137   5.644
 4400SOL    HW214100   1.340   6.215   5.509
 4401SOL     OW14101   3.171   0.184   6.561
 4401SOL    HW114102   3.246   0.121   6.582
 4401SOL    HW214103   3.202   0.278   6.573
 4402SOL     OW14104   1.037   0.364   2.613
 4402SOL    HW114105   1.048   0.330   2.519
 4402SOL    HW214106   1.074   0.297   2.677
 4403SOL     OW14107   6.594   6.162   3.012
 4403SOL    HW114108   6.671   6.209   2.969
 4403SOL    HW214109   6.550   6.102   2.946
 4404SOL     OW14110   0.832   6.457   5.243
 4404SOL    HW114111   0.909   6.513   5.274
 4404SOL    HW214112   0.767   6.446   5.318
 4405SOL     OW14113   0.952   5.301   2.869
 4405SOL    HW114114   0.893   5.241   2.922
 4405SOL    HW214115   0.956   5.391   2.913
 4406SOL     OW14116   6.203   4.221   2.380
 4406SOL    HW114117   6.179   4.255   2.471
 4406SOL    HW214118   6.126   4.172   2.340
 4407SOL     OW14119   5.225   0.068   1.490
 4407SOL    HW114120   5.281   0.009   1.432
 4407SOL    HW214121   5.131   0.033   1.493
 4408SOL     OW14122   4.949   0.586   0.909
 4408SOL    HW114123   4.952   0.486   0.915
 4408SOL    HW214124   4.884   0.621   0.976
 4409SOL     OW14125   3.977   1.089   3.527
 4409SOL    HW114126   4.002   1.184   3.506
 4409SOL    HW214127   3.907   1.088   3.598
 4410SOL     OW14128   1.526   0.533   1.087
 4410SOL    HW114129   1.500   0.565   1.178
 4410SOL    HW214130   1.523   0.434   1.084
 4411SOL     OW14131   4.628   4.519   4.279
 4411SOL    HW114132   4.551   4.577   4.252
 4411SOL    HW214133   4.596   4.425   4.292
 4412SOL     OW14134   4.499   6.337   1.190
 4412SOL    HW114135   4.432   6.346   1.263
 4412SOL    HW214136   4.556   6.256   1.207
 4413SOL     OW14137   5.392   6.458   4.430
 4413SOL    HW114138   5.326   6.508   4.487
 4413SOL    HW214139   5.343   6.394   4.371
 4414SOL     OW14140   5.958   4.188   1.212
 4414SOL    HW114141   5.910   4.244   1.279
 4414SOL    HW214142   6.056   4.188   1.232
 4415SOL     OW14143   1.370   4.183   1.591
 4415SOL    HW114144   1.405   4.261   1.539
 4415SOL    HW214145   1.388   4.198   1.688
 4416SOL     OW14146   4.652   2.721   4.421
 4416SOL    HW114147   4.710   2.785   4.369
 4416SOL    HW214148   4.688   2.628   4.412
 4417SOL     OW14149   0.425   4.388   2.054
 4417SOL    HW114150   0.403   4.376   1.958
 4417SOL    HW214151   0.504   4.331   2.078
 4418SOL     OW14152   6.408   2.096   5.494
 4418SOL    HW114153   6.468   2.034   5.545
 4418SOL    HW214154   6.428   2.190   5.518
 4419SOL     OW14155   6.374   6.373   6.695
 4419SOL    HW114156   6.407   6.322   6.774
 4419SOL    HW214157   6.288   6.419   6.717
 4420SOL     OW14158   3.494   0.763   1.040
 4420SOL    HW114159   3.450   0.807   0.963
 4420SOL    HW214160   3.433   0.693   1.078
 4421SOL     OW14161   2.760   2.528   0.261
 4421SOL    HW114162   2.683   2.470   0.289
 4421SOL    HW214163   2.750   2.618   0.304
 4422SOL     OW14164   0.994   3.163   6.770
 4422SOL    HW114165   0.933   3.091   6.736
 4422SOL    HW214166   1.007   3.153   6.869
 4423SOL     OW14167   5.637   4.736   4.556
 4423SOL    HW114168   5.650   4.835   4.559
 4423SOL    HW214169   5.555   4.711   4.609
 4424SOL     OW14170   4.287   5.549   2.354
 4424SOL    HW114171   4.236   5.613   2.412
 4424SOL    HW214172   4.223   5.499   2.296
 4425SOL     OW14173   0.769   5.969   0.997
 4425SOL    HW114174   0.789   6.037   1.068
 4425SOL    HW214175   0.675   5.937   1.007
 4426SOL     OW14176   0.902   0.716   4.313
 4426SOL    HW114177   0.826   0.753   4.366
 4426SOL    HW214178   0.987   0.725   4.364
 4427SOL     OW14179   3.337   6.239   1.077
 4427SOL    HW114180   3.311   6.213   0.984
 4427SOL    HW214181   3.293   6.177   1.142
 4428SOL     OW14182   6.449   6.373   3.402
 4428SOL    HW114183   6.500   6.314   3.465
 4428SOL    HW214184   6.453   6.467   3.435
 4429SOL     OW14185   2.440   5.938   2.779
 4429SOL    HW114186   2.375   5.984   2.838
 4429SOL    HW214187   2.460   5.996   2.700
 4430SOL     OW14188   5.783   4.108   4.379
 4430SOL    HW114189   5.857   4.155   4.428
 4430SOL    HW214190   5.760   4.023   4.427
 4431SOL     OW14191   4.338   0.035   5.000
 4431SOL    HW114192   4.367   7.006   4.917
 4431SOL    HW214193   4.386   7.015   5.079
 4432SOL     OW14194   2.035   3.300   6.345
 4432SOL    HW114195   2.026   3.255   6.256
 4432SOL    HW214196   2.061   3.396   6.331
 4433SOL     OW14197   0.620   0.522   4.932
 4433SOL    HW114198   0.548   0.454   4.946
 4433SOL    HW214199   0.664   0.505   4.844
 4434SOL     OW14200   6.370   1.048   2.715
 4434SOL    HW114201   6.404   1.118   2.652
 4434SOL    HW214202   6.447   0.997   2.753
 4435SOL     OW14203   1.872   4.559   1.792
 4435SOL    HW114204   1.888   4.471   1.748
 4435SOL    HW214205   1.775   4.579   1.792
 4436SOL     OW14206   5.053   2.418   1.552
 4436SOL    HW114207   5.109   2.452   1.627
 4436SOL    HW214208   4.956   2.422   1.578
 4437SOL     OW14209   6.567   5.593   6.616
 4437SOL    HW114210   6.562   5.529   6.692
 4437SOL    HW214211   6.474   5.619   6.588
 4438SOL     OW14212   3.835   1.489   5.001
 4438SOL    HW114213   3.843   1.554   4.926
 4438SOL    HW214214   3.777   1.529   5.073
 4439SOL     OW14215   2.850   4.987   1.566
 4439SOL    HW114216   2.764   5.021   1.528
 4439SOL    HW214217   2.844   4.888   1.579
 4440SOL     OW14218   2.035   5.514   5.511
 4440SOL    HW114219   2.025   5.437   5.574
 4440SOL    HW214220   1.993   5.491   5.423
 4441SOL     OW14221   6.410   1.154   0.699
 4441SOL    HW114222   6.352   1.184   0.623
 4441SOL    HW214223   6.492   1.211   0.704
 4442SOL     OW14224   1.675   4.518   1.308
 4442SOL    HW114225   1.652   4.613   1.329
 4442SOL    HW214226   1.710   4.512   1.215
 4443SOL     OW14227   1.351   6.001   5.034
 4443SOL    HW114228   1.436   5.963   5.070
 4443SOL    HW214229   1.290   5.927   5.006
 4444SOL     OW14230   4.816   6.502   6.931
 4444SOL    HW114231   4.857   6.438   6.866
 4444SOL    HW214232   4.758   6.452   6.994
 4445SOL     OW14233   2.320   3.542   0.440
 4445SOL    HW114234   2.256   3.592   0.381
 4445SOL    HW214235   2.273   3.513   0.523
 4446SOL     OW14236   5.678   2.137   1.365
 4446SOL    HW114237   5.626   2.208   1.318
 4446SOL    HW214238   5.626   2.051   1.365
 4447SOL     OW14239   4.960   5.628   5.723
 4447SOL    HW114240   5.056   5.630   5.696
 4447SOL    HW214241   4.953   5.620   5.822
 4448SOL     OW14242   3.068   6.177   2.399
 4448SOL    HW114243   2.996   6.244   2.414
 4448SOL    HW214244   3.150   6.204   2.449
 4449SOL     OW14245   3.795   1.957   5.562
 4449SOL    HW114246   3.840   1.887   5.507
 4449SOL    HW214247   3.722   1.915   5.616
 4450SOL     OW14248   2.303   6.157   0.830
 4450SOL    HW114249   2.250   6.074   0.850
 4450SOL    HW214250   2.368   6.173   0.904
 4451SOL     OW14251   4.869   6.145   3.558
 4451SOL    HW114252   4.948   6.195   3.594
 4451SOL    HW214253   4.890   6.114   3.465
 4452SOL     OW14254   5.088   4.645   3.266
 4452SOL    HW114255   5.044   4.556   3.258
 4452SOL    HW214256   5.035   4.714   3.217
 4453SOL     OW14257   0.430   5.730   1.345
 4453SOL    HW114258   0.426   5.688   1.254
 4453SOL    HW214259   0.465   5.823   1.337
 4454SOL     OW14260   6.993   0.747   0.063
 4454SOL    HW114261   6.938   0.731   0.146
 4454SOL    HW214262   6.977   0.840   0.030
 4455SOL     OW14263   0.784   0.495   3.751
 4455SOL    HW114264   0.785   0.477   3.849
 4455SOL    HW214265   0.734   0.580   3.733
 4456SOL     OW14266   1.813   5.716   3.987
 4456SOL    HW114267   1.739   5.721   3.920
 4456SOL    HW214268   1.878   5.790   3.970
 4457SOL     OW14269   1.356   2.066   4.627
 4457SOL    HW114270   1.330   1.972   4.603
 4457SOL    HW214271   1.456   2.075   4.626
 4458SOL     OW14272   2.406   2.227   5.712
 4458SOL    HW114273   2.436   2.164   5.783
 4458SOL    HW214274   2.339   2.183   5.653
 4459SOL     OW14275   1.165   4.198   2.999
 4459SOL    HW114276   1.187   4.102   2.987
 4459SOL    HW214277   1.250   4.251   3.004
 4460SOL     OW14278   0.080   2.978   5.254
 4460SOL    HW114279   0.101   2.880   5.256
 4460SOL    HW214280   0.117   3.021   5.336
 4461SOL     OW14281   2.429   0.209   0.737
 4461SOL    HW114282   2.382   0.235   0.821
 4461SOL    HW214283   2.366   0.159   0.677
 4462SOL     OW14284   0.399   4.418   2.345
 4462SOL    HW114285   0.412   4.399   2.248
 4462SOL    HW214286   0.486   4.443   2.387
 4463SOL     OW14287   5.773   1.786   0.024
 4463SOL    HW114288   5.833   1.816   0.099
 4463SOL    HW214289   5.687   1.754   0.063
 4464SOL     OW14290   0.774   3.460   1.138
 4464SOL    HW114291   0.727   3.373   1.122
 4464SOL    HW214292   0.755   3.492   1.231
 4465SOL     OW14293   4.391   4.948   1.137
 4465SOL    HW114294   4.473   4.891   1.128
 4465SOL    HW214295   4.343   4.952   1.049
 4466SOL     OW14296   1.137   2.750   2.804
 4466SOL    HW114297   1.094   2.839   2.789
 4466SOL    HW214298   1.220   2.743   2.749
 4467SOL     OW14299   5.332   4.843   1.582
 4467SOL    HW114300   5.384   4.765   1.616
 4467SOL    HW214301   5.377   4.928   1.611
 4468SOL     OW14302   2.116   3.595   0.280
 4468SOL    HW114303   2.058   3.666   0.241
 4468SOL    HW214304   2.058   3.519   0.312
 4469SOL     OW14305   1.421   5.811   2.065
 4469SOL    HW114306   1.379   5.901   2.047
 4469SOL    HW214307   1.366   5.740   2.022
 4470SOL     OW14308   0.866   6.991   3.594
 4470SOL    HW114309   0.781   0.004   3.552
 4470SOL    HW214310   0.896   0.041   3.661
 4471SOL     OW14311   1.275   0.827   6.801
 4471SOL    HW114312   1.369   0.861   6.791
 4471SOL    HW214313   1.224   0.845   6.717
 4472SOL     OW14314   2.254   3.201   0.722
 4472SOL    HW114315   2.238   3.192   0.821
 4472SOL    HW214316   2.345   3.164   0.700
 4473SOL     OW14317   0.628   3.147   4.979
 4473SOL    HW114318   0.598   3.196   5.061
 4473SOL    HW214319   0.584   3.186   4.898
 4474SOL     OW14320   2.099   6.723   1.186
 4474SOL    HW114321   2.052   6.771   1.112
 4474SOL    HW214322   2.138   6.789   1.250
 4475SOL     OW14323   0.804   3.296   0.664
 4475SOL    HW114324   0.842   3.387   0.645
 4475SOL    HW214325   0.714   3.288   0.621
 4476SOL     OW14326   5.040   0.850   3.617
 4476SOL    HW114327   4.975   0.803   3.675
 4476SOL    HW214328   5.133   0.835   3.651
 4477SOL     OW14329   7.007   1.525   4.543
 4477SOL    HW114330   0.070   1.473   4.568
 4477SOL    HW214331   6.946   1.531   4.622
 4478SOL     OW14332   1.063   0.235   2.375
 4478SOL    HW114333   1.127   0.185   2.316
 4478SOL    HW214334   0.984   0.178   2.395
 4479SOL     OW14335   2.830   3.361   0.179
 4479SOL    HW114336   2.809   3.291   0.110
 4479SOL    HW214337   2.751   3.423   0.187
 4480SOL     OW14338   6.633   0.591   3.201
 4480SOL    HW114339   6.683   0.505   3.203
 4480SOL    HW214340   6.576   0.595   3.119
 4481SOL     OW14341   2.191   4.030   6.076
 4481SOL    HW114342   2.234   3.941   6.091
 4481SOL    HW214343   2.161   4.036   5.981
 4482SOL     OW14344   2.707   6.911   1.204
 4482SOL    HW114345   2.768   6.887   1.280
 4482SOL    HW214346   2.665   6.828   1.168
 4483SOL     OW14347   1.032   2.968   0.679
 4483SOL    HW114348   1.090   3.037   0.636
 4483SOL    HW214349   1.055   2.960   0.776
 4484SOL     OW14350   4.323   0.029   1.334
 4484SOL    HW114351   4.355   0.123   1.330
 4484SOL    HW214352   4.396   6.985   1.307
 4485SOL     OW14353   0.448   2.666   5.359
 4485SOL    HW114354   0.491   2.754   5.342
 4485SOL    HW214355   0.351   2.679   5.378
 4486SOL     OW14356   5.293   4.727   3.682
 4486SOL    HW114357   5.300   4.757   3.777
 4486SOL    HW214358   5.307   4.806   3.621
 4487SOL     OW14359   0.430   2.788   6.525
 4487SOL    HW114360   0.384   2.824   6.606
 4487SOL    HW214361   0.363   2.744   6.465
 4488SOL     OW14362   5.480   4.725   3.422
 4488SOL    HW114363   5.438   4.804   3.468
 4488SOL    HW214364   5.574   4.715   3.455
 4489SOL     OW14365   3.314   6.178   5.990
 4489SOL    HW114366   3.242   6.114   6.018
 4489SOL    HW214367   3.374   6.196   6.068
 4490SOL     OW14368   5.396   1.655   1.963
 4490SOL    HW114369   5.425   1.740   2.009
 4490SOL    HW214370   5.477   1.603   1.936
 4491SOL     OW14371   0.437   3.771   3.207
 4491SOL    HW114372   0.365   3.722   3.158
 4491SOL    HW214373   0.464   3.719   3.288
 4492SOL     OW14374   6.656   1.282   2.097
 4492SOL    HW114375   6.750   1.279   2.132
 4492SOL    HW214376   6.604   1.206   2.134
 4493SOL     OW14377   5.171   1.340   6.324
 4493SOL    HW114378   5.248   1.394   6.360
 4493SOL    HW214379   5.202   1.247   6.305
 4494SOL     OW14380   1.348   1.625   2.391
 4494SOL    HW114381   1.307   1.555   2.449
 4494SOL    HW214382   1.374   1.704   2.447
 4495SOL     OW14383   3.859   6.186   1.550
 4495SOL    HW114384   3.908   6.262   1.508
 4495SOL    HW214385   3.768   6.178   1.509
 4496SOL     OW14386   2.357   5.142   5.550
 4496SOL    HW114387   2.266   5.102   5.540
 4496SOL    HW214388   2.351   5.241   5.540
 4497SOL     OW14389   5.368   6.333   5.151
 4497SOL    HW114390   5.403   6.273   5.222
 4497SOL    HW214391   5.342   6.421   5.191
 4498SOL     OW14392   1.645   4.942   3.913
 4498SOL    HW114393   1.694   5.027   3.892
 4498SOL    HW214394   1.680   4.903   3.998
 4499SOL     OW14395   5.238   1.419   2.050
 4499SOL    HW114396   5.185   1.426   2.134
 4499SOL    HW214397   5.259   1.511   2.016
 4500SOL     OW14398   3.112   6.148   0.180
 4500SOL    HW114399   3.123   6.170   0.277
 4500SOL    HW214400   3.107   6.048   0.169
 4501SOL     OW14401   5.381   0.733   3.434
 4501SOL    HW114402   5.316   0.658   3.432
 4501SOL    HW214403   5.337   0.817   3.403
 4502SOL     OW14404   0.925   4.139   0.219
 4502SOL    HW114405   0.855   4.196   0.176
 4502SOL    HW214406   0.963   4.076   0.151
 4503SOL     OW14407   3.431   1.522   3.130
 4503SOL    HW114408   3.485   1.451   3.174
 4503SOL    HW214409   3.421   1.501   3.033
 4504SOL     OW14410   1.184   2.817   3.668
 4504SOL    HW114411   1.221   2.899   3.624
 4504SOL    HW214412   1.197   2.738   3.609
 4505SOL     OW14413   6.363   3.705   3.538
 4505SOL    HW114414   6.429   3.770   3.576
 4505SOL    HW214415   6.282   3.701   3.597
 4506SOL     OW14416   4.429   3.672   6.930
 4506SOL    HW114417   4.450   3.745   6.996
 4506SOL    HW214418   4.515   3.632   6.897
 4507SOL     OW14419   5.693   2.292   2.875
 4507SOL    HW114420   5.686   2.206   2.926
 4507SOL    HW214421   5.764   2.284   2.805
 4508SOL     OW14422   6.319   4.165   0.362
 4508SOL    HW114423   6.277   4.255   0.370
 4508SOL    HW214424   6.331   4.126   0.454
 4509SOL     OW14425   4.593   1.676   2.774
 4509SOL    HW114426   4.511   1.622   2.793
 4509SOL    HW214427   4.621   1.660   2.679
 4510SOL     OW14428   4.795   1.510   3.800
 4510SOL    HW114429   4.726   1.488   3.869
 4510SOL    HW214430   4.852   1.430   3.783
 4511SOL     OW14431   1.238   4.018   6.625
 4511SOL    HW114432   1.297   3.941   6.647
 4511SOL    HW214433   1.291   4.103   6.627
 4512SOL     OW14434   2.718   3.881   6.309
 4512SOL    HW114435   2.739   3.973   6.277
 4512SOL    HW214436   2.775   3.815   6.260
 4513SOL     OW14437   0.373   1.710   1.081
 4513SOL    HW114438   0.427   1.698   1.165
 4513SOL    HW214439   0.435   1.718   1.003
 4514SOL     OW14440   3.971   5.151   6.479
 4514SOL    HW114441   4.049   5.152   6.417
 4514SOL    HW214442   3.992   5.093   6.558
 4515SOL     OW14443   4.295   0.011   5.883
 4515SOL    HW114444   4.272   0.064   5.801
 4515SOL    HW214445   4.370   6.966   5.861
 4516SOL     OW14446   3.269   1.571   5.099
 4516SOL    HW114447   3.203   1.544   5.168
 4516SOL    HW214448   3.328   1.644   5.134
 4517SOL     OW14449   3.503   0.188   4.319
 4517SOL    HW114450   3.524   0.218   4.412
 4517SOL    HW214451   3.588   0.169   4.270
 4518SOL     OW14452   6.367   6.439   0.830
 4518SOL    HW114453   6.361   6.526   0.781
 4518SOL    HW214454   6.280   6.423   0.877
 4519SOL     OW14455   5.124   6.590   6.509
 4519SOL    HW114456   5.200   6.577   6.573
 4519SOL    HW214457   5.139   6.674   6.457
 4520SOL     OW14458   4.444   5.398   4.793
 4520SOL    HW114459   4.428   5.305   4.760
 4520SOL    HW214460   4.523   5.438   4.746
 4521SOL     OW14461   4.640   2.545   4.001
 4521SOL    HW114462   4.734   2.539   4.033
 4521SOL    HW214463   4.601   2.453   3.992
 4522SOL     OW14464   5.326   4.310   3.735
 4522SOL    HW114465   5.365   4.376   3.799
 4522SOL    HW214466   5.307   4.355   3.648
 4523SOL     OW14467   0.973   2.960   7.011
 4523SOL    HW114468   0.935   2.884   0.045
 4523SOL    HW214469   1.073   2.954   7.011
 4524SOL     OW14470   1.964   3.455   1.858
 4524SOL    HW114471   1.886   3.510   1.887
 4524SOL    HW214472   2.046   3.484   1.908
 4525SOL     OW14473   3.417   1.798   5.949
 4525SOL    HW114474   3.513   1.805   5.922
 4525SOL    HW214475   3.382   1.888   5.972
 4526SOL     OW14476   0.792   0.002   5.537
 4526SOL    HW114477   0.780   7.009   5.438
 4526SOL    HW214478   0.865   6.961   5.569
 4527SOL     OW14479   1.030   2.901   2.387
 4527SOL    HW114480   0.996   2.900   2.293
 4527SOL    HW214481   1.128   2.883   2.388
 4528SOL     OW14482   5.198   2.225   4.565
 4528SOL    HW114483   5.278   2.210   4.506
 4528SOL    HW214484   5.218   2.193   4.657
 4529SOL     OW14485   1.603   2.839   3.432
 4529SOL    HW114486   1.565   2.772   3.368
 4529SOL    HW214487   1.583   2.931   3.399
 4530SOL     OW14488   3.992   4.579   6.228
 4530SOL    HW114489   4.043   4.493   6.238
 4530SOL    HW214490   4.034   4.649   6.286
 4531SOL     OW14491   1.435   6.681   5.202
 4531SOL    HW114492   1.451   6.742   5.124
 4531SOL    HW214493   1.408   6.736   5.281
 4532SOL     OW14494   6.134   0.614   1.976
 4532SOL    HW114495   6.068   0.613   2.051
 4532SOL    HW214496   6.192   0.695   1.985
 4533SOL     OW14497   2.757   5.684   1.293
 4533SOL    HW114498   2.675   5.717   1.339
 4533SOL    HW214499   2.804   5.618   1.351
 4534SOL     OW14500   5.988   1.544   4.875
 4534SOL    HW114501   6.025   1.456   4.905
 4534SOL    HW214502   6.048   1.584   4.806
 4535SOL     OW14503   1.963   6.874   0.343
 4535SOL    HW114504   2.016   6.946   0.298
 4535SOL    HW214505   1.882   6.853   0.289
 4536SOL     OW14506   3.801   0.617   5.644
 4536SOL    HW114507   3.848   0.594   5.730
 4536SOL    HW214508   3.771   0.533   5.599
 4537SOL     OW14509   3.297   3.643   3.289
 4537SOL    HW114510   3.229   3.581   3.327
 4537SOL    HW214511   3.268   3.673   3.198
 4538SOL     OW14512   1.345   2.609   0.203
 4538SOL    HW114513   1.257   2.564   0.190
 4538SOL    HW214514   1.332   2.692   0.258
 4539SOL     OW14515   1.050   4.783   5.407
 4539SOL    HW114516   1.053   4.870   5.455
 4539SOL    HW214517   0.976   4.726   5.445
 4540SOL     OW14518   1.634   1.569   0.470
 4540SOL    HW114519   1.686   1.516   0.403
 4540SOL    HW214520   1.542   1.585   0.433
 4541SOL     OW14521   4.494   2.679   0.037
 4541SOL    HW114522   4.447   2.757   0.078
 4541SOL    HW214523   4.430   2.628   6.998
 4542SOL     OW14524   0.034   1.833   0.509
 4542SOL    HW114525   6.956   1.846   0.483
 4542SOL    HW214526   0.039   1.793   0.600
 4543SOL     OW14527   4.309   1.191   1.076
 4543SOL    HW114528   4.299   1.118   1.143
 4543SOL    HW214529   4.243   1.264   1.096
 4544SOL     OW14530   5.071   6.198   0.268
 4544SOL    HW114531   5.069   6.227   0.364
 4544SOL    HW214532   4.989   6.230   0.221
 4545SOL     OW14533   2.877   3.307   5.655
 4545SOL    HW114534   2.877   3.213   5.687
 4545SOL    HW214535   2.835   3.312   5.564
 4546SOL     OW14536   5.283   6.388   5.614
 4546SOL    HW114537   5.276   6.378   5.514
 4546SOL    HW214538   5.291   6.298   5.656
 4547SOL     OW14539   0.287   0.616   0.750
 4547SOL    HW114540   0.362   0.603   0.685
 4547SOL    HW214541   0.252   0.527   0.780
 4548SOL     OW14542   3.341   1.347   1.940
 4548SOL    HW114543   3.276   1.402   1.887
 4548SOL    HW214544   3.291   1.286   2.001
 4549SOL     OW14545   6.959   4.907   3.886
 4549SOL    HW114546   6.916   4.823   3.919
 4549SOL    HW214547   0.012   4.884   3.820
 4550SOL     OW14548   2.228   5.417   6.917
 4550SOL    HW114549   2.222   5.508   6.959
 4550SOL    HW214550   2.324   5.391   6.907
 4551SOL     OW14551   3.421   2.956   6.121
 4551SOL    HW114552   3.359   2.880   6.141
 4551SOL    HW214553   3.405   3.031   6.185
 4552SOL     OW14554   5.167   0.167   6.541
 4552SOL    HW114555   5.230   0.204   6.472
 4552SOL    HW214556   5.096   0.114   6.496
 4553SOL     OW14557   7.011   6.988   0.645
 4553SOL    HW114558   6.974   0.017   0.565
 4553SOL    HW214559   6.942   6.986   0.717
 4554SOL     OW14560   5.799   6.569   3.082
 4554SOL    HW114561   5.853   6.590   3.164
 4554SOL    HW214562   5.775   6.472   3.083
 4555SOL     OW14563   0.639   0.144   3.527
 4555SOL    HW114564   0.610   0.162   3.621
 4555SOL    HW214565   0.580   0.193   3.464
 4556SOL     OW14566   4.902   4.780   4.707
 4556SOL    HW114567   4.948   4.856   4.663
 4556SOL    HW214568   4.961   4.699   4.705
 4557SOL     OW14569   0.137   5.766   5.031
 4557SOL    HW114570   0.091   5.854   5.021
 4557SOL    HW214571   0.235   5.781   5.050
 4558SOL     OW14572   0.692   4.337   3.637
 4558SOL    HW114573   0.731   4.352   3.728
 4558SOL    HW214574   0.690   4.239   3.617
 4559SOL     OW14575   0.091   3.332   4.460
 4559SOL    HW114576   0.069   3.402   4.393
 4559SOL    HW214577   0.115   3.247   4.414
 4560SOL     OW14578   6.579   3.286   4.520
 4560SOL    HW114579   6.564   3.338   4.604
 4560SOL    HW214580   6.678   3.273   4.506
 4561SOL     OW14581   5.574   3.474   4.497
 4561SOL    HW114582   5.644   3.477   4.426
 4561SOL    HW214583   5.607   3.521   4.579
 4562SOL     OW14584   4.658   1.149   1.120
 4562SOL    HW114585   4.597   1.213   1.073
 4562SOL    HW214586   4.727   1.200   1.171
 4563SOL     OW14587   1.011   3.664   2.562
 4563SOL    HW114588   0.949   3.720   2.507
 4563SOL    HW214589   1.091   3.639   2.507
 4564SOL     OW14590   2.126   3.562   2.211
 4564SOL    HW114591   2.149   3.517   2.124
 4564SOL    HW214592   2.160   3.656   2.209
 4565SOL     OW14593   1.992   6.271   4.940
 4565SOL    HW114594   1.946   6.321   5.013
 4565SOL    HW214595   2.001   6.331   4.860
 4566SOL     OW14596   6.735   5.108   3.157
 4566SOL    HW114597   6.793   5.123   3.077
 4566SOL    HW214598   6.782   5.048   3.222
 4567SOL     OW14599   1.280   0.415   0.065
 4567SOL    HW114600   1.294   0.514   0.059
 4567SOL    HW214601   1.265   0.390   0.161
 4568SOL     OW14602   6.975   4.596   3.637
 4568SOL    HW114603   0.020   4.671   3.653
 4568SOL    HW214604   6.969   4.540   3.720
 4569SOL     OW14605   6.900   2.662   3.179
 4569SOL    HW114606   6.929   2.701   3.092
 4569SOL    HW214607   6.910   2.563   3.176
 4570SOL     OW14608   4.913   5.736   1.751
 4570SOL    HW114609   4.927   5.647   1.706
 4570SOL    HW214610   4.883   5.721   1.845
 4571SOL     OW14611   2.218   2.394   5.007
 4571SOL    HW114612   2.130   2.407   5.053
 4571SOL    HW214613   2.206   2.405   4.909
 4572SOL     OW14614   5.051   3.258   1.789
 4572SOL    HW114615   5.035   3.256   1.888
 4572SOL    HW214616   4.969   3.229   1.741
 4573SOL     OW14617   2.318   4.745   0.829
 4573SOL    HW114618   2.258   4.783   0.899
 4573SOL    HW214619   2.409   4.729   0.867
 4574SOL     OW14620   4.658   0.469   2.252
 4574SOL    HW114621   4.686   0.374   2.270
 4574SOL    HW214622   4.563   0.471   2.222
 4575SOL     OW14623   0.208   1.841   5.136
 4575SOL    HW114624   0.231   1.747   5.161
 4575SOL    HW214625   0.161   1.842   5.048
 4576SOL     OW14626   2.973   3.780   6.842
 4576SOL    HW114627   2.969   3.687   6.880
 4576SOL    HW214628   2.899   3.791   6.775
 4577SOL     OW14629   0.484   1.798   1.958
 4577SOL    HW114630   0.428   1.840   2.030
 4577SOL    HW214631   0.516   1.709   1.988
 4578SOL     OW14632   1.907   0.496   2.493
 4578SOL    HW114633   1.832   0.530   2.435
 4578SOL    HW214634   1.921   0.558   2.569
 4579SOL     OW14635   3.813   0.965   2.653
 4579SOL    HW114636   3.833   0.868   2.661
 4579SOL    HW214637   3.800   1.004   2.744
 4580SOL     OW14638   0.869   0.247   1.559
 4580SOL    HW114639   0.789   0.199   1.595
 4580SOL    HW214640   0.910   0.194   1.485
 4581SOL     OW14641   3.435   0.779   1.367
 4581SOL    HW114642   3.381   0.706   1.409
 4581SOL    HW214643   3.522   0.742   1.336
 4582SOL     OW14644   5.644   1.331   4.614
 4582SOL    HW114645   5.583   1.254   4.595
 4582SOL    HW214646   5.735   1.296   4.638
 4583SOL     OW14647   1.780   5.898   6.696
 4583SOL    HW114648   1.695   5.889   6.747
 4583SOL    HW214649   1.857   5.887   6.759
 4584SOL     OW14650   6.703   0.817   4.462
 4584SOL    HW114651   6.734   0.743   4.403
 4584SOL    HW214652   6.772   0.890   4.462
 4585SOL     OW14653   1.563   3.034   2.529
 4585SOL    HW114654   1.559   3.130   2.556
 4585SOL    HW214655   1.654   3.013   2.492
 4586SOL     OW14656   0.114   4.264   5.852
 4586SOL    HW114657   0.190   4.326   5.835
 4586SOL    HW214658   0.146   4.169   5.846
 4587SOL     OW14659   4.116   3.049   6.179
 4587SOL    HW114660   4.034   3.104   6.189
 4587SOL    HW214661   4.177   3.064   6.257
 4588SOL     OW14662   2.246   4.896   6.480
 4588SOL    HW114663   2.147   4.905   6.480
 4588SOL    HW214664   2.271   4.804   6.451
 4589SOL     OW14665   5.108   5.442   1.950
 4589SOL    HW114666   5.039   5.439   1.879
 4589SOL    HW214667   5.129   5.349   1.980
 4590SOL     OW14668   2.371   4.959   1.522
 4590SOL    HW114669   2.278   4.949   1.558
 4590SOL    HW214670   2.386   5.054   1.496
 4591SOL     OW14671   2.546   1.889   5.031
 4591SOL    HW114672   2.485   1.966   5.049
 4591SOL    HW214673   2.613   1.882   5.105
 4592SOL     OW14674   2.632   2.263   3.048
 4592SOL    HW114675   2.662   2.255   2.953
 4592SOL    HW214676   2.696   2.213   3.107
 4593SOL     OW14677   1.698   5.545   4.743
 4593SOL    HW114678   1.744   5.619   4.694
 4593SOL    HW214679   1.731   5.457   4.709
 4594SOL     OW14680   0.919   6.614   3.899
 4594SOL    HW114681   0.986   6.574   3.962
 4594SOL    HW214682   0.919   6.713   3.909
 4595SOL     OW14683   5.558   1.626   6.699
 4595SOL    HW114684   5.649   1.632   6.739
 4595SOL    HW214685   5.493   1.597   6.769
 4596SOL     OW14686   0.517   1.580   2.101
 4596SOL    HW114687   0.454   1.585   2.178
 4596SOL    HW214688   0.559   1.489   2.098
 4597SOL     OW14689   1.718   5.209   0.470
 4597SOL    HW114690   1.675   5.200   0.560
 4597SOL    HW214691   1.648   5.204   0.399
 4598SOL     OW14692   0.535   2.413   0.257
 4598SOL    HW114693   0.565   2.318   0.243
 4598SOL    HW214694   0.471   2.416   0.334
 4599SOL     OW14695   3.026   6.560   3.186
 4599SOL    HW114696   3.029   6.627   3.111
 4599SOL    HW214697   3.119   6.539   3.216
 4600SOL     OW14698   0.262   6.972   5.546
 4600SOL    HW114699   0.224   6.900   5.604
 4600SOL    HW214700   0.362   6.972   5.553
 4601SOL     OW14701   1.616   1.269   4.917
 4601SOL    HW114702   1.709   1.305   4.907
 4601SOL    HW214703   1.612   1.176   4.882
 4602SOL     OW14704   4.569   0.058   5.686
 4602SOL    HW114705   4.520   0.071   5.599
 4602SOL    HW214706   4.557   6.982   5.717
 4603SOL     OW14707   4.792   6.694   0.384
 4603SOL    HW114708   4.826   6.787   0.401
 4603SOL    HW214709   4.854   6.628   0.427
 4604SOL     OW14710   0.597   6.601   3.602
 4604SOL    HW114711   0.509   6.598   3.555
 4604SOL    HW214712   0.656   6.670   3.560
 4605SOL     OW14713   4.180   1.291   1.919
 4605SOL    HW114714   4.142   1.380   1.894
 4605SOL    HW214715   4.180   1.282   2.019
 4606SOL     OW14716   7.017   0.051   4.454
 4606SOL    HW114717   6.958   0.128   4.430
 4606SOL    HW214718   0.001   0.040   4.553
 4607SOL     OW14719   2.504   1.727   0.886
 4607SOL    HW114720   2.431   1.770   0.938
 4607SOL    HW214721   2.575   1.795   0.865
 4608SOL     OW14722   0.410   2.208   5.937
 4608SOL    HW114723   0.488   2.152   5.962
 4608SOL    HW214724   0.436   2.270   5.863
 4609SOL     OW14725   5.548   5.232   6.162
 4609SOL    HW114726   5.601   5.234   6.077
 4609SOL    HW214727   5.451   5.220   6.141
 4610SOL     OW14728   5.116   4.072   6.495
 4610SOL    HW114729   5.061   4.021   6.561
 4610SOL    HW214730   5.136   4.014   6.416
 4611SOL     OW14731   0.551   0.516   6.348
 4611SOL    HW114732   0.629   0.494   6.289
 4611SOL    HW214733   0.577   0.588   6.412
 4612SOL     OW14734   1.379   0.512   2.160
 4612SOL    HW114735   1.396   0.538   2.065
 4612SOL    HW214736   1.451   0.450   2.191
 4613SOL     OW14737   1.345   4.997   3.886
 4613SOL    HW114738   1.434   4.954   3.873
 4613SOL    HW214739   1.277   4.926   3.904
 4614SOL     OW14740   6.514   4.653   2.653
 4614SOL    HW114741   6.539   4.612   2.740
 4614SOL    HW214742   6.536   4.751   2.654
 4615SOL     OW14743   0.710   4.819   6.878
 4615SOL    HW114744   0.630   4.762   6.860
 4615SOL    HW214745   0.792   4.761   6.876
 4616SOL     OW14746   1.741   4.719   6.026
 4616SOL    HW114747   1.780   4.652   6.089
 4616SOL    HW214748   1.771   4.811   6.052
 4617SOL     OW14749   0.672   4.711   4.293
 4617SOL    HW114750   0.695   4.620   4.327
 4617SOL    HW214751   0.625   4.763   4.365
 4618SOL     OW14752   2.234   4.301   5.069
 4618SOL    HW114753   2.172   4.306   4.991
 4618SOL    HW214754   2.276   4.210   5.072
 4619SOL     OW14755   4.863   6.019   6.987
 4619SOL    HW114756   4.920   6.100   6.969
 4619SOL    HW214757   4.920   5.937   6.980
 4620SOL     OW14758   0.960   4.579   1.695
 4620SOL    HW114759   0.863   4.565   1.711
 4620SOL    HW214760   0.976   4.606   1.600
 4621SOL     OW14761   2.555   0.344   2.715
 4621SOL    HW114762   2.597   0.357   2.626
 4621SOL    HW214763   2.623   0.357   2.787
 4622SOL     OW14764   6.352   6.862   1.113
 4622SOL    HW114765   6.306   6.925   1.175
 4622SOL    HW214766   6.377   6.909   1.028
 4623SOL     OW14767   2.849   4.937   2.668
 4623SOL    HW114768   2.783   4.868   2.638
 4623SOL    HW214769   2.809   5.028   2.655
 4624SOL     OW14770   5.562   1.977   0.689
 4624SOL    HW114771   5.520   2.016   0.607
 4624SOL    HW214772   5.544   1.879   0.692
 4625SOL     OW14773   0.624   6.646   1.675
 4625SOL    HW114774   0.578   6.692   1.599
 4625SOL    HW214775   0.557   6.624   1.746
 4626SOL     OW14776   4.180   4.237   1.639
 4626SOL    HW114777   4.162   4.143   1.666
 4626SOL    HW214778   4.252   4.275   1.698
 4627SOL     OW14779   5.428   6.219   4.734
 4627SOL    HW114780   5.417   6.123   4.761
 4627SOL    HW214781   5.369   6.238   4.656
 4628SOL     OW14782   6.759   3.458   2.813
 4628SOL    HW114783   6.769   3.362   2.786
 4628SOL    HW214784   6.667   3.490   2.791
 4629SOL     OW14785   1.379   5.502   1.326
 4629SOL    HW114786   1.345   5.465   1.413
 4629SOL    HW214787   1.339   5.451   1.250
 4630SOL     OW14788   1.866   3.554   1.587
 4630SOL    HW114789   1.768   3.565   1.601
 4630SOL    HW214790   1.902   3.489   1.654
 4631SOL     OW14791   5.864   1.347   1.772
 4631SOL    HW114792   5.834   1.277   1.837
 4631SOL    HW214793   5.963   1.357   1.777
 4632SOL     OW14794   2.888   4.908   3.826
 4632SOL    HW114795   2.945   4.917   3.744
 4632SOL    HW214796   2.941   4.862   3.897
 4633SOL     OW14797   5.266   3.343   3.451
 4633SOL    HW114798   5.299   3.257   3.490
 4633SOL    HW214799   5.257   3.332   3.352
 4634SOL     OW14800   3.873   2.921   5.096
 4634SOL    HW114801   3.797   2.974   5.134
 4634SOL    HW214802   3.935   2.983   5.047
 4635SOL     OW14803   4.349   0.233   2.377
 4635SOL    HW114804   4.367   0.310   2.316
 4635SOL    HW214805   4.397   0.249   2.464
 4636SOL     OW14806   1.531   5.880   6.825
 4636SOL    HW114807   1.525   5.935   6.908
 4636SOL    HW214808   1.530   5.783   6.849
 4637SOL     OW14809   2.090   2.589   3.042
 4637SOL    HW114810   2.186   2.613   3.059
 4637SOL    HW214811   2.034   2.671   3.049
 4638SOL     OW14812   4.299   4.072   6.664
 4638SOL    HW114813   4.246   4.144   6.619
 4638SOL    HW214814   4.266   4.059   6.758
 4639SOL     OW14815   3.665   2.896   1.799
 4639SOL    HW114816   3.688   2.934   1.709
 4639SOL    HW214817   3.628   2.803   1.787
 4640SOL     OW14818   0.188   2.060   0.768
 4640SOL    HW114819   0.274   2.012   0.781
 4640SOL    HW214820   0.175   2.079   0.671
 4641SOL     OW14821   1.143   5.893   4.917
 4641SOL    HW114822   1.051   5.933   4.920
 4641SOL    HW214823   1.187   5.917   4.831
 4642SOL     OW14824   5.547   1.147   6.426
 4642SOL    HW114825   5.528   1.144   6.524
 4642SOL    HW214826   5.566   1.242   6.399
 4643SOL     OW14827   0.832   1.933   0.163
 4643SOL    HW114828   0.901   1.862   0.173
 4643SOL    HW214829   0.788   1.924   0.074
 4644SOL     OW14830   1.494   1.943   1.115
 4644SOL    HW114831   1.415   1.948   1.177
 4644SOL    HW214832   1.465   1.906   1.027
 4645SOL     OW14833   5.554   2.611   5.891
 4645SOL    HW114834   5.476   2.635   5.948
 4645SOL    HW214835   5.552   2.514   5.870
 4646SOL     OW14836   1.023   3.647   2.172
 4646SOL    HW114837   0.928   3.625   2.150
 4646SOL    HW214838   1.071   3.564   2.199
 4647SOL     OW14839   1.665   5.813   2.393
 4647SOL    HW114840   1.678   5.888   2.458
 4647SOL    HW214841   1.697   5.841   2.303
 4648SOL     OW14842   2.869   1.277   4.243
 4648SOL    HW114843   2.864   1.293   4.342
 4648SOL    HW214844   2.847   1.182   4.224
 4649SOL     OW14845   4.527   3.478   1.596
 4649SOL    HW114846   4.547   3.570   1.630
 4649SOL    HW214847   4.433   3.453   1.621
 4650SOL     OW14848   3.781   5.158   0.688
 4650SOL    HW114849   3.779   5.209   0.774
 4650SOL    HW214850   3.697   5.176   0.636
 4651SOL     OW14851   1.390   3.325   0.113
 4651SOL    HW114852   1.322   3.298   0.181
 4651SOL    HW214853   1.482   3.307   0.148
 4652SOL     OW14854   6.852   0.452   5.704
 4652SOL    HW114855   6.837   0.354   5.721
 4652SOL    HW214856   6.913   0.463   5.626
 4653SOL     OW14857   0.964   6.768   0.803
 4653SOL    HW114858   0.958   6.740   0.708
 4653SOL    HW214859   1.012   6.855   0.810
 4654SOL     OW14860   1.047   1.118   5.311
 4654SOL    HW114861   1.122   1.169   5.271
 4654SOL    HW214862   0.988   1.181   5.363
 4655SOL     OW14863   5.662   5.026   2.932
 4655SOL    HW114864   5.712   4.966   2.870
 4655SOL    HW214865   5.582   4.978   2.968
 4656SOL     OW14866   6.421   0.663   1.295
 4656SOL    HW114867   6.474   0.740   1.333
 4656SOL    HW214868   6.442   0.654   1.197
 4657SOL     OW14869   3.392   2.116   2.365
 4657SOL    HW114870   3.347   2.053   2.301
 4657SOL    HW214871   3.346   2.204   2.363
 4658SOL     OW14872   1.763   1.584   0.717
 4658SOL    HW114873   1.853   1.624   0.703
 4658SOL    HW214874   1.720   1.567   0.628
 4659SOL     OW14875   2.166   4.825   1.024
 4659SOL    HW114876   2.194   4.859   1.113
 4659SOL    HW214877   2.080   4.869   0.997
 4660SOL     OW14878   0.141   4.957   4.597
 4660SOL    HW114879   0.103   4.876   4.552
 4660SOL    HW214880   0.073   5.030   4.599
 4661SOL     OW14881   0.765   1.003   5.489
 4661SOL    HW114882   0.722   0.992   5.579
 4661SOL    HW214883   0.858   1.038   5.501
 4662SOL     OW14884   2.906   0.162   6.476
 4662SOL    HW114885   2.993   0.186   6.520
 4662SOL    HW214886   2.838   0.144   6.547
 4663SOL     OW14887   0.355   0.564   1.249
 4663SOL    HW114888   0.453   0.577   1.267
 4663SOL    HW214889   0.302   0.618   1.314
 4664SOL     OW14890   6.472   6.309   5.066
 4664SOL    HW114891   6.453   6.333   5.162
 4664SOL    HW214892   6.388   6.275   5.023
 4665SOL     OW14893   0.504   1.142   2.834
 4665SOL    HW114894   0.478   1.191   2.918
 4665SOL    HW214895   0.510   1.207   2.758
 4666SOL     OW14896   1.577   2.567   5.816
 4666SOL    HW114897   1.629   2.635   5.869
 4666SOL    HW214898   1.629   2.482   5.810
 4667SOL     OW14899   6.614   2.322   1.111
 4667SOL    HW114900   6.705   2.347   1.078
 4667SOL    HW214901   6.559   2.405   1.120
 4668SOL     OW14902   4.538   1.685   5.195
 4668SOL    HW114903   4.498   1.704   5.105
 4668SOL    HW214904   4.609   1.752   5.215
 4669SOL     OW14905   5.533   6.252   6.454
 4669SOL    HW114906   5.562   6.169   6.502
 4669SOL    HW214907   5.614   6.305   6.428
 4670SOL     OW14908   0.489   3.048   0.601
 4670SOL    HW114909   0.419   3.003   0.545
 4670SOL    HW214910   0.579   3.018   0.571
 4671SOL     OW14911   6.935   1.686   1.567
 4671SOL    HW114912   6.867   1.707   1.497
 4671SOL    HW214913   0.007   1.684   1.524
 4672SOL     OW14914   4.186   3.187   1.153
 4672SOL    HW114915   4.263   3.204   1.093
 4672SOL    HW214916   4.113   3.141   1.102
 4673SOL     OW14917   4.478   1.479   0.704
 4673SOL    HW114918   4.555   1.539   0.726
 4673SOL    HW214919   4.505   1.384   0.719
 4674SOL     OW14920   0.957   3.200   0.435
 4674SOL    HW114921   0.918   3.129   0.377
 4674SOL    HW214922   0.904   3.208   0.519
 4675SOL     OW14923   2.371   6.474   0.250
 4675SOL    HW114924   2.415   6.457   0.338
 4675SOL    HW214925   2.431   6.528   0.192
 4676SOL     OW14926   0.746   5.495   4.828
 4676SOL    HW114927   0.674   5.494   4.759
 4676SOL    HW214928   0.746   5.408   4.877
 4677SOL     OW14929   4.862   0.035   6.932
 4677SOL    HW114930   4.894   0.098   6.861
 4677SOL    HW214931   4.931   6.982   6.948
 4678SOL     OW14932   2.669   4.734   0.441
 4678SOL    HW114933   2.651   4.657   0.380
 4678SOL    HW214934   2.584   4.765   0.483
 4679SOL     OW14935   2.072   6.773   5.292
 4679SOL    HW114936   2.118   6.712   5.227
 4679SOL    HW214937   2.090   6.742   5.385
 4680SOL     OW14938   1.243   5.580   6.128
 4680SOL    HW114939   1.312   5.596   6.058
 4680SOL    HW214940   1.164   5.638   6.112
 4681SOL     OW14941   6.649   6.514   5.116
 4681SOL    HW114942   6.590   6.435   5.103
 4681SOL    HW214943   6.659   6.532   5.214
 4682SOL     OW14944   3.210   0.149   1.028
 4682SOL    HW114945   3.148   0.180   1.100
 4682SOL    HW214946   3.159   0.100   0.958
 4683SOL     OW14947   0.673   4.713   3.834
 4683SOL    HW114948   0.622   4.747   3.913
 4683SOL    HW214949   0.615   4.652   3.780
 4684SOL     OW14950   2.501   1.156   5.084
 4684SOL    HW114951   2.427   1.174   5.148
 4684SOL    HW214952   2.548   1.072   5.110
 4685SOL     OW14953   5.443   4.761   3.908
 4685SOL    HW114954   5.510   4.702   3.864
 4685SOL    HW214955   5.454   4.855   3.875
 4686SOL     OW14956   4.813   5.475   6.095
 4686SOL    HW114957   4.798   5.541   6.022
 4686SOL    HW214958   4.855   5.520   6.174
 4687SOL     OW14959   4.374   0.844   5.055
 4687SOL    HW114960   4.294   0.890   5.094
 4687SOL    HW214961   4.447   0.840   5.123
 4688SOL     OW14962   6.955   0.760   1.093
 4688SOL    HW114963   6.861   0.789   1.075
 4688SOL    HW214964   6.990   0.710   1.013
 4689SOL     OW14965   2.429   5.348   4.270
 4689SOL    HW114966   2.501   5.404   4.309
 4689SOL    HW214967   2.401   5.385   4.181
 4690SOL     OW14968   2.758   1.804   0.531
 4690SOL    HW114969   2.673   1.852   0.509
 4690SOL    HW214970   2.758   1.714   0.486
 4691SOL     OW14971   3.205   4.783   6.906
 4691SOL    HW114972   3.237   4.772   7.001
 4691SOL    HW214973   3.275   4.831   6.853
 4692SOL     OW14974   0.883   4.885   3.461
 4692SOL    HW114975   0.871   4.786   3.454
 4692SOL    HW214976   0.980   4.908   3.450
 4693SOL     OW14977   0.609   2.010   2.241
 4693SOL    HW114978   0.523   1.961   2.229
 4693SOL    HW214979   0.593   2.095   2.291
 4694SOL     OW14980   1.753   0.895   5.211
 4694SOL    HW114981   1.839   0.846   5.219
 4694SOL    HW214982   1.724   0.895   5.115
 4695SOL     OW14983   3.016   3.865   3.063
 4695SOL    HW114984   3.044   3.940   3.123
 4695SOL    HW214985   2.975   3.793   3.118
 4696SOL     OW14986   0.232   2.581   6.728
 4696SOL    HW114987   0.280   2.664   6.756
 4696SOL    HW214988   0.264   2.504   6.782
 4697SOL     OW14989   0.560   5.222   6.589
 4697SOL    HW114990   0.506   5.209   6.673
 4697SOL    HW214991   0.568   5.319   6.569
 4698SOL     OW14992   5.288   2.780   2.566
 4698SOL    HW114993   5.371   2.735   2.599
 4698SOL    HW214994   5.266   2.747   2.475
 4699SOL     OW14995   7.011   0.524   3.223
 4699SOL    HW114996   0.005   0.460   3.147
 4699SOL    HW214997   6.957   0.480   3.295
 4700SOL     OW14998   5.148   0.037   5.395
 4700SOL    HW114999   5.097   0.123   5.391
 4700SOL    HW215000   5.101   6.986   5.340
 4701SOL     OW15001   2.142   0.956   6.294
 4701SOL    HW115002   2.065   0.936   6.355
 4701SOL    HW215003   2.188   0.870   6.269
 4702SOL     OW15004   3.336   2.474   1.386
 4702SOL    HW115005   3.323   2.549   1.322
 4702SOL    HW215006   3.267   2.404   1.370
 4703SOL     OW15007   0.717   6.494   2.130
 4703SOL    HW115008   0.717   6.594   2.142
 4703SOL    HW215009   0.763   6.471   2.044
 4704SOL     OW15010   4.434   6.881   6.273
 4704SOL    HW115011   4.446   6.789   6.311
 4704SOL    HW215012   4.429   6.947   6.348
 4705SOL     OW15013   3.712   2.880   4.792
 4705SOL    HW115014   3.652   2.883   4.872
 4705SOL    HW215015   3.808   2.889   4.822
 4706SOL     OW15016   5.790   3.597   6.855
 4706SOL    HW115017   5.748   3.617   6.767
 4706SOL    HW215018   5.759   3.508   6.888
 4707SOL     OW15019   2.869   4.390   0.433
 4707SOL    HW115020   2.783   4.414   0.479
 4707SOL    HW215021   2.860   4.299   0.393
 4708SOL     OW15022   2.103   3.019   2.116
 4708SOL    HW115023   2.003   3.007   2.113
 4708SOL    HW215024   2.140   3.009   2.024
 4709SOL     OW15025   3.172   4.166   0.329
 4709SOL    HW115026   3.207   4.116   0.408
 4709SOL    HW215027   3.219   4.253   0.320
 4710SOL     OW15028   4.710   2.990   1.399
 4710SOL    HW115029   4.723   3.089   1.414
 4710SOL    HW215030   4.766   2.961   1.322
 4711SOL     OW15031   2.954   0.167   3.441
 4711SOL    HW115032   2.999   0.163   3.530
 4711SOL    HW215033   3.016   0.131   3.371
 4712SOL     OW15034   1.623   3.720   6.876
 4712SOL    HW115035   1.670   3.723   6.787
 4712SOL    HW215036   1.584   3.629   6.889
 4713SOL     OW15037   0.800   6.158   1.195
 4713SOL    HW115038   0.753   6.245   1.183
 4713SOL    HW215039   0.898   6.174   1.207
 4714SOL     OW15040   3.989   2.153   1.033
 4714SOL    HW115041   3.963   2.139   1.129
 4714SOL    HW215042   4.088   2.140   1.024
 4715SOL     OW15043   4.890   3.440   4.771
 4715SOL    HW115044   4.869   3.352   4.813
 4715SOL    HW215045   4.850   3.514   4.825
 4716SOL     OW15046   2.109   5.722   6.444
 4716SOL    HW115047   2.019   5.758   6.422
 4716SOL    HW215048   2.104   5.624   6.459
 4717SOL     OW15049   2.183   4.944   4.826
 4717SOL    HW115050   2.274   4.904   4.834
 4717SOL    HW215051   2.118   4.875   4.794
 4718SOL     OW15052   5.056   6.759   0.230
 4718SOL    HW115053   5.125   6.779   0.300
 4718SOL    HW215054   4.966   6.783   0.264
 4719SOL     OW15055   4.482   3.507   1.326
 4719SOL    HW115056   4.526   3.487   1.413
 4719SOL    HW215057   4.509   3.439   1.258
 4720SOL     OW15058   2.224   2.019   3.416
 4720SOL    HW115059   2.319   2.027   3.388
 4720SOL    HW215060   2.180   1.945   3.365
 4721SOL     OW15061   1.947   1.394   1.653
 4721SOL    HW115062   1.936   1.472   1.591
 4721SOL    HW215063   2.001   1.422   1.732
 4722SOL     OW15064   2.396   0.887   2.755
 4722SOL    HW115065   2.469   0.849   2.812
 4722SOL    HW215066   2.358   0.969   2.799
 4723SOL     OW15067   2.717   0.365   5.623
 4723SOL    HW115068   2.730   0.301   5.698
 4723SOL    HW215069   2.661   0.442   5.654
 4724SOL     OW15070   4.887   5.285   1.115
 4724SOL    HW115071   4.949   5.219   1.158
 4724SOL    HW215072   4.886   5.370   1.168
 4725SOL     OW15073   6.008   5.014   2.501
 4725SOL    HW115074   6.046   4.930   2.541
 4725SOL    HW215075   5.929   4.990   2.445
 4726SOL     OW15076   6.994   6.469   4.307
 4726SOL    HW115077   6.919   6.435   4.250
 4726SOL    HW215078   0.041   6.519   4.249
 4727SOL     OW15079   5.200   6.517   2.031
 4727SOL    HW115080   5.191   6.498   2.129
 4727SOL    HW215081   5.285   6.475   1.997
 4728SOL     OW15082   6.499   6.592   6.574
 4728SOL    HW115083   6.489   6.503   6.619
 4728SOL    HW215084   6.455   6.589   6.485
 4729SOL     OW15085   3.286   0.598   1.150
 4729SOL    HW115086   3.248   0.666   1.087
 4729SOL    HW215087   3.240   0.604   1.238
 4730SOL     OW15088   1.811   0.501   6.188
 4730SOL    HW115089   1.726   0.449   6.182
 4730SOL    HW215090   1.790   0.599   6.181
 4731SOL     OW15091   4.430   1.261   5.896
 4731SOL    HW115092   4.452   1.195   5.824
 4731SOL    HW215093   4.429   1.353   5.856
 4732SOL     OW15094   0.500   6.641   6.631
 4732SOL    HW115095   0.469   6.568   6.570
 4732SOL    HW215096   0.453   6.632   6.719
 4733SOL     OW15097   5.554   4.009   3.102
 4733SOL    HW115098   5.634   4.068   3.087
 4733SOL    HW215099   5.551   3.980   3.198
 4734SOL     OW15100   6.438   3.517   5.946
 4734SOL    HW115101   6.340   3.503   5.954
 4734SOL    HW215102   6.476   3.544   6.035
 4735SOL     OW15103   0.493   4.101   3.681
 4735SOL    HW115104   0.549   4.019   3.687
 4735SOL    HW215105   0.399   4.080   3.707
 4736SOL     OW15106   1.484   6.690   2.166
 4736SOL    HW115107   1.416   6.712   2.096
 4736SOL    HW215108   1.437   6.660   2.250
 4737SOL     OW15109   3.212   5.006   2.146
 4737SOL    HW115110   3.173   4.984   2.235
 4737SOL    HW215111   3.277   5.082   2.156
 4738SOL     OW15112   0.954   0.070   3.246
 4738SOL    HW115113   0.914   0.002   3.308
 4738SOL    HW215114   1.009   0.135   3.298
 4739SOL     OW15115   3.911   0.156   1.603
 4739SOL    HW115116   3.932   0.254   1.605
 4739SOL    HW215117   3.848   0.137   1.528
 4740SOL     OW15118   0.959   1.684   4.517
 4740SOL    HW115119   0.881   1.651   4.569
 4740SOL    HW215120   1.002   1.608   4.469
 4741SOL     OW15121   3.839   3.945   3.112
 4741SOL    HW115122   3.934   3.943   3.081
 4741SOL    HW215123   3.834   3.986   3.203
 4742SOL     OW15124   4.874   1.065   2.870
 4742SOL    HW115125   4.966   1.079   2.833
 4742SOL    HW215126   4.874   1.086   2.967
 4743SOL     OW15127   0.784   5.401   0.666
 4743SOL    HW115128   0.862   5.394   0.729
 4743SOL    HW215129   0.700   5.381   0.716
 4744SOL     OW15130   1.707   5.159   1.757
 4744SOL    HW115131   1.730   5.155   1.854
 4744SOL    HW215132   1.609   5.148   1.745
 4745SOL     OW15133   1.706   3.108   0.029
 4745SOL    HW115134   1.645   3.031   0.045
 4745SOL    HW215135   1.692   3.177   0.101
 4746SOL     OW15136   5.893   5.895   4.401
 4746SOL    HW115137   5.821   5.958   4.371
 4746SOL    HW215138   5.885   5.879   4.499
 4747SOL     OW15139   4.100   0.561   1.117
 4747SOL    HW115140   4.008   0.542   1.085
 4747SOL    HW215141   4.117   0.509   1.201
 4748SOL     OW15142   1.908   6.573   3.161
 4748SOL    HW115143   1.813   6.553   3.185
 4748SOL    HW215144   1.924   6.671   3.164
 4749SOL     OW15145   2.423   1.009   1.246
 4749SOL    HW115146   2.423   1.097   1.199
 4749SOL    HW215147   2.335   0.996   1.291
 4750SOL     OW15148   5.174   3.428   6.627
 4750SOL    HW115149   5.258   3.422   6.680
 4750SOL    HW215150   5.156   3.341   6.583
 4751SOL     OW15151   4.006   1.728   2.655
 4751SOL    HW115152   3.909   1.750   2.659
 4751SOL    HW215153   4.042   1.717   2.747
 4752SOL     OW15154   5.702   6.888   6.885
 4752SOL    HW115155   5.786   6.895   6.831
 4752SOL    HW215156   5.623   6.899   6.825
 4753SOL     OW15157   3.093   5.268   4.916
 4753SOL    HW115158   3.021   5.329   4.882
 4753SOL    HW215159   3.053   5.180   4.940
 4754SOL     OW15160   5.552   4.638   0.577
 4754SOL    HW115161   5.584   4.629   0.671
 4754SOL    HW215162   5.485   4.713   0.572
 4755SOL     OW15163   0.175   1.226   1.404
 4755SOL    HW115164   0.143   1.274   1.485
 4755SOL    HW215165   0.193   1.291   1.331
 4756SOL     OW15166   6.866   3.911   5.206
 4756SOL    HW115167   6.774   3.916   5.244
 4756SOL    HW215168   6.927   3.970   5.259
 4757SOL     OW15169   2.342   3.040   1.079
 4757SOL    HW115170   2.278   2.994   1.017
 4757SOL    HW215171   2.332   3.003   1.171
 4758SOL     OW15172   2.070   5.165   1.974
 4758SOL    HW115173   2.102   5.226   2.046
 4758SOL    HW215174   1.986   5.121   2.003
 4759SOL     OW15175   0.677   7.005   2.578
 4759SOL    HW115176   0.638   6.917   2.605
 4759SOL    HW215177   0.708   0.036   2.659
 4760SOL     OW15178   0.562   6.933   1.844
 4760SOL    HW115179   0.527   6.963   1.933
 4760SOL    HW215180   0.638   6.869   1.858
 4761SOL     OW15181   4.312   6.182   2.003
 4761SOL    HW115182   4.360   6.226   2.079
 4761SOL    HW215183   4.277   6.093   2.033
 4762SOL     OW15184   0.862   0.832   2.311
 4762SOL    HW115185   0.954   0.871   2.321
 4762SOL    HW215186   0.832   0.841   2.216
 4763SOL     OW15187   5.056   4.789   1.680
 4763SOL    HW115188   5.155   4.795   1.668
 4763SOL    HW215189   5.020   4.717   1.621
 4764SOL     OW15190   4.850   2.752   6.717
 4764SOL    HW115191   4.878   2.678   6.655
 4764SOL    HW215192   4.873   2.727   6.811
 4765SOL     OW15193   3.651   1.326   5.529
 4765SOL    HW115194   3.623   1.307   5.435
 4765SOL    HW215195   3.572   1.318   5.589
 4766SOL     OW15196   1.258   0.710   3.509
 4766SOL    HW115197   1.174   0.679   3.552
 4766SOL    HW215198   1.242   0.799   3.465
 4767SOL     OW15199   2.773   4.681   3.193
 4767SOL    HW115200   2.805   4.690   3.099
 4767SOL    HW215201   2.699   4.746   3.210
 4768SOL     OW15202   4.904   2.214   6.295
 4768SOL    HW115203   4.996   2.217   6.255
 4768SOL    HW215204   4.843   2.272   6.242
 4769SOL     OW15205   3.149   3.153   0.665
 4769SOL    HW115206   3.157   3.072   0.722
 4769SOL    HW215207   3.223   3.217   0.687
 4770SOL     OW15208   0.021   1.918   3.996
 4770SOL    HW115209   0.072   1.931   4.081
 4770SOL    HW215210   0.082   1.931   3.918
 4771SOL     OW15211   3.093   0.805   4.291
 4771SOL    HW115212   3.056   0.750   4.217
 4771SOL    HW215213   3.122   0.894   4.255
 4772SOL     OW15214   2.452   5.051   2.609
 4772SOL    HW115215   2.472   4.981   2.678
 4772SOL    HW215216   2.387   5.117   2.647
 4773SOL     OW15217   2.818   5.514   4.079
 4773SOL    HW115218   2.905   5.538   4.123
 4773SOL    HW215219   2.807   5.415   4.079
 4774SOL     OW15220   0.866   4.660   0.147
 4774SOL    HW115221   0.911   4.742   0.182
 4774SOL    HW215222   0.770   4.661   0.173
 4775SOL     OW15223   5.516   5.108   4.142
 4775SOL    HW115224   5.455   5.180   4.176
 4775SOL    HW215225   5.496   5.022   4.189
 4776SOL     OW15226   0.034   2.046   4.705
 4776SOL    HW115227   6.979   2.059   4.639
 4776SOL    HW215228   0.052   2.132   4.754
 4777SOL     OW15229   1.132   6.562   3.552
 4777SOL    HW115230   1.224   6.569   3.592
 4777SOL    HW215231   1.073   6.631   3.595
 4778SOL     OW15232   1.872   6.986   0.569
 4778SOL    HW115233   1.781   6.993   0.530
 4778SOL    HW215234   1.928   6.925   0.512
 4779SOL     OW15235   4.744   1.817   4.395
 4779SOL    HW115236   4.752   1.761   4.312
 4779SOL    HW215237   4.696   1.766   4.465
 4780SOL     OW15238   4.846   2.852   5.013
 4780SOL    HW115239   4.841   2.900   4.925
 4780SOL    HW215240   4.926   2.885   5.064
 4781SOL     OW15241   2.732   5.256   2.045
 4781SOL    HW115242   2.786   5.300   1.973
 4781SOL    HW215243   2.746   5.157   2.043
 4782SOL     OW15244   1.237   6.940   3.130
 4782SOL    HW115245   1.243   0.021   3.122
 4782SOL    HW215246   1.150   6.915   3.172
 4783SOL     OW15247   0.979   4.072   6.610
 4783SOL    HW115248   0.960   4.115   6.699
 4783SOL    HW215249   1.076   4.046   6.606
 4784SOL     OW15250   6.086   2.692   6.931
 4784SOL    HW115251   6.036   2.606   6.926
 4784SOL    HW215252   6.116   2.708   0.007
 4785SOL     OW15253   0.136   1.385   4.267
 4785SOL    HW115254   0.137   1.352   4.361
 4785SOL    HW215255   0.195   1.328   4.211
 4786SOL     OW15256   2.114   6.466   0.303
 4786SOL    HW115257   2.111   6.414   0.388
 4786SOL    HW215258   2.208   6.468   0.268
 4787SOL     OW15259   4.535   1.269   5.016
 4787SOL    HW115260   4.463   1.213   4.975
 4787SOL    HW215261   4.530   1.264   5.115
 4788SOL     OW15262   6.716   5.977   0.914
 4788SOL    HW115263   6.734   5.891   0.963
 4788SOL    HW215264   6.639   5.964   0.851
 4789SOL     OW15265   6.059   1.109   2.082
 4789SOL    HW115266   6.111   1.034   2.041
 4789SOL    HW215267   5.985   1.135   2.019
 4790SOL     OW15268   0.426   2.528   6.214
 4790SOL    HW115269   0.365   2.604   6.239
 4790SOL    HW215270   0.371   2.447   6.193
 4791SOL     OW15271   1.070   0.592   6.765
 4791SOL    HW115272   1.006   0.600   6.688
 4791SOL    HW215273   1.044   0.657   6.837
 4792SOL     OW15274   0.454   4.143   1.567
 4792SOL    HW115275   0.464   4.233   1.523
 4792SOL    HW215276   0.528   4.131   1.633
 4793SOL     OW15277   0.761   3.290   5.260
 4793SOL    HW115278   0.824   3.362   5.290
 4793SOL    HW215279   0.813   3.206   5.242
 4794SOL     OW15280   5.634   1.404   6.391
 4794SOL    HW115281   5.595   1.489   6.427
 4794SOL    HW215282   5.629   1.404   6.292
 4795SOL     OW15283   0.104   6.642   6.754
 4795SOL    HW115284   0.049   6.678   6.829
 4795SOL    HW215285   0.148   6.556   6.783
 4796SOL     OW15286   5.748   1.471   5.898
 4796SOL    HW115287   5.751   1.567   5.870
 4796SOL    HW215288   5.683   1.421   5.841
 4797SOL     OW15289   3.154   4.850   5.356
 4797SOL    HW115290   3.148   4.758   5.393
 4797SOL    HW215291   3.204   4.909   5.419
 4798SOL     OW15292   3.105   5.866   0.184
 4798SOL    HW115293   3.033   5.850   0.116
 4798SOL    HW215294   3.192   5.829   0.150
 4799SOL     OW15295   4.504   3.926   1.048
 4799SOL    HW115296   4.457   3.928   0.960
 4799SOL    HW215297   4.445   3.880   1.115
 4800SOL     OW15298   0.956   4.883   0.282
 4800SOL    HW115299   0.934   4.907   0.377
 4800SOL    HW215300   0.920   4.954   0.221
 4801SOL     OW15301   4.865   3.436   3.478
 4801SOL    HW115302   4.789   3.445   3.543
 4801SOL    HW215303   4.921   3.519   3.481
 4802SOL     OW15304   6.853   0.802   5.107
 4802SOL    HW115305   6.947   0.802   5.141
 4802SOL    HW215306   6.812   0.712   5.121
 4803SOL     OW15307   5.470   3.437   5.805
 4803SOL    HW115308   5.533   3.473   5.737
 4803SOL    HW215309   5.416   3.363   5.764
 4804SOL     OW15310   5.399   2.665   1.134
 4804SOL    HW115311   5.376   2.669   1.231
 4804SOL    HW215312   5.365   2.748   1.088
 4805SOL     OW15313   5.862   0.771   6.194
 4805SOL    HW115314   5.796   0.836   6.230
 4805SOL    HW215315   5.940   0.821   6.155
 4806SOL     OW15316   1.916   2.895   3.754
 4806SOL    HW115317   1.894   2.926   3.846
 4806SOL    HW215318   1.836   2.850   3.714
 4807SOL     OW15319   1.357   3.593   0.709
 4807SOL    HW115320   1.343   3.690   0.732
 4807SOL    HW215321   1.325   3.576   0.616
 4808SOL     OW15322   3.213   6.843   3.073
 4808SOL    HW115323   3.200   6.922   3.012
 4808SOL    HW215324   3.191   6.870   3.166
 4809SOL     OW15325   2.903   4.202   0.207
 4809SOL    HW115326   3.001   4.205   0.229
 4809SOL    HW215327   2.887   4.137   0.133
 4810SOL     OW15328   1.861   5.187   4.429
 4810SOL    HW115329   1.840   5.232   4.517
 4810SOL    HW215330   1.852   5.088   4.440
 4811SOL     OW15331   3.311   3.285   5.001
 4811SOL    HW115332   3.217   3.318   4.995
 4811SOL    HW215333   3.373   3.362   5.017
 4812SOL     OW15334   2.352   6.625   1.079
 4812SOL    HW115335   2.261   6.666   1.087
 4812SOL    HW215336   2.394   6.653   0.993
 4813SOL     OW15337   0.911   2.702   4.979
 4813SOL    HW115338   0.976   2.701   5.055
 4813SOL    HW215339   0.872   2.793   4.970
 4814SOL     OW15340   4.732   1.436   0.281
 4814SOL    HW115341   4.757   1.491   0.202
 4814SOL    HW215342   4.642   1.395   0.266
 4815SOL     OW15343   6.515   3.928   3.164
 4815SOL    HW115344   6.614   3.908   3.167
 4815SOL    HW215345   6.490   3.981   3.244
 4816SOL     OW15346   2.139   0.493   2.679
 4816SOL    HW115347   2.226   0.535   2.703
 4816SOL    HW215348   2.068   0.564   2.675
 4817SOL     OW15349   4.512   3.147   0.096
 4817SOL    HW115350   4.585   3.196   0.144
 4817SOL    HW215351   4.465   3.209   0.034
 4818SOL     OW15352   4.599   6.326   5.470
 4818SOL    HW115353   4.672   6.265   5.440
 4818SOL    HW215354   4.533   6.275   5.525
 4819SOL     OW15355   3.172   1.014   0.351
 4819SOL    HW115356   3.103   0.951   0.315
 4819SOL    HW215357   3.126   1.094   0.390
 4820SOL     OW15358   0.716   4.916   1.405
 4820SOL    HW115359   0.704   4.856   1.483
 4820SOL    HW215360   0.633   4.972   1.393
 4821SOL     OW15361   6.553   5.800   1.254
 4821SOL    HW115362   6.499   5.773   1.334
 4821SOL    HW215363   6.582   5.895   1.264
 4822SOL     OW15364   0.388   3.699   2.022
 4822SOL    HW115365   0.357   3.720   1.930
 4822SOL    HW215366   0.309   3.681   2.081
 4823SOL     OW15367   0.309   1.806   2.834
 4823SOL    HW115368   0.306   1.832   2.930
 4823SOL    HW215369   0.354   1.717   2.824
 4824SOL     OW15370   5.125   1.827   2.956
 4824SOL    HW115371   5.074   1.825   3.042
 4824SOL    HW215372   5.178   1.911   2.951
 4825SOL     OW15373   2.152   3.698   4.386
 4825SOL    HW115374   2.111   3.611   4.414
 4825SOL    HW215375   2.173   3.694   4.288
 4826SOL     OW15376   0.518   6.069   0.200
 4826SOL    HW115377   0.549   6.088   0.107
 4826SOL    HW215378   0.419   6.081   0.205
 4827SOL     OW15379   5.277   0.742   0.097
 4827SOL    HW115380   5.227   0.828   0.107
 4827SOL    HW215381   5.307   0.732   0.002
 4828SOL     OW15382   6.700   2.643   6.691
 4828SOL    HW115383   6.701   2.743   6.684
 4828SOL    HW215384   6.605   2.610   6.684
 4829SOL     OW15385   2.527   0.645   5.960
 4829SOL    HW115386   2.431   0.622   5.978
 4829SOL    HW215387   2.534   0.742   5.938
 4830SOL     OW15388   5.205   4.762   4.635
 4830SOL    HW115389   5.218   4.763   4.734
 4830SOL    HW215390   5.202   4.668   4.602
 4831SOL     OW15391   6.628   1.775   6.511
 4831SOL    HW115392   6.577   1.718   6.575
 4831SOL    HW215393   6.648   1.863   6.554
 4832SOL     OW15394   1.329   2.677   6.464
 4832SOL    HW115395   1.380   2.676   6.378
 4832SOL    HW215396   1.354   2.598   6.519
 4833SOL     OW15397   6.421   2.827   2.572
 4833SOL    HW115398   6.520   2.834   2.586
 4833SOL    HW215399   6.384   2.917   2.549
 4834SOL     OW15400   5.692   0.222   3.042
 4834SOL    HW115401   5.666   0.166   2.963
 4834SOL    HW215402   5.612   0.237   3.100
 4835SOL     OW15403   2.235   2.119   6.019
 4835SOL    HW115404   2.167   2.192   6.021
 4835SOL    HW215405   2.326   2.158   6.001
 4836SOL     OW15406   5.916   4.540   3.231
 4836SOL    HW115407   5.942   4.456   3.279
 4836SOL    HW215408   5.919   4.524   3.132
 4837SOL     OW15409   0.159   5.162   1.659
 4837SOL    HW115410   0.105   5.087   1.622
 4837SOL    HW215411   0.099   5.225   1.709
 4838SOL     OW15412   2.840   6.318   2.458
 4838SOL    HW115413   2.836   6.252   2.532
 4838SOL    HW215414   2.775   6.293   2.387
 4839SOL     OW15415   0.806   7.002   6.472
 4839SOL    HW115416   0.819   6.903   6.462
 4839SOL    HW215417   0.800   0.006   6.570
 4840SOL     OW15418   6.594   5.199   5.631
 4840SOL    HW115419   6.658   5.158   5.696
 4840SOL    HW215420   6.644   5.253   5.564
 4841SOL     OW15421   1.260   5.288   1.899
 4841SOL    HW115422   1.316   5.356   1.947
 4841SOL    HW215423   1.228   5.220   1.965
 4842SOL     OW15424   3.293   6.708   0.736
 4842SOL    HW115425   3.208   6.684   0.690
 4842SOL    HW215426   3.281   6.702   0.835
 4843SOL     OW15427   1.940   4.255   0.943
 4843SOL    HW115428   1.985   4.246   1.031
 4843SOL    HW215429   1.922   4.352   0.924
 4844SOL     OW15430   0.472   1.220   5.234
 4844SOL    HW115431   0.503   1.315   5.241
 4844SOL    HW215432   0.374   1.219   5.212
 4845SOL     OW15433   5.821   0.009   3.347
 4845SOL    HW115434   5.914   0.039   3.327
 4845SOL    HW215435   5.768   0.001   3.262
 4846SOL     OW15436   0.095   4.242   5.569
 4846SOL    HW115437   0.035   4.293   5.631
 4846SOL    HW215438   0.157   4.184   5.623
 4847SOL     OW15439   5.120   3.250   4.399
 4847SOL    HW115440   5.192   3.182   4.393
 4847SOL    HW215441   5.161   3.341   4.410
 4848SOL     OW15442   3.160   4.037   1.243
 4848SOL    HW115443   3.256   4.053   1.267
 4848SOL    HW215444   3.101   4.097   1.297
 4849SOL     OW15445   2.332   6.310   6.647
 4849SOL    HW115446   2.370   6.218   6.659
 4849SOL    HW215447   2.252   6.320   6.705
 4850SOL     OW15448   3.507   6.628   2.871
 4850SOL    HW115449   3.480   6.614   2.966
 4850SOL    HW215450   3.528   6.541   2.829
 4851SOL     OW15451   4.801   1.667   5.575
 4851SOL    HW115452   4.734   1.627   5.638
 4851SOL    HW215453   4.893   1.648   5.607
 4852SOL     OW15454   1.329   1.911   1.626
 4852SOL    HW115455   1.295   1.872   1.712
 4852SOL    HW215456   1.345   2.009   1.637
 4853SOL     OW15457   3.519   1.015   1.459
 4853SOL    HW115458   3.570   1.036   1.375
 4853SOL    HW215459   3.464   0.933   1.444
 4854SOL     OW15460   3.858   6.969   6.024
 4854SOL    HW115461   3.891   0.031   5.975
 4854SOL    HW215462   3.847   6.893   5.959
 4855SOL     OW15463   0.661   2.766   2.317
 4855SOL    HW115464   0.729   2.706   2.358
 4855SOL    HW215465   0.570   2.725   2.324
 4856SOL     OW15466   0.106   4.879   2.959
 4856SOL    HW115467   0.067   4.929   2.882
 4856SOL    HW215468   0.034   4.829   3.007
 4857SOL     OW15469   0.015   1.113   5.727
 4857SOL    HW115470   0.014   1.056   5.645
 4857SOL    HW215471   0.058   1.063   5.802
 4858SOL     OW15472   1.188   0.175   3.653
 4858SOL    HW115473   1.192   0.153   3.556
 4858SOL    HW215474   1.097   0.208   3.676
 4859SOL     OW15475   3.309   6.389   5.810
 4859SOL    HW115476   3.293   6.318   5.878
 4859SOL    HW215477   3.232   6.391   5.745
 4860SOL     OW15478   3.171   5.352   0.436
 4860SOL    HW115479   3.130   5.284   0.497
 4860SOL    HW215480   3.230   5.306   0.370
 4861SOL     OW15481   4.165   4.274   6.537
 4861SOL    HW115482   4.174   4.374   6.541
 4861SOL    HW215483   4.179   4.243   6.443
 4862SOL     OW15484   2.218   0.169   0.527
 4862SOL    HW115485   2.198   0.206   0.436
 4862SOL    HW215486   2.250   0.075   0.518
 4863SOL     OW15487   5.368   3.901   5.989
 4863SOL    HW115488   5.376   3.864   5.897
 4863SOL    HW215489   5.452   3.951   6.013
 4864SOL     OW15490   3.440   1.205   3.905
 4864SOL    HW115491   3.503   1.247   3.840
 4864SOL    HW215492   3.346   1.226   3.878
 4865SOL     OW15493   1.305   5.927   5.307
 4865SOL    HW115494   1.325   5.976   5.222
 4865SOL    HW215495   1.351   5.972   5.383
 4866SOL     OW15496   6.886   4.024   5.632
 4866SOL    HW115497   6.916   3.954   5.567
 4866SOL    HW215498   6.926   4.005   5.722
 4867SOL     OW15499   3.920   1.034   3.244
 4867SOL    HW115500   3.961   1.042   3.336
 4867SOL    HW215501   3.934   1.119   3.194
 4868SOL     OW15502   0.494   6.028   1.594
 4868SOL    HW115503   0.529   5.987   1.510
 4868SOL    HW215504   0.570   6.065   1.648
 4869SOL     OW15505   0.280   0.994   0.772
 4869SOL    HW115506   0.268   1.052   0.853
 4869SOL    HW215507   0.374   0.960   0.769
 4870SOL     OW15508   1.218   0.452   1.020
 4870SOL    HW115509   1.172   0.369   0.989
 4870SOL    HW215510   1.282   0.483   0.949
 4871SOL     OW15511   0.665   2.071   4.237
 4871SOL    HW115512   0.713   2.119   4.163
 4871SOL    HW215513   0.566   2.079   4.222
 4872SOL     OW15514   5.551   0.519   3.474
 4872SOL    HW115515   5.531   0.430   3.516
 4872SOL    HW215516   5.525   0.592   3.536
 4873SOL     OW15517   6.930   5.837   4.051
 4873SOL    HW115518   6.860   5.827   3.981
 4873SOL    HW215519   7.003   5.771   4.035
 4874SOL     OW15520   6.204   4.518   2.326
 4874SOL    HW115521   6.276   4.581   2.355
 4874SOL    HW215522   6.231   4.425   2.351
 4875SOL     OW15523   6.735   6.600   4.421
 4875SOL    HW115524   6.817   6.638   4.463
 4875SOL    HW215525   6.749   6.591   4.323
 4876SOL     OW15526   6.414   1.443   2.277
 4876SOL    HW115527   6.327   1.394   2.274
 4876SOL    HW215528   6.397   1.541   2.261
 4877SOL     OW15529   0.518   1.670   0.337
 4877SOL    HW115530   0.535   1.622   0.423
 4877SOL    HW215531   0.564   1.622   0.262
 4878SOL     OW15532   5.655   4.588   3.909
 4878SOL    HW115533   5.629   4.549   3.820
 4878SOL    HW215534   5.726   4.657   3.895
 4879SOL     OW15535   6.080   0.751   2.928
 4879SOL    HW115536   6.002   0.748   2.865
 4879SOL    HW215537   6.120   0.842   2.927
 4880SOL     OW15538   0.120   3.354   6.131
 4880SOL    HW115539   0.023   3.329   6.142
 4880SOL    HW215540   0.174   3.307   6.200
 4881SOL     OW15541   6.858   3.714   1.828
 4881SOL    HW115542   6.922   3.725   1.751
 4881SOL    HW215543   6.773   3.762   1.807
 4882SOL     OW15544   4.949   2.422   4.632
 4882SOL    HW115545   5.000   2.343   4.665
 4882SOL    HW215546   4.876   2.444   4.696
 4883SOL     OW15547   0.019   4.248   6.263
 4883SOL    HW115548   0.085   4.188   6.217
 4883SOL    HW215549   0.060   4.283   6.346
 4884SOL     OW15550   1.649   2.358   1.638
 4884SOL    HW115551   1.653   2.311   1.550
 4884SOL    HW215552   1.631   2.291   1.710
 4885SOL     OW15553   0.941   5.859   6.625
 4885SOL    HW115554   0.926   5.878   6.722
 4885SOL    HW215555   0.854   5.868   6.576
 4886SOL     OW15556   3.388   0.853   2.318
 4886SOL    HW115557   3.376   0.945   2.280
 4886SOL    HW215558   3.450   0.858   2.396
 4887SOL     OW15559   4.987   5.313   0.529
 4887SOL    HW115560   4.998   5.250   0.605
 4887SOL    HW215561   4.894   5.308   0.493
 4888SOL     OW15562   4.229   6.931   2.631
 4888SOL    HW115563   4.194   6.839   2.644
 4888SOL    HW215564   4.240   6.976   2.720
 4889SOL     OW15565   5.163   3.378   3.708
 4889SOL    HW115566   5.181   3.370   3.610
 4889SOL    HW215567   5.216   3.454   3.746
 4890SOL     OW15568   6.521   2.285   4.585
 4890SOL    HW115569   6.524   2.197   4.539
 4890SOL    HW215570   6.460   2.347   4.536
 4891SOL     OW15571   2.564   5.604   0.034
 4891SOL    HW115572   2.659   5.622   0.057
 4891SOL    HW215573   2.535   5.667   6.980
 4892SOL     OW15574   5.037   4.695   1.924
 4892SOL    HW115575   5.046   4.596   1.932
 4892SOL    HW215576   5.024   4.719   1.828
 4893SOL     OW15577   2.721   2.816   0.822
 4893SOL    HW115578   2.707   2.769   0.734
 4893SOL    HW215579   2.634   2.856   0.852
 4894SOL     OW15580   5.241   6.543   6.935
 4894SOL    HW115581   5.230   6.457   6.985
 4894SOL    HW215582   5.158   6.563   6.884
 4895SOL     OW15583   6.283   3.524   5.264
 4895SOL    HW115584   6.289   3.585   5.343
 4895SOL    HW215585   6.188   3.512   5.237
 4896SOL     OW15586   2.894   5.091   4.937
 4896SOL    HW115587   2.821   5.056   4.995
 4896SOL    HW215588   2.868   5.180   4.900
 4897SOL     OW15589   2.680   2.050   5.772
 4897SOL    HW115590   2.689   2.043   5.672
 4897SOL    HW215591   2.771   2.050   5.813
 4898SOL     OW15592   4.387   2.291   3.421
 4898SOL    HW115593   4.384   2.206   3.473
 4898SOL    HW215594   4.436   2.276   3.335
 4899SOL     OW15595   6.294   6.025   1.628
 4899SOL    HW115596   6.345   6.089   1.571
 4899SOL    HW215597   6.212   5.995   1.579
 4900SOL     OW15598   3.464   5.274   6.199
 4900SOL    HW115599   3.479   5.373   6.203
 4900SOL    HW215600   3.491   5.233   6.286
 4901SOL     OW15601   2.386   0.596   6.804
 4901SOL    HW115602   2.427   0.687   6.815
 4901SOL    HW215603   2.385   0.550   6.893
 4902SOL     OW15604   2.025   0.207   5.612
 4902SOL    HW115605   2.023   0.151   5.695
 4902SOL    HW215606   2.064   0.154   5.537
 4903SOL     OW15607   4.879   3.613   2.238
 4903SOL    HW115608   4.810   3.624   2.168
 4903SOL    HW215609   4.953   3.678   2.223
 4904SOL     OW15610   2.262   0.706   2.082
 4904SOL    HW115611   2.232   0.798   2.056
 4904SOL    HW215612   2.198   0.667   2.148
 4905SOL     OW15613   2.771   1.773   1.698
 4905SOL    HW115614   2.687   1.722   1.675
 4905SOL    HW215615   2.774   1.857   1.644
 4906SOL     OW15616   5.277   3.208   4.840
 4906SOL    HW115617   5.348   3.210   4.770
 4906SOL    HW215618   5.211   3.136   4.819
 4907SOL     OW15619   4.251   2.767   0.734
 4907SOL    HW115620   4.260   2.854   0.782
 4907SOL    HW215621   4.213   2.698   0.796
 4908SOL     OW15622   2.867   6.460   6.445
 4908SOL    HW115623   2.863   6.373   6.395
 4908SOL    HW215624   2.774   6.486   6.473
 4909SOL     OW15625   4.861   6.285   4.973
 4909SOL    HW115626   4.860   6.294   5.073
 4909SOL    HW215627   4.799   6.352   4.933
 4910SOL     OW15628   4.961   2.126   6.816
 4910SOL    HW115629   4.915   2.160   6.734
 4910SOL    HW215630   4.936   2.183   6.894
 4911SOL     OW15631   6.703   4.226   3.482
 4911SOL    HW115632   6.756   4.141   3.481
 4911SOL    HW215633   6.765   4.304   3.485
 4912SOL     OW15634   5.604   3.013   4.247
 4912SOL    HW115635   5.613   2.915   4.262
 4912SOL    HW215636   5.670   3.062   4.303
 4913SOL     OW15637   1.305   3.985   6.006
 4913SOL    HW115638   1.259   3.898   6.019
 4913SOL    HW215639   1.402   3.970   5.988
 4914SOL     OW15640   2.766   6.694   3.942
 4914SOL    HW115641   2.830   6.621   3.916
 4914SOL    HW215642   2.698   6.706   3.870
 4915SOL     OW15643   4.551   6.465   5.150
 4915SOL    HW115644   4.558   6.550   5.099
 4915SOL    HW215645   4.618   6.464   5.224
 4916SOL     OW15646   5.776   2.955   3.546
 4916SOL    HW115647   5.771   2.967   3.646
 4916SOL    HW215648   5.775   3.045   3.502
 4917SOL     OW15649   4.845   6.535   6.565
 4917SOL    HW115650   4.917   6.577   6.510
 4917SOL    HW215651   4.822   6.595   6.642
 4918SOL     OW15652   4.957   6.073   4.148
 4918SOL    HW115653   4.927   6.132   4.222
 4918SOL    HW215654   4.946   5.977   4.175
 4919SOL     OW15655   4.605   3.998   1.707
 4919SOL    HW115656   4.686   3.951   1.742
 4919SOL    HW215657   4.597   4.088   1.750
 4920SOL     OW15658   6.036   0.888   5.584
 4920SOL    HW115659   6.028   0.861   5.488
 4920SOL    HW215660   6.128   0.924   5.601
 4921SOL     OW15661   6.396   0.490   2.458
 4921SOL    HW115662   6.407   0.567   2.521
 4921SOL    HW215663   6.427   0.516   2.367
 4922SOL     OW15664   3.856   0.572   6.387
 4922SOL    HW115665   3.804   0.489   6.408
 4922SOL    HW215666   3.951   0.548   6.369
 4923SOL     OW15667   3.852   1.414   2.281
 4923SOL    HW115668   3.791   1.379   2.210
 4923SOL    HW215669   3.910   1.486   2.243
 4924SOL     OW15670   3.144   1.398   5.286
 4924SOL    HW115671   3.086   1.394   5.204
 4924SOL    HW215672   3.174   1.306   5.310
 4925SOL     OW15673   5.498   0.306   3.633
 4925SOL    HW115674   5.582   0.285   3.582
 4925SOL    HW215675   5.444   0.223   3.644
 4926SOL     OW15676   4.894   2.679   2.389
 4926SOL    HW115677   4.941   2.663   2.302
 4926SOL    HW215678   4.856   2.771   2.390
 4927SOL     OW15679   2.251   1.609   0.418
 4927SOL    HW115680   2.252   1.674   0.342
 4927SOL    HW215681   2.278   1.656   0.502
 4928SOL     OW15682   0.979   1.864   1.166
 4928SOL    HW115683   0.998   1.835   1.260
 4928SOL    HW215684   0.881   1.875   1.154
 4929SOL     OW15685   6.450   0.492   4.849
 4929SOL    HW115686   6.492   0.567   4.799
 4929SOL    HW215687   6.397   0.528   4.926
 4930SOL     OW15688   5.109   5.848   2.230
 4930SOL    HW115689   5.014   5.832   2.203
 4930SOL    HW215690   5.149   5.762   2.264
 4931SOL     OW15691   4.513   0.517   1.402
 4931SOL    HW115692   4.485   0.441   1.344
 4931SOL    HW215693   4.610   0.507   1.424
 4932SOL     OW15694   3.116   3.964   3.394
 4932SOL    HW115695   3.177   3.991   3.320
 4932SOL    HW215696   3.096   3.866   3.386
 4933SOL     OW15697   1.710   0.644   5.383
 4933SOL    HW115698   1.635   0.691   5.429
 4933SOL    HW215699   1.727   0.686   5.294
 4934SOL     OW15700   2.265   6.989   2.826
 4934SOL    HW115701   2.256   6.894   2.796
 4934SOL    HW215702   2.338   0.016   2.774
 4935SOL     OW15703   6.279   0.384   4.662
 4935SOL    HW115704   6.207   0.449   4.638
 4935SOL    HW215705   6.342   0.426   4.727
 4936SOL     OW15706   4.831   3.100   0.838
 4936SOL    HW115707   4.771   3.155   0.780
 4936SOL    HW215708   4.882   3.035   0.781
 4937SOL     OW15709   3.834   2.928   5.479
 4937SOL    HW115710   3.838   2.839   5.434
 4937SOL    HW215711   3.875   2.922   5.570
 4938SOL     OW15712   2.856   4.585   6.870
 4938SOL    HW115713   2.886   4.629   6.955
 4938SOL    HW215714   2.861   4.652   6.795
 4939SOL     OW15715   5.093   3.186   6.547
 4939SOL    HW115716   5.069   3.182   6.450
 4939SOL    HW215717   5.029   3.130   6.599
 4940SOL     OW15718   1.246   5.810   3.710
 4940SOL    HW115719   1.266   5.761   3.795
 4940SOL    HW215720   1.326   5.807   3.651
 4941SOL     OW15721   6.580   0.259   0.647
 4941SOL    HW115722   6.533   0.220   0.726
 4941SOL    HW215723   6.622   0.186   0.593
 4942SOL     OW15724   5.395   2.940   5.970
 4942SOL    HW115725   5.481   2.889   5.981
 4942SOL    HW215726   5.369   2.940   5.874
 4943SOL     OW15727   6.170   3.556   1.051
 4943SOL    HW115728   6.157   3.643   1.098
 4943SOL    HW215729   6.181   3.572   0.953
 4944SOL     OW15730   1.817   3.235   1.598
 4944SOL    HW115731   1.859   3.218   1.687
 4944SOL    HW215732   1.888   3.255   1.531
 4945SOL     OW15733   6.856   5.301   4.060
 4945SOL    HW115734   6.888   5.226   4.117
 4945SOL    HW215735   6.876   5.388   4.104
 4946SOL     OW15736   6.890   4.713   2.211
 4946SOL    HW115737   6.857   4.624   2.244
 4946SOL    HW215738   6.892   4.713   2.111
 4947SOL     OW15739   5.692   0.386   0.513
 4947SOL    HW115740   5.726   0.431   0.431
 4947SOL    HW215741   5.710   0.288   0.509
 4948SOL     OW15742   2.912   1.428   1.999
 4948SOL    HW115743   2.881   1.522   1.991
 4948SOL    HW215744   3.006   1.426   2.034
 4949SOL     OW15745   5.290   2.382   6.039
 4949SOL    HW115746   5.204   2.355   6.082
 4949SOL    HW215747   5.272   2.449   5.967
 4950SOL     OW15748   3.513   5.354   4.153
 4950SOL    HW115749   3.574   5.336   4.076
 4950SOL    HW215750   3.448   5.278   4.163
 4951SOL     OW15751   4.671   2.812   3.999
 4951SOL    HW115752   4.643   2.716   3.999
 4951SOL    HW215753   4.607   2.867   4.053
 4952SOL     OW15754   6.392   5.169   4.333
 4952SOL    HW115755   6.305   5.123   4.353
 4952SOL    HW215756   6.432   5.130   4.250
 4953SOL     OW15757   0.815   4.940   1.810
 4953SOL    HW115758   0.877   4.898   1.876
 4953SOL    HW215759   0.862   4.948   1.721
 4954SOL     OW15760   0.338   6.745   6.125
 4954SOL    HW115761   0.317   6.672   6.060
 4954SOL    HW215762   0.429   6.781   6.106
 4955SOL     OW15763   1.392   0.207   2.078
 4955SOL    HW115764   1.377   0.270   2.002
 4955SOL    HW215765   1.450   0.132   2.049
 4956SOL     OW15766   5.949   6.459   3.328
 4956SOL    HW115767   6.010   6.430   3.254
 4956SOL    HW215768   6.002   6.497   3.403
 4957SOL     OW15769   1.279   5.620   4.518
 4957SOL    HW115770   1.259   5.627   4.420
 4957SOL    HW215771   1.198   5.642   4.571
 4958SOL     OW15772   0.295   6.384   6.862
 4958SOL    HW115773   0.377   6.438   6.877
 4958SOL    HW215774   0.251   6.363   6.949
 4959SOL     OW15775   1.478   1.688   7.015
 4959SOL    HW115776   1.504   1.595   0.024
 4959SOL    HW215777   1.523   1.754   0.057
 4960SOL     OW15778   3.664   6.839   5.512
 4960SOL    HW115779   3.636   6.935   5.510
 4960SOL    HW215780   3.630   6.793   5.430
 4961SOL     OW15781   5.502   0.176   5.094
 4961SOL    HW115782   5.597   0.152   5.075
 4961SOL    HW215783   5.489   0.187   5.192
 4962SOL     OW15784   6.231   2.113   2.608
 4962SOL    HW115785   6.177   2.116   2.692
 4962SOL    HW215786   6.302   2.043   2.617
 4963SOL     OW15787   1.079   4.425   1.386
 4963SOL    HW115788   1.156   4.478   1.419
 4963SOL    HW215789   1.077   4.426   1.286
 4964SOL     OW15790   3.698   1.145   3.440
 4964SOL    HW115791   3.775   1.101   3.394
 4964SOL    HW215792   3.718   1.152   3.538
 4965SOL     OW15793   0.242   5.331   5.365
 4965SOL    HW115794   0.304   5.319   5.443
 4965SOL    HW215795   0.296   5.340   5.281
 4966SOL     OW15796   5.210   5.815   5.305
 4966SOL    HW115797   5.155   5.783   5.227
 4966SOL    HW215798   5.290   5.864   5.271
 4967SOL     OW15799   5.527   0.670   0.186
 4967SOL    HW115800   5.546   0.694   0.090
 4967SOL    HW215801   5.428   0.668   0.201
 4968SOL     OW15802   5.241   3.711   6.575
 4968SOL    HW115803   5.199   3.620   6.577
 4968SOL    HW215804   5.220   3.755   6.488
 4969SOL     OW15805   1.203   0.928   1.257
 4969SOL    HW115806   1.174   0.836   1.282
 4969SOL    HW215807   1.182   0.991   1.331
 4970SOL     OW15808   1.869   2.073   6.221
 4970SOL    HW115809   1.903   2.000   6.281
 4970SOL    HW215810   1.936   2.089   6.148
 4971SOL     OW15811   6.199   5.689   3.959
 4971SOL    HW115812   6.285   5.735   3.981
 4971SOL    HW215813   6.187   5.609   4.018
 4972SOL     OW15814   1.854   2.346   4.508
 4972SOL    HW115815   1.921   2.320   4.439
 4972SOL    HW215816   1.874   2.438   4.542
 4973SOL     OW15817   4.755   5.799   3.100
 4973SOL    HW115818   4.827   5.860   3.066
 4973SOL    HW215819   4.679   5.854   3.136
 4974SOL     OW15820   3.742   6.487   6.324
 4974SOL    HW115821   3.656   6.512   6.280
 4974SOL    HW215822   3.759   6.390   6.312
 4975SOL     OW15823   3.989   5.879   6.674
 4975SOL    HW115824   4.033   5.944   6.612
 4975SOL    HW215825   3.987   5.918   6.766
 4976SOL     OW15826   2.600   1.154   4.824
 4976SOL    HW115827   2.562   1.232   4.776
 4976SOL    HW215828   2.568   1.153   4.919
 4977SOL     OW15829   3.909   3.471   1.735
 4977SOL    HW115830   3.917   3.386   1.683
 4977SOL    HW215831   4.000   3.512   1.745
 4978SOL     OW15832   5.975   3.838   6.354
 4978SOL    HW115833   6.032   3.800   6.427
 4978SOL    HW215834   5.938   3.763   6.298
 4979SOL     OW15835   1.173   1.939   3.471
 4979SOL    HW115836   1.178   1.849   3.515
 4979SOL    HW215837   1.134   1.930   3.380
 4980SOL     OW15838   2.300   4.765   2.518
 4980SOL    HW115839   2.388   4.730   2.551
 4980SOL    HW215840   2.240   4.783   2.595
 4981SOL     OW15841   5.177   5.692   5.548
 4981SOL    HW115842   5.176   5.710   5.450
 4981SOL    HW215843   5.224   5.767   5.595
 4982SOL     OW15844   2.721   1.213   6.582
 4982SOL    HW115845   2.738   1.249   6.491
 4982SOL    HW215846   2.639   1.156   6.580
 4983SOL     OW15847   6.749   1.637   3.896
 4983SOL    HW115848   6.759   1.710   3.828
 4983SOL    HW215849   6.681   1.664   3.964
 4984SOL     OW15850   5.199   5.305   3.688
 4984SOL    HW115851   5.119   5.320   3.746
 4984SOL    HW215852   5.184   5.346   3.598
 4985SOL     OW15853   5.774   3.888   1.352
 4985SOL    HW115854   5.712   3.892   1.274
 4985SOL    HW215855   5.722   3.885   1.437
 4986SOL     OW15856   4.013   5.059   3.572
 4986SOL    HW115857   4.058   5.128   3.516
 4986SOL    HW215858   3.991   4.979   3.515
 4987SOL     OW15859   1.117   2.475   0.168
 4987SOL    HW115860   1.110   2.393   0.226
 4987SOL    HW215861   1.066   2.461   0.084
 4988SOL     OW15862   2.354   2.060   4.764
 4988SOL    HW115863   2.381   2.096   4.853
 4988SOL    HW215864   2.373   1.962   4.761
 4989SOL     OW15865   0.231   0.707   1.449
 4989SOL    HW115866   0.251   0.804   1.461
 4989SOL    HW215867   0.210   0.667   1.538
 4990SOL     OW15868   2.077   2.107   6.738
 4990SOL    HW115869   2.086   2.206   6.734
 4990SOL    HW215870   2.098   2.068   6.648
 4991SOL     OW15871   2.476   1.871   5.772
 4991SOL    HW115872   2.542   1.946   5.765
 4991SOL    HW215873   2.521   1.785   5.749
 4992SOL     OW15874   3.881   0.060   4.532
 4992SOL    HW115875   3.902   0.078   4.628
 4992SOL    HW215876   3.888   0.145   4.480
 4993SOL     OW15877   1.121   6.490   4.867
 4993SOL    HW115878   1.199   6.431   4.892
 4993SOL    HW215879   1.112   6.562   4.936
 4994SOL     OW15880   0.093   5.666   3.443
 4994SOL    HW115881   0.152   5.620   3.377
 4994SOL    HW215882   0.080   5.608   3.523
 4995SOL     OW15883   5.446   2.637   5.260
 4995SOL    HW115884   5.430   2.668   5.166
 4995SOL    HW215885   5.477   2.714   5.316
 4996SOL     OW15886   0.329   2.513   4.119
 4996SOL    HW115887   0.326   2.577   4.196
 4996SOL    HW215888   0.240   2.467   4.111
 4997SOL     OW15889   0.367   2.334   3.651
 4997SOL    HW115890   0.443   2.295   3.598
 4997SOL    HW215891   0.382   2.432   3.661
 4998SOL     OW15892   1.152   5.795   5.918
 4998SOL    HW115893   1.125   5.848   5.838
 4998SOL    HW215894   1.250   5.777   5.915
 4999SOL     OW15895   5.943   5.352   1.025
 4999SOL    HW115896   5.850   5.332   0.993
 4999SOL    HW215897   5.952   5.320   1.120
 5000SOL     OW15898   6.040   5.568   3.763
 5000SOL    HW115899   6.098   5.602   3.836
 5000SOL    HW215900   5.945   5.562   3.796
 5001SOL     OW15901   4.780   3.551   5.504
 5001SOL    HW115902   4.703   3.504   5.462
 5001SOL    HW215903   4.822   3.612   5.437
 5002SOL     OW15904   1.378   2.177   1.627
 5002SOL    HW115905   1.476   2.163   1.635
 5002SOL    HW215906   1.353   2.182   1.530
 5003SOL     OW15907   5.902   5.732   4.651
 5003SOL    HW115908   5.922   5.634   4.659
 5003SOL    HW215909   5.871   5.767   4.740
 5004SOL     OW15910   2.071   4.938   5.905
 5004SOL    HW115911   2.116   4.910   5.821
 5004SOL    HW215912   2.137   4.983   5.966
 5005SOL     OW15913   5.581   2.023   0.239
 5005SOL    HW115914   5.519   1.944   0.244
 5005SOL    HW215915   5.557   2.079   0.160
 5006SOL     OW15916   4.180   5.123   1.497
 5006SOL    HW115917   4.257   5.182   1.521
 5006SOL    HW215918   4.173   5.116   1.398
 5007SOL     OW15919   3.580   0.759   4.505
 5007SOL    HW115920   3.581   0.664   4.475
 5007SOL    HW215921   3.593   0.819   4.427
 5008SOL     OW15922   6.154   2.067   4.046
 5008SOL    HW115923   6.075   2.128   4.059
 5008SOL    HW215924   6.178   2.064   3.949
 5009SOL     OW15925   2.678   6.897   2.276
 5009SOL    HW115926   2.617   6.819   2.259
 5009SOL    HW215927   2.647   6.946   2.357
 5010SOL     OW15928   3.129   3.881   5.971
 5010SOL    HW115929   3.163   3.854   6.061
 5010SOL    HW215930   3.174   3.966   5.942
 5011SOL     OW15931   1.169   1.621   4.819
 5011SOL    HW115932   1.163   1.543   4.880
 5011SOL    HW215933   1.259   1.624   4.776
 5012SOL     OW15934   6.632   2.296   6.917
 5012SOL    HW115935   6.581   2.230   6.972
 5012SOL    HW215936   6.693   2.248   6.855
 5013SOL     OW15937   4.684   1.490   5.347
 5013SOL    HW115938   4.743   1.537   5.412
 5013SOL    HW215939   4.630   1.557   5.296
 5014SOL     OW15940   0.671   4.459   6.333
 5014SOL    HW115941   0.628   4.422   6.415
 5014SOL    HW215942   0.687   4.557   6.344
 5015SOL     OW15943   4.785   2.301   3.637
 5015SOL    HW115944   4.721   2.265   3.706
 5015SOL    HW215945   4.839   2.375   3.677
 5016SOL     OW15946   2.091   5.734   1.615
 5016SOL    HW115947   2.162   5.803   1.633
 5016SOL    HW215948   2.106   5.656   1.676
 5017SOL     OW15949   0.009   2.245   1.166
 5017SOL    HW115950   6.969   2.304   1.110
 5017SOL    HW215951   6.977   2.214   1.246
 5018SOL     OW15952   6.277   5.499   4.471
 5018SOL    HW115953   6.216   5.578   4.477
 5018SOL    HW215954   6.293   5.477   4.375
 5019SOL     OW15955   2.650   5.627   4.710
 5019SOL    HW115956   2.674   5.678   4.792
 5019SOL    HW215957   2.551   5.613   4.707
 5020SOL     OW15958   4.372   5.566   0.339
 5020SOL    HW115959   4.454   5.578   0.282
 5020SOL    HW215960   4.301   5.522   0.286
 5021SOL     OW15961   2.419   4.757   5.533
 5021SOL    HW115962   2.345   4.768   5.467
 5021SOL    HW215963   2.458   4.665   5.524
 5022SOL     OW15964   1.703   2.832   6.160
 5022SOL    HW115965   1.673   2.917   6.204
 5022SOL    HW215966   1.803   2.829   6.158
 5023SOL     OW15967   6.139   3.083   3.719
 5023SOL    HW115968   6.076   3.136   3.775
 5023SOL    HW215969   6.223   3.065   3.771
 5024SOL     OW15970   4.892   3.848   4.878
 5024SOL    HW115971   4.865   3.762   4.922
 5024SOL    HW215972   4.821   3.917   4.894
 5025SOL     OW15973   5.465   6.921   4.970
 5025SOL    HW115974   5.476   7.015   5.003
 5025SOL    HW215975   5.390   6.877   5.020
 5026SOL     OW15976   1.024   5.565   2.377
 5026SOL    HW115977   1.022   5.508   2.458
 5026SOL    HW215978   1.091   5.639   2.390
 5027SOL     OW15979   1.058   5.567   3.281
 5027SOL    HW115980   1.033   5.662   3.264
 5027SOL    HW215981   1.156   5.561   3.300
 5028SOL     OW15982   0.759   6.551   2.519
 5028SOL    HW115983   0.818   6.577   2.442
 5028SOL    HW215984   0.664   6.552   2.490
 5029SOL     OW15985   5.571   0.291   4.498
 5029SOL    HW115986   5.516   0.361   4.542
 5029SOL    HW215987   5.597   0.222   4.566
 5030SOL     OW15988   1.493   5.895   0.657
 5030SOL    HW115989   1.568   5.935   0.709
 5030SOL    HW215990   1.408   5.907   0.707
 5031SOL     OW15991   5.217   0.507   0.190
 5031SOL    HW115992   5.217   0.597   0.148
 5031SOL    HW215993   5.184   0.439   0.124
 5032SOL     OW15994   1.903   5.546   2.693
 5032SOL    HW115995   2.000   5.531   2.672
 5032SOL    HW215996   1.847   5.484   2.638
 5033SOL     OW15997   1.025   4.546   4.703
 5033SOL    HW115998   1.042   4.622   4.640
 5033SOL    HW215999   1.010   4.462   4.651
 5034SOL     OW16000   0.782   2.492   5.977
 5034SOL    HW116001   0.825   2.527   6.061
 5034SOL    HW216002   0.741   2.568   5.927
 5035SOL     OW16003   6.713   5.233   0.816
 5035SOL    HW116004   6.702   5.236   0.915
 5035SOL    HW216005   6.702   5.138   0.784
 5036SOL     OW16006   1.214   1.555   2.999
 5036SOL    HW116007   1.202   1.626   2.930
 5036SOL    HW216008   1.166   1.580   3.082
 5037SOL     OW16009   5.196   3.818   1.185
 5037SOL    HW116010   5.239   3.905   1.160
 5037SOL    HW216011   5.267   3.749   1.198
 5038SOL     OW16012   3.197   5.707   5.598
 5038SOL    HW116013   3.263   5.743   5.664
 5038SOL    HW216014   3.229   5.619   5.563
 5039SOL     OW16015   0.917   2.960   3.751
 5039SOL    HW116016   1.016   2.956   3.737
 5039SOL    HW216017   0.898   2.982   3.847
 5040SOL     OW16018   2.483   3.297   6.889
 5040SOL    HW116019   2.500   3.309   6.791
 5040SOL    HW216020   2.387   3.271   6.902
 5041SOL     OW16021   0.514   5.789   6.987
 5041SOL    HW116022   0.529   5.775   0.066
 5041SOL    HW216023   0.602   5.796   6.939
 5042SOL     OW16024   5.781   0.973   6.382
 5042SOL    HW116025   5.847   1.030   6.334
 5042SOL    HW216026   5.695   1.023   6.392
 5043SOL     OW16027   5.441   6.589   4.194
 5043SOL    HW116028   5.444   6.549   4.286
 5043SOL    HW216029   5.516   6.654   4.183
 5044SOL     OW16030   6.636   4.062   2.004
 5044SOL    HW116031   6.578   3.996   1.957
 5044SOL    HW216032   6.702   4.014   2.061
 5045SOL     OW16033   5.145   2.823   5.433
 5045SOL    HW116034   5.113   2.728   5.431
 5045SOL    HW216035   5.068   2.884   5.414
 5046SOL     OW16036   3.952   2.849   5.970
 5046SOL    HW116037   3.854   2.857   5.953
 5046SOL    HW216038   3.983   2.927   6.025
 5047SOL     OW16039   0.418   1.959   1.749
 5047SOL    HW116040   0.330   1.928   1.714
 5047SOL    HW216041   0.436   1.915   1.837
 5048SOL     OW16042   5.269   4.462   0.408
 5048SOL    HW116043   5.245   4.441   0.502
 5048SOL    HW216044   5.232   4.552   0.383
 5049SOL     OW16045   1.299   0.897   1.019
 5049SOL    HW116046   1.275   0.892   1.115
 5049SOL    HW216047   1.281   0.809   0.975
 5050SOL     OW16048   1.824   4.016   0.812
 5050SOL    HW116049   1.861   4.084   0.875
 5050SOL    HW216050   1.895   3.949   0.791
 5051SOL     OW16051   2.167   4.100   6.356
 5051SOL    HW116052   2.159   4.096   6.256
 5051SOL    HW216053   2.148   4.194   6.387
 5052SOL     OW16054   6.324   3.151   1.143
 5052SOL    HW116055   6.281   3.086   1.081
 5052SOL    HW216056   6.254   3.192   1.202
 5053SOL     OW16057   0.984   3.765   1.543
 5053SOL    HW116058   1.070   3.812   1.564
 5053SOL    HW216059   0.997   3.708   1.462
 5054SOL     OW16060   4.045   5.798   4.946
 5054SOL    HW116061   4.104   5.729   4.904
 5054SOL    HW216062   4.100   5.864   4.996
 5055SOL     OW16063   0.976   0.478   4.171
 5055SOL    HW116064   0.978   0.567   4.218
 5055SOL    HW216065   0.896   0.475   4.111
 5056SOL     OW16066   2.876   1.353   6.324
 5056SOL    HW116067   2.942   1.413   6.369
 5056SOL    HW216068   2.888   1.358   6.225
 5057SOL     OW16069   0.475   3.408   2.288
 5057SOL    HW116070   0.489   3.439   2.194
 5057SOL    HW216071   0.560   3.367   2.321
 5058SOL     OW16072   4.041   1.895   0.113
 5058SOL    HW116073   4.125   1.938   0.145
 5058SOL    HW216074   3.962   1.937   0.158
 5059SOL     OW16075   5.557   2.457   2.352
 5059SOL    HW116076   5.499   2.431   2.429
 5059SOL    HW216077   5.583   2.553   2.361
 5060SOL     OW16078   6.964   2.596   5.634
 5060SOL    HW116079   6.885   2.535   5.635
 5060SOL    HW216080   6.934   2.690   5.626
 5061SOL     OW16081   4.372   3.000   6.058
 5061SOL    HW116082   4.294   3.035   6.110
 5061SOL    HW216083   4.369   2.900   6.057
 5062SOL     OW16084   5.873   1.187   3.266
 5062SOL    HW116085   5.917   1.187   3.355
 5062SOL    HW216086   5.819   1.103   3.255
 5063SOL     OW16087   0.540   0.893   0.221
 5063SOL    HW116088   0.481   0.859   0.294
 5063SOL    HW216089   0.609   0.955   0.261
 5064SOL     OW16090   6.244   5.170   0.449
 5064SOL    HW116091   6.318   5.131   0.503
 5064SOL    HW216092   6.204   5.248   0.498
 5065SOL     OW16093   0.951   2.229   2.710
 5065SOL    HW116094   1.003   2.314   2.697
 5065SOL    HW216095   0.860   2.251   2.744
 5066SOL     OW16096   1.025   5.020   4.149
 5066SOL    HW116097   0.970   5.096   4.115
 5066SOL    HW216098   1.091   5.054   4.216
 5067SOL     OW16099   4.399   3.181   0.951
 5067SOL    HW116100   4.388   3.243   0.873
 5067SOL    HW216101   4.481   3.206   1.002
 5068SOL     OW16102   1.422   6.728   1.383
 5068SOL    HW116103   1.420   6.659   1.311
 5068SOL    HW216104   1.513   6.769   1.389
 5069SOL     OW16105   4.006   4.758   5.977
 5069SOL    HW116106   3.922   4.756   5.924
 5069SOL    HW216107   4.002   4.690   6.050
 5070SOL     OW16108   0.762   3.581   6.769
 5070SOL    HW116109   0.829   3.650   6.740
 5070SOL    HW216110   0.691   3.573   6.700
 5071SOL     OW16111   1.515   6.388   2.535
 5071SOL    HW116112   1.597   6.408   2.588
 5071SOL    HW216113   1.471   6.305   2.571
 5072SOL     OW16114   0.607   2.219   2.601
 5072SOL    HW116115   0.632   2.248   2.509
 5072SOL    HW216116   0.604   2.119   2.604
 5073SOL     OW16117   1.816   1.889   4.323
 5073SOL    HW116118   1.906   1.914   4.358
 5073SOL    HW216119   1.814   1.899   4.224
 5074SOL     OW16120   4.122   2.012   1.502
 5074SOL    HW116121   4.164   1.921   1.497
 5074SOL    HW216122   4.156   2.060   1.583
 5075SOL     OW16123   6.246   1.843   6.767
 5075SOL    HW116124   6.155   1.871   6.797
 5075SOL    HW216125   6.284   1.912   6.705
 5076SOL     OW16126   0.104   1.507   6.022
 5076SOL    HW116127   0.166   1.501   5.944
 5076SOL    HW216128   0.102   1.419   6.069
 5077SOL     OW16129   0.633   4.888   4.496
 5077SOL    HW116130   0.655   4.973   4.448
 5077SOL    HW216131   0.687   4.882   4.580
 5078SOL     OW16132   6.158   1.416   2.895
 5078SOL    HW116133   6.063   1.397   2.919
 5078SOL    HW216134   6.182   1.509   2.924
 5079SOL     OW16135   1.599   3.490   5.860
 5079SOL    HW116136   1.625   3.394   5.849
 5079SOL    HW216137   1.624   3.540   5.777
 5080SOL     OW16138   6.373   6.096   6.882
 5080SOL    HW116139   6.321   6.165   6.932
 5080SOL    HW216140   6.314   6.020   6.857
 5081SOL     OW16141   3.348   4.435   5.576
 5081SOL    HW116142   3.360   4.402   5.482
 5081SOL    HW216143   3.318   4.359   5.634
 5082SOL     OW16144   5.622   0.018   2.852
 5082SOL    HW116145   5.574   0.103   2.830
 5082SOL    HW216146   5.605   6.970   2.779
 5083SOL     OW16147   0.359   0.474   3.266
 5083SOL    HW116148   0.372   0.552   3.205
 5083SOL    HW216149   0.330   0.506   3.356
 5084SOL     OW16150   3.723   5.285   5.998
 5084SOL    HW116151   3.691   5.357   5.936
 5084SOL    HW216152   3.660   5.276   6.074
 5085SOL     OW16153   0.954   3.417   6.661
 5085SOL    HW116154   0.869   3.457   6.696
 5085SOL    HW216155   0.978   3.336   6.714
 5086SOL     OW16156   1.167   4.644   2.105
 5086SOL    HW116157   1.239   4.712   2.112
 5086SOL    HW216158   1.085   4.677   2.153
 5087SOL     OW16159   6.300   5.412   1.548
 5087SOL    HW116160   6.385   5.383   1.592
 5087SOL    HW216161   6.321   5.450   1.457
 5088SOL     OW16162   4.069   5.021   2.367
 5088SOL    HW116163   4.128   5.018   2.286
 5088SOL    HW216164   3.996   4.953   2.356
 5089SOL     OW16165   5.215   5.624   6.147
 5089SOL    HW116166   5.234   5.528   6.166
 5089SOL    HW216167   5.248   5.681   6.222
 5090SOL     OW16168   2.223   6.717   4.453
 5090SOL    HW116169   2.217   6.763   4.542
 5090SOL    HW216170   2.269   6.629   4.464
 5091SOL     OW16171   6.478   5.763   5.090
 5091SOL    HW116172   6.501   5.667   5.105
 5091SOL    HW216173   6.403   5.789   5.150
 5092SOL     OW16174   3.770   3.028   4.567
 5092SOL    HW116175   3.679   3.069   4.565
 5092SOL    HW216176   3.782   2.977   4.652
 5093SOL     OW16177   3.240   1.985   3.665
 5093SOL    HW116178   3.181   1.909   3.693
 5093SOL    HW216179   3.272   1.970   3.571
 5094SOL     OW16180   2.422   4.816   4.866
 5094SOL    HW116181   2.506   4.865   4.890
 5094SOL    HW216182   2.436   4.718   4.876
 5095SOL     OW16183   5.932   1.794   3.196
 5095SOL    HW116184   5.979   1.880   3.178
 5095SOL    HW216185   5.896   1.795   3.289
 5096SOL     OW16186   5.851   2.875   5.276
 5096SOL    HW116187   5.846   2.874   5.176
 5096SOL    HW216188   5.921   2.811   5.307
 5097SOL     OW16189   1.010   0.249   6.317
 5097SOL    HW116190   0.925   0.204   6.293
 5097SOL    HW216191   1.072   0.184   6.362
 5098SOL     OW16192   3.170   2.048   0.905
 5098SOL    HW116193   3.207   1.959   0.931
 5098SOL    HW216194   3.121   2.039   0.818
 5099SOL     OW16195   1.662   5.670   1.872
 5099SOL    HW116196   1.643   5.582   1.914
 5099SOL    HW216197   1.757   5.696   1.891
 5100SOL     OW16198   6.551   3.683   1.252
 5100SOL    HW116199   6.526   3.610   1.187
 5100SOL    HW216200   6.480   3.753   1.252
 5101SOL     OW16201   4.407   2.116   6.079
 5101SOL    HW116202   4.353   2.047   6.030
 5101SOL    HW216203   4.492   2.075   6.110
 5102SOL     OW16204   5.294   4.397   5.368
 5102SOL    HW116205   5.320   4.309   5.407
 5102SOL    HW216206   5.372   4.460   5.373
 5103SOL     OW16207   0.351   0.385   5.607
 5103SOL    HW116208   0.351   0.348   5.700
 5103SOL    HW216209   0.359   0.485   5.612
 5104SOL     OW16210   3.443   3.238   3.814
 5104SOL    HW116211   3.364   3.296   3.832
 5104SOL    HW216212   3.455   3.228   3.715
 5105SOL     OW16213   4.560   2.551   6.746
 5105SOL    HW116214   4.470   2.529   6.783
 5105SOL    HW216215   4.581   2.647   6.764
 5106SOL     OW16216   4.029   0.728   1.778
 5106SOL    HW116217   4.128   0.723   1.767
 5106SOL    HW216218   3.993   0.807   1.727
 5107SOL     OW16219   6.187   4.580   6.536
 5107SOL    HW116220   6.091   4.606   6.545
 5107SOL    HW216221   6.222   4.552   6.626
 5108SOL     OW16222   4.319   4.064   1.226
 5108SOL    HW116223   4.388   4.083   1.156
 5108SOL    HW216224   4.347   4.105   1.313
 5109SOL     OW16225   1.793   2.465   1.837
 5109SOL    HW116226   1.752   2.398   1.899
 5109SOL    HW216227   1.760   2.449   1.744
 5110SOL     OW16228   3.219   6.005   4.809
 5110SOL    HW116229   3.296   6.057   4.847
 5110SOL    HW216230   3.223   5.911   4.842
 5111SOL     OW16231   2.665   6.176   6.212
 5111SOL    HW116232   2.582   6.122   6.194
 5111SOL    HW216233   2.660   6.212   6.305
 5112SOL     OW16234   0.696   3.807   2.474
 5112SOL    HW116235   0.758   3.842   2.405
 5112SOL    HW216236   0.703   3.862   2.557
 5113SOL     OW16237   2.610   4.518   1.180
 5113SOL    HW116238   2.655   4.435   1.148
 5113SOL    HW216239   2.580   4.505   1.275
 5114SOL     OW16240   4.762   4.576   1.303
 5114SOL    HW116241   4.754   4.554   1.205
 5114SOL    HW216242   4.800   4.667   1.313
 5115SOL     OW16243   1.531   3.956   0.394
 5115SOL    HW116244   1.437   3.990   0.399
 5115SOL    HW216245   1.576   3.992   0.312
 5116SOL     OW16246   0.183   6.620   5.579
 5116SOL    HW116247   0.226   6.532   5.597
 5116SOL    HW216248   0.183   6.675   5.663
 5117SOL     OW16249   0.038   3.516   4.274
 5117SOL    HW116250   0.008   3.595   4.327
 5117SOL    HW216251   6.984   3.488   4.211
 5118SOL     OW16252   4.961   5.195   7.004
 5118SOL    HW116253   4.929   5.126   0.050
 5118SOL    HW216254   4.952   5.286   0.027
 5119SOL     OW16255   5.394   1.359   0.233
 5119SOL    HW116256   5.469   1.327   0.175
 5119SOL    HW216257   5.401   1.319   0.324
 5120SOL     OW16258   5.617   6.707   6.625
 5120SOL    HW116259   5.558   6.779   6.590
 5120SOL    HW216260   5.712   6.728   6.605
 5121SOL     OW16261   2.692   3.759   0.015
 5121SOL    HW116262   2.623   3.711   6.980
 5121SOL    HW216263   2.660   3.771   0.108
 5122SOL     OW16264   5.447   5.531   3.507
 5122SOL    HW116265   5.544   5.534   3.529
 5122SOL    HW216266   5.395   5.582   3.577
 5123SOL     OW16267   4.437   2.039   1.408
 5123SOL    HW116268   4.485   1.987   1.337
 5123SOL    HW216269   4.363   2.091   1.367
 5124SOL     OW16270   0.614   5.861   4.770
 5124SOL    HW116271   0.546   5.810   4.824
 5124SOL    HW216272   0.595   5.849   4.673
 5125SOL     OW16273   4.925   2.473   4.063
 5125SOL    HW116274   4.976   2.558   4.057
 5125SOL    HW216275   4.957   2.420   4.141
 5126SOL     OW16276   2.498   0.764   2.464
 5126SOL    HW116277   2.513   0.863   2.474
 5126SOL    HW216278   2.455   0.746   2.376
 5127SOL     OW16279   2.262   6.356   1.120
 5127SOL    HW116280   2.254   6.361   1.220
 5127SOL    HW216281   2.295   6.443   1.085
 5128SOL     OW16282   4.122   0.207   2.251
 5128SOL    HW116283   4.206   0.200   2.304
 5128SOL    HW216284   4.065   0.126   2.268
 5129SOL     OW16285   6.088   5.692   0.027
 5129SOL    HW116286   6.016   5.655   0.086
 5129SOL    HW216287   6.176   5.653   0.054
 5130SOL     OW16288   6.039   4.845   2.150
 5130SOL    HW116289   6.055   4.751   2.119
 5130SOL    HW216290   6.079   4.856   2.241
 5131SOL     OW16291   2.355   2.033   1.792
 5131SOL    HW116292   2.275   2.081   1.756
 5131SOL    HW216293   2.363   2.051   1.890
 5132SOL     OW16294   2.450   5.933   5.502
 5132SOL    HW116295   2.386   5.952   5.427
 5132SOL    HW216296   2.542   5.922   5.464
 5133SOL     OW16297   4.067   6.004   4.660
 5133SOL    HW116298   4.057   5.905   4.650
 5133SOL    HW216299   4.087   6.045   4.571
 5134SOL     OW16300   1.354   2.384   6.898
 5134SOL    HW116301   1.382   2.288   6.894
 5134SOL    HW216302   1.307   2.402   6.985
 5135SOL     OW16303   6.431   1.285   3.336
 5135SOL    HW116304   6.380   1.215   3.386
 5135SOL    HW216305   6.428   1.266   3.238
 5136SOL     OW16306   3.507   2.063   6.617
 5136SOL    HW116307   3.433   2.020   6.566
 5136SOL    HW216308   3.502   2.162   6.607
 5137SOL     OW16309   4.430   3.316   6.919
 5137SOL    HW116310   4.393   3.346   7.007
 5137SOL    HW216311   4.521   3.356   6.905
 5138SOL     OW16312   2.414   3.096   5.582
 5138SOL    HW116313   2.321   3.123   5.606
 5138SOL    HW216314   2.473   3.105   5.662
 5139SOL     OW16315   0.867   6.659   4.403
 5139SOL    HW116316   0.898   6.642   4.497
 5139SOL    HW216317   0.938   6.629   4.339
 5140SOL     OW16318   3.621   3.189   2.415
 5140SOL    HW116319   3.710   3.176   2.373
 5140SOL    HW216320   3.549   3.174   2.347
 5141SOL     OW16321   1.305   3.366   5.362
 5141SOL    HW116322   1.250   3.375   5.445
 5141SOL    HW216323   1.250   3.322   5.291
 5142SOL     OW16324   5.459   3.536   1.764
 5142SOL    HW116325   5.433   3.478   1.686
 5142SOL    HW216326   5.377   3.566   1.812
 5143SOL     OW16327   0.092   5.192   6.049
 5143SOL    HW116328   0.083   5.252   5.970
 5143SOL    HW216329   0.184   5.152   6.049
 5144SOL     OW16330   2.269   1.158   5.234
 5144SOL    HW116331   2.225   1.069   5.240
 5144SOL    HW216332   2.228   1.220   5.301
 5145SOL     OW16333   3.428   5.080   6.973
 5145SOL    HW116334   3.491   5.078   0.031
 5145SOL    HW216335   3.334   5.076   7.007
 5146SOL     OW16336   3.720   5.387   1.285
 5146SOL    HW116337   3.680   5.476   1.264
 5146SOL    HW216338   3.703   5.363   1.380
 5147SOL     OW16339   0.879   5.285   5.983
 5147SOL    HW116340   0.796   5.231   5.991
 5147SOL    HW216341   0.958   5.223   5.983
 5148SOL     OW16342   0.036   0.384   1.539
 5148SOL    HW116343   0.105   0.441   1.584
 5148SOL    HW216344   6.966   0.432   1.540
 5149SOL     OW16345   6.655   0.690   5.308
 5149SOL    HW116346   6.689   0.605   5.268
 5149SOL    HW216347   6.728   0.731   5.363
 5150SOL     OW16348   2.850   5.386   5.449
 5150SOL    HW116349   2.804   5.469   5.481
 5150SOL    HW216350   2.795   5.306   5.471
 5151SOL     OW16351   4.932   0.643   5.980
 5151SOL    HW116352   4.943   0.728   5.929
 5151SOL    HW216353   4.847   0.645   6.032
 5152SOL     OW16354   6.706   4.621   6.377
 5152SOL    HW116355   6.678   4.527   6.397
 5152SOL    HW216356   6.627   4.672   6.343
 5153SOL     OW16357   3.140   3.420   1.018
 5153SOL    HW116358   3.171   3.506   0.979
 5153SOL    HW216359   3.144   3.425   1.118
 5154SOL     OW16360   0.609   4.066   5.428
 5154SOL    HW116361   0.705   4.096   5.434
 5154SOL    HW216362   0.582   4.026   5.516
 5155SOL     OW16363   4.145   0.690   2.081
 5155SOL    HW116364   4.233   0.717   2.043
 5155SOL    HW216365   4.145   0.705   2.180
 5156SOL     OW16366   5.576   3.527   5.539
 5156SOL    HW116367   5.515   3.534   5.460
 5156SOL    HW216368   5.624   3.614   5.552
 5157SOL     OW16369   6.501   2.466   3.757
 5157SOL    HW116370   6.513   2.565   3.747
 5157SOL    HW216371   6.442   2.448   3.836
 5158SOL     OW16372   3.937   0.540   1.940
 5158SOL    HW116373   3.969   0.615   1.882
 5158SOL    HW216374   3.968   0.555   2.034
 5159SOL     OW16375   1.692   3.930   4.994
 5159SOL    HW116376   1.700   3.997   4.920
 5159SOL    HW216377   1.690   3.838   4.955
 5160SOL     OW16378   2.598   2.415   3.724
 5160SOL    HW116379   2.550   2.439   3.808
 5160SOL    HW216380   2.656   2.335   3.742
 5161SOL     OW16381   1.860   2.996   6.739
 5161SOL    HW116382   1.870   2.929   6.813
 5161SOL    HW216383   1.763   3.014   6.723
 5162SOL     OW16384   6.642   5.918   4.905
 5162SOL    HW116385   6.732   5.910   4.948
 5162SOL    HW216386   6.577   5.857   4.952
 5163SOL     OW16387   6.334   4.159   0.773
 5163SOL    HW116388   6.325   4.074   0.721
 5163SOL    HW216389   6.254   4.217   0.755
 5164SOL     OW16390   6.933   6.559   4.751
 5164SOL    HW116391   6.982   6.639   4.716
 5164SOL    HW216392   6.938   6.486   4.683
 5165SOL     OW16393   5.142   4.483   5.596
 5165SOL    HW116394   5.136   4.583   5.595
 5165SOL    HW216395   5.158   4.449   5.504
 5166SOL     OW16396   0.366   6.933   3.190
 5166SOL    HW116397   0.407   6.923   3.281
 5166SOL    HW216398   0.406   7.011   3.143
 5167SOL     OW16399   1.872   0.157   5.287
 5167SOL    HW116400   1.862   0.164   5.188
 5167SOL    HW216401   1.885   0.249   5.326
 5168SOL     OW16402   3.175   2.034   2.229
 5168SOL    HW116403   3.151   2.071   2.139
 5168SOL    HW216404   3.091   2.008   2.277
 5169SOL     OW16405   3.797   5.209   6.682
 5169SOL    HW116406   3.862   5.192   6.607
 5169SOL    HW216407   3.736   5.283   6.656
 5170SOL     OW16408   4.388   5.287   4.077
 5170SOL    HW116409   4.415   5.370   4.029
 5170SOL    HW216410   4.451   5.212   4.054
 5171SOL     OW16411   2.669   4.420   5.282
 5171SOL    HW116412   2.743   4.462   5.229
 5171SOL    HW216413   2.583   4.430   5.233
 5172SOL     OW16414   1.691   3.799   6.260
 5172SOL    HW116415   1.609   3.820   6.314
 5172SOL    HW216416   1.667   3.791   6.164
 5173SOL     OW16417   0.725   2.072   4.502
 5173SOL    HW116418   0.692   2.069   4.408
 5173SOL    HW216419   0.799   2.140   4.509
 5174SOL     OW16420   3.321   5.401   6.875
 5174SOL    HW116421   3.344   5.453   6.792
 5174SOL    HW216422   3.240   5.345   6.859
 5175SOL     OW16423   0.838   5.731   0.127
 5175SOL    HW116424   0.832   5.633   0.145
 5175SOL    HW216425   0.780   5.781   0.191
 5176SOL     OW16426   5.859   3.243   6.661
 5176SOL    HW116427   5.842   3.179   6.586
 5176SOL    HW216428   5.808   3.327   6.645
 5177SOL     OW16429   4.627   5.231   6.865
 5177SOL    HW116430   4.594   5.194   6.952
 5177SOL    HW216431   4.704   5.176   6.832
 5178SOL     OW16432   3.893   4.619   0.385
 5178SOL    HW116433   3.877   4.637   0.288
 5178SOL    HW216434   3.935   4.699   0.427
 5179SOL     OW16435   2.591   6.152   5.339
 5179SOL    HW116436   2.492   6.161   5.351
 5179SOL    HW216437   2.637   6.181   5.423
 5180SOL     OW16438   5.027   1.351   6.609
 5180SOL    HW116439   5.083   1.343   6.527
 5180SOL    HW216440   4.983   1.263   6.628
 5181SOL     OW16441   3.227   6.175   2.804
 5181SOL    HW116442   3.265   6.119   2.731
 5181SOL    HW216443   3.184   6.256   2.765
 5182SOL     OW16444   4.823   4.380   0.771
 5182SOL    HW116445   4.864   4.393   0.681
 5182SOL    HW216446   4.872   4.308   0.820
 5183SOL     OW16447   3.295   0.836   3.614
 5183SOL    HW116448   3.348   0.884   3.545
 5183SOL    HW216449   3.259   0.901   3.681
 5184SOL     OW16450   1.177   1.762   2.806
 5184SOL    HW116451   1.142   1.828   2.740
 5184SOL    HW216452   1.231   1.809   2.876
 5185SOL     OW16453   4.063   0.267   1.974
 5185SOL    HW116454   4.033   0.362   1.963
 5185SOL    HW216455   4.107   0.256   2.063
 5186SOL     OW16456   5.712   3.921   6.907
 5186SOL    HW116457   5.750   3.833   6.879
 5186SOL    HW216458   5.777   3.968   6.966
 5187SOL     OW16459   4.971   4.077   4.140
 5187SOL    HW116460   5.060   4.123   4.143
 5187SOL    HW216461   4.929   4.078   4.230
 5188SOL     OW16462   0.594   1.004   3.725
 5188SOL    HW116463   0.573   0.924   3.669
 5188SOL    HW216464   0.583   1.087   3.670
 5189SOL     OW16465   4.717   4.939   5.851
 5189SOL    HW116466   4.658   5.019   5.839
 5189SOL    HW216467   4.807   4.969   5.885
 5190SOL     OW16468   1.950   2.193   2.746
 5190SOL    HW116469   2.018   2.257   2.781
 5190SOL    HW216470   1.991   2.136   2.675
 5191SOL     OW16471   4.817   1.285   2.349
 5191SOL    HW116472   4.877   1.296   2.427
 5191SOL    HW216473   4.841   1.352   2.278
 5192SOL     OW16474   6.916   4.287   1.510
 5192SOL    HW116475   6.855   4.244   1.576
 5192SOL    HW216476   6.955   4.216   1.451
 5193SOL     OW16477   3.829   5.110   3.178
 5193SOL    HW116478   3.924   5.137   3.165
 5193SOL    HW216479   3.791   5.161   3.256
 5194SOL     OW16480   5.101   0.662   0.405
 5194SOL    HW116481   5.086   0.752   0.366
 5194SOL    HW216482   5.115   0.595   0.332
 5195SOL     OW16483   0.543   4.988   5.432
 5195SOL    HW116484   0.608   5.064   5.434
 5195SOL    HW216485   0.496   4.985   5.344
 5196SOL     OW16486   1.267   3.271   3.386
 5196SOL    HW116487   1.200   3.331   3.430
 5196SOL    HW216488   1.220   3.195   3.341
 5197SOL     OW16489   3.770   5.830   5.001
 5197SOL    HW116490   3.762   5.813   5.099
 5197SOL    HW216491   3.861   5.805   4.970
 5198SOL     OW16492   4.268   1.007   6.208
 5198SOL    HW116493   4.246   1.096   6.168
 5198SOL    HW216494   4.225   0.934   6.154
 5199SOL     OW16495   0.368   6.289   2.703
 5199SOL    HW116496   0.352   6.370   2.759
 5199SOL    HW216497   0.302   6.288   2.627
 5200SOL     OW16498   6.126   6.516   5.293
 5200SOL    HW116499   6.118   6.418   5.279
 5200SOL    HW216500   6.058   6.564   5.238
 5201SOL     OW16501   6.653   3.856   5.365
 5201SOL    HW116502   6.673   3.786   5.433
 5201SOL    HW216503   6.558   3.885   5.375
 5202SOL     OW16504   3.903   2.431   5.958
 5202SOL    HW116505   3.821   2.455   6.010
 5202SOL    HW216506   3.917   2.332   5.962
 5203SOL     OW16507   0.459   0.662   5.918
 5203SOL    HW116508   0.554   0.644   5.941
 5203SOL    HW216509   0.401   0.592   5.960
 5204SOL     OW16510   2.143   0.258   2.150
 5204SOL    HW116511   2.228   0.241   2.100
 5204SOL    HW216512   2.066   0.224   2.096
 5205SOL     OW16513   6.113   0.070   2.159
 5205SOL    HW116514   6.116   0.115   2.070
 5205SOL    HW216515   6.146   6.994   2.149
 5206SOL     OW16516   0.817   5.173   5.387
 5206SOL    HW116517   0.888   5.108   5.360
 5206SOL    HW216518   0.828   5.257   5.334
 5207SOL     OW16519   4.697   1.757   4.822
 5207SOL    HW116520   4.614   1.738   4.769
 5207SOL    HW216521   4.742   1.671   4.845
 5208SOL     OW16522   6.889   1.767   0.214
 5208SOL    HW116523   6.800   1.747   0.173
 5208SOL    HW216524   6.961   1.728   0.157
 5209SOL     OW16525   5.056   6.018   2.658
 5209SOL    HW116526   4.990   5.945   2.675
 5209SOL    HW216527   5.084   6.016   2.562
 5210SOL     OW16528   6.584   4.258   1.624
 5210SOL    HW116529   6.521   4.197   1.672
 5210SOL    HW216530   6.667   4.269   1.678
 5211SOL     OW16531   4.890   3.093   4.478
 5211SOL    HW116532   4.837   3.061   4.399
 5211SOL    HW216533   4.976   3.133   4.446
 5212SOL     OW16534   6.783   3.663   6.790
 5212SOL    HW116535   6.703   3.622   6.834
 5212SOL    HW216536   6.806   3.748   6.837
 5213SOL     OW16537   3.524   3.138   4.397
 5213SOL    HW116538   3.616   3.171   4.379
 5213SOL    HW216539   3.511   3.049   4.353
 5214SOL     OW16540   6.095   2.745   5.354
 5214SOL    HW116541   6.186   2.785   5.345
 5214SOL    HW216542   6.096   2.679   5.429
 5215SOL     OW16543   0.892   4.800   5.171
 5215SOL    HW116544   0.969   4.757   5.218
 5215SOL    HW216545   0.877   4.753   5.083
 5216SOL     OW16546   0.027   4.156   0.266
 5216SOL    HW116547   6.982   4.097   0.217
 5216SOL    HW216548   6.994   4.225   0.317
 5217SOL     OW16549   3.142   0.808   2.223
 5217SOL    HW116550   3.234   0.814   2.262
 5217SOL    HW216551   3.079   0.861   2.280
 5218SOL     OW16552   6.123   0.087   0.891
 5218SOL    HW116553   6.072   0.168   0.861
 5218SOL    HW216554   6.097   0.064   0.985
 5219SOL     OW16555   4.078   1.869   4.787
 5219SOL    HW116556   4.118   1.944   4.734
 5219SOL    HW216557   4.150   1.823   4.839
 5220SOL     OW16558   2.073   4.396   4.418
 5220SOL    HW116559   1.977   4.392   4.446
 5220SOL    HW216560   2.102   4.306   4.388
 5221SOL     OW16561   4.064   6.369   0.590
 5221SOL    HW116562   4.013   6.450   0.617
 5221SOL    HW216563   4.147   6.362   0.646
 5222SOL     OW16564   5.549   2.808   2.274
 5222SOL    HW116565   5.598   2.761   2.348
 5222SOL    HW216566   5.458   2.768   2.263
 5223SOL     OW16567   6.939   2.080   0.853
 5223SOL    HW116568   0.015   2.075   0.821
 5223SOL    HW216569   6.877   2.079   0.774
 5224SOL     OW16570   1.838   1.640   4.565
 5224SOL    HW116571   1.760   1.669   4.620
 5224SOL    HW216572   1.922   1.678   4.604
 5225SOL     OW16573   6.795   2.616   5.993
 5225SOL    HW116574   6.786   2.627   6.092
 5225SOL    HW216575   6.740   2.538   5.963
 5226SOL     OW16576   0.204   0.055   4.226
 5226SOL    HW116577   0.127   0.060   4.290
 5226SOL    HW216578   0.180   0.104   4.142
 5227SOL     OW16579   2.514   2.567   6.502
 5227SOL    HW116580   2.425   2.609   6.487
 5227SOL    HW216581   2.525   2.489   6.440
 5228SOL     OW16582   0.704   1.985   5.765
 5228SOL    HW116583   0.790   2.031   5.741
 5228SOL    HW216584   0.635   2.005   5.696
 5229SOL     OW16585   3.787   1.374   0.998
 5229SOL    HW116586   3.787   1.276   0.980
 5229SOL    HW216587   3.715   1.395   1.065
 5230SOL     OW16588   6.077   0.773   2.271
 5230SOL    HW116589   6.025   0.713   2.333
 5230SOL    HW216590   6.023   0.854   2.250
 5231SOL     OW16591   0.041   3.976   1.977
 5231SOL    HW116592   0.027   4.037   2.055
 5231SOL    HW216593   0.012   3.884   2.002
 5232SOL     OW16594   1.667   1.794   6.374
 5232SOL    HW116595   1.729   1.847   6.432
 5232SOL    HW216596   1.628   1.854   6.304
 5233SOL     OW16597   2.017   6.595   3.497
 5233SOL    HW116598   2.050   6.576   3.590
 5233SOL    HW216599   2.022   6.694   3.479
 5234SOL     OW16600   3.780   2.330   6.354
 5234SOL    HW116601   3.701   2.333   6.415
 5234SOL    HW216602   3.753   2.363   6.263
 5235SOL     OW16603   2.597   3.059   1.573
 5235SOL    HW116604   2.630   3.036   1.481
 5235SOL    HW216605   2.676   3.082   1.631
 5236SOL     OW16606   3.115   5.128   1.897
 5236SOL    HW116607   3.163   5.087   1.975
 5236SOL    HW216608   3.064   5.057   1.848
 5237SOL     OW16609   1.671   1.233   1.488
 5237SOL    HW116610   1.604   1.236   1.561
 5237SOL    HW216611   1.640   1.290   1.412
 5238SOL     OW16612   6.250   1.201   3.512
 5238SOL    HW116613   6.164   1.149   3.516
 5238SOL    HW216614   6.235   1.294   3.546
 5239SOL     OW16615   2.771   4.016   0.042
 5239SOL    HW116616   2.713   4.055   6.989
 5239SOL    HW216617   2.766   3.916   0.037
 5240SOL     OW16618   1.167   3.907   4.964
 5240SOL    HW116619   1.199   3.981   4.905
 5240SOL    HW216620   1.142   3.944   5.054
 5241SOL     OW16621   2.606   5.001   3.244
 5241SOL    HW116622   2.578   4.957   3.159
 5241SOL    HW216623   2.526   5.039   3.290
 5242SOL     OW16624   4.121   6.324   5.856
 5242SOL    HW116625   4.146   6.392   5.787
 5242SOL    HW216626   4.147   6.233   5.823
 5243SOL     OW16627   2.146   5.550   3.824
 5243SOL    HW116628   2.186   5.488   3.757
 5243SOL    HW216629   2.210   5.561   3.901
 5244SOL     OW16630   5.301   0.144   6.998
 5244SOL    HW116631   5.292   0.107   0.072
 5244SOL    HW216632   5.257   0.082   6.933
 5245SOL     OW16633   3.241   3.548   1.314
 5245SOL    HW116634   3.197   3.492   1.384
 5245SOL    HW216635   3.299   3.617   1.356
 5246SOL     OW16636   6.413   2.273   5.791
 5246SOL    HW116637   6.360   2.206   5.842
 5246SOL    HW216638   6.469   2.326   5.854
 5247SOL     OW16639   4.958   1.245   5.327
 5247SOL    HW116640   5.023   1.299   5.274
 5247SOL    HW216641   4.935   1.161   5.278
 5248SOL     OW16642   4.086   0.791   2.387
 5248SOL    HW116643   4.041   0.736   2.457
 5248SOL    HW216644   4.023   0.860   2.353
 5249SOL     OW16645   0.330   5.858   2.188
 5249SOL    HW116646   0.411   5.868   2.131
 5249SOL    HW216647   0.248   5.859   2.132
 5250SOL     OW16648   1.474   5.279   0.111
 5250SOL    HW116649   1.471   5.197   0.169
 5250SOL    HW216650   1.565   5.287   0.070
 5251SOL     OW16651   1.833   4.239   6.166
 5251SOL    HW116652   1.767   4.165   6.153
 5251SOL    HW216653   1.846   4.287   6.079
 5252SOL     OW16654   4.019   6.043   3.573
 5252SOL    HW116655   4.115   6.042   3.599
 5252SOL    HW216656   3.999   5.963   3.516
 5253SOL     OW16657   0.431   6.294   5.023
 5253SOL    HW116658   0.518   6.339   5.042
 5253SOL    HW216659   0.437   6.246   4.936
 5254SOL     OW16660   4.687   6.301   1.786
 5254SOL    HW116661   4.615   6.237   1.811
 5254SOL    HW216662   4.726   6.275   1.698
 5255SOL     OW16663   0.304   1.376   6.405
 5255SOL    HW116664   0.247   1.457   6.402
 5255SOL    HW216665   0.398   1.400   6.378
 5256SOL     OW16666   4.593   1.937   2.721
 5256SOL    HW116667   4.654   1.954   2.644
 5256SOL    HW216668   4.591   1.839   2.741
 5257SOL     OW16669   6.013   0.823   0.152
 5257SOL    HW116670   5.969   0.804   0.064
 5257SOL    HW216671   5.985   0.913   0.185
 5258SOL     OW16672   5.947   1.968   5.022
 5258SOL    HW116673   5.952   1.900   4.949
 5258SOL    HW216674   5.865   1.951   5.077
 5259SOL     OW16675   4.135   6.420   4.595
 5259SOL    HW116676   4.172   6.414   4.502
 5259SOL    HW216677   4.044   6.460   4.592
 5260SOL     OW16678   1.063   6.632   2.088
 5260SOL    HW116679   1.120   6.699   2.039
 5260SOL    HW216680   1.053   6.550   2.031
 5261SOL     OW16681   6.336   4.445   6.709
 5261SOL    HW116682   6.318   4.368   6.770
 5261SOL    HW216683   6.424   4.432   6.664
 5262SOL     OW16684   2.017   2.365   2.000
 5262SOL    HW116685   1.963   2.389   1.921
 5262SOL    HW216686   1.971   2.292   2.052
 5263SOL     OW16687   0.259   6.117   2.290
 5263SOL    HW116688   0.299   6.164   2.212
 5263SOL    HW216689   0.301   6.026   2.299
 5264SOL     OW16690   6.205   2.529   2.423
 5264SOL    HW116691   6.197   2.444   2.371
 5264SOL    HW216692   6.291   2.575   2.399
 5265SOL     OW16693   1.212   6.038   6.036
 5265SOL    HW116694   1.240   6.056   6.131
 5265SOL    HW216695   1.181   5.944   6.028
 5266SOL     OW16696   0.645   0.199   6.737
 5266SOL    HW116697   0.718   0.248   6.688
 5266SOL    HW216698   0.558   0.214   6.691
 5267SOL     OW16699   6.375   1.782   4.592
 5267SOL    HW116700   6.346   1.877   4.587
 5267SOL    HW216701   6.399   1.749   4.500
 5268SOL     OW16702   5.184   0.530   6.023
 5268SOL    HW116703   5.248   0.566   6.091
 5268SOL    HW216704   5.096   0.577   6.033
 5269SOL     OW16705   1.183   0.314   4.236
 5269SOL    HW116706   1.128   0.393   4.210
 5269SOL    HW216707   1.280   0.336   4.225
 5270SOL     OW16708   1.865   1.940   6.780
 5270SOL    HW116709   1.901   1.850   6.802
 5270SOL    HW216710   1.934   2.010   6.800
 5271SOL     OW16711   1.718   6.315   6.565
 5271SOL    HW116712   1.783   6.387   6.590
 5271SOL    HW216713   1.676   6.278   6.647
 5272SOL     OW16714   4.217   0.011   6.137
 5272SOL    HW116715   4.272   6.966   6.191
 5272SOL    HW216716   4.254   0.017   6.045
 5273SOL     OW16717   1.958   1.742   3.495
 5273SOL    HW116718   1.918   1.786   3.414
 5273SOL    HW216719   2.006   1.811   3.550
 5274SOL     OW16720   6.308   4.926   0.802
 5274SOL    HW116721   6.272   4.843   0.844
 5274SOL    HW216722   6.345   4.986   0.872
 5275SOL     OW16723   5.545   0.443   6.894
 5275SOL    HW116724   5.445   0.436   6.904
 5275SOL    HW216725   5.586   0.352   6.904
 5276SOL     OW16726   2.984   6.225   1.286
 5276SOL    HW116727   2.891   6.190   1.274
 5276SOL    HW216728   3.009   6.282   1.208
 5277SOL     OW16729   1.506   3.444   1.315
 5277SOL    HW116730   1.575   3.486   1.255
 5277SOL    HW216731   1.432   3.509   1.331
 5278SOL     OW16732   3.842   4.014   4.553
 5278SOL    HW116733   3.894   3.968   4.481
 5278SOL    HW216734   3.754   4.045   4.517
 5279SOL     OW16735   1.556   0.045   2.985
 5279SOL    HW116736   1.500   0.127   2.997
 5279SOL    HW216737   1.518   7.008   2.911
 5280SOL     OW16738   3.573   0.421   3.827
 5280SOL    HW116739   3.612   0.447   3.915
 5280SOL    HW216740   3.646   0.402   3.761
 5281SOL     OW16741   6.907   2.810   3.433
 5281SOL    HW116742   6.845   2.884   3.407
 5281SOL    HW216743   6.932   2.757   3.352
 5282SOL     OW16744   5.023   2.465   1.230
 5282SOL    HW116745   5.050   2.434   1.322
 5282SOL    HW216746   4.924   2.475   1.226
 5283SOL     OW16747   4.977   5.117   5.041
 5283SOL    HW116748   4.957   5.156   4.951
 5283SOL    HW216749   4.978   5.190   5.110
 5284SOL     OW16750   5.431   2.500   4.161
 5284SOL    HW116751   5.522   2.510   4.203
 5284SOL    HW216752   5.442   2.487   4.062
 5285SOL     OW16753   4.374   5.357   2.531
 5285SOL    HW116754   4.293   5.343   2.587
 5285SOL    HW216755   4.352   5.419   2.455
 5286SOL     OW16756   1.520   4.923   2.287
 5286SOL    HW116757   1.559   5.009   2.319
 5286SOL    HW216758   1.556   4.848   2.343
 5287SOL     OW16759   0.362   0.707   3.139
 5287SOL    HW116760   0.433   0.727   3.207
 5287SOL    HW216761   0.356   0.782   3.074
 5288SOL     OW16762   3.921   0.508   0.797
 5288SOL    HW116763   3.931   0.412   0.822
 5288SOL    HW216764   3.836   0.544   0.834
 5289SOL     OW16765   1.851   6.878   1.640
 5289SOL    HW116766   1.798   6.832   1.569
 5289SOL    HW216767   1.872   6.971   1.611
 5290SOL     OW16768   5.228   6.980   6.717
 5290SOL    HW116769   5.150   6.916   6.710
 5290SOL    HW216770   5.232   0.018   6.635
 5291SOL     OW16771   1.331   5.626   6.991
 5291SOL    HW116772   1.320   5.591   0.066
 5291SOL    HW216773   1.427   5.616   6.963
 5292SOL     OW16774   5.431   1.343   1.750
 5292SOL    HW116775   5.431   1.252   1.791
 5292SOL    HW216776   5.337   1.380   1.750
 5293SOL     OW16777   2.159   1.703   4.370
 5293SOL    HW116778   2.196   1.796   4.371
 5293SOL    HW216779   2.231   1.639   4.345
 5294SOL     OW16780   3.607   1.789   6.911
 5294SOL    HW116781   3.548   1.709   6.922
 5294SOL    HW216782   3.568   1.866   6.963
 5295SOL     OW16783   0.053   1.988   3.228
 5295SOL    HW116784   6.973   1.996   3.216
 5295SOL    HW216785   0.095   2.079   3.219
 5296SOL     OW16786   0.347   3.477   6.394
 5296SOL    HW116787   0.352   3.379   6.377
 5296SOL    HW216788   0.374   3.526   6.312
 5297SOL     OW16789   1.197   2.101   2.164
 5297SOL    HW116790   1.167   2.183   2.116
 5297SOL    HW216791   1.141   2.024   2.137
 5298SOL     OW16792   0.748   3.550   2.148
 5298SOL    HW116793   0.774   3.473   2.206
 5298SOL    HW216794   0.648   3.560   2.149
 5299SOL     OW16795   3.888   0.480   0.111
 5299SOL    HW116796   3.929   0.462   0.201
 5299SOL    HW216797   3.823   0.408   0.089
 5300SOL     OW16798   6.572   4.996   4.555
 5300SOL    HW116799   6.505   4.977   4.626
 5300SOL    HW216800   6.535   5.062   4.490
 5301SOL     OW16801   5.437   6.902   6.351
 5301SOL    HW116802   5.396   6.953   6.275
 5301SOL    HW216803   5.524   6.862   6.321
 5302SOL     OW16804   0.122   3.261   2.615
 5302SOL    HW116805   0.025   3.257   2.641
 5302SOL    HW216806   0.168   3.331   2.669
 5303SOL     OW16807   2.245   4.952   2.305
 5303SOL    HW116808   2.289   4.919   2.388
 5303SOL    HW216809   2.292   4.913   2.225
 5304SOL     OW16810   5.200   1.940   6.082
 5304SOL    HW116811   5.140   1.930   6.003
 5304SOL    HW216812   5.181   1.868   6.149
 5305SOL     OW16813   3.923   1.303   4.807
 5305SOL    HW116814   3.918   1.357   4.723
 5305SOL    HW216815   3.895   1.360   4.884
 5306SOL     OW16816   2.659   6.745   3.692
 5306SOL    HW116817   2.583   6.807   3.671
 5306SOL    HW216818   2.743   6.780   3.650
 5307SOL     OW16819   5.031   6.296   6.581
 5307SOL    HW116820   5.125   6.316   6.552
 5307SOL    HW216821   4.972   6.372   6.554
 5308SOL     OW16822   6.256   1.675   1.179
 5308SOL    HW116823   6.276   1.769   1.207
 5308SOL    HW216824   6.236   1.620   1.260
 5309SOL     OW16825   3.360   4.417   6.553
 5309SOL    HW116826   3.406   4.339   6.595
 5309SOL    HW216827   3.417   4.452   6.478
 5310SOL     OW16828   5.439   2.404   0.408
 5310SOL    HW116829   5.500   2.447   0.475
 5310SOL    HW216830   5.493   2.343   0.349
 5311SOL     OW16831   6.788   5.467   6.857
 5311SOL    HW116832   6.785   5.507   6.948
 5311SOL    HW216833   6.882   5.447   6.832
 5312SOL     OW16834   0.483   3.941   2.064
 5312SOL    HW116835   0.422   3.994   2.005
 5312SOL    HW216836   0.451   3.846   2.069
 5313SOL     OW16837   0.397   5.981   6.258
 5313SOL    HW116838   0.420   5.892   6.218
 5313SOL    HW216839   0.439   5.988   6.349
 5314SOL     OW16840   4.490   4.395   1.068
 5314SOL    HW116841   4.490   4.371   0.971
 5314SOL    HW216842   4.564   4.346   1.114
 5315SOL     OW16843   5.438   0.847   2.429
 5315SOL    HW116844   5.369   0.857   2.501
 5315SOL    HW216845   5.441   0.752   2.399
 5316SOL     OW16846   4.900   5.281   4.823
 5316SOL    HW116847   4.890   5.258   4.726
 5316SOL    HW216848   4.865   5.373   4.839
 5317SOL     OW16849   0.440   5.277   1.252
 5317SOL    HW116850   0.371   5.228   1.305
 5317SOL    HW216851   0.396   5.325   1.176
 5318SOL     OW16852   6.604   2.714   3.645
 5318SOL    HW116853   6.678   2.697   3.580
 5318SOL    HW216854   6.519   2.674   3.610
 5319SOL     OW16855   2.765   6.138   2.671
 5319SOL    HW116856   2.817   6.075   2.728
 5319SOL    HW216857   2.688   6.090   2.630
 5320SOL     OW16858   6.584   1.989   6.842
 5320SOL    HW116859   6.510   2.053   6.861
 5320SOL    HW216860   6.668   2.040   6.821
 5321SOL     OW16861   2.903   5.206   6.981
 5321SOL    HW116862   2.863   5.228   0.052
 5321SOL    HW216863   2.890   5.109   6.963
 5322SOL     OW16864   3.238   6.320   0.001
 5322SOL    HW116865   3.201   6.246   0.058
 5322SOL    HW216866   3.333   6.298   6.995
 5323SOL     OW16867   6.972   3.305   0.185
 5323SOL    HW116868   6.912   3.262   0.253
 5323SOL    HW216869   0.041   3.329   0.228
 5324SOL     OW16870   3.825   3.435   2.328
 5324SOL    HW116871   3.862   3.525   2.305
 5324SOL    HW216872   3.817   3.426   2.427
 5325SOL     OW16873   2.750   6.914   5.686
 5325SOL    HW116874   2.715   6.849   5.754
 5325SOL    HW216875   2.750   7.006   5.726
 5326SOL     OW16876   6.225   1.188   4.383
 5326SOL    HW116877   6.147   1.130   4.360
 5326SOL    HW216878   6.275   1.147   4.459
 5327SOL     OW16879   6.520   6.824   4.272
 5327SOL    HW116880   6.619   6.835   4.276
 5327SOL    HW216881   6.481   6.844   4.362
 5328SOL     OW16882   2.390   5.050   5.827
 5328SOL    HW116883   2.385   5.089   5.735
 5328SOL    HW216884   2.418   4.954   5.821
 5329SOL     OW16885   0.620   6.783   6.147
 5329SOL    HW116886   0.680   6.749   6.219
 5329SOL    HW216887   0.667   6.779   6.059
 5330SOL     OW16888   4.860   4.052   0.198
 5330SOL    HW116889   4.866   4.152   0.203
 5330SOL    HW216890   4.884   4.023   0.105
 5331SOL     OW16891   6.251   0.710   6.996
 5331SOL    HW116892   6.182   0.750   0.037
 5331SOL    HW216893   6.216   0.703   6.903
 5332SOL     OW16894   0.312   3.197   0.030
 5332SOL    HW116895   0.398   3.172   0.074
 5332SOL    HW216896   0.321   3.288   7.007
 5333SOL     OW16897   0.405   6.764   4.494
 5333SOL    HW116898   0.480   6.721   4.444
 5333SOL    HW216899   0.442   6.814   4.572
 5334SOL     OW16900   2.997   5.939   0.988
 5334SOL    HW116901   2.918   5.890   0.950
 5334SOL    HW216902   2.991   6.036   0.964
 5335SOL     OW16903   6.640   5.381   1.947
 5335SOL    HW116904   6.667   5.299   1.998
 5335SOL    HW216905   6.720   5.441   1.936
 5336SOL     OW16906   1.306   3.050   5.153
 5336SOL    HW116907   1.253   3.135   5.157
 5336SOL    HW216908   1.402   3.070   5.173
 5337SOL     OW16909   6.458   2.585   0.894
 5337SOL    HW116910   6.532   2.607   0.957
 5337SOL    HW216911   6.376   2.559   0.945
 5338SOL     OW16912   6.592   2.503   1.656
 5338SOL    HW116913   6.601   2.529   1.559
 5338SOL    HW216914   6.520   2.558   1.698
 5339SOL     OW16915   4.915   3.932   2.181
 5339SOL    HW116916   4.972   3.952   2.261
 5339SOL    HW216917   4.873   4.016   2.148
 5340SOL     OW16918   5.612   3.717   1.021
 5340SOL    HW116919   5.573   3.776   0.950
 5340SOL    HW216920   5.561   3.730   1.106
 5341SOL     OW16921   4.891   5.291   3.225
 5341SOL    HW116922   4.836   5.211   3.198
 5341SOL    HW216923   4.854   5.330   3.308
 5342SOL     OW16924   5.693   5.252   4.543
 5342SOL    HW116925   5.674   5.323   4.611
 5342SOL    HW216926   5.709   5.294   4.454
 5343SOL     OW16927   3.629   3.616   0.233
 5343SOL    HW116928   3.585   3.585   0.149
 5343SOL    HW216929   3.722   3.580   0.238
 5344SOL     OW16930   6.530   1.718   6.776
 5344SOL    HW116931   6.579   1.803   6.798
 5344SOL    HW216932   6.433   1.730   6.794
 5345SOL     OW16933   3.464   0.844   6.372
 5345SOL    HW116934   3.372   0.825   6.339
 5345SOL    HW216935   3.460   0.881   6.464
 5346SOL     OW16936   2.461   5.670   3.174
 5346SOL    HW116937   2.388   5.733   3.199
 5346SOL    HW216938   2.423   5.578   3.164
 5347SOL     OW16939   5.638   2.433   5.335
 5347SOL    HW116940   5.577   2.506   5.306
 5347SOL    HW216941   5.688   2.461   5.417
 5348SOL     OW16942   5.356   2.951   5.262
 5348SOL    HW116943   5.291   2.934   5.337
 5348SOL    HW216944   5.449   2.950   5.298
 5349SOL     OW16945   1.272   4.126   0.313
 5349SOL    HW116946   1.191   4.160   0.265
 5349SOL    HW216947   1.354   4.168   0.275
 5350SOL     OW16948   1.392   0.369   6.515
 5350SOL    HW116949   1.361   0.421   6.595
 5350SOL    HW216950   1.451   0.295   6.545
 5351SOL     OW16951   0.621   5.983   3.184
 5351SOL    HW116952   0.650   5.999   3.278
 5351SOL    HW216953   0.695   5.940   3.133
 5352SOL     OW16954   0.257   2.276   6.146
 5352SOL    HW116955   0.299   2.236   6.065
 5352SOL    HW216956   0.224   2.203   6.206
 5353SOL     OW16957   1.952   6.435   2.840
 5353SOL    HW116958   1.935   6.440   2.938
 5353SOL    HW216959   1.892   6.499   2.792
 5354SOL     OW16960   2.501   6.154   1.490
 5354SOL    HW116961   2.551   6.217   1.549
 5354SOL    HW216962   2.566   6.101   1.435
 5355SOL     OW16963   4.662   3.961   5.549
 5355SOL    HW116964   4.707   3.920   5.628
 5355SOL    HW216965   4.665   3.897   5.472
 5356SOL     OW16966   0.011   6.766   1.683
 5356SOL    HW116967   6.973   6.736   1.760
 5356SOL    HW216968   0.105   6.778   1.713
 5357SOL     OW16969   6.423   3.333   2.345
 5357SOL    HW116970   6.426   3.310   2.248
 5357SOL    HW216971   6.335   3.377   2.366
 5358SOL     OW16972   5.328   6.851   5.972
 5358SOL    HW116973   5.282   6.772   6.011
 5358SOL    HW216974   5.328   6.844   5.872
 5359SOL     OW16975   3.211   1.889   6.720
 5359SOL    HW116976   3.135   1.845   6.671
 5359SOL    HW216977   3.222   1.844   6.809
 5360SOL     OW16978   5.421   5.904   3.186
 5360SOL    HW116979   5.516   5.873   3.172
 5360SOL    HW216980   5.370   5.835   3.236
 5361SOL     OW16981   1.357   4.458   2.386
 5361SOL    HW116982   1.398   4.493   2.302
 5361SOL    HW216983   1.308   4.373   2.367
 5362SOL     OW16984   5.618   1.585   4.091
 5362SOL    HW116985   5.631   1.578   4.190
 5362SOL    HW216986   5.676   1.517   4.046
 5363SOL     OW16987   6.122   4.482   6.066
 5363SOL    HW116988   6.195   4.431   6.021
 5363SOL    HW216989   6.138   4.483   6.165
 5364SOL     OW16990   5.121   2.735   1.608
 5364SOL    HW116991   5.148   2.659   1.667
 5364SOL    HW216992   5.084   2.809   1.665
 5365SOL     OW16993   3.423   3.463   5.967
 5365SOL    HW116994   3.380   3.459   6.057
 5365SOL    HW216995   3.514   3.422   5.972
 5366SOL     OW16996   6.881   4.259   3.846
 5366SOL    HW116997   6.878   4.349   3.889
 5366SOL    HW216998   6.942   4.263   3.766
 5367SOL     OW16999   6.031   5.491   0.804
 5367SOL    HW117000   6.090   5.547   0.862
 5367SOL    HW217001   5.990   5.417   0.857
 5368SOL     OW17002   0.263   5.514   5.108
 5368SOL    HW117003   0.204   5.578   5.059
 5368SOL    HW217004   0.233   5.420   5.091
 5369SOL     OW17005   3.545   0.425   2.393
 5369SOL    HW117006   3.546   0.519   2.426
 5369SOL    HW217007   3.617   0.413   2.324
 5370SOL     OW17008   2.309   2.271   0.247
 5370SOL    HW117009   2.335   2.293   0.154
 5370SOL    HW217010   2.288   2.173   0.254
 5371SOL     OW17011   6.365   5.183   3.523
 5371SOL    HW117012   6.459   5.209   3.503
 5371SOL    HW217013   6.350   5.088   3.494
 5372SOL     OW17014   0.686   1.178   4.283
 5372SOL    HW117015   0.588   1.161   4.294
 5372SOL    HW217016   0.702   1.230   4.200
 5373SOL     OW17017   3.980   0.125   0.793
 5373SOL    HW117018   4.034   0.042   0.801
 5373SOL    HW217019   3.930   0.123   0.706
 5374SOL     OW17020   1.722   3.543   1.161
 5374SOL    HW117021   1.758   3.586   1.078
 5374SOL    HW217022   1.792   3.546   1.233
 5375SOL     OW17023   3.190   4.868   4.965
 5375SOL    HW117024   3.120   4.830   5.026
 5375SOL    HW217025   3.148   4.900   4.880
 5376SOL     OW17026   6.964   6.709   2.324
 5376SOL    HW117027   6.871   6.682   2.296
 5376SOL    HW217028   7.007   6.760   2.251
 5377SOL     OW17029   0.759   2.748   1.172
 5377SOL    HW117030   0.757   2.775   1.075
 5377SOL    HW217031   0.685   2.795   1.221
 5378SOL     OW17032   4.473   0.254   4.515
 5378SOL    HW117033   4.373   0.245   4.519
 5378SOL    HW217034   4.498   0.349   4.534
 5379SOL     OW17035   3.408   2.039   4.530
 5379SOL    HW117036   3.478   1.975   4.499
 5379SOL    HW217037   3.422   2.059   4.627
 5380SOL     OW17038   4.669   6.892   1.532
 5380SOL    HW117039   4.708   6.969   1.583
 5380SOL    HW217040   4.713   6.808   1.562
 5381SOL     OW17041   2.555   1.993   2.727
 5381SOL    HW117042   2.519   2.079   2.761
 5381SOL    HW217043   2.573   2.001   2.629
 5382SOL     OW17044   4.158   0.042   2.883
 5382SOL    HW117045   4.182   6.999   2.958
 5382SOL    HW217046   4.062   0.031   2.860
 5383SOL     OW17047   2.175   4.261   5.325
 5383SOL    HW117048   2.172   4.276   5.226
 5383SOL    HW217049   2.132   4.174   5.347
 5384SOL     OW17050   5.502   6.343   5.859
 5384SOL    HW117051   5.548   6.431   5.861
 5384SOL    HW217052   5.486   6.311   5.953
 5385SOL     OW17053   3.555   4.059   0.804
 5385SOL    HW117054   3.637   4.117   0.798
 5385SOL    HW217055   3.485   4.106   0.858
 5386SOL     OW17056   3.876   5.224   2.435
 5386SOL    HW117057   3.845   5.200   2.527
 5386SOL    HW217058   3.960   5.174   2.415
 5387SOL     OW17059   0.885   2.450   5.216
 5387SOL    HW117060   0.830   2.385   5.269
 5387SOL    HW217061   0.838   2.472   5.131
 5388SOL     OW17062   6.762   6.512   3.358
 5388SOL    HW117063   6.827   6.584   3.381
 5388SOL    HW217064   6.697   6.501   3.432
 5389SOL     OW17065   6.661   1.813   4.694
 5389SOL    HW117066   6.710   1.727   4.683
 5389SOL    HW217067   6.582   1.814   4.632
 5390SOL     OW17068   5.528   2.686   3.300
 5390SOL    HW117069   5.493   2.740   3.224
 5390SOL    HW217070   5.473   2.604   3.312
 5391SOL     OW17071   4.540   3.463   1.024
 5391SOL    HW117072   4.585   3.388   1.072
 5391SOL    HW217073   4.609   3.515   0.972
 5392SOL     OW17074   5.281   1.118   3.848
 5392SOL    HW117075   5.328   1.187   3.902
 5392SOL    HW217076   5.193   1.154   3.816
 5393SOL     OW17077   4.829   3.018   2.674
 5393SOL    HW117078   4.928   3.015   2.659
 5393SOL    HW217079   4.788   3.089   2.617
 5394SOL     OW17080   0.522   3.006   3.465
 5394SOL    HW117081   0.519   3.022   3.564
 5394SOL    HW217082   0.612   2.970   3.439
 5395SOL     OW17083   0.740   0.665   1.542
 5395SOL    HW117084   0.670   0.669   1.613
 5395SOL    HW217085   0.699   0.692   1.454
 5396SOL     OW17086   3.732   1.995   0.124
 5396SOL    HW117087   3.659   2.003   0.057
 5396SOL    HW217088   3.739   1.900   0.156
 5397SOL     OW17089   0.694   6.786   3.039
 5397SOL    HW117090   0.758   6.743   3.104
 5397SOL    HW217091   0.730   6.876   3.013
 5398SOL     OW17092   5.693   2.613   3.515
 5398SOL    HW117093   5.658   2.655   3.431
 5398SOL    HW217094   5.793   2.616   3.514
 5399SOL     OW17095   2.707   2.438   7.013
 5399SOL    HW117096   2.680   2.342   7.014
 5399SOL    HW217097   2.720   2.470   0.089
 5400SOL     OW17098   4.595   3.248   1.198
 5400SOL    HW117099   4.536   3.170   1.220
 5400SOL    HW217100   4.689   3.229   1.229
 5401SOL     OW17101   4.941   4.149   1.695
 5401SOL    HW117102   4.942   4.242   1.732
 5401SOL    HW217103   4.944   4.153   1.595
 5402SOL     OW17104   2.094   5.435   1.425
 5402SOL    HW117105   2.181   5.389   1.407
 5402SOL    HW217106   2.020   5.368   1.424
 5403SOL     OW17107   6.364   2.670   4.827
 5403SOL    HW117108   6.336   2.730   4.752
 5403SOL    HW217109   6.434   2.606   4.793
 5404SOL     OW17110   4.567   6.403   0.073
 5404SOL    HW117111   4.574   6.488   0.125
 5404SOL    HW217112   4.507   6.339   0.121
 5405SOL     OW17113   5.946   5.363   6.107
 5405SOL    HW117114   5.859   5.408   6.127
 5405SOL    HW217115   5.936   5.308   6.024
 5406SOL     OW17116   2.323   1.446   5.360
 5406SOL    HW117117   2.280   1.519   5.308
 5406SOL    HW217118   2.420   1.441   5.337
 5407SOL     OW17119   1.716   1.911   2.326
 5407SOL    HW117120   1.653   1.988   2.315
 5407SOL    HW217121   1.689   1.837   2.265
 5408SOL     OW17122   2.365   2.561   4.309
 5408SOL    HW117123   2.409   2.561   4.219
 5408SOL    HW217124   2.266   2.571   4.298
 5409SOL     OW17125   0.138   4.754   3.717
 5409SOL    HW117126   0.190   4.796   3.792
 5409SOL    HW217127   0.154   4.805   3.633
 5410SOL     OW17128   6.150   1.227   0.162
 5410SOL    HW117129   6.237   1.195   0.125
 5410SOL    HW217130   6.103   1.150   0.207
 5411SOL     OW17131   2.849   6.304   2.051
 5411SOL    HW117132   2.816   6.399   2.053
 5411SOL    HW217133   2.949   6.303   2.057
 5412SOL     OW17134   2.283   2.462   5.774
 5412SOL    HW117135   2.347   2.389   5.751
 5412SOL    HW217136   2.285   2.478   5.873
 5413SOL     OW17137   6.801   5.312   5.485
 5413SOL    HW117138   6.886   5.308   5.538
 5413SOL    HW217139   6.817   5.361   5.400
 5414SOL     OW17140   6.041   5.812   5.681
 5414SOL    HW117141   6.117   5.801   5.617
 5414SOL    HW217142   6.062   5.763   5.766
 5415SOL     OW17143   2.451   0.406   0.290
 5415SOL    HW117144   2.464   0.489   0.235
 5415SOL    HW217145   2.426   0.432   0.383
 5416SOL     OW17146   4.238   4.909   5.925
 5416SOL    HW117147   4.163   4.848   5.949
 5416SOL    HW217148   4.324   4.874   5.963
 5417SOL     OW17149   5.300   0.471   2.306
 5417SOL    HW117150   5.285   0.375   2.283
 5417SOL    HW217151   5.364   0.512   2.240
 5418SOL     OW17152   0.094   2.492   6.084
 5418SOL    HW117153   0.038   2.508   6.164
 5418SOL    HW217154   0.148   2.409   6.097
 5419SOL     OW17155   4.221   2.434   5.775
 5419SOL    HW117156   4.180   2.519   5.805
 5419SOL    HW217157   4.152   2.362   5.773
 5420SOL     OW17158   1.614   1.856   1.573
 5420SOL    HW117159   1.669   1.870   1.491
 5420SOL    HW217160   1.522   1.825   1.548
 5421SOL     OW17161   3.966   5.553   0.991
 5421SOL    HW117162   3.999   5.639   1.029
 5421SOL    HW217163   4.039   5.484   0.992
 5422SOL     OW17164   2.358   6.448   3.147
 5422SOL    HW117165   2.410   6.383   3.202
 5422SOL    HW217166   2.271   6.467   3.192
 5423SOL     OW17167   4.292   6.566   2.582
 5423SOL    HW117168   4.383   6.565   2.623
 5423SOL    HW217169   4.224   6.589   2.652
 5424SOL     OW17170   4.159   3.452   6.080
 5424SOL    HW117171   4.192   3.387   6.149
 5424SOL    HW217172   4.080   3.413   6.033
 5425SOL     OW17173   1.932   5.490   4.400
 5425SOL    HW117174   2.009   5.445   4.444
 5425SOL    HW217175   1.897   5.433   4.326
 5426SOL     OW17176   2.005   4.066   6.802
 5426SOL    HW117177   2.026   4.152   6.756
 5426SOL    HW217178   1.967   4.002   6.736
 5427SOL     OW17179   4.753   1.264   6.972
 5427SOL    HW117180   4.843   1.259   7.015
 5427SOL    HW217181   4.683   1.237   0.020
 5428SOL     OW17182   5.054   5.441   2.416
 5428SOL    HW117183   5.009   5.458   2.504
 5428SOL    HW217184   5.120   5.515   2.398
 5429SOL     OW17185   2.921   5.919   3.282
 5429SOL    HW117186   2.847   5.882   3.226
 5429SOL    HW217187   2.998   5.944   3.223
 5430SOL     OW17188   0.743   3.666   5.381
 5430SOL    HW117189   0.663   3.654   5.322
 5430SOL    HW217190   0.813   3.717   5.331
 5431SOL     OW17191   5.441   4.381   1.075
 5431SOL    HW117192   5.389   4.440   1.014
 5431SOL    HW217193   5.478   4.303   1.024
 5432SOL     OW17194   1.829   5.368   5.748
 5432SOL    HW117195   1.748   5.418   5.719
 5432SOL    HW217196   1.804   5.273   5.768
 5433SOL     OW17197   3.150   0.053   1.921
 5433SOL    HW117198   3.203   0.102   1.851
 5433SOL    HW217199   3.212   0.007   1.984
 5434SOL     OW17200   5.517   6.298   4.109
 5434SOL    HW117201   5.455   6.374   4.088
 5434SOL    HW217202   5.584   6.329   4.177
 5435SOL     OW17203   0.839   2.994   0.310
 5435SOL    HW117204   0.777   2.973   0.386
 5435SOL    HW217205   0.840   2.918   0.245
 5436SOL     OW17206   1.399   4.291   1.130
 5436SOL    HW117207   1.327   4.242   1.179
 5436SOL    HW217208   1.487   4.245   1.143
 5437SOL     OW17209   2.934   6.572   6.008
 5437SOL    HW117210   3.016   6.599   6.058
 5437SOL    HW217211   2.877   6.514   6.067
 5438SOL     OW17212   4.690   6.717   3.732
 5438SOL    HW117213   4.660   6.624   3.755
 5438SOL    HW217214   4.743   6.714   3.647
 5439SOL     OW17215   1.421   3.443   1.861
 5439SOL    HW117216   1.474   3.376   1.808
 5439SOL    HW217217   1.383   3.512   1.799
 5440SOL     OW17218   5.074   6.599   3.176
 5440SOL    HW117219   5.134   6.547   3.115
 5440SOL    HW217220   5.065   6.550   3.262
 5441SOL     OW17221   5.760   0.077   5.049
 5441SOL    HW117222   5.800   0.134   4.977
 5441SOL    HW217223   5.743   7.003   5.013
 5442SOL     OW17224   2.452   5.773   6.829
 5442SOL    HW117225   2.497   5.858   6.857
 5442SOL    HW217226   2.498   5.735   6.750
 5443SOL     OW17227   5.918   1.437   3.137
 5443SOL    HW117228   5.846   1.506   3.124
 5443SOL    HW217229   5.889   1.372   3.207
 5444SOL     OW17230   2.063   1.730   6.454
 5444SOL    HW117231   2.128   1.664   6.415
 5444SOL    HW217232   1.989   1.747   6.389
 5445SOL     OW17233   6.434   6.461   5.289
 5445SOL    HW117234   6.351   6.501   5.250
 5445SOL    HW217235   6.424   6.454   5.388
 5446SOL     OW17236   2.360   4.226   0.047
 5446SOL    HW117237   2.389   4.223   0.143
 5446SOL    HW217238   2.267   4.192   0.039
 5447SOL     OW17239   5.327   2.692   1.965
 5447SOL    HW117240   5.240   2.742   1.964
 5447SOL    HW217241   5.402   2.757   1.976
 5448SOL     OW17242   6.101   5.707   0.982
 5448SOL    HW117243   6.060   5.706   1.074
 5448SOL    HW217244   6.191   5.751   0.987
 5449SOL     OW17245   2.051   6.986   2.458
 5449SOL    HW117246   2.063   0.065   2.436
 5449SOL    HW217247   2.061   6.932   2.375
 5450SOL     OW17248   4.431   4.712   1.896
 5450SOL    HW117249   4.439   4.774   1.818
 5450SOL    HW217250   4.517   4.662   1.908
 5451SOL     OW17251   0.513   5.571   3.373
 5451SOL    HW117252   0.611   5.567   3.356
 5451SOL    HW217253   0.473   5.647   3.321
 5452SOL     OW17254   2.176   3.812   3.447
 5452SOL    HW117255   2.164   3.788   3.351
 5452SOL    HW217256   2.177   3.729   3.503
 5453SOL     OW17257   5.915   5.468   4.659
 5453SOL    HW117258   5.908   5.436   4.564
 5453SOL    HW217259   5.833   5.440   4.709
 5454SOL     OW17260   6.438   3.896   1.909
 5454SOL    HW117261   6.444   3.798   1.924
 5454SOL    HW217262   6.368   3.935   1.969
 5455SOL     OW17263   1.855   2.030   2.963
 5455SOL    HW117264   1.881   2.106   2.904
 5455SOL    HW217265   1.858   1.945   2.911
 5456SOL     OW17266   5.766   3.175   6.933
 5456SOL    HW117267   5.791   3.214   6.845
 5456SOL    HW217268   5.781   3.076   6.930
 5457SOL     OW17269   6.043   0.675   0.730
 5457SOL    HW117270   5.958   0.639   0.769
 5457SOL    HW217271   6.031   0.688   0.631
 5458SOL     OW17272   5.893   4.630   6.067
 5458SOL    HW117273   5.977   4.578   6.054
 5458SOL    HW217274   5.915   4.719   6.108
 5459SOL     OW17275   1.656   3.618   5.610
 5459SOL    HW117276   1.609   3.598   5.524
 5459SOL    HW217277   1.751   3.641   5.592
 5460SOL     OW17278   6.678   1.432   1.155
 5460SOL    HW117279   6.608   1.471   1.095
 5460SOL    HW217280   6.671   1.475   1.246
 5461SOL     OW17281   5.652   0.556   6.054
 5461SOL    HW117282   5.616   0.644   6.085
 5461SOL    HW217283   5.612   0.533   5.965
 5462SOL     OW17284   5.811   4.724   0.464
 5462SOL    HW117285   5.720   4.694   0.492
 5462SOL    HW217286   5.822   4.821   0.486
 5463SOL     OW17287   3.328   4.746   0.152
 5463SOL    HW117288   3.422   4.780   0.153
 5463SOL    HW217289   3.309   4.698   0.238
 5464SOL     OW17290   2.280   5.821   4.198
 5464SOL    HW117291   2.335   5.778   4.270
 5464SOL    HW217292   2.188   5.839   4.234
 5465SOL     OW17293   0.719   1.655   4.692
 5465SOL    HW117294   0.710   1.688   4.787
 5465SOL    HW217295   0.764   1.565   4.692
 5466SOL     OW17296   5.151   1.969   5.022
 5466SOL    HW117297   5.063   2.013   5.041
 5466SOL    HW217298   5.137   1.895   4.956
 5467SOL     OW17299   4.928   4.826   3.177
 5467SOL    HW117300   4.873   4.910   3.174
 5467SOL    HW217301   5.000   4.832   3.108
 5468SOL     OW17302   0.325   2.492   1.502
 5468SOL    HW117303   0.376   2.477   1.417
 5468SOL    HW217304   0.228   2.476   1.487
 5469SOL     OW17305   4.586   0.802   2.967
 5469SOL    HW117306   4.561   0.714   3.007
 5469SOL    HW217307   4.505   0.861   2.962
 5470SOL     OW17308   2.491   4.521   3.369
 5470SOL    HW117309   2.511   4.489   3.277
 5470SOL    HW217310   2.575   4.555   3.411
 5471SOL     OW17311   5.777   0.508   3.982
 5471SOL    HW117312   5.758   0.526   3.885
 5471SOL    HW217313   5.693   0.519   4.035
 5472SOL     OW17314   2.592   4.452   0.568
 5472SOL    HW117315   2.522   4.492   0.507
 5472SOL    HW217316   2.561   4.363   0.600
 5473SOL     OW17317   2.967   4.810   1.944
 5473SOL    HW117318   2.913   4.741   1.993
 5473SOL    HW217319   3.014   4.767   1.867
 5474SOL     OW17320   0.742   5.702   1.994
 5474SOL    HW117321   0.751   5.734   2.089
 5474SOL    HW217322   0.777   5.609   1.987
 5475SOL     OW17323   0.428   1.085   5.689
 5475SOL    HW117324   0.508   1.033   5.719
 5475SOL    HW217325   0.457   1.157   5.626
 5476SOL     OW17326   3.180   1.051   4.213
 5476SOL    HW117327   3.107   1.119   4.205
 5476SOL    HW217328   3.268   1.095   4.195
 5477SOL     OW17329   1.912   4.279   3.133
 5477SOL    HW117330   1.994   4.231   3.162
 5477SOL    HW217331   1.839   4.266   3.201
 5478SOL     OW17332   6.546   2.990   5.495
 5478SOL    HW117333   6.533   3.073   5.441
 5478SOL    HW217334   6.614   3.008   5.566
 5479SOL     OW17335   5.031   4.103   4.620
 5479SOL    HW117336   4.961   4.032   4.629
 5479SOL    HW217337   5.056   4.137   4.711
 5480SOL     OW17338   2.061   2.413   6.261
 5480SOL    HW117339   2.116   2.337   6.295
 5480SOL    HW217340   2.015   2.386   6.176
 5481SOL     OW17341   3.470   0.692   0.666
 5481SOL    HW117342   3.405   0.707   0.591
 5481SOL    HW217343   3.562   0.713   0.635
 5482SOL     OW17344   5.300   4.552   2.195
 5482SOL    HW117345   5.357   4.574   2.275
 5482SOL    HW217346   5.340   4.594   2.114
 5483SOL     OW17347   5.917   1.579   0.755
 5483SOL    HW117348   5.919   1.637   0.674
 5483SOL    HW217349   6.008   1.577   0.797
 5484SOL     OW17350   6.009   0.278   5.678
 5484SOL    HW117351   6.056   0.349   5.626
 5484SOL    HW217352   6.076   0.214   5.715
 5485SOL     OW17353   2.703   1.507   3.771
 5485SOL    HW117354   2.730   1.487   3.865
 5485SOL    HW217355   2.777   1.555   3.724
 5486SOL     OW17356   0.082   1.036   3.740
 5486SOL    HW117357   0.151   1.067   3.804
 5486SOL    HW217358   7.009   1.054   3.777
 5487SOL     OW17359   4.301   5.874   1.157
 5487SOL    HW117360   4.269   5.856   1.250
 5487SOL    HW217361   4.401   5.881   1.158
 5488SOL     OW17362   4.511   0.315   6.349
 5488SOL    HW117363   4.541   0.328   6.444
 5488SOL    HW217364   4.540   0.225   6.317
 5489SOL     OW17365   6.736   3.617   3.045
 5489SOL    HW117366   6.737   3.557   2.966
 5489SOL    HW217367   6.642   3.634   3.074
 5490SOL     OW17368   2.867   1.515   6.577
 5490SOL    HW117369   2.956   1.485   6.543
 5490SOL    HW217370   2.807   1.436   6.590
 5491SOL     OW17371   6.042   6.641   1.707
 5491SOL    HW117372   6.061   6.558   1.759
 5491SOL    HW217373   6.113   6.708   1.723
 5492SOL     OW17374   1.673   1.421   5.155
 5492SOL    HW117375   1.747   1.418   5.222
 5492SOL    HW217376   1.673   1.336   5.102
 5493SOL     OW17377   3.980   1.327   7.005
 5493SOL    HW117378   3.975   1.426   6.993
 5493SOL    HW217379   3.986   1.283   6.915
 5494SOL     OW17380   5.329   3.186   2.006
 5494SOL    HW117381   5.403   3.126   1.978
 5494SOL    HW217382   5.346   3.218   2.099
 5495SOL     OW17383   3.578   3.158   4.976
 5495SOL    HW117384   3.495   3.210   4.999
 5495SOL    HW217385   3.558   3.060   4.981
 5496SOL     OW17386   4.664   5.003   2.197
 5496SOL    HW117387   4.573   4.963   2.183
 5496SOL    HW217388   4.654   5.092   2.242
 5497SOL     OW17389   5.561   6.914   0.114
 5497SOL    HW117390   5.625   6.928   0.039
 5497SOL    HW217391   5.535   7.002   0.154
 5498SOL     OW17392   3.879   0.968   3.964
 5498SOL    HW117393   3.864   1.062   3.994
 5498SOL    HW217394   3.800   0.937   3.911
 5499SOL     OW17395   0.447   0.417   5.188
 5499SOL    HW117396   0.424   0.338   5.244
 5499SOL    HW217397   0.536   0.454   5.216
 5500SOL     OW17398   1.870   6.668   0.769
 5500SOL    HW117399   1.924   6.747   0.799
 5500SOL    HW217400   1.909   6.632   0.684
 5501SOL     OW17401   2.299   1.395   2.165
 5501SOL    HW117402   2.216   1.450   2.152
 5501SOL    HW217403   2.353   1.395   2.081
 5502SOL     OW17404   5.450   4.691   0.994
 5502SOL    HW117405   5.435   4.713   1.090
 5502SOL    HW217406   5.548   4.682   0.977
 5503SOL     OW17407   6.932   0.866   4.020
 5503SOL    HW117408   7.001   0.909   4.079
 5503SOL    HW217409   6.898   0.933   3.955
 5504SOL     OW17410   2.439   2.201   4.986
 5504SOL    HW117411   2.340   2.219   4.989
 5504SOL    HW217412   2.489   2.286   5.003
 5505SOL     OW17413   3.573   5.166   0.492
 5505SOL    HW117414   3.502   5.195   0.429
 5505SOL    HW217415   3.596   5.070   0.475
 5506SOL     OW17416   1.140   6.689   5.062
 5506SOL    HW117417   1.081   6.752   5.011
 5506SOL    HW217418   1.199   6.742   5.123
 5507SOL     OW17419   2.453   5.326   4.742
 5507SOL    HW117420   2.482   5.269   4.818
 5507SOL    HW217421   2.468   5.278   4.655
 5508SOL     OW17422   2.457   1.203   5.858
 5508SOL    HW117423   2.411   1.235   5.775
 5508SOL    HW217424   2.389   1.188   5.930
 5509SOL     OW17425   6.893   0.192   5.831
 5509SOL    HW117426   6.880   0.174   5.929
 5509SOL    HW217427   6.990   0.187   5.808
 5510SOL     OW17428   1.320   0.437   5.526
 5510SOL    HW117429   1.419   0.452   5.534
 5510SOL    HW217430   1.290   0.375   5.599
 5511SOL     OW17431   0.406   2.258   0.852
 5511SOL    HW117432   0.480   2.224   0.794
 5511SOL    HW217433   0.319   2.226   0.816
 5512SOL     OW17434   6.599   6.491   0.302
 5512SOL    HW117435   6.561   6.580   0.278
 5512SOL    HW217436   6.699   6.493   0.290
 5513SOL     OW17437   2.450   6.146   4.433
 5513SOL    HW117438   2.425   6.050   4.426
 5513SOL    HW217439   2.406   6.198   4.359
 5514SOL     OW17440   5.462   6.029   3.422
 5514SOL    HW117441   5.394   5.975   3.373
 5514SOL    HW217442   5.434   6.125   3.423
 5515SOL     OW17443   0.884   4.133   3.891
 5515SOL    HW117444   0.898   4.226   3.857
 5515SOL    HW217445   0.966   4.078   3.875
 5516SOL     OW17446   1.918   2.916   0.203
 5516SOL    HW117447   1.928   2.996   0.142
 5516SOL    HW217448   1.847   2.936   0.271
 5517SOL     OW17449   3.035   0.615   2.567
 5517SOL    HW117450   2.936   0.606   2.577
 5517SOL    HW217451   3.064   0.574   2.480
 5518SOL     OW17452   5.848   3.685   5.891
 5518SOL    HW117453   5.766   3.630   5.907
 5518SOL    HW217454   5.925   3.626   5.870
 5519SOL     OW17455   5.442   4.099   2.261
 5519SOL    HW117456   5.524   4.152   2.283
 5519SOL    HW217457   5.400   4.066   2.346
 5520SOL     OW17458   1.473   2.957   0.910
 5520SOL    HW117459   1.453   2.932   1.005
 5520SOL    HW217460   1.420   2.899   0.848
 5521SOL     OW17461   5.200   4.580   6.428
 5521SOL    HW117462   5.208   4.486   6.461
 5521SOL    HW217463   5.145   4.581   6.344
 5522SOL     OW17464   1.633   2.932   1.302
 5522SOL    HW117465   1.720   2.895   1.271
 5522SOL    HW217466   1.623   2.916   1.400
 5523SOL     OW17467   2.300   6.521   1.569
 5523SOL    HW117468   2.304   6.482   1.661
 5523SOL    HW217469   2.390   6.557   1.545
 5524SOL     OW17470   6.083   6.583   5.583
 5524SOL    HW117471   6.097   6.569   5.485
 5524SOL    HW217472   6.055   6.678   5.600
 5525SOL     OW17473   6.803   6.358   3.143
 5525SOL    HW117474   6.815   6.425   3.216
 5525SOL    HW217475   6.767   6.273   3.181
 5526SOL     OW17476   5.686   3.655   4.691
 5526SOL    HW117477   5.653   3.717   4.620
 5526SOL    HW217478   5.782   3.632   4.674
 5527SOL     OW17479   3.024   2.996   0.446
 5527SOL    HW117480   3.026   3.068   0.377
 5527SOL    HW217481   3.030   3.038   0.537
 5528SOL     OW17482   6.406   3.145   2.719
 5528SOL    HW117483   6.440   3.112   2.631
 5528SOL    HW217484   6.309   3.170   2.711
 5529SOL     OW17485   1.562   0.653   4.154
 5529SOL    HW117486   1.602   0.621   4.068
 5529SOL    HW217487   1.622   0.722   4.195
 5530SOL     OW17488   0.256   3.412   6.696
 5530SOL    HW117489   0.186   3.465   6.648
 5530SOL    HW217490   0.231   3.315   6.694
 5531SOL     OW17491   2.930   3.016   0.879
 5531SOL    HW117492   2.871   2.955   0.826
 5531SOL    HW217493   3.025   2.983   0.874
 5532SOL     OW17494   2.453   2.487   2.062
 5532SOL    HW117495   2.385   2.460   1.993
 5532SOL    HW217496   2.418   2.566   2.112
 5533SOL     OW17497   3.255   0.407   0.768
 5533SOL    HW117498   3.344   0.376   0.734
 5533SOL    HW217499   3.190   0.331   0.765
 5534SOL     OW17500   0.494   3.219   5.257
 5534SOL    HW117501   0.430   3.274   5.311
 5534SOL    HW217502   0.587   3.241   5.284
 5535SOL     OW17503   4.978   4.781   3.498
 5535SOL    HW117504   5.003   4.867   3.454
 5535SOL    HW217505   5.013   4.704   3.445
 5536SOL     OW17506   2.515   1.569   4.692
 5536SOL    HW117507   2.587   1.575   4.623
 5536SOL    HW217508   2.460   1.487   4.675
 5537SOL     OW17509   3.971   1.526   3.751
 5537SOL    HW117510   3.898   1.529   3.683
 5537SOL    HW217511   3.970   1.437   3.797
 5538SOL     OW17512   4.953   2.399   2.451
 5538SOL    HW117513   4.960   2.497   2.434
 5538SOL    HW217514   4.857   2.371   2.446
 5539SOL     OW17515   1.162   0.838   6.567
 5539SOL    HW117516   1.172   0.895   6.485
 5539SOL    HW217517   1.174   0.742   6.542
 5540SOL     OW17518   4.883   6.821   5.299
 5540SOL    HW117519   4.897   6.865   5.210
 5540SOL    HW217520   4.839   6.732   5.286
 5541SOL     OW17521   4.626   2.958   5.494
 5541SOL    HW117522   4.638   3.040   5.551
 5541SOL    HW217523   4.533   2.923   5.506
 5542SOL     OW17524   4.719   4.297   6.568
 5542SOL    HW117525   4.687   4.235   6.639
 5542SOL    HW217526   4.695   4.262   6.478
 5543SOL     OW17527   0.767   0.440   6.191
 5543SOL    HW117528   0.851   0.386   6.181
 5543SOL    HW217529   0.752   0.492   6.108
 5544SOL     OW17530   3.937   4.861   0.122
 5544SOL    HW117531   3.918   4.948   0.166
 5544SOL    HW217532   4.022   4.823   0.159
 5545SOL     OW17533   5.408   1.695   3.051
 5545SOL    HW117534   5.449   1.759   2.986
 5545SOL    HW217535   5.367   1.618   3.001
 5546SOL     OW17536   0.806   6.339   4.514
 5546SOL    HW117537   0.832   6.431   4.542
 5546SOL    HW217538   0.746   6.298   4.583
 5547SOL     OW17539   4.931   1.506   4.611
 5547SOL    HW117540   5.012   1.562   4.589
 5547SOL    HW217541   4.898   1.529   4.702
 5548SOL     OW17542   1.020   3.722   4.853
 5548SOL    HW117543   1.055   3.692   4.765
 5548SOL    HW217544   1.073   3.801   4.885
 5549SOL     OW17545   4.156   3.210   0.585
 5549SOL    HW117546   4.127   3.155   0.507
 5549SOL    HW217547   4.177   3.303   0.555
 5550SOL     OW17548   3.175   3.597   1.742
 5550SOL    HW117549   3.127   3.685   1.746
 5550SOL    HW217550   3.198   3.568   1.836
 5551SOL     OW17551   1.100   4.623   2.477
 5551SOL    HW117552   1.193   4.589   2.463
 5551SOL    HW217553   1.049   4.557   2.532
 5552SOL     OW17554   0.704   0.676   0.752
 5552SOL    HW117555   0.732   0.692   0.657
 5552SOL    HW217556   0.702   0.577   0.769
 5553SOL     OW17557   5.735   5.626   0.969
 5553SOL    HW117558   5.821   5.603   0.924
 5553SOL    HW217559   5.753   5.645   1.066
 5554SOL     OW17560   6.930   2.513   1.566
 5554SOL    HW117561   6.953   2.611   1.567
 5554SOL    HW217562   7.010   2.459   1.588
 5555SOL     OW17563   1.160   4.666   1.841
 5555SOL    HW117564   1.146   4.654   1.939
 5555SOL    HW217565   1.081   4.630   1.791
 5556SOL     OW17566   6.731   1.885   5.177
 5556SOL    HW117567   6.641   1.860   5.210
 5556SOL    HW217568   6.729   1.897   5.078
 5557SOL     OW17569   3.572   0.040   3.151
 5557SOL    HW117570   3.611   6.966   3.155
 5557SOL    HW217571   3.640   0.106   3.184
 5558SOL     OW17572   3.842   3.591   6.280
 5558SOL    HW117573   3.859   3.686   6.307
 5558SOL    HW217574   3.869   3.578   6.184
 5559SOL     OW17575   3.662   0.667   2.802
 5559SOL    HW117576   3.598   0.735   2.836
 5559SOL    HW217577   3.738   0.656   2.866
 5560SOL     OW17578   6.897   5.481   3.321
 5560SOL    HW117579   6.965   5.553   3.310
 5560SOL    HW217580   6.879   5.466   3.418
 5561SOL     OW17581   3.072   0.687   3.518
 5561SOL    HW117582   3.053   0.723   3.426
 5561SOL    HW217583   3.120   0.757   3.572
 5562SOL     OW17584   4.997   3.179   1.076
 5562SOL    HW117585   4.923   3.158   1.012
 5562SOL    HW217586   5.051   3.096   1.094
 5563SOL     OW17587   1.991   3.960   2.298
 5563SOL    HW117588   1.981   4.057   2.318
 5563SOL    HW217589   1.943   3.906   2.368
 5564SOL     OW17590   4.349   0.281   6.595
 5564SOL    HW117591   4.378   0.338   6.518
 5564SOL    HW217592   4.370   0.328   6.681
 5565SOL     OW17593   3.101   2.007   6.218
 5565SOL    HW117594   3.018   2.052   6.184
 5565SOL    HW217595   3.181   2.048   6.176
 5566SOL     OW17596   1.300   5.442   5.359
 5566SOL    HW117597   1.355   5.522   5.334
 5566SOL    HW217598   1.208   5.472   5.386
 5567SOL     OW17599   1.316   5.111   6.805
 5567SOL    HW117600   1.346   5.205   6.795
 5567SOL    HW217601   1.217   5.105   6.789
 5568SOL     OW17602   5.468   5.282   1.925
 5568SOL    HW117603   5.548   5.222   1.926
 5568SOL    HW217604   5.418   5.272   2.011
 5569SOL     OW17605   1.562   2.255   3.006
 5569SOL    HW117606   1.605   2.332   3.053
 5569SOL    HW217607   1.615   2.232   2.924
 5570SOL     OW17608   6.758   3.602   1.433
 5570SOL    HW117609   6.679   3.623   1.375
 5570SOL    HW217610   6.828   3.558   1.377
 5571SOL     OW17611   6.944   4.404   6.534
 5571SOL    HW117612   6.874   4.389   6.465
 5571SOL    HW217613   0.014   4.419   6.490
 5572SOL     OW17614   1.029   4.391   5.473
 5572SOL    HW117615   0.994   4.484   5.467
 5572SOL    HW217616   1.120   4.387   5.431
 5573SOL     OW17617   3.328   4.959   3.273
 5573SOL    HW117618   3.377   4.952   3.360
 5573SOL    HW217619   3.369   5.030   3.217
 5574SOL     OW17620   1.309   1.127   6.028
 5574SOL    HW117621   1.308   1.131   5.928
 5574SOL    HW217622   1.397   1.092   6.059
 5575SOL     OW17623   0.190   0.565   1.664
 5575SOL    HW117624   0.133   0.583   1.745
 5575SOL    HW217625   0.279   0.530   1.693
 5576SOL     OW17626   1.953   4.720   3.344
 5576SOL    HW117627   1.956   4.730   3.444
 5576SOL    HW217628   2.028   4.771   3.303
 5577SOL     OW17629   3.231   2.238   6.442
 5577SOL    HW117630   3.195   2.261   6.532
 5577SOL    HW217631   3.234   2.139   6.432
 5578SOL     OW17632   3.636   4.162   3.625
 5578SOL    HW117633   3.645   4.075   3.673
 5578SOL    HW217634   3.613   4.234   3.690
 5579SOL     OW17635   5.805   2.884   1.638
 5579SOL    HW117636   5.725   2.832   1.666
 5579SOL    HW217637   5.806   2.893   1.538
 5580SOL     OW17638   5.424   2.187   6.342
 5580SOL    HW117639   5.457   2.278   6.370
 5580SOL    HW217640   5.490   2.146   6.279
 5581SOL     OW17641   1.597   1.203   5.945
 5581SOL    HW117642   1.606   1.245   6.035
 5581SOL    HW217643   1.572   1.273   5.878
 5582SOL     OW17644   2.619   2.736   5.908
 5582SOL    HW117645   2.539   2.794   5.891
 5582SOL    HW217646   2.659   2.759   5.996
 5583SOL     OW17647   5.883   6.613   1.316
 5583SOL    HW117648   5.903   6.605   1.219
 5583SOL    HW217649   5.786   6.597   1.332
 5584SOL     OW17650   0.577   3.773   4.615
 5584SOL    HW117651   0.607   3.865   4.640
 5584SOL    HW217652   0.655   3.710   4.619
 5585SOL     OW17653   6.358   5.136   1.411
 5585SOL    HW117654   6.272   5.094   1.440
 5585SOL    HW217655   6.413   5.159   1.492
 5586SOL     OW17656   1.321   6.303   1.737
 5586SOL    HW117657   1.337   6.393   1.777
 5586SOL    HW217658   1.404   6.270   1.694
 5587SOL     OW17659   5.590   0.962   5.085
 5587SOL    HW117660   5.584   1.022   5.005
 5587SOL    HW217661   5.631   1.013   5.161
 5588SOL     OW17662   3.151   6.905   1.150
 5588SOL    HW117663   3.119   6.977   1.212
 5588SOL    HW217664   3.250   6.907   1.145
 5589SOL     OW17665   0.497   4.636   5.783
 5589SOL    HW117666   0.576   4.644   5.845
 5589SOL    HW217667   0.431   4.708   5.805
 5590SOL     OW17668   6.053   5.149   3.179
 5590SOL    HW117669   6.002   5.068   3.149
 5590SOL    HW217670   6.030   5.227   3.120
 5591SOL     OW17671   5.088   1.363   2.840
 5591SOL    HW117672   5.032   1.366   2.922
 5591SOL    HW217673   5.030   1.376   2.759
 5592SOL     OW17674   0.007   5.406   4.495
 5592SOL    HW117675   6.928   5.392   4.512
 5592SOL    HW217676   0.043   5.327   4.445
 5593SOL     OW17677   2.056   3.910   0.922
 5593SOL    HW117678   2.020   3.888   1.013
 5593SOL    HW217679   2.134   3.852   0.902
 5594SOL     OW17680   6.317   0.679   5.791
 5594SOL    HW117681   6.386   0.617   5.829
 5594SOL    HW217682   6.309   0.663   5.692
 5595SOL     OW17683   0.052   1.728   0.797
 5595SOL    HW117684   0.066   1.796   0.869
 5595SOL    HW217685   0.139   1.685   0.774
 5596SOL     OW17686   4.121   6.319   3.259
 5596SOL    HW117687   4.118   6.225   3.224
 5596SOL    HW217688   4.034   6.365   3.240
 5597SOL     OW17689   5.153   3.410   2.009
 5597SOL    HW117690   5.086   3.446   1.944
 5597SOL    HW217691   5.204   3.336   1.966
 5598SOL     OW17692   3.293   0.491   4.036
 5598SOL    HW117693   3.270   0.425   4.107
 5598SOL    HW217694   3.382   0.533   4.056
 5599SOL     OW17695   1.152   1.669   3.467
 5599SOL    HW117696   1.152   1.576   3.430
 5599SOL    HW217697   1.084   1.676   3.540
 5600SOL     OW17698   2.444   2.756   5.293
 5600SOL    HW117699   2.465   2.846   5.257
 5600SOL    HW217700   2.458   2.687   5.222
 5601SOL     OW17701   2.276   0.588   6.276
 5601SOL    HW117702   2.281   0.571   6.177
 5601SOL    HW217703   2.349   0.651   6.302
 5602SOL     OW17704   1.973   1.125   0.076
 5602SOL    HW117705   2.043   1.144   0.145
 5602SOL    HW217706   1.998   1.042   0.026
 5603SOL     OW17707   6.679   3.515   5.025
 5603SOL    HW117708   6.736   3.441   4.989
 5603SOL    HW217709   6.714   3.603   4.993
 5604SOL     OW17710   5.455   0.712   6.508
 5604SOL    HW117711   5.525   0.653   6.547
 5604SOL    HW217712   5.378   0.657   6.476
 5605SOL     OW17713   1.328   1.447   6.758
 5605SOL    HW117714   1.345   1.413   6.665
 5605SOL    HW217715   1.357   1.542   6.765
 5606SOL     OW17716   5.997   6.828   2.959
 5606SOL    HW117717   6.025   6.743   2.914
 5606SOL    HW217718   6.029   6.906   2.906
 5607SOL     OW17719   4.830   0.485   1.459
 5607SOL    HW117720   4.895   0.463   1.532
 5607SOL    HW217721   4.848   0.578   1.426
 5608SOL     OW17722   3.571   6.661   5.315
 5608SOL    HW117723   3.596   6.568   5.342
 5608SOL    HW217724   3.503   6.657   5.241
 5609SOL     OW17725   1.287   5.947   4.697
 5609SOL    HW117726   1.344   5.898   4.630
 5609SOL    HW217727   1.340   6.021   4.738
 5610SOL     OW17728   4.998   0.194   6.769
 5610SOL    HW117729   5.080   0.168   6.718
 5610SOL    HW217730   5.021   0.265   6.835
 5611SOL     OW17731   2.077   4.263   3.887
 5611SOL    HW117732   2.071   4.336   3.955
 5611SOL    HW217733   2.170   4.226   3.887
 5612SOL     OW17734   3.522   6.466   4.558
 5612SOL    HW117735   3.481   6.555   4.574
 5612SOL    HW217736   3.495   6.433   4.467
 5613SOL     OW17737   2.680   5.346   2.498
 5613SOL    HW117738   2.664   5.301   2.410
 5613SOL    HW217739   2.722   5.282   2.561
 5614SOL     OW17740   4.728   2.439   4.769
 5614SOL    HW117741   4.727   2.356   4.825
 5614SOL    HW217742   4.648   2.495   4.791
 5615SOL     OW17743   0.971   1.596   1.880
 5615SOL    HW117744   1.067   1.626   1.873
 5615SOL    HW217745   0.961   1.534   1.957
 5616SOL     OW17746   2.452   6.716   4.741
 5616SOL    HW117747   2.361   6.753   4.729
 5616SOL    HW217748   2.496   6.704   4.652
 5617SOL     OW17749   0.374   1.254   5.915
 5617SOL    HW117750   0.369   1.199   5.831
 5617SOL    HW217751   0.319   1.212   5.986
 5618SOL     OW17752   6.282   5.016   3.752
 5618SOL    HW117753   6.209   5.083   3.744
 5618SOL    HW217754   6.367   5.062   3.778
 5619SOL     OW17755   2.199   3.328   4.630
 5619SOL    HW117756   2.288   3.308   4.673
 5619SOL    HW217757   2.127   3.281   4.681
 5620SOL     OW17758   5.419   1.961   6.547
 5620SOL    HW117759   5.423   2.053   6.507
 5620SOL    HW217760   5.508   1.937   6.585
 5621SOL     OW17761   2.545   1.216   6.336
 5621SOL    HW117762   2.574   1.308   6.309
 5621SOL    HW217763   2.458   1.221   6.384
 5622SOL     OW17764   5.384   1.186   5.258
 5622SOL    HW117765   5.436   1.270   5.270
 5622SOL    HW217766   5.383   1.135   5.344
 5623SOL     OW17767   0.065   6.282   6.529
 5623SOL    HW117768   0.025   6.219   6.596
 5623SOL    HW217769   7.016   6.302   6.458
 5624SOL     OW17770   1.126   4.225   2.387
 5624SOL    HW117771   1.073   4.298   2.429
 5624SOL    HW217772   1.134   4.149   2.451
 5625SOL     OW17773   6.667   1.610   5.599
 5625SOL    HW117774   6.653   1.511   5.594
 5625SOL    HW217775   6.751   1.629   5.649
 5626SOL     OW17776   5.726   6.854   5.244
 5626SOL    HW117777   5.670   6.917   5.190
 5626SOL    HW217778   5.669   6.780   5.279
 5627SOL     OW17779   1.142   0.701   1.729
 5627SOL    HW117780   1.192   0.760   1.665
 5627SOL    HW217781   1.188   0.701   1.818
 5628SOL     OW17782   1.882   1.457   4.190
 5628SOL    HW117783   1.846   1.366   4.169
 5628SOL    HW217784   1.941   1.487   4.115
 5629SOL     OW17785   3.755   3.742   3.574
 5629SOL    HW117786   3.745   3.802   3.653
 5629SOL    HW217787   3.788   3.652   3.603
 5630SOL     OW17788   6.820   4.169   0.622
 5630SOL    HW117789   6.857   4.186   0.713
 5630SOL    HW217790   6.851   4.080   0.589
 5631SOL     OW17791   5.886   1.497   6.155
 5631SOL    HW117792   5.837   1.465   6.074
 5631SOL    HW217793   5.966   1.438   6.170
 5632SOL     OW17794   3.171   2.358   0.705
 5632SOL    HW117795   3.240   2.408   0.652
 5632SOL    HW217796   3.203   2.345   0.799
 5633SOL     OW17797   0.264   2.496   5.759
 5633SOL    HW117798   0.194   2.446   5.707
 5633SOL    HW217799   0.221   2.570   5.810
 5634SOL     OW17800   4.911   6.037   5.171
 5634SOL    HW117801   4.826   5.986   5.159
 5634SOL    HW217802   4.969   6.026   5.090
 5635SOL     OW17803   3.052   1.746   6.254
 5635SOL    HW117804   3.130   1.693   6.286
 5635SOL    HW217805   3.079   1.841   6.239
 5636SOL     OW17806   4.686   0.508   4.233
 5636SOL    HW117807   4.599   0.538   4.197
 5636SOL    HW217808   4.732   0.450   4.166
 5637SOL     OW17809   6.100   6.607   2.812
 5637SOL    HW117810   6.197   6.586   2.812
 5637SOL    HW217811   6.048   6.525   2.836
 5638SOL     OW17812   0.204   3.688   0.089
 5638SOL    HW117813   0.182   3.730   0.000
 5638SOL    HW217814   0.303   3.689   0.102
 5639SOL     OW17815   4.127   6.959   6.574
 5639SOL    HW117816   4.106   6.896   6.499
 5639SOL    HW217817   4.077   0.026   6.562
 5640SOL     OW17818   1.459   0.105   3.465
 5640SOL    HW117819   1.382   0.169   3.455
 5640SOL    HW217820   1.545   0.154   3.448
 5641SOL     OW17821   6.973   5.952   4.930
 5641SOL    HW117822   6.969   6.051   4.941
 5641SOL    HW217823   6.988   5.930   4.834
 5642SOL     OW17824   1.662   1.031   0.298
 5642SOL    HW117825   1.636   1.042   0.202
 5642SOL    HW217826   1.611   1.097   0.354
 5643SOL     OW17827   5.196   2.055   0.155
 5643SOL    HW117828   5.122   1.988   0.145
 5643SOL    HW217829   5.242   2.067   0.067
 5644SOL     OW17830   2.733   0.162   5.812
 5644SOL    HW117831   2.641   0.165   5.853
 5644SOL    HW217832   2.801   0.179   5.883
 5645SOL     OW17833   5.250   3.764   4.249
 5645SOL    HW117834   5.211   3.708   4.176
 5645SOL    HW217835   5.180   3.783   4.318
 5646SOL     OW17836   0.675   4.153   2.500
 5646SOL    HW117837   0.762   4.198   2.482
 5646SOL    HW217838   0.639   4.185   2.588
 5647SOL     OW17839   4.579   5.638   2.457
 5647SOL    HW117840   4.646   5.705   2.488
 5647SOL    HW217841   4.574   5.562   2.521
 5648SOL     OW17842   5.533   6.323   3.457
 5648SOL    HW117843   5.631   6.304   3.461
 5648SOL    HW217844   5.514   6.383   3.379
 5649SOL     OW17845   0.196   0.407   5.050
 5649SOL    HW117846   0.200   0.436   4.955
 5649SOL    HW217847   0.282   0.432   5.096
 5650SOL     OW17848   0.386   3.643   6.158
 5650SOL    HW117849   0.291   3.632   6.131
 5650SOL    HW217850   0.442   3.574   6.111
 5651SOL     OW17851   2.624   1.200   1.463
 5651SOL    HW117852   2.573   1.116   1.480
 5651SOL    HW217853   2.666   1.196   1.372
 5652SOL     OW17854   0.482   6.076   2.819
 5652SOL    HW117855   0.442   6.165   2.796
 5652SOL    HW217856   0.450   6.007   2.754
 5653SOL     OW17857   6.827   0.328   2.935
 5653SOL    HW117858   6.796   0.421   2.914
 5653SOL    HW217859   6.834   0.276   2.850
 5654SOL     OW17860   3.106   6.120   5.492
 5654SOL    HW117861   3.064   6.054   5.430
 5654SOL    HW217862   3.157   6.072   5.563
 5655SOL     OW17863   6.373   3.458   4.439
 5655SOL    HW117864   6.333   3.472   4.348
 5655SOL    HW217865   6.436   3.380   4.436
 5656SOL     OW17866   0.594   4.616   1.152
 5656SOL    HW117867   0.662   4.574   1.213
 5656SOL    HW217868   0.521   4.656   1.207
 5657SOL     OW17869   6.132   6.236   5.570
 5657SOL    HW117870   6.123   6.171   5.645
 5657SOL    HW217871   6.059   6.220   5.503
 5658SOL     OW17872   2.933   2.453   5.525
 5658SOL    HW117873   2.998   2.522   5.492
 5658SOL    HW217874   2.879   2.493   5.599
 5659SOL     OW17875   2.450   4.069   6.134
 5659SOL    HW117876   2.453   4.089   6.232
 5659SOL    HW217877   2.355   4.066   6.104
 5660SOL     OW17878   4.423   0.572   4.410
 5660SOL    HW117879   4.482   0.610   4.481
 5660SOL    HW217880   4.353   0.514   4.453
 5661SOL     OW17881   0.269   5.886   5.617
 5661SOL    HW117882   0.340   5.931   5.562
 5661SOL    HW217883   0.290   5.789   5.626
 5662SOL     OW17884   2.455   6.167   1.070
 5662SOL    HW117885   2.379   6.231   1.080
 5662SOL    HW217886   2.447   6.095   1.139
 5663SOL     OW17887   3.302   1.943   6.466
 5663SOL    HW117888   3.271   1.870   6.405
 5663SOL    HW217889   3.268   1.926   6.558
 5664SOL     OW17890   5.041   5.631   4.809
 5664SOL    HW117891   5.049   5.699   4.736
 5664SOL    HW217892   4.977   5.559   4.781
 5665SOL     OW17893   2.143   0.868   0.925
 5665SOL    HW117894   2.231   0.857   0.971
 5665SOL    HW217895   2.158   0.904   0.833
 5666SOL     OW17896   5.892   3.278   4.645
 5666SOL    HW117897   5.982   3.308   4.613
 5666SOL    HW217898   5.897   3.182   4.672
 5667SOL     OW17899   2.659   4.682   3.887
 5667SOL    HW117900   2.619   4.598   3.848
 5667SOL    HW217901   2.741   4.706   3.836
 5668SOL     OW17902   4.488   4.535   3.918
 5668SOL    HW117903   4.567   4.475   3.905
 5668SOL    HW217904   4.425   4.524   3.841
 5669SOL     OW17905   5.910   3.843   5.560
 5669SOL    HW117906   5.953   3.916   5.612
 5669SOL    HW217907   5.810   3.851   5.568
 5670SOL     OW17908   0.997   3.185   4.005
 5670SOL    HW117909   0.984   3.277   3.967
 5670SOL    HW217910   1.071   3.139   3.956
 5671SOL     OW17911   6.223   5.971   2.914
 5671SOL    HW117912   6.141   6.028   2.918
 5671SOL    HW217913   6.222   5.907   2.991
 5672SOL     OW17914   5.803   3.357   4.918
 5672SOL    HW117915   5.766   3.447   4.942
 5672SOL    HW217916   5.824   3.354   4.820
 5673SOL     OW17917   0.878   1.948   0.449
 5673SOL    HW117918   0.855   2.033   0.496
 5673SOL    HW217919   0.843   1.951   0.356
 5674SOL     OW17920   2.740   5.759   4.926
 5674SOL    HW117921   2.727   5.696   5.002
 5674SOL    HW217922   2.818   5.819   4.945
 5675SOL     OW17923   3.476   2.320   0.792
 5675SOL    HW117924   3.423   2.346   0.711
 5675SOL    HW217925   3.562   2.278   0.763
 5676SOL     OW17926   3.630   1.013   1.983
 5676SOL    HW117927   3.671   0.929   2.017
 5676SOL    HW217928   3.541   0.992   1.943
 5677SOL     OW17929   1.291   1.265   6.261
 5677SOL    HW117930   1.321   1.213   6.182
 5677SOL    HW217931   1.225   1.335   6.232
 5678SOL     OW17932   3.906   1.893   1.922
 5678SOL    HW117933   3.843   1.856   1.854
 5678SOL    HW217934   3.877   1.863   2.013
 5679SOL     OW17935   0.958   3.780   5.924
 5679SOL    HW117936   0.958   3.811   5.829
 5679SOL    HW217937   0.881   3.717   5.939
 5680SOL     OW17938   0.575   5.589   4.607
 5680SOL    HW117939   0.526   5.602   4.693
 5680SOL    HW217940   0.511   5.557   4.537
 5681SOL     OW17941   1.433   3.482   3.303
 5681SOL    HW117942   1.411   3.463   3.207
 5681SOL    HW217943   1.397   3.407   3.360
 5682SOL     OW17944   1.869   4.575   0.581
 5682SOL    HW117945   1.868   4.477   0.600
 5682SOL    HW217946   1.906   4.590   0.489
 5683SOL     OW17947   6.805   6.841   5.777
 5683SOL    HW117948   6.878   6.904   5.752
 5683SOL    HW217949   6.741   6.886   5.838
 5684SOL     OW17950   1.847   3.384   4.877
 5684SOL    HW117951   1.772   3.406   4.939
 5684SOL    HW217952   1.839   3.439   4.794
 5685SOL     OW17953   1.661   2.089   1.736
 5685SOL    HW117954   1.637   2.015   1.674
 5685SOL    HW217955   1.760   2.092   1.749
 5686SOL     OW17956   6.017   5.528   5.506
 5686SOL    HW117957   5.929   5.553   5.546
 5686SOL    HW217958   6.081   5.503   5.579
 5687SOL     OW17959   1.314   0.493   6.733
 5687SOL    HW117960   1.221   0.530   6.731
 5687SOL    HW217961   1.346   0.490   6.828
 5688SOL     OW17962   1.356   2.689   2.603
 5688SOL    HW117963   1.338   2.779   2.564
 5688SOL    HW217964   1.305   2.620   2.553
 5689SOL     OW17965   6.939   1.650   1.077
 5689SOL    HW117966   6.999   1.689   1.008
 5689SOL    HW217967   6.844   1.658   1.047
 5690SOL     OW17968   2.765   5.284   0.299
 5690SOL    HW117969   2.843   5.347   0.307
 5690SOL    HW217970   2.780   5.205   0.360
 5691SOL     OW17971   4.884   3.051   3.494
 5691SOL    HW117972   4.956   3.044   3.563
 5691SOL    HW217973   4.798   3.016   3.532
 5692SOL     OW17974   6.880   5.111   1.805
 5692SOL    HW117975   6.863   5.206   1.777
 5692SOL    HW217976   6.799   5.074   1.850
 5693SOL     OW17977   3.088   1.093   2.297
 5693SOL    HW117978   3.133   1.101   2.387
 5693SOL    HW217979   3.013   1.159   2.292
 5694SOL     OW17980   0.331   6.595   1.011
 5694SOL    HW117981   0.320   6.541   1.094
 5694SOL    HW217982   0.374   6.682   1.034
 5695SOL     OW17983   1.875   1.112   2.187
 5695SOL    HW117984   1.825   1.159   2.260
 5695SOL    HW217985   1.810   1.062   2.129
 5696SOL     OW17986   0.102   0.783   3.621
 5696SOL    HW117987   0.075   0.873   3.656
 5696SOL    HW217988   0.031   0.748   3.560
 5697SOL     OW17989   6.023   1.802   0.589
 5697SOL    HW117990   5.990   1.862   0.517
 5697SOL    HW217991   6.117   1.774   0.569
 5698SOL     OW17992   3.049   2.055   3.422
 5698SOL    HW117993   3.045   2.119   3.500
 5698SOL    HW217994   3.071   2.106   3.339
 5699SOL     OW17995   2.322   2.751   2.694
 5699SOL    HW117996   2.393   2.681   2.704
 5699SOL    HW217997   2.339   2.825   2.759
 5700SOL     OW17998   5.703   0.220   2.201
 5700SOL    HW117999   5.782   0.280   2.216
 5700SOL    HW218000   5.636   0.267   2.144
 5701SOL     OW18001   1.647   0.484   0.691
 5701SOL    HW118002   1.684   0.392   0.703
 5701SOL    HW218003   1.684   0.545   0.762
 5702SOL     OW18004   1.130   6.210   5.172
 5702SOL    HW118005   1.177   6.138   5.119
 5702SOL    HW218006   1.096   6.280   5.109
 5703SOL     OW18007   1.238   3.061   6.248
 5703SOL    HW118008   1.304   3.013   6.191
 5703SOL    HW218009   1.193   2.996   6.309
 5704SOL     OW18010   4.094   5.713   4.590
 5704SOL    HW118011   4.139   5.680   4.507
 5704SOL    HW218012   4.141   5.676   4.670
 5705SOL     OW18013   5.527   1.314   4.967
 5705SOL    HW118014   5.574   1.239   4.920
 5705SOL    HW218015   5.444   1.338   4.917
 5706SOL     OW18016   5.462   0.789   1.246
 5706SOL    HW118017   5.426   0.796   1.153
 5706SOL    HW218018   5.467   0.880   1.287
 5707SOL     OW18019   5.834   6.061   1.720
 5707SOL    HW118020   5.772   5.982   1.724
 5707SOL    HW218021   5.847   6.098   1.812
 5708SOL     OW18022   5.172   6.767   2.358
 5708SOL    HW118023   5.141   6.827   2.284
 5708SOL    HW218024   5.270   6.748   2.346
 5709SOL     OW18025   7.017   2.192   2.236
 5709SOL    HW118026   6.958   2.232   2.306
 5709SOL    HW218027   0.086   2.239   2.236
 5710SOL     OW18028   5.505   0.972   0.837
 5710SOL    HW118029   5.480   1.060   0.878
 5710SOL    HW218030   5.431   0.942   0.776
 5711SOL     OW18031   4.128   1.565   2.485
 5711SOL    HW118032   4.215   1.611   2.467
 5711SOL    HW218033   4.074   1.621   2.549
 5712SOL     OW18034   6.450   6.329   6.397
 5712SOL    HW118035   6.527   6.297   6.452
 5712SOL    HW218036   6.365   6.305   6.443
 5713SOL     OW18037   1.388   1.666   0.364
 5713SOL    HW118038   1.377   1.584   0.308
 5713SOL    HW218039   1.417   1.742   0.307
 5714SOL     OW18040   5.814   0.064   1.569
 5714SOL    HW118041   5.792   0.095   1.661
 5714SOL    HW218042   5.834   6.984   1.571
 5715SOL     OW18043   0.324   5.900   1.083
 5715SOL    HW118044   0.369   5.975   1.133
 5715SOL    HW218045   0.315   5.925   0.986
 5716SOL     OW18046   7.014   4.928   5.889
 5716SOL    HW118047   0.004   4.987   5.970
 5716SOL    HW218048   7.010   4.832   5.918
 5717SOL     OW18049   0.183   5.957   3.226
 5717SOL    HW118050   0.125   6.000   3.295
 5717SOL    HW218051   0.175   6.007   3.140
 5718SOL     OW18052   1.377   4.540   6.883
 5718SOL    HW118053   1.305   4.509   6.945
 5718SOL    HW218054   1.345   4.622   6.834
 5719SOL     OW18055   3.615   3.788   1.298
 5719SOL    HW118056   3.602   3.824   1.390
 5719SOL    HW218057   3.576   3.696   1.292
 5720SOL     OW18058   2.921   4.348   6.551
 5720SOL    HW118059   2.960   4.279   6.490
 5720SOL    HW218060   2.994   4.409   6.582
 5721SOL     OW18061   0.738   2.933   0.554
 5721SOL    HW118062   0.732   2.836   0.576
 5721SOL    HW218063   0.824   2.970   0.590
 5722SOL     OW18064   1.746   0.769   6.220
 5722SOL    HW118065   1.787   0.856   6.192
 5722SOL    HW218066   1.684   0.784   6.297
 5723SOL     OW18067   4.170   3.696   0.346
 5723SOL    HW118068   4.256   3.689   0.397
 5723SOL    HW218069   4.189   3.730   0.254
 5724SOL     OW18070   6.403   1.707   6.113
 5724SOL    HW118071   6.368   1.627   6.161
 5724SOL    HW218072   6.503   1.701   6.107
 5725SOL     OW18073   6.718   4.191   4.391
 5725SOL    HW118074   6.784   4.256   4.427
 5725SOL    HW218075   6.636   4.240   4.361
 5726SOL     OW18076   3.875   4.901   2.005
 5726SOL    HW118077   3.801   4.859   1.952
 5726SOL    HW218078   3.917   4.832   2.064
 5727SOL     OW18079   1.201   3.174   6.590
 5727SOL    HW118080   1.167   3.190   6.497
 5727SOL    HW218081   1.129   3.195   6.656
 5728SOL     OW18082   2.380   6.264   4.200
 5728SOL    HW118083   2.439   6.193   4.160
 5728SOL    HW218084   2.392   6.349   4.148
 5729SOL     OW18085   2.830   1.954   4.869
 5729SOL    HW118086   2.812   2.051   4.884
 5729SOL    HW218087   2.797   1.928   4.778
 5730SOL     OW18088   6.210   4.798   4.441
 5730SOL    HW118089   6.132   4.767   4.496
 5730SOL    HW218090   6.294   4.787   4.494
 5731SOL     OW18091   0.157   6.276   2.501
 5731SOL    HW118092   0.142   6.375   2.496
 5731SOL    HW218093   0.189   6.242   2.413
 5732SOL     OW18094   5.178   0.573   3.776
 5732SOL    HW118095   5.156   0.531   3.688
 5732SOL    HW218096   5.237   0.652   3.761
 5733SOL     OW18097   2.867   0.925   5.068
 5733SOL    HW118098   2.900   1.016   5.041
 5733SOL    HW218099   2.942   0.871   5.105
 5734SOL     OW18100   1.936   6.403   4.055
 5734SOL    HW118101   1.961   6.326   4.114
 5734SOL    HW218102   1.856   6.378   4.000
 5735SOL     OW18103   2.346   0.782   1.600
 5735SOL    HW118104   2.418   0.805   1.535
 5735SOL    HW218105   2.317   0.864   1.649
 5736SOL     OW18106   1.670   4.751   1.031
 5736SOL    HW118107   1.613   4.684   1.078
 5736SOL    HW218108   1.614   4.807   0.970
 5737SOL     OW18109   6.054   3.935   6.853
 5737SOL    HW118110   6.008   3.992   6.785
 5737SOL    HW218111   6.089   3.993   6.927
 5738SOL     OW18112   0.772   5.695   4.411
 5738SOL    HW118113   0.698   5.683   4.477
 5738SOL    HW218114   0.856   5.652   4.446
 5739SOL     OW18115   0.944   2.462   0.921
 5739SOL    HW118116   0.859   2.498   0.882
 5739SOL    HW218117   0.923   2.388   0.985
 5740SOL     OW18118   4.533   5.112   0.682
 5740SOL    HW118119   4.599   5.169   0.732
 5740SOL    HW218120   4.442   5.153   0.688
 5741SOL     OW18121   6.978   2.534   2.154
 5741SOL    HW118122   6.881   2.516   2.170
 5741SOL    HW218123   7.007   2.489   2.069
 5742SOL     OW18124   0.416   5.083   3.328
 5742SOL    HW118125   0.512   5.112   3.331
 5742SOL    HW218126   0.377   5.086   3.420
 5743SOL     OW18127   0.693   0.495   5.251
 5743SOL    HW118128   0.726   0.503   5.157
 5743SOL    HW218129   0.759   0.539   5.312
 5744SOL     OW18130   6.185   0.302   2.386
 5744SOL    HW118131   6.223   0.225   2.336
 5744SOL    HW218132   6.259   0.361   2.418
 5745SOL     OW18133   6.882   3.763   2.109
 5745SOL    HW118134   6.800   3.803   2.149
 5745SOL    HW218135   6.864   3.736   2.015
 5746SOL     OW18136   0.421   3.478   5.922
 5746SOL    HW118137   0.427   3.383   5.893
 5746SOL    HW218138   0.376   3.533   5.851
 5747SOL     OW18139   0.026   5.792   4.301
 5747SOL    HW118140   6.995   5.835   4.225
 5747SOL    HW218141   6.981   5.773   4.375
 5748SOL     OW18142   1.799   1.215   3.923
 5748SOL    HW118143   1.746   1.299   3.931
 5748SOL    HW218144   1.746   1.148   3.870
 5749SOL     OW18145   0.572   1.346   3.007
 5749SOL    HW118146   0.643   1.415   3.018
 5749SOL    HW218147   0.542   1.313   3.096
 5750SOL     OW18148   4.558   6.291   2.437
 5750SOL    HW118149   4.624   6.238   2.492
 5750SOL    HW218150   4.569   6.388   2.458
 5751SOL     OW18151   1.392   1.760   6.763
 5751SOL    HW118152   1.412   1.756   6.861
 5751SOL    HW218153   1.460   1.817   6.717
 5752SOL     OW18154   1.868   0.979   6.796
 5752SOL    HW118155   1.857   1.045   6.722
 5752SOL    HW218156   1.791   0.915   6.795
 5753SOL     OW18157   3.954   1.453   6.416
 5753SOL    HW118158   3.902   1.507   6.482
 5753SOL    HW218159   3.892   1.417   6.346
 5754SOL     OW18160   6.282   5.725   0.678
 5754SOL    HW118161   6.269   5.682   0.589
 5754SOL    HW218162   6.234   5.812   0.680
 5755SOL     OW18163   2.993   3.435   2.193
 5755SOL    HW118164   2.949   3.444   2.282
 5755SOL    HW218165   3.088   3.407   2.206
 5756SOL     OW18166   6.482   0.187   3.898
 5756SOL    HW118167   6.453   0.109   3.953
 5756SOL    HW218168   6.582   0.184   3.887
 5757SOL     OW18169   6.517   6.521   1.871
 5757SOL    HW118170   6.492   6.448   1.807
 5757SOL    HW218171   6.572   6.482   1.945
 5758SOL     OW18172   3.384   0.644   5.831
 5758SOL    HW118173   3.318   0.719   5.836
 5758SOL    HW218174   3.477   0.681   5.833
 5759SOL     OW18175   0.883   1.239   5.818
 5759SOL    HW118176   0.883   1.279   5.727
 5759SOL    HW218177   0.901   1.141   5.812
 5760SOL     OW18178   6.436   5.721   1.518
 5760SOL    HW118179   6.381   5.752   1.595
 5760SOL    HW218180   6.530   5.706   1.549
 5761SOL     OW18181   3.847   0.362   4.685
 5761SOL    HW118182   3.785   0.397   4.755
 5761SOL    HW218183   3.937   0.407   4.695
 5762SOL     OW18184   4.986   6.961   1.465
 5762SOL    HW118185   4.921   6.980   1.391
 5762SOL    HW218186   5.013   6.865   1.461
 5763SOL     OW18187   3.656   0.901   0.570
 5763SOL    HW118188   3.727   0.935   0.632
 5763SOL    HW218189   3.620   0.976   0.516
 5764SOL     OW18190   3.455   2.798   6.666
 5764SOL    HW118191   3.415   2.829   6.580
 5764SOL    HW218192   3.385   2.755   6.723
 5765SOL     OW18193   6.651   4.668   5.885
 5765SOL    HW118194   6.697   4.726   5.952
 5765SOL    HW218195   6.617   4.586   5.929
 5766SOL     OW18196   2.222   1.785   3.242
 5766SOL    HW118197   2.303   1.823   3.197
 5766SOL    HW218198   2.243   1.695   3.280
 5767SOL     OW18199   5.259   6.531   0.311
 5767SOL    HW118200   5.183   6.502   0.253
 5767SOL    HW218201   5.283   6.626   0.290
 5768SOL     OW18202   5.844   6.785   2.225
 5768SOL    HW118203   5.889   6.696   2.229
 5768SOL    HW218204   5.898   6.852   2.275
 5769SOL     OW18205   6.713   4.749   3.134
 5769SOL    HW118206   6.795   4.788   3.175
 5769SOL    HW218207   6.684   4.668   3.186
 5770SOL     OW18208   4.684   2.306   1.221
 5770SOL    HW118209   4.667   2.258   1.135
 5770SOL    HW218210   4.688   2.404   1.205
 5771SOL     OW18211   0.908   0.559   1.761
 5771SOL    HW118212   0.989   0.616   1.774
 5771SOL    HW218213   0.849   0.601   1.692
 5772SOL     OW18214   6.096   4.976   5.473
 5772SOL    HW118215   6.041   5.040   5.419
 5772SOL    HW218216   6.116   5.016   5.562
 5773SOL     OW18217   5.002   6.375   5.237
 5773SOL    HW118218   5.015   6.458   5.291
 5773SOL    HW218219   5.018   6.295   5.294
 5774SOL     OW18220   1.814   4.988   1.524
 5774SOL    HW118221   1.772   5.055   1.585
 5774SOL    HW218222   1.771   4.899   1.538
 5775SOL     OW18223   0.969   1.087   1.109
 5775SOL    HW118224   0.947   1.014   1.044
 5775SOL    HW218225   1.051   1.062   1.160
 5776SOL     OW18226   4.910   0.898   5.854
 5776SOL    HW118227   4.955   0.970   5.800
 5776SOL    HW218228   4.844   0.850   5.797
 5777SOL     OW18229   5.146   6.588   5.062
 5777SOL    HW118230   5.159   6.523   5.137
 5777SOL    HW218231   5.225   6.584   5.001
 5778SOL     OW18232   2.248   6.331   3.527
 5778SOL    HW118233   2.206   6.360   3.441
 5778SOL    HW218234   2.177   6.303   3.591
 5779SOL     OW18235   3.521   6.942   2.357
 5779SOL    HW118236   3.558   6.867   2.412
 5779SOL    HW218237   3.553   0.011   2.394
 5780SOL     OW18238   6.629   4.405   6.689
 5780SOL    HW118239   6.712   4.462   6.690
 5780SOL    HW218240   6.654   4.310   6.703
 5781SOL     OW18241   4.496   4.238   5.555
 5781SOL    HW118242   4.400   4.231   5.583
 5781SOL    HW218243   4.534   4.147   5.543
 5782SOL     OW18244   4.900   1.625   2.831
 5782SOL    HW118245   4.936   1.716   2.852
 5782SOL    HW218246   4.806   1.617   2.864
 5783SOL     OW18247   3.186   5.883   3.423
 5783SOL    HW118248   3.097   5.865   3.466
 5783SOL    HW218249   3.206   5.981   3.428
 5784SOL     OW18250   0.166   6.956   2.294
 5784SOL    HW118251   0.138   6.897   2.370
 5784SOL    HW218252   0.157   0.034   2.321
 5785SOL     OW18253   2.595   0.994   6.161
 5785SOL    HW118254   2.579   1.067   6.227
 5785SOL    HW218255   2.595   0.906   6.209
 5786SOL     OW18256   2.255   1.555   6.348
 5786SOL    HW118257   2.249   1.614   6.267
 5786SOL    HW218258   2.214   1.466   6.328
 5787SOL     OW18259   0.483   1.917   6.216
 5787SOL    HW118260   0.535   1.949   6.136
 5787SOL    HW218261   0.440   1.829   6.195
 5788SOL     OW18262   0.012   2.464   1.891
 5788SOL    HW118263   0.072   2.539   1.917
 5788SOL    HW218264   0.047   2.419   1.809
 5789SOL     OW18265   3.162   1.326   0.136
 5789SOL    HW118266   3.237   1.259   0.136
 5789SOL    HW218267   3.107   1.314   0.054
 5790SOL     OW18268   6.233   5.994   2.264
 5790SOL    HW118269   6.226   6.039   2.353
 5790SOL    HW218270   6.191   6.053   2.194
 5791SOL     OW18271   3.901   1.010   1.351
 5791SOL    HW118272   3.832   0.971   1.291
 5791SOL    HW218273   3.927   1.101   1.319
 5792SOL     OW18274   4.704   2.056   2.508
 5792SOL    HW118275   4.641   2.128   2.537
 5792SOL    HW218276   4.738   2.077   2.416
 5793SOL     OW18277   4.480   2.377   0.847
 5793SOL    HW118278   4.572   2.355   0.878
 5793SOL    HW218279   4.485   2.427   0.761
 5794SOL     OW18280   3.369   6.100   6.817
 5794SOL    HW118281   3.316   6.016   6.828
 5794SOL    HW218282   3.400   6.132   6.907
 5795SOL     OW18283   0.947   0.503   1.443
 5795SOL    HW118284   0.966   0.413   1.483
 5795SOL    HW218285   0.857   0.534   1.471
 5796SOL     OW18286   4.821   0.984   6.103
 5796SOL    HW118287   4.887   0.968   6.030
 5796SOL    HW218288   4.753   1.050   6.072
 5797SOL     OW18289   5.932   1.340   7.014
 5797SOL    HW118290   6.003   1.307   0.059
 5797SOL    HW218291   5.861   1.387   0.047
 5798SOL     OW18292   2.348   2.755   4.894
 5798SOL    HW118293   2.248   2.754   4.891
 5798SOL    HW218294   2.378   2.831   4.952
 5799SOL     OW18295   2.641   0.724   3.838
 5799SOL    HW118296   2.609   0.797   3.778
 5799SOL    HW218297   2.727   0.687   3.804
 5800SOL     OW18298   1.557   6.227   1.585
 5800SOL    HW118299   1.634   6.186   1.634
 5800SOL    HW218300   1.502   6.155   1.544
 5801SOL     OW18301   1.409   2.061   3.150
 5801SOL    HW118302   1.451   2.135   3.097
 5801SOL    HW218303   1.453   2.056   3.240
 5802SOL     OW18304   0.099   6.739   2.707
 5802SOL    HW118305   0.141   6.770   2.792
 5802SOL    HW218306   0.079   6.818   2.649
 5803SOL     OW18307   0.211   6.607   4.617
 5803SOL    HW118308   0.203   6.643   4.710
 5803SOL    HW218309   0.255   6.676   4.559
 5804SOL     OW18310   5.900   2.501   3.216
 5804SOL    HW118311   5.817   2.472   3.168
 5804SOL    HW218312   5.930   2.589   3.179
 5805SOL     OW18313   0.685   1.936   1.458
 5805SOL    HW118314   0.587   1.931   1.439
 5805SOL    HW218315   0.710   1.865   1.523
 5806SOL     OW18316   6.711   4.195   1.335
 5806SOL    HW118317   6.776   4.269   1.355
 5806SOL    HW218318   6.630   4.206   1.393
 5807SOL     OW18319   1.018   0.557   3.000
 5807SOL    HW118320   1.058   0.562   3.091
 5807SOL    HW218321   1.086   0.582   2.932
 5808SOL     OW18322   6.095   5.665   5.924
 5808SOL    HW118323   6.157   5.694   5.997
 5808SOL    HW218324   6.008   5.637   5.963
 5809SOL     OW18325   6.447   3.390   5.096
 5809SOL    HW118326   6.387   3.433   5.163
 5809SOL    HW218327   6.530   3.445   5.085
 5810SOL     OW18328   0.616   6.056   5.131
 5810SOL    HW118329   0.536   6.092   5.180
 5810SOL    HW218330   0.667   6.132   5.091
 5811SOL     OW18331   3.308   5.090   0.451
 5811SOL    HW118332   3.351   5.010   0.409
 5811SOL    HW218333   3.254   5.060   0.530
 5812SOL     OW18334   6.214   1.801   5.885
 5812SOL    HW118335   6.254   1.767   5.800
 5812SOL    HW218336   6.256   1.754   5.963
 5813SOL     OW18337   6.565   5.699   0.655
 5813SOL    HW118338   6.580   5.605   0.687
 5813SOL    HW218339   6.466   5.716   0.645
 5814SOL     OW18340   4.900   1.924   2.640
 5814SOL    HW118341   4.938   1.847   2.588
 5814SOL    HW218342   4.823   1.963   2.589
 5815SOL     OW18343   0.185   4.418   4.632
 5815SOL    HW118344   0.212   4.359   4.708
 5815SOL    HW218345   0.224   4.509   4.644
 5816SOL     OW18346   7.003   4.084   1.340
 5816SOL    HW118347   6.980   4.139   1.260
 5816SOL    HW218348   7.016   3.989   1.312
 5817SOL     OW18349   6.690   2.605   3.385
 5817SOL    HW118350   6.677   2.511   3.353
 5817SOL    HW218351   6.762   2.648   3.332
 5818SOL     OW18352   2.692   1.048   3.905
 5818SOL    HW118353   2.689   1.051   3.805
 5818SOL    HW218354   2.600   1.033   3.940
 5819SOL     OW18355   4.051   4.517   1.670
 5819SOL    HW118356   4.150   4.511   1.677
 5819SOL    HW218357   4.014   4.557   1.755
 5820SOL     OW18358   0.513   6.328   2.167
 5820SOL    HW118359   0.601   6.374   2.176
 5820SOL    HW218360   0.485   6.291   2.256
 5821SOL     OW18361   4.555   5.872   1.691
 5821SOL    HW118362   4.515   5.783   1.712
 5821SOL    HW218363   4.648   5.876   1.727
 5822SOL     OW18364   1.142   3.945   3.286
 5822SOL    HW118365   1.168   3.853   3.317
 5822SOL    HW218366   1.205   3.976   3.216
 5823SOL     OW18367   2.030   6.398   4.716
 5823SOL    HW118368   2.069   6.312   4.685
 5823SOL    HW218369   1.962   6.430   4.649
 5824SOL     OW18370   1.969   5.579   2.246
 5824SOL    HW118371   1.972   5.675   2.272
 5824SOL    HW218372   2.007   5.568   2.154
 5825SOL     OW18373   3.457   2.101   4.775
 5825SOL    HW118374   3.520   2.179   4.775
 5825SOL    HW218375   3.424   2.085   4.868
 5826SOL     OW18376   1.345   6.176   5.821
 5826SOL    HW118377   1.293   6.111   5.877
 5826SOL    HW218378   1.380   6.249   5.879
 5827SOL     OW18379   1.496   4.829   4.117
 5827SOL    HW118380   1.484   4.893   4.042
 5827SOL    HW218381   1.429   4.755   4.110
 5828SOL     OW18382   4.658   0.294   5.201
 5828SOL    HW118383   4.671   0.253   5.111
 5828SOL    HW218384   4.562   0.287   5.228
 5829SOL     OW18385   1.956   1.464   2.784
 5829SOL    HW118386   1.953   1.365   2.789
 5829SOL    HW218387   1.891   1.497   2.715
 5830SOL     OW18388   4.982   5.286   4.175
 5830SOL    HW118389   4.939   5.366   4.218
 5830SOL    HW218390   4.963   5.204   4.230
 5831SOL     OW18391   2.533   1.936   3.847
 5831SOL    HW118392   2.594   1.865   3.883
 5831SOL    HW218393   2.553   2.023   3.892
 5832SOL     OW18394   3.214   5.338   3.150
 5832SOL    HW118395   3.287   5.296   3.097
 5832SOL    HW218396   3.205   5.292   3.238
 5833SOL     OW18397   2.240   4.571   1.726
 5833SOL    HW118398   2.327   4.619   1.710
 5833SOL    HW218399   2.164   4.633   1.706
 5834SOL     OW18400   6.019   1.383   6.759
 5834SOL    HW118401   5.957   1.356   6.685
 5834SOL    HW218402   5.971   1.380   6.846
 5835SOL     OW18403   3.770   0.665   3.690
 5835SOL    HW118404   3.868   0.651   3.698
 5835SOL    HW218405   3.745   0.672   3.593
 5836SOL     OW18406   6.125   4.676   1.364
 5836SOL    HW118407   6.155   4.652   1.456
 5836SOL    HW218408   6.048   4.740   1.370
 5837SOL     OW18409   2.102   4.117   0.020
 5837SOL    HW118410   2.036   4.181   0.058
 5837SOL    HW218411   2.060   4.065   6.965
 5838SOL     OW18412   3.000   3.360   0.787
 5838SOL    HW118413   3.049   3.356   0.874
 5838SOL    HW218414   3.024   3.280   0.732
 5839SOL     OW18415   2.640   1.855   1.138
 5839SOL    HW118416   2.554   1.806   1.153
 5839SOL    HW218417   2.624   1.954   1.144
 5840SOL     OW18418   6.185   3.450   2.335
 5840SOL    HW118419   6.098   3.463   2.381
 5840SOL    HW218420   6.174   3.465   2.237
 5841SOL     OW18421   4.942   1.250   0.267
 5841SOL    HW118422   4.864   1.312   0.266
 5841SOL    HW218423   5.027   1.303   0.270
 5842SOL     OW18424   3.623   2.059   2.242
 5842SOL    HW118425   3.551   2.077   2.309
 5842SOL    HW218426   3.618   2.125   2.168
 5843SOL     OW18427   2.946   2.449   1.537
 5843SOL    HW118428   2.985   2.517   1.599
 5843SOL    HW218429   3.007   2.370   1.532
 5844SOL     OW18430   6.321   5.343   5.134
 5844SOL    HW118431   6.405   5.384   5.170
 5844SOL    HW218432   6.316   5.359   5.036
 5845SOL     OW18433   2.042   6.099   3.050
 5845SOL    HW118434   2.013   6.004   3.047
 5845SOL    HW218435   1.965   6.159   3.029
 5846SOL     OW18436   0.305   3.919   5.485
 5846SOL    HW118437   0.390   3.951   5.527
 5846SOL    HW218438   0.320   3.904   5.387
 5847SOL     OW18439   1.930   3.699   5.618
 5847SOL    HW118440   1.934   3.796   5.643
 5847SOL    HW218441   1.966   3.687   5.526
 5848SOL     OW18442   3.137   6.651   2.007
 5848SOL    HW118443   3.226   6.690   1.981
 5848SOL    HW218444   3.071   6.668   1.935
 5849SOL     OW18445   2.914   6.111   6.429
 5849SOL    HW118446   2.910   6.064   6.341
 5849SOL    HW218447   2.829   6.096   6.479
 5850SOL     OW18448   5.501   2.282   1.203
 5850SOL    HW118449   5.412   2.308   1.240
 5850SOL    HW218450   5.504   2.301   1.105
 5851SOL     OW18451   1.185   2.643   5.862
 5851SOL    HW118452   1.255   2.715   5.858
 5851SOL    HW218453   1.102   2.680   5.903
 5852SOL     OW18454   4.534   4.980   3.061
 5852SOL    HW118455   4.520   4.940   2.971
 5852SOL    HW218456   4.567   4.910   3.124
 5853SOL     OW18457   4.317   4.877   6.753
 5853SOL    HW118458   4.401   4.867   6.805
 5853SOL    HW218459   4.318   4.964   6.704
 5854SOL     OW18460   2.598   4.194   5.439
 5854SOL    HW118461   2.620   4.123   5.372
 5854SOL    HW218462   2.588   4.282   5.392
 5855SOL     OW18463   1.566   2.304   4.575
 5855SOL    HW118464   1.655   2.300   4.530
 5855SOL    HW218465   1.499   2.343   4.511
 5856SOL     OW18466   0.170   0.815   2.183
 5856SOL    HW118467   0.247   0.804   2.246
 5856SOL    HW218468   0.173   0.743   2.114
 5857SOL     OW18469   6.601   5.910   6.882
 5857SOL    HW118470   6.539   5.987   6.892
 5857SOL    HW218471   6.627   5.901   6.786
 5858SOL     OW18472   2.489   1.636   1.238
 5858SOL    HW118473   2.398   1.650   1.200
 5858SOL    HW218474   2.485   1.570   1.313
 5859SOL     OW18475   6.365   4.834   1.382
 5859SOL    HW118476   6.369   4.934   1.377
 5859SOL    HW218477   6.274   4.803   1.354
 5860SOL     OW18478   1.817   2.874   1.623
 5860SOL    HW118479   1.771   2.795   1.664
 5860SOL    HW218480   1.749   2.946   1.607
 5861SOL     OW18481   5.051   6.458   4.839
 5861SOL    HW118482   5.108   6.503   4.908
 5861SOL    HW218483   4.986   6.397   4.884
 5862SOL     OW18484   0.348   5.344   1.559
 5862SOL    HW118485   0.436   5.338   1.606
 5862SOL    HW218486   0.293   5.264   1.582
 5863SOL     OW18487   4.110   6.614   5.782
 5863SOL    HW118488   4.117   6.643   5.878
 5863SOL    HW218489   4.199   6.620   5.738
 5864SOL     OW18490   3.965   3.819   3.383
 5864SOL    HW118491   3.968   3.913   3.350
 5864SOL    HW218492   3.882   3.805   3.436
 5865SOL     OW18493   6.905   6.329   1.318
 5865SOL    HW118494   6.884   6.345   1.221
 5865SOL    HW218495   6.931   6.416   1.360
 5866SOL     OW18496   2.914   3.497   3.727
 5866SOL    HW118497   2.890   3.514   3.823
 5866SOL    HW218498   2.963   3.410   3.720
 5867SOL     OW18499   4.613   1.237   0.704
 5867SOL    HW118500   4.606   1.144   0.669
 5867SOL    HW218501   4.623   1.235   0.803
 5868SOL     OW18502   1.253   0.939   0.660
 5868SOL    HW118503   1.245   0.845   0.627
 5868SOL    HW218504   1.338   0.979   0.626
 5869SOL     OW18505   2.351   5.384   3.686
 5869SOL    HW118506   2.436   5.432   3.665
 5869SOL    HW218507   2.370   5.287   3.704
 5870SOL     OW18508   3.994   6.441   3.492
 5870SOL    HW118509   3.987   6.359   3.434
 5870SOL    HW218510   3.930   6.510   3.460
 5871SOL     OW18511   3.990   3.565   3.256
 5871SOL    HW118512   4.027   3.498   3.320
 5871SOL    HW218513   4.027   3.655   3.277
 5872SOL     OW18514   3.804   5.035   1.407
 5872SOL    HW118515   3.821   5.109   1.471
 5872SOL    HW218516   3.888   5.011   1.359
 5873SOL     OW18517   3.981   0.062   2.591
 5873SOL    HW118518   4.080   0.050   2.596
 5873SOL    HW218519   3.947   0.022   2.505
 5874SOL     OW18520   0.345   3.441   4.386
 5874SOL    HW118521   0.246   3.457   4.387
 5874SOL    HW218522   0.377   3.435   4.292
 5875SOL     OW18523   4.558   2.678   1.439
 5875SOL    HW118524   4.535   2.738   1.363
 5875SOL    HW218525   4.616   2.728   1.504
 5876SOL     OW18526   3.656   3.676   2.718
 5876SOL    HW118527   3.625   3.715   2.631
 5876SOL    HW218528   3.584   3.689   2.787
 5877SOL     OW18529   4.458   4.842   1.654
 5877SOL    HW118530   4.482   4.938   1.647
 5877SOL    HW218531   4.395   4.818   1.580
 5878SOL     OW18532   0.516   3.470   2.030
 5878SOL    HW118533   0.462   3.411   1.971
 5878SOL    HW218534   0.475   3.561   2.033
 5879SOL     OW18535   2.010   4.341   4.886
 5879SOL    HW118536   2.005   4.254   4.837
 5879SOL    HW218537   1.921   4.386   4.884
 5880SOL     OW18538   2.558   5.134   0.153
 5880SOL    HW118539   2.633   5.182   0.198
 5880SOL    HW218540   2.581   5.037   0.144
 5881SOL     OW18541   1.422   5.951   4.344
 5881SOL    HW118542   1.467   5.906   4.421
 5881SOL    HW218543   1.476   5.936   4.261
 5882SOL     OW18544   5.103   0.297   3.358
 5882SOL    HW118545   5.141   0.211   3.392
 5882SOL    HW218546   5.174   0.347   3.308
 5883SOL     OW18547   0.688   3.316   5.624
 5883SOL    HW118548   0.777   3.361   5.633
 5883SOL    HW218549   0.616   3.384   5.620
 5884SOL     OW18550   0.314   1.251   3.563
 5884SOL    HW118551   0.388   1.192   3.532
 5884SOL    HW218552   0.337   1.290   3.652
 5885SOL     OW18553   6.065   5.896   0.378
 5885SOL    HW118554   6.001   5.884   0.302
 5885SOL    HW218555   6.129   5.969   0.355
 5886SOL     OW18556   5.911   1.768   5.373
 5886SOL    HW118557   5.937   1.861   5.345
 5886SOL    HW218558   5.947   1.702   5.307
 5887SOL     OW18559   3.667   0.144   2.452
 5887SOL    HW118560   3.711   0.168   2.539
 5887SOL    HW218561   3.664   0.224   2.393
 5888SOL     OW18562   6.735   6.067   1.755
 5888SOL    HW118563   6.787   6.073   1.840
 5888SOL    HW218564   6.750   6.150   1.701
 5889SOL     OW18565   3.012   0.220   1.214
 5889SOL    HW118566   2.990   0.175   1.300
 5889SOL    HW218567   2.931   0.221   1.156
 5890SOL     OW18568   4.067   5.324   5.767
 5890SOL    HW118569   4.147   5.268   5.747
 5890SOL    HW218570   4.054   5.330   5.866
 5891SOL     OW18571   2.261   2.868   6.788
 5891SOL    HW118572   2.236   2.811   6.867
 5891SOL    HW218573   2.360   2.886   6.791
 5892SOL     OW18574   3.152   5.523   1.382
 5892SOL    HW118575   3.190   5.447   1.328
 5892SOL    HW218576   3.059   5.501   1.409
 5893SOL     OW18577   0.376   2.819   2.097
 5893SOL    HW118578   0.400   2.745   2.160
 5893SOL    HW218579   0.420   2.903   2.127
 5894SOL     OW18580   1.993   4.057   3.377
 5894SOL    HW118581   2.040   3.990   3.434
 5894SOL    HW218582   1.922   4.010   3.324
 5895SOL     OW18583   5.082   5.348   2.773
 5895SOL    HW118584   5.056   5.313   2.862
 5895SOL    HW218585   5.007   5.401   2.734
 5896SOL     OW18586   5.818   2.139   5.701
 5896SOL    HW118587   5.742   2.109   5.759
 5896SOL    HW218588   5.799   2.114   5.606
 5897SOL     OW18589   4.485   4.065   0.415
 5897SOL    HW118590   4.428   4.120   0.354
 5897SOL    HW218591   4.556   4.123   0.455
 5898SOL     OW18592   1.450   5.749   2.664
 5898SOL    HW118593   1.424   5.723   2.571
 5898SOL    HW218594   1.549   5.743   2.674
 5899SOL     OW18595   5.283   0.847   3.738
 5899SOL    HW118596   5.262   0.943   3.721
 5899SOL    HW218597   5.363   0.840   3.797
 5900SOL     OW18598   3.531   5.165   1.911
 5900SOL    HW118599   3.621   5.209   1.910
 5900SOL    HW218600   3.466   5.220   1.859
 5901SOL     OW18601   3.030   6.416   3.464
 5901SOL    HW118602   3.039   6.408   3.365
 5901SOL    HW218603   2.936   6.392   3.490
 5902SOL     OW18604   6.494   1.961   0.386
 5902SOL    HW118605   6.482   1.936   0.290
 5902SOL    HW218606   6.467   2.056   0.399
 5903SOL     OW18607   0.636   1.643   6.496
 5903SOL    HW118608   0.679   1.718   6.444
 5903SOL    HW218609   0.645   1.662   6.594
 5904SOL     OW18610   0.291   2.869   1.660
 5904SOL    HW118611   0.195   2.878   1.684
 5904SOL    HW218612   0.320   2.774   1.673
 5905SOL     OW18613   6.703   3.876   2.275
 5905SOL    HW118614   6.604   3.867   2.276
 5905SOL    HW218615   6.730   3.956   2.330
 5906SOL     OW18616   6.766   1.505   3.315
 5906SOL    HW118617   6.674   1.541   3.335
 5906SOL    HW218618   6.811   1.480   3.401
 5907SOL     OW18619   1.587   0.975   2.191
 5907SOL    HW118620   1.527   0.908   2.234
 5907SOL    HW218621   1.535   1.056   2.165
 5908SOL     OW18622   0.517   2.950   5.363
 5908SOL    HW118623   0.565   2.961   5.450
 5908SOL    HW218624   0.544   3.023   5.300
 5909SOL     OW18625   6.609   4.378   6.323
 5909SOL    HW118626   6.583   4.420   6.236
 5909SOL    HW218627   6.666   4.298   6.305
 5910SOL     OW18628   1.312   1.769   3.281
 5910SOL    HW118629   1.249   1.773   3.204
 5910SOL    HW218630   1.272   1.712   3.353
 5911SOL     OW18631   5.790   4.986   6.559
 5911SOL    HW118632   5.875   5.031   6.530
 5911SOL    HW218633   5.719   5.002   6.490
 5912SOL     OW18634   0.641   1.934   2.590
 5912SOL    HW118635   0.674   1.882   2.511
 5912SOL    HW218636   0.618   1.871   2.664
 5913SOL     OW18637   0.007   3.851   1.224
 5913SOL    HW118638   0.092   3.821   1.179
 5913SOL    HW218639   6.947   3.814   1.174
 5914SOL     OW18640   1.406   6.800   0.674
 5914SOL    HW118641   1.370   6.708   0.693
 5914SOL    HW218642   1.468   6.796   0.596
 5915SOL     OW18643   4.638   0.434   5.591
 5915SOL    HW118644   4.545   0.441   5.556
 5915SOL    HW218645   4.635   0.421   5.691
 5916SOL     OW18646   0.783   0.687   3.074
 5916SOL    HW118647   0.853   0.619   3.052
 5916SOL    HW218648   0.726   0.705   2.994
 5917SOL     OW18649   3.785   3.230   0.471
 5917SOL    HW118650   3.790   3.323   0.508
 5917SOL    HW218651   3.827   3.166   0.535
 5918SOL     OW18652   3.298   6.481   5.168
 5918SOL    HW118653   3.278   6.383   5.165
 5918SOL    HW218654   3.242   6.529   5.101
 5919SOL     OW18655   2.954   3.529   4.607
 5919SOL    HW118656   2.948   3.451   4.545
 5919SOL    HW218657   3.050   3.553   4.621
 5920SOL     OW18658   1.576   0.232   5.578
 5920SOL    HW118659   1.567   0.330   5.561
 5920SOL    HW218660   1.508   0.204   5.646
 5921SOL     OW18661   2.759   4.314   1.037
 5921SOL    HW118662   2.736   4.222   1.003
 5921SOL    HW218663   2.839   4.349   0.988
 5922SOL     OW18664   5.055   2.620   2.126
 5922SOL    HW118665   5.082   2.667   2.041
 5922SOL    HW218666   5.087   2.525   2.122
 5923SOL     OW18667   5.778   0.840   2.538
 5923SOL    HW118668   5.839   0.881   2.469
 5923SOL    HW218669   5.685   0.875   2.525
 5924SOL     OW18670   0.400   5.823   3.257
 5924SOL    HW118671   0.310   5.866   3.246
 5924SOL    HW218672   0.471   5.886   3.224
 5925SOL     OW18673   4.247   0.649   0.873
 5925SOL    HW118674   4.224   0.577   0.806
 5925SOL    HW218675   4.171   0.661   0.936
 5926SOL     OW18676   4.899   3.326   3.242
 5926SOL    HW118677   4.869   3.379   3.321
 5926SOL    HW218678   4.883   3.228   3.259
 5927SOL     OW18679   1.344   0.087   1.624
 5927SOL    HW118680   1.314   0.166   1.570
 5927SOL    HW218681   1.444   0.082   1.623
 5928SOL     OW18682   3.160   6.946   0.044
 5928SOL    HW118683   3.260   6.948   0.042
 5928SOL    HW218684   3.127   6.889   6.987
 5929SOL     OW18685   1.165   0.662   1.372
 5929SOL    HW118686   1.201   0.687   1.462
 5929SOL    HW218687   1.078   0.614   1.384
 5930SOL     OW18688   0.586   4.823   1.661
 5930SOL    HW118689   0.656   4.857   1.724
 5930SOL    HW218690   0.510   4.887   1.658
 5931SOL     OW18691   4.631   0.659   4.888
 5931SOL    HW118692   4.705   0.726   4.894
 5931SOL    HW218693   4.631   0.603   4.971
 5932SOL     OW18694   2.805   5.433   0.949
 5932SOL    HW118695   2.883   5.444   0.887
 5932SOL    HW218696   2.728   5.393   0.900
 5933SOL     OW18697   6.909   5.507   4.210
 5933SOL    HW118698   6.867   5.588   4.252
 5933SOL    HW218699   6.956   5.454   4.280
 5934SOL     OW18700   2.993   4.770   0.065
 5934SOL    HW118701   3.070   4.752   0.004
 5934SOL    HW218702   3.010   4.728   0.154
 5935SOL     OW18703   1.492   0.784   5.477
 5935SOL    HW118704   1.477   0.869   5.426
 5935SOL    HW218705   1.468   0.799   5.573
 5936SOL     OW18706   3.892   3.247   2.097
 5936SOL    HW118707   3.986   3.243   2.061
 5936SOL    HW218708   3.838   3.172   2.058
 5937SOL     OW18709   0.767   2.653   0.584
 5937SOL    HW118710   0.751   2.588   0.659
 5937SOL    HW218711   0.761   2.604   0.497
 5938SOL     OW18712   0.390   3.388   4.116
 5938SOL    HW118713   0.483   3.350   4.106
 5938SOL    HW218714   0.329   3.340   4.053
 5939SOL     OW18715   4.967   1.873   5.939
 5939SOL    HW118716   4.921   1.959   5.958
 5939SOL    HW218717   4.924   1.800   5.991
 5940SOL     OW18718   4.891   4.974   1.089
 5940SOL    HW118719   4.831   5.020   1.023
 5940SOL    HW218720   4.843   4.896   1.129
 5941SOL     OW18721   1.577   1.766   3.326
 5941SOL    HW118722   1.619   1.703   3.261
 5941SOL    HW218723   1.481   1.781   3.301
 5942SOL     OW18724   4.814   2.232   6.574
 5942SOL    HW118725   4.755   2.311   6.561
 5942SOL    HW218726   4.865   2.214   6.490
 5943SOL     OW18727   2.044   4.527   2.328
 5943SOL    HW118728   2.000   4.532   2.418
 5943SOL    HW218729   2.053   4.618   2.289
 5944SOL     OW18730   6.706   3.206   5.670
 5944SOL    HW118731   6.768   3.244   5.739
 5944SOL    HW218732   6.727   3.246   5.581
 5945SOL     OW18733   0.596   6.633   4.374
 5945SOL    HW118734   0.574   6.536   4.362
 5945SOL    HW218735   0.683   6.642   4.423
 5946SOL     OW18736   3.233   2.736   6.807
 5946SOL    HW118737   3.194   2.819   6.845
 5946SOL    HW218738   3.180   2.707   6.727
 5947SOL     OW18739   3.288   3.683   5.690
 5947SOL    HW118740   3.196   3.710   5.662
 5947SOL    HW218741   3.294   3.583   5.692
 5948SOL     OW18742   4.733   3.856   1.185
 5948SOL    HW118743   4.666   3.905   1.131
 5948SOL    HW218744   4.706   3.856   1.281
 5949SOL     OW18745   1.580   4.921   4.422
 5949SOL    HW118746   1.672   4.892   4.450
 5949SOL    HW218747   1.587   4.998   4.359
 5950SOL     OW18748   1.895   6.420   5.141
 5950SOL    HW118749   1.888   6.517   5.162
 5950SOL    HW218750   1.804   6.381   5.131
 5951SOL     OW18751   0.190   2.942   6.161
 5951SOL    HW118752   0.119   2.976   6.099
 5951SOL    HW218753   0.278   2.942   6.114
 5952SOL     OW18754   3.571   4.174   2.042
 5952SOL    HW118755   3.538   4.168   2.136
 5952SOL    HW218756   3.670   4.168   2.041
 5953SOL     OW18757   0.048   2.857   6.664
 5953SOL    HW118758   0.044   2.781   6.600
 5953SOL    HW218759   0.137   2.858   6.710
 5954SOL     OW18760   2.658   5.029   3.736
 5954SOL    HW118761   2.642   4.969   3.658
 5954SOL    HW218762   2.738   4.996   3.787
 5955SOL     OW18763   4.545   3.207   0.488
 5955SOL    HW118764   4.601   3.196   0.570
 5955SOL    HW218765   4.571   3.292   0.442
 5956SOL     OW18766   4.355   2.148   6.884
 5956SOL    HW118767   4.351   2.167   6.786
 5956SOL    HW218768   4.375   2.051   6.898
 5957SOL     OW18769   6.913   2.736   3.689
 5957SOL    HW118770   6.908   2.775   3.597
 5957SOL    HW218771   6.988   2.670   3.693
 5958SOL     OW18772   2.383   6.397   1.822
 5958SOL    HW118773   2.467   6.391   1.876
 5958SOL    HW218774   2.311   6.344   1.867
 5959SOL     OW18775   5.061   4.479   2.899
 5959SOL    HW118776   4.963   4.457   2.897
 5959SOL    HW218777   5.113   4.396   2.917
 5960SOL     OW18778   6.343   6.828   6.712
 5960SOL    HW118779   6.380   6.844   6.803
 5960SOL    HW218780   6.406   6.771   6.659
 5961SOL     OW18781   1.615   2.029   3.417
 5961SOL    HW118782   1.673   2.076   3.351
 5961SOL    HW218783   1.616   1.930   3.398
 5962SOL     OW18784   5.301   5.309   0.532
 5962SOL    HW118785   5.202   5.318   0.544
 5962SOL    HW218786   5.320   5.258   0.448
 5963SOL     OW18787   2.464   4.238   1.235
 5963SOL    HW118788   2.476   4.296   1.316
 5963SOL    HW218789   2.370   4.245   1.202
 5964SOL     OW18790   1.394   6.381   4.185
 5964SOL    HW118791   1.482   6.334   4.195
 5964SOL    HW218792   1.409   6.478   4.166
 5965SOL     OW18793   1.882   0.344   1.483
 5965SOL    HW118794   1.873   0.443   1.495
 5965SOL    HW218795   1.809   0.311   1.423
 5966SOL     OW18796   2.942   1.811   5.564
 5966SOL    HW118797   2.928   1.752   5.643
 5966SOL    HW218798   2.923   1.759   5.480
 5967SOL     OW18799   4.725   2.162   5.900
 5967SOL    HW118800   4.676   2.131   5.982
 5967SOL    HW218801   4.732   2.262   5.901
 5968SOL     OW18802   6.422   1.584   3.115
 5968SOL    HW118803   6.384   1.606   3.025
 5968SOL    HW218804   6.508   1.632   3.127
 5969SOL     OW18805   5.390   6.395   1.892
 5969SOL    HW118806   5.478   6.441   1.907
 5969SOL    HW218807   5.377   6.380   1.794
 5970SOL     OW18808   6.242   1.732   0.450
 5970SOL    HW118809   6.339   1.709   0.460
 5970SOL    HW218810   6.195   1.658   0.402
 5971SOL     OW18811   6.808   5.164   3.809
 5971SOL    HW118812   6.854   5.075   3.808
 5971SOL    HW218813   6.836   5.215   3.891
 5972SOL     OW18814   6.328   5.270   0.207
 5972SOL    HW118815   6.295   5.233   0.294
 5972SOL    HW218816   6.402   5.214   0.172
 5973SOL     OW18817   3.459   0.722   2.070
 5973SOL    HW118818   3.426   0.628   2.075
 5973SOL    HW218819   3.451   0.765   2.160
 5974SOL     OW18820   5.469   0.898   4.676
 5974SOL    HW118821   5.387   0.842   4.661
 5974SOL    HW218822   5.470   0.974   4.611
 5975SOL     OW18823   4.069   4.475   0.578
 5975SOL    HW118824   4.010   4.539   0.530
 5975SOL    HW218825   4.032   4.456   0.669
 5976SOL     OW18826   0.722   1.829   6.320
 5976SOL    HW118827   0.633   1.870   6.299
 5976SOL    HW218828   0.795   1.896   6.302
 5977SOL     OW18829   0.663   5.680   1.576
 5977SOL    HW118830   0.753   5.695   1.535
 5977SOL    HW218831   0.597   5.661   1.504
 5978SOL     OW18832   2.892   3.680   6.203
 5978SOL    HW118833   2.944   3.618   6.143
 5978SOL    HW218834   2.950   3.713   6.277
 5979SOL     OW18835   5.955   0.645   1.586
 5979SOL    HW118836   5.970   0.658   1.488
 5979SOL    HW218837   5.915   0.728   1.625
 5980SOL     OW18838   4.026   2.486   0.368
 5980SOL    HW118839   4.082   2.484   0.285
 5980SOL    HW218840   4.038   2.574   0.414
 5981SOL     OW18841   4.181   2.308   0.774
 5981SOL    HW118842   4.158   2.405   0.772
 5981SOL    HW218843   4.279   2.297   0.792
 5982SOL     OW18844   5.893   2.889   1.368
 5982SOL    HW118845   5.799   2.888   1.335
 5982SOL    HW218846   5.927   2.796   1.377
 5983SOL     OW18847   0.434   2.094   3.439
 5983SOL    HW118848   0.347   2.055   3.410
 5983SOL    HW218849   0.509   2.050   3.390
 5984SOL     OW18850   6.278   5.724   1.770
 5984SOL    HW118851   6.323   5.637   1.789
 5984SOL    HW218852   6.265   5.775   1.856
 5985SOL     OW18853   0.321   4.237   2.547
 5985SOL    HW118854   0.343   4.146   2.514
 5985SOL    HW218855   0.340   4.304   2.475
 5986SOL     OW18856   3.666   3.449   2.881
 5986SOL    HW118857   3.691   3.521   2.816
 5986SOL    HW218858   3.586   3.400   2.848
 5987SOL     OW18859   0.370   5.880   4.376
 5987SOL    HW118860   0.354   5.781   4.374
 5987SOL    HW218861   0.305   5.926   4.315
 5988SOL     OW18862   1.845   2.006   0.774
 5988SOL    HW118863   1.915   2.001   0.845
 5988SOL    HW218864   1.851   2.094   0.727
 5989SOL     OW18865   2.573   6.382   5.824
 5989SOL    HW118866   2.491   6.346   5.870
 5989SOL    HW218867   2.554   6.393   5.726
 5990SOL     OW18868   2.456   4.117   1.567
 5990SOL    HW118869   2.373   4.120   1.511
 5990SOL    HW218870   2.437   4.067   1.652
 5991SOL     OW18871   5.277   1.240   0.695
 5991SOL    HW118872   5.306   1.205   0.784
 5991SOL    HW218873   5.185   1.208   0.675
 5992SOL     OW18874   2.710   4.715   2.560
 5992SOL    HW118875   2.645   4.656   2.608
 5992SOL    HW218876   2.711   4.693   2.463
 5993SOL     OW18877   5.631   1.025   0.048
 5993SOL    HW118878   5.719   1.027   7.018
 5993SOL    HW218879   5.647   1.013   0.146
 5994SOL     OW18880   0.887   4.695   1.091
 5994SOL    HW118881   0.796   4.719   1.124
 5994SOL    HW218882   0.914   4.759   1.019
 5995SOL     OW18883   5.411   4.801   1.244
 5995SOL    HW118884   5.344   4.800   1.319
 5995SOL    HW218885   5.502   4.784   1.280
 5996SOL     OW18886   2.343   1.093   1.988
 5996SOL    HW118887   2.298   1.120   2.074
 5996SOL    HW218888   2.439   1.120   1.991
 5997SOL     OW18889   6.572   0.729   4.748
 5997SOL    HW118890   6.628   0.752   4.668
 5997SOL    HW218891   6.486   0.779   4.744
 5998SOL     OW18892   5.792   6.534   0.341
 5998SOL    HW118893   5.704   6.544   0.388
 5998SOL    HW218894   5.855   6.605   0.372
 5999SOL     OW18895   5.710   3.008   0.458
 5999SOL    HW118896   5.776   2.978   0.526
 5999SOL    HW218897   5.677   3.100   0.481
 6000SOL     OW18898   0.483   5.125   1.970
 6000SOL    HW118899   0.434   5.211   1.985
 6000SOL    HW218900   0.459   5.088   1.880
 6001SOL     OW18901   0.293   6.529   5.931
 6001SOL    HW118902   0.231   6.454   5.953
 6001SOL    HW218903   0.387   6.496   5.933
 6002SOL     OW18904   5.609   5.005   4.628
 6002SOL    HW118905   5.613   5.101   4.599
 6002SOL    HW218906   5.587   5.001   4.726
 6003SOL     OW18907   2.535   0.776   4.779
 6003SOL    HW118908   2.540   0.874   4.760
 6003SOL    HW218909   2.536   0.726   4.693
 6004SOL     OW18910   5.567   2.919   5.070
 6004SOL    HW118911   5.473   2.912   5.105
 6004SOL    HW218912   5.601   3.012   5.087
 6005SOL     OW18913   3.863   3.861   0.285
 6005SOL    HW118914   3.855   3.762   0.276
 6005SOL    HW218915   3.829   3.888   0.375
 6006SOL     OW18916   2.705   6.138   5.875
 6006SOL    HW118917   2.638   6.064   5.881
 6006SOL    HW218918   2.675   6.215   5.932
 6007SOL     OW18919   3.254   6.564   4.470
 6007SOL    HW118920   3.166   6.526   4.497
 6007SOL    HW218921   3.247   6.607   4.380
 6008SOL     OW18922   2.218   3.869   6.727
 6008SOL    HW118923   2.210   3.811   6.646
 6008SOL    HW218924   2.153   3.838   6.797
 6009SOL     OW18925   2.314   5.678   2.261
 6009SOL    HW118926   2.289   5.773   2.283
 6009SOL    HW218927   2.294   5.620   2.340
 6010SOL     OW18928   0.246   5.351   5.832
 6010SOL    HW118929   0.313   5.362   5.905
 6010SOL    HW218930   0.239   5.436   5.780
 6011SOL     OW18931   5.897   1.912   3.486
 6011SOL    HW118932   5.879   1.937   3.582
 6011SOL    HW218933   5.994   1.891   3.475
 6012SOL     OW18934   6.549   0.885   5.671
 6012SOL    HW118935   6.482   0.891   5.745
 6012SOL    HW218936   6.642   0.889   5.709
 6013SOL     OW18937   5.929   1.555   2.660
 6013SOL    HW118938   6.019   1.595   2.681
 6013SOL    HW218939   5.936   1.456   2.662
 6014SOL     OW18940   3.880   3.824   4.340
 6014SOL    HW118941   3.811   3.874   4.287
 6014SOL    HW218942   3.913   3.747   4.286
 6015SOL     OW18943   6.951   0.339   3.397
 6015SOL    HW118944   6.948   0.379   3.489
 6015SOL    HW218945   6.957   0.240   3.404
 6016SOL     OW18946   4.345   2.023   3.910
 6016SOL    HW118947   4.326   2.121   3.913
 6016SOL    HW218948   4.444   2.009   3.902
 6017SOL     OW18949   1.388   2.488   5.058
 6017SOL    HW118950   1.377   2.431   4.977
 6017SOL    HW218951   1.391   2.584   5.032
 6018SOL     OW18952   2.233   0.987   3.853
 6018SOL    HW118953   2.165   1.045   3.898
 6018SOL    HW218954   2.245   1.017   3.759
 6019SOL     OW18955   6.828   2.867   6.244
 6019SOL    HW118956   6.733   2.879   6.215
 6019SOL    HW218957   6.838   2.899   6.338
 6020SOL     OW18958   0.454   5.633   4.853
 6020SOL    HW118959   0.489   5.592   4.937
 6020SOL    HW218960   0.355   5.617   4.847
 6021SOL     OW18961   5.153   0.199   3.999
 6021SOL    HW118962   5.245   0.233   4.014
 6021SOL    HW218963   5.086   0.272   4.016
 6022SOL     OW18964   6.359   3.865   1.292
 6022SOL    HW118965   6.353   3.963   1.310
 6022SOL    HW218966   6.267   3.828   1.277
 6023SOL     OW18967   4.125   0.495   3.206
 6023SOL    HW118968   4.197   0.440   3.163
 6023SOL    HW218969   4.166   0.576   3.247
 6024SOL     OW18970   0.613   6.446   6.894
 6024SOL    HW118971   0.689   6.510   6.883
 6024SOL    HW218972   0.550   6.481   6.963
 6025SOL     OW18973   3.436   0.194   5.762
 6025SOL    HW118974   3.457   0.291   5.746
 6025SOL    HW218975   3.358   0.168   5.706
 6026SOL     OW18976   5.099   6.298   3.642
 6026SOL    HW118977   5.151   6.229   3.692
 6026SOL    HW218978   5.034   6.342   3.704
 6027SOL     OW18979   6.202   4.064   5.634
 6027SOL    HW118980   6.138   4.081   5.709
 6027SOL    HW218981   6.250   4.148   5.611
 6028SOL     OW18982   6.015   5.539   6.596
 6028SOL    HW118983   5.995   5.479   6.519
 6028SOL    HW218984   6.020   5.486   6.680
 6029SOL     OW18985   2.569   1.530   2.499
 6029SOL    HW118986   2.574   1.506   2.596
 6029SOL    HW218987   2.661   1.534   2.461
 6030SOL     OW18988   6.144   2.928   5.090
 6030SOL    HW118989   6.180   2.976   5.009
 6030SOL    HW218990   6.203   2.850   5.111
 6031SOL     OW18991   7.016   0.419   3.668
 6031SOL    HW118992   0.077   0.388   3.719
 6031SOL    HW218993   6.936   0.421   3.729
 6032SOL     OW18994   3.179   0.092   2.959
 6032SOL    HW118995   3.086   0.100   2.924
 6032SOL    HW218996   3.186   0.135   3.048
 6033SOL     OW18997   0.708   1.575   2.831
 6033SOL    HW118998   0.767   1.560   2.752
 6033SOL    HW218999   0.744   1.649   2.887
 6034SOL     OW19000   0.594   0.559   1.037
 6034SOL    HW119001   0.558   0.650   1.018
 6034SOL    HW219002   0.681   0.567   1.087
 6035SOL     OW19003   2.236   1.473   2.713
 6035SOL    HW119004   2.143   1.485   2.749
 6035SOL    HW219005   2.253   1.541   2.642
 6036SOL     OW19006   0.048   3.800   0.281
 6036SOL    HW119007   0.105   3.745   0.220
 6036SOL    HW219008   0.108   3.856   0.339
 6037SOL     OW19009   4.707   0.504   6.579
 6037SOL    HW119010   4.646   0.558   6.637
 6037SOL    HW219011   4.743   0.427   6.631
 6038SOL     OW19012   2.568   1.332   0.136
 6038SOL    HW119013   2.636   1.338   0.064
 6038SOL    HW219014   2.494   1.396   0.117
 6039SOL     OW19015   3.401   2.882   4.348
 6039SOL    HW119016   3.306   2.903   4.325
 6039SOL    HW219017   3.414   2.889   4.447
 6040SOL     OW19018   6.715   0.855   0.618
 6040SOL    HW119019   6.741   0.773   0.567
 6040SOL    HW219020   6.630   0.837   0.668
 6041SOL     OW19021   0.493   3.226   4.488
 6041SOL    HW119022   0.441   3.306   4.458
 6041SOL    HW219023   0.548   3.192   4.412
 6042SOL     OW19024   2.927   5.728   3.041
 6042SOL    HW119025   2.981   5.732   3.125
 6042SOL    HW219026   2.944   5.642   2.994
 6043SOL     OW19027   2.208   4.907   1.282
 6043SOL    HW119028   2.196   4.964   1.363
 6043SOL    HW219029   2.255   4.823   1.307
 6044SOL     OW19030   6.570   4.029   6.832
 6044SOL    HW119031   6.662   4.000   6.859
 6044SOL    HW219032   6.569   4.048   6.734
 6045SOL     OW19033   4.881   1.289   4.183
 6045SOL    HW119034   4.833   1.336   4.109
 6045SOL    HW219035   4.818   1.278   4.261
 6046SOL     OW19036   3.146   3.432   2.678
 6046SOL    HW119037   3.051   3.456   2.698
 6046SOL    HW219038   3.191   3.399   2.761
 6047SOL     OW19039   0.326   1.604   0.723
 6047SOL    HW119040   0.274   1.527   0.760
 6047SOL    HW219041   0.389   1.572   0.653
 6048SOL     OW19042   6.569   5.713   3.858
 6048SOL    HW119043   6.560   5.677   3.765
 6048SOL    HW219044   6.589   5.811   3.853
 6049SOL     OW19045   5.146   4.989   6.989
 6049SOL    HW119046   5.090   5.071   6.976
 6049SOL    HW219047   5.239   5.016   7.014
 6050SOL     OW19048   1.887   5.490   3.337
 6050SOL    HW119049   1.950   5.567   3.333
 6050SOL    HW219050   1.841   5.488   3.426
 6051SOL     OW19051   0.435   1.548   2.803
 6051SOL    HW119052   0.532   1.566   2.821
 6051SOL    HW219053   0.415   1.453   2.827
 6052SOL     OW19054   5.136   5.996   6.617
 6052SOL    HW119055   5.226   6.034   6.637
 6052SOL    HW219056   5.068   6.035   6.679
 6053SOL     OW19057   3.840   1.692   5.648
 6053SOL    HW119058   3.922   1.744   5.625
 6053SOL    HW219059   3.862   1.595   5.654
 6054SOL     OW19060   4.377   3.799   6.582
 6054SOL    HW119061   4.460   3.784   6.635
 6054SOL    HW219062   4.332   3.882   6.614
 6055SOL     OW19063   2.851   4.355   1.411
 6055SOL    HW119064   2.789   4.306   1.349
 6055SOL    HW219065   2.815   4.351   1.504
 6056SOL     OW19066   5.406   6.514   3.250
 6056SOL    HW119067   5.360   6.485   3.166
 6056SOL    HW219068   5.445   6.606   3.236
 6057SOL     OW19069   5.500   1.043   4.157
 6057SOL    HW119070   5.548   1.099   4.224
 6057SOL    HW219071   5.566   0.996   4.099
 6058SOL     OW19072   6.956   2.994   6.012
 6058SOL    HW119073   6.910   2.952   6.090
 6058SOL    HW219074   6.920   2.954   5.927
 6059SOL     OW19075   4.466   2.207   6.335
 6059SOL    HW119076   4.526   2.131   6.359
 6059SOL    HW219077   4.422   2.188   6.247
 6060SOL     OW19078   2.650   2.143   1.137
 6060SOL    HW119079   2.744   2.143   1.104
 6060SOL    HW219080   2.587   2.142   1.060
 6061SOL     OW19081   2.440   4.741   6.726
 6061SOL    HW119082   2.431   4.658   6.782
 6061SOL    HW219083   2.412   4.720   6.632
 6062SOL     OW19084   2.043   2.578   5.169
 6062SOL    HW119085   2.018   2.630   5.087
 6062SOL    HW219086   1.961   2.556   5.221
 6063SOL     OW19087   4.612   3.768   6.328
 6063SOL    HW119088   4.701   3.724   6.314
 6063SOL    HW219089   4.539   3.710   6.293
 6064SOL     OW19090   5.810   6.018   6.997
 6064SOL    HW119091   5.738   6.089   6.996
 6064SOL    HW219092   5.897   6.059   6.969
 6065SOL     OW19093   1.566   5.482   1.624
 6065SOL    HW119094   1.613   5.442   1.545
 6065SOL    HW219095   1.633   5.503   1.695
 6066SOL     OW19096   5.460   5.654   2.813
 6066SOL    HW119097   5.419   5.734   2.769
 6066SOL    HW219098   5.389   5.586   2.832
 6067SOL     OW19099   6.718   4.656   5.346
 6067SOL    HW119100   6.700   4.732   5.408
 6067SOL    HW219101   6.648   4.585   5.358
 6068SOL     OW19102   4.816   1.922   3.558
 6068SOL    HW119103   4.909   1.904   3.589
 6068SOL    HW219104   4.819   1.990   3.484
 6069SOL     OW19105   1.070   4.986   5.587
 6069SOL    HW119106   1.153   4.979   5.641
 6069SOL    HW219107   1.027   5.075   5.603
 6070SOL     OW19108   2.556   0.835   1.409
 6070SOL    HW119109   2.515   0.899   1.343
 6070SOL    HW219110   2.640   0.796   1.370
 6071SOL     OW19111   6.217   0.060   6.641
 6071SOL    HW119112   6.280   7.001   6.652
 6071SOL    HW219113   6.241   0.111   6.558
 6072SOL     OW19114   0.313   2.861   6.790
 6072SOL    HW119115   0.301   2.842   6.888
 6072SOL    HW219116   0.406   2.894   6.773
 6073SOL     OW19117   4.555   4.203   6.972
 6073SOL    HW119118   4.494   4.282   6.969
 6073SOL    HW219119   4.593   4.186   6.880
 6074SOL     OW19120   1.289   6.050   2.366
 6074SOL    HW119121   1.254   6.129   2.417
 6074SOL    HW219122   1.389   6.050   2.370
 6075SOL     OW19123   6.519   6.843   6.937
 6075SOL    HW119124   6.470   6.924   6.969
 6075SOL    HW219125   6.582   6.868   6.864
 6076SOL     OW19126   0.081   6.481   3.181
 6076SOL    HW119127   0.180   6.478   3.195
 6076SOL    HW219128   0.039   6.402   3.225
 6077SOL     OW19129   5.334   6.200   2.572
 6077SOL    HW119130   5.355   6.298   2.571
 6077SOL    HW219131   5.353   6.161   2.482
 6078SOL     OW19132   5.494   4.121   0.452
 6078SOL    HW119133   5.495   4.156   0.359
 6078SOL    HW219134   5.544   4.185   0.512
 6079SOL     OW19135   3.418   1.729   0.162
 6079SOL    HW119136   3.362   1.758   0.240
 6079SOL    HW219137   3.435   1.631   0.168
 6080SOL     OW19138   6.121   3.427   5.557
 6080SOL    HW119139   6.169   3.347   5.522
 6080SOL    HW219140   6.109   3.494   5.484
 6081SOL     OW19141   2.254   4.077   4.096
 6081SOL    HW119142   2.268   4.122   4.008
 6081SOL    HW219143   2.296   4.132   4.169
 6082SOL     OW19144   4.007   0.880   0.935
 6082SOL    HW119145   3.947   0.824   0.992
 6082SOL    HW219146   4.047   0.952   0.991
 6083SOL     OW19147   4.985   0.840   5.512
 6083SOL    HW119148   4.894   0.828   5.472
 6083SOL    HW219149   4.997   0.936   5.539
 6084SOL     OW19150   6.355   4.700   3.259
 6084SOL    HW119151   6.355   4.620   3.199
 6084SOL    HW219152   6.267   4.706   3.307
 6085SOL     OW19153   0.607   6.288   0.942
 6085SOL    HW119154   0.571   6.359   0.881
 6085SOL    HW219155   0.676   6.234   0.893
 6086SOL     OW19156   4.901   3.227   0.404
 6086SOL    HW119157   4.920   3.271   0.491
 6086SOL    HW219158   4.926   3.130   0.409
 6087SOL     OW19159   4.229   0.829   0.087
 6087SOL    HW119160   4.295   0.841   0.161
 6087SOL    HW219161   4.218   0.916   0.039
 6088SOL     OW19162   4.160   6.066   2.381
 6088SOL    HW119163   4.182   6.035   2.289
 6088SOL    HW219164   4.198   6.157   2.396
 6089SOL     OW19165   6.347   5.370   2.884
 6089SOL    HW119166   6.340   5.380   2.984
 6089SOL    HW219167   6.353   5.273   2.861
 6090SOL     OW19168   3.810   5.735   4.490
 6090SOL    HW119169   3.886   5.729   4.555
 6090SOL    HW219170   3.813   5.657   4.428
 6091SOL     OW19171   0.213   2.668   1.950
 6091SOL    HW119172   0.261   2.658   1.863
 6091SOL    HW219173   0.266   2.727   2.011
 6092SOL     OW19174   1.801   6.892   1.025
 6092SOL    HW119175   1.839   6.961   0.963
 6092SOL    HW219176   1.714   6.860   0.990
 6093SOL     OW19177   3.706   3.393   2.588
 6093SOL    HW119178   3.665   3.311   2.548
 6093SOL    HW219179   3.642   3.470   2.579
 6094SOL     OW19180   0.461   0.285   5.869
 6094SOL    HW119181   0.458   0.187   5.886
 6094SOL    HW219182   0.554   0.313   5.847
 6095SOL     OW19183   5.405   4.960   2.126
 6095SOL    HW119184   5.389   5.058   2.144
 6095SOL    HW219185   5.408   4.910   2.213
 6096SOL     OW19186   4.914   6.234   2.800
 6096SOL    HW119187   4.966   6.195   2.724
 6096SOL    HW219188   4.873   6.320   2.771
 6097SOL     OW19189   2.215   5.313   1.156
 6097SOL    HW119190   2.275   5.318   1.235
 6097SOL    HW219191   2.259   5.260   1.084
 6098SOL     OW19192   6.071   1.407   5.377
 6098SOL    HW119193   6.098   1.417   5.282
 6098SOL    HW219194   5.971   1.412   5.384
 6099SOL     OW19195   3.167   6.910   5.637
 6099SOL    HW119196   3.147   6.938   5.543
 6099SOL    HW219197   3.239   6.841   5.636
 6100SOL     OW19198   7.000   5.575   6.090
 6100SOL    HW119199   0.017   5.520   6.015
 6100SOL    HW219200   6.975   5.515   6.166
 6101SOL     OW19201   1.025   2.732   0.553
 6101SOL    HW119202   1.039   2.823   0.592
 6101SOL    HW219203   0.927   2.711   0.553
 6102SOL     OW19204   2.811   0.383   2.853
 6102SOL    HW119205   2.792   0.435   2.936
 6102SOL    HW219206   2.909   0.363   2.848
 6103SOL     OW19207   5.796   0.336   2.680
 6103SOL    HW119208   5.868   0.274   2.650
 6103SOL    HW219209   5.826   0.387   2.761
 6104SOL     OW19210   6.622   0.916   4.967
 6104SOL    HW119211   6.695   0.879   5.025
 6104SOL    HW219212   6.588   0.844   4.906
 6105SOL     OW19213   3.844   4.816   6.574
 6105SOL    HW119214   3.843   4.718   6.595
 6105SOL    HW219215   3.924   4.859   6.617
 6106SOL     OW19216   6.329   3.961   5.174
 6106SOL    HW119217   6.356   3.963   5.271
 6106SOL    HW219218   6.370   3.882   5.130
 6107SOL     OW19219   6.128   4.868   4.806
 6107SOL    HW119220   6.113   4.779   4.763
 6107SOL    HW219221   6.135   4.856   4.906
 6108SOL     OW19222   3.039   0.191   6.184
 6108SOL    HW119223   3.093   0.275   6.183
 6108SOL    HW219224   2.983   0.189   6.267
 6109SOL     OW19225   6.804   6.463   3.877
 6109SOL    HW119226   6.761   6.437   3.963
 6109SOL    HW219227   6.757   6.543   3.840
 6110SOL     OW19228   0.988   1.936   4.128
 6110SOL    HW119229   0.986   1.949   4.227
 6110SOL    HW219230   0.963   2.022   4.083
 6111SOL     OW19231   3.219   3.163   1.138
 6111SOL    HW119232   3.131   3.195   1.103
 6111SOL    HW219233   3.288   3.168   1.065
 6112SOL     OW19234   4.986   6.399   4.273
 6112SOL    HW119235   4.953   6.386   4.366
 6112SOL    HW219236   4.922   6.355   4.209
 6113SOL     OW19237   3.378   5.507   1.055
 6113SOL    HW119238   3.415   5.491   0.964
 6113SOL    HW219239   3.422   5.588   1.095
 6114SOL     OW19240   4.968   3.804   1.439
 6114SOL    HW119241   5.034   3.730   1.426
 6114SOL    HW219242   5.001   3.887   1.394
 6115SOL     OW19243   6.431   1.179   4.659
 6115SOL    HW119244   6.531   1.174   4.649
 6115SOL    HW219245   6.398   1.261   4.612
 6116SOL     OW19246   6.232   2.703   0.388
 6116SOL    HW119247   6.271   2.612   0.373
 6116SOL    HW219248   6.192   2.737   0.303
 6117SOL     OW19249   3.029   2.426   1.014
 6117SOL    HW119250   2.983   2.381   0.937
 6117SOL    HW219251   2.968   2.494   1.054
 6118SOL     OW19252   6.133   0.387   1.428
 6118SOL    HW119253   6.210   0.359   1.485
 6118SOL    HW219254   6.114   0.484   1.443
 6119SOL     OW19255   0.642   1.167   6.356
 6119SOL    HW119256   0.601   1.221   6.430
 6119SOL    HW219257   0.569   1.116   6.309
 6120SOL     OW19258   3.317   1.268   3.596
 6120SOL    HW119259   3.284   1.177   3.619
 6120SOL    HW219260   3.282   1.294   3.506
 6121SOL     OW19261   3.342   0.551   5.558
 6121SOL    HW119262   3.358   0.463   5.512
 6121SOL    HW219263   3.275   0.540   5.630
 6122SOL     OW19264   4.593   4.535   4.580
 6122SOL    HW119265   4.656   4.476   4.530
 6122SOL    HW219266   4.563   4.488   4.663
 6123SOL     OW19267   6.215   1.412   5.141
 6123SOL    HW119268   6.191   1.315   5.130
 6123SOL    HW219269   6.234   1.452   5.052
 6124SOL     OW19270   2.123   6.146   3.793
 6124SOL    HW119271   2.174   6.086   3.854
 6124SOL    HW219272   2.135   6.241   3.823
 6125SOL     OW19273   2.870   0.916   5.836
 6125SOL    HW119274   2.918   0.995   5.874
 6125SOL    HW219275   2.838   0.939   5.744
 6126SOL     OW19276   5.920   2.885   6.599
 6126SOL    HW119277   5.897   2.800   6.552
 6126SOL    HW219278   5.845   2.911   6.660
 6127SOL     OW19279   5.108   2.108   2.635
 6127SOL    HW119280   5.053   2.025   2.630
 6127SOL    HW219281   5.111   2.141   2.729
 6128SOL     OW19282   5.729   5.374   4.855
 6128SOL    HW119283   5.682   5.310   4.916
 6128SOL    HW219284   5.816   5.400   4.896
 6129SOL     OW19285   2.169   5.779   2.965
 6129SOL    HW119286   2.095   5.766   3.031
 6129SOL    HW219287   2.229   5.699   2.966
 6130SOL     OW19288   6.471   2.209   6.611
 6130SOL    HW119289   6.418   2.139   6.562
 6130SOL    HW219290   6.409   2.261   6.670
 6131SOL     OW19291   5.729   2.931   2.633
 6131SOL    HW119292   5.784   2.983   2.568
 6131SOL    HW219293   5.673   2.994   2.687
 6132SOL     OW19294   4.726   5.873   6.541
 6132SOL    HW119295   4.629   5.899   6.541
 6132SOL    HW219296   4.734   5.774   6.533
 6133SOL     OW19297   0.116   2.543   3.712
 6133SOL    HW119298   0.214   2.545   3.696
 6133SOL    HW219299   0.093   2.467   3.772
 6134SOL     OW19300   0.643   0.030   5.308
 6134SOL    HW119301   0.592   0.087   5.373
 6134SOL    HW219302   0.635   0.069   5.216
 6135SOL     OW19303   6.114   6.272   7.006
 6135SOL    HW119304   6.097   6.174   6.992
 6135SOL    HW219305   6.087   6.298   0.080
 6136SOL     OW19306   0.959   2.280   3.189
 6136SOL    HW119307   1.040   2.336   3.174
 6136SOL    HW219308   0.877   2.330   3.161
 6137SOL     OW19309   0.068   4.845   0.831
 6137SOL    HW119310   0.006   4.811   0.902
 6137SOL    HW219311   0.111   4.929   0.862
 6138SOL     OW19312   5.267   0.817   2.661
 6138SOL    HW119313   5.352   0.782   2.700
 6138SOL    HW219314   5.231   0.891   2.719
 6139SOL     OW19315   1.776   2.546   5.324
 6139SOL    HW119316   1.717   2.533   5.404
 6139SOL    HW219317   1.768   2.467   5.263
 6140SOL     OW19318   1.923   0.280   3.758
 6140SOL    HW119319   1.998   0.234   3.710
 6140SOL    HW219320   1.956   0.367   3.795
 6141SOL     OW19321   1.007   6.980   0.586
 6141SOL    HW119322   0.912   7.009   0.589
 6141SOL    HW219323   1.027   6.939   0.497
 6142SOL     OW19324   0.360   0.246   1.621
 6142SOL    HW119325   0.309   0.171   1.579
 6142SOL    HW219326   0.415   0.292   1.551
 6143SOL     OW19327   0.959   3.188   5.516
 6143SOL    HW119328   0.983   3.144   5.603
 6143SOL    HW219329   0.937   3.118   5.448
 6144SOL     OW19330   3.364   5.973   2.669
 6144SOL    HW119331   3.289   5.931   2.720
 6144SOL    HW219332   3.448   5.969   2.724
 6145SOL     OW19333   5.279   3.394   4.107
 6145SOL    HW119334   5.302   3.387   4.204
 6145SOL    HW219335   5.217   3.470   4.093
 6146SOL     OW19336   5.933   1.813   5.670
 6146SOL    HW119337   5.861   1.835   5.605
 6146SOL    HW219338   5.998   1.889   5.676
 6147SOL     OW19339   1.539   1.755   5.672
 6147SOL    HW119340   1.611   1.769   5.740
 6147SOL    HW219341   1.481   1.836   5.666
 6148SOL     OW19342   4.045   4.989   6.691
 6148SOL    HW119343   4.032   5.015   6.787
 6148SOL    HW219344   4.135   5.019   6.661
 6149SOL     OW19345   4.050   1.519   1.597
 6149SOL    HW119346   3.956   1.511   1.564
 6149SOL    HW219347   4.111   1.463   1.541
 6150SOL     OW19348   0.550   4.835   4.063
 6150SOL    HW119349   0.594   4.784   4.137
 6150SOL    HW219350   0.562   4.933   4.079
 6151SOL     OW19351   3.881   5.329   2.075
 6151SOL    HW119352   3.810   5.299   2.139
 6151SOL    HW219353   3.844   5.329   1.982
 6152SOL     OW19354   0.235   3.639   3.075
 6152SOL    HW119355   0.264   3.560   3.128
 6152SOL    HW219356   0.166   3.611   3.008
 6153SOL     OW19357   5.948   6.211   0.977
 6153SOL    HW119358   5.924   6.229   1.072
 6153SOL    HW219359   5.877   6.154   0.935
 6154SOL     OW19360   4.150   5.033   2.653
 6154SOL    HW119361   4.099   4.956   2.691
 6154SOL    HW219362   4.163   5.018   2.555
 6155SOL     OW19363   1.694   1.665   4.250
 6155SOL    HW119364   1.739   1.734   4.308
 6155SOL    HW219365   1.761   1.596   4.223
 6156SOL     OW19366   4.299   4.632   2.639
 6156SOL    HW119367   4.365   4.612   2.567
 6156SOL    HW219368   4.307   4.563   2.712
 6157SOL     OW19369   0.462   2.422   1.277
 6157SOL    HW119370   0.493   2.354   1.211
 6157SOL    HW219371   0.540   2.474   1.311
 6158SOL     OW19372   3.332   0.477   6.049
 6158SOL    HW119373   3.401   0.405   6.060
 6158SOL    HW219374   3.342   0.520   5.959
 6159SOL     OW19375   6.609   1.813   0.846
 6159SOL    HW119376   6.621   1.717   0.819
 6159SOL    HW219377   6.663   1.830   0.928
 6160SOL     OW19378   1.100   0.176   0.937
 6160SOL    HW119379   1.167   0.119   0.891
 6160SOL    HW219380   1.009   0.156   0.901
 6161SOL     OW19381   6.156   4.085   0.039
 6161SOL    HW119382   6.117   4.167   0.081
 6161SOL    HW219383   6.192   4.024   0.111
 6162SOL     OW19384   6.120   6.233   1.299
 6162SOL    HW119385   6.128   6.155   1.362
 6162SOL    HW219386   6.156   6.206   1.209
 6163SOL     OW19387   5.876   5.858   3.144
 6163SOL    HW119388   5.802   5.797   3.116
 6163SOL    HW219389   5.837   5.938   3.190
 6164SOL     OW19390   3.135   4.090   4.471
 6164SOL    HW119391   3.118   4.033   4.552
 6164SOL    HW219392   3.136   4.032   4.390
 6165SOL     OW19393   3.268   0.639   6.967
 6165SOL    HW119394   3.192   0.637   0.013
 6165SOL    HW219395   3.341   0.698   7.002
 6166SOL     OW19396   3.001   1.118   5.930
 6166SOL    HW119397   3.006   1.119   6.030
 6166SOL    HW219398   2.914   1.158   5.901
 6167SOL     OW19399   1.344   2.969   2.642
 6167SOL    HW119400   1.433   2.996   2.606
 6167SOL    HW219401   1.276   3.038   2.618
 6168SOL     OW19402   0.714   3.938   3.873
 6168SOL    HW119403   0.690   3.897   3.962
 6168SOL    HW219404   0.777   4.014   3.887
 6169SOL     OW19405   2.392   1.092   0.891
 6169SOL    HW119406   2.488   1.082   0.919
 6169SOL    HW219407   2.385   1.080   0.792
 6170SOL     OW19408   2.922   4.734   0.926
 6170SOL    HW119409   2.842   4.745   0.867
 6170SOL    HW219410   2.952   4.639   0.924
 6171SOL     OW19411   2.315   4.072   2.055
 6171SOL    HW119412   2.351   4.153   2.102
 6171SOL    HW219413   2.264   4.016   2.120
 6172SOL     OW19414   2.608   4.895   1.331
 6172SOL    HW119415   2.573   4.855   1.246
 6172SOL    HW219416   2.534   4.903   1.398
 6173SOL     OW19417   1.085   5.486   2.633
 6173SOL    HW119418   1.105   5.392   2.658
 6173SOL    HW219419   1.091   5.544   2.714
 6174SOL     OW19420   6.467   4.993   1.675
 6174SOL    HW119421   6.395   5.004   1.744
 6174SOL    HW219422   6.486   4.896   1.662
 6175SOL     OW19423   5.800   0.036   4.091
 6175SOL    HW119424   5.823   6.980   4.028
 6175SOL    HW219425   5.843   0.121   4.060
 6176SOL     OW19426   6.761   3.183   0.327
 6176SOL    HW119427   6.679   3.236   0.302
 6176SOL    HW219428   6.742   3.085   0.313
 6177SOL     OW19429   5.882   2.170   2.440
 6177SOL    HW119430   5.949   2.096   2.448
 6177SOL    HW219431   5.791   2.132   2.428
 6178SOL     OW19432   6.887   3.246   0.858
 6178SOL    HW119433   6.845   3.335   0.873
 6178SOL    HW219434   6.873   3.217   0.764
 6179SOL     OW19435   0.865   1.560   5.347
 6179SOL    HW119436   0.809   1.540   5.267
 6179SOL    HW219437   0.896   1.655   5.343
 6180SOL     OW19438   3.047   0.718   6.505
 6180SOL    HW119439   3.110   0.700   6.580
 6180SOL    HW219440   3.079   0.671   6.423
 6181SOL     OW19441   4.451   6.166   6.335
 6181SOL    HW119442   4.398   6.225   6.395
 6181SOL    HW219443   4.535   6.139   6.383
 6182SOL     OW19444   4.911   6.901   5.569
 6182SOL    HW119445   4.906   6.996   5.597
 6182SOL    HW219446   4.915   6.896   5.469
 6183SOL     OW19447   2.646   0.338   2.457
 6183SOL    HW119448   2.712   0.309   2.388
 6183SOL    HW219449   2.555   0.346   2.416
 6184SOL     OW19450   6.792   0.795   5.788
 6184SOL    HW119451   6.832   0.761   5.704
 6184SOL    HW219452   6.847   0.767   5.866
 6185SOL     OW19453   2.559   2.708   6.997
 6185SOL    HW119454   2.602   2.619   7.010
 6185SOL    HW219455   2.598   2.774   0.043
 6186SOL     OW19456   4.233   1.123   3.972
 6186SOL    HW119457   4.306   1.081   4.025
 6186SOL    HW219458   4.192   1.055   3.911
 6187SOL     OW19459   3.145   4.916   4.359
 6187SOL    HW119460   3.063   4.951   4.313
 6187SOL    HW219461   3.226   4.956   4.317
 6188SOL     OW19462   2.841   0.100   2.517
 6188SOL    HW119463   2.865   0.162   2.443
 6188SOL    HW219464   2.877   0.009   2.497
 6189SOL     OW19465   5.385   4.902   2.987
 6189SOL    HW119466   5.363   4.836   2.916
 6189SOL    HW219467   5.376   4.858   3.077
 6190SOL     OW19468   5.307   3.221   5.700
 6190SOL    HW119469   5.299   3.121   5.708
 6190SOL    HW219470   5.217   3.261   5.688
 6191SOL     OW19471   6.971   1.583   6.528
 6191SOL    HW119472   0.019   1.610   6.457
 6191SOL    HW219473   6.878   1.602   6.495
 6192SOL     OW19474   3.335   2.007   0.674
 6192SOL    HW119475   3.345   1.909   0.693
 6192SOL    HW219476   3.402   2.058   0.728
 6193SOL     OW19477   0.164   0.235   1.826
 6193SOL    HW119478   0.197   0.184   1.905
 6193SOL    HW219479   0.233   0.234   1.754
 6194SOL     OW19480   2.989   0.236   0.701
 6194SOL    HW119481   2.993   0.147   0.746
 6194SOL    HW219482   2.928   0.297   0.752
 6195SOL     OW19483   2.259   0.381   5.642
 6195SOL    HW119484   2.330   0.319   5.608
 6195SOL    HW219485   2.169   0.341   5.627
 6196SOL     OW19486   1.318   1.928   5.600
 6196SOL    HW119487   1.334   1.962   5.507
 6196SOL    HW219488   1.220   1.920   5.616
 6197SOL     OW19489   2.870   2.893   1.541
 6197SOL    HW119490   2.821   2.808   1.562
 6197SOL    HW219491   2.820   2.942   1.469
 6198SOL     OW19492   3.427   5.283   2.376
 6198SOL    HW119493   3.408   5.249   2.284
 6198SOL    HW219494   3.450   5.380   2.372
 6199SOL     OW19495   0.339   0.254   6.872
 6199SOL    HW119496   0.413   0.306   6.914
 6199SOL    HW219497   0.335   0.274   6.774
 6200SOL     OW19498   3.939   0.524   5.891
 6200SOL    HW119499   3.900   0.438   5.924
 6200SOL    HW219500   4.034   0.531   5.921
 6201SOL     OW19501   2.364   4.951   4.433
 6201SOL    HW119502   2.399   5.033   4.481
 6201SOL    HW219503   2.351   4.973   4.336
 6202SOL     OW19504   2.174   2.541   1.347
 6202SOL    HW119505   2.143   2.522   1.253
 6202SOL    HW219506   2.210   2.457   1.387
 6203SOL     OW19507   5.672   2.299   3.958
 6203SOL    HW119508   5.750   2.347   3.999
 6203SOL    HW219509   5.589   2.354   3.969
 6204SOL     OW19510   1.025   6.800   5.756
 6204SOL    HW119511   1.119   6.765   5.758
 6204SOL    HW219512   1.013   6.866   5.830
 6205SOL     OW19513   4.425   6.404   6.815
 6205SOL    HW119514   4.470   6.456   6.742
 6205SOL    HW219515   4.494   6.370   6.879
 6206SOL     OW19516   5.025   0.051   3.789
 6206SOL    HW119517   4.935   0.013   3.808
 6206SOL    HW219518   5.050   0.116   3.860
 6207SOL     OW19519   2.163   4.100   4.371
 6207SOL    HW119520   2.180   4.053   4.285
 6207SOL    HW219521   2.185   4.038   4.448
 6208SOL     OW19522   5.050   4.750   5.620
 6208SOL    HW119523   5.051   4.783   5.714
 6208SOL    HW219524   4.963   4.774   5.577
 6209SOL     OW19525   1.942   5.874   0.769
 6209SOL    HW119526   1.940   5.775   0.754
 6209SOL    HW219527   2.025   5.899   0.818
 6210SOL     OW19528   0.098   3.978   2.869
 6210SOL    HW119529   0.114   4.071   2.835
 6210SOL    HW219530   0.112   3.912   2.795
 6211SOL     OW19531   2.694   0.483   5.105
 6211SOL    HW119532   2.736   0.555   5.049
 6211SOL    HW219533   2.606   0.515   5.140
 6212SOL     OW19534   6.851   0.686   4.271
 6212SOL    HW119535   6.881   0.593   4.251
 6212SOL    HW219536   6.814   0.728   4.188
 6213SOL     OW19537   6.955   6.728   6.963
 6213SOL    HW119538   6.923   6.720   0.039
 6213SOL    HW219539   6.934   6.820   6.929
 6214SOL     OW19540   4.921   4.587   1.563
 6214SOL    HW119541   4.929   4.527   1.643
 6214SOL    HW219542   4.834   4.635   1.566
 6215SOL     OW19543   3.246   4.806   1.446
 6215SOL    HW119544   3.153   4.795   1.481
 6215SOL    HW219545   3.307   4.746   1.497
 6216SOL     OW19546   6.454   2.188   2.896
 6216SOL    HW119547   6.466   2.139   2.810
 6216SOL    HW219548   6.441   2.285   2.878
 6217SOL     OW19549   4.423   1.660   1.701
 6217SOL    HW119550   4.479   1.735   1.736
 6217SOL    HW219551   4.482   1.583   1.678
 6218SOL     OW19552   4.647   6.300   4.597
 6218SOL    HW119553   4.621   6.263   4.686
 6218SOL    HW219554   4.579   6.368   4.568
 6219SOL     OW19555   7.001   1.112   4.732
 6219SOL    HW119556   6.997   1.164   4.817
 6219SOL    HW219557   0.015   1.019   4.751
 6220SOL     OW19558   0.834   3.290   4.642
 6220SOL    HW119559   0.878   3.355   4.579
 6220SOL    HW219560   0.895   3.212   4.658
 6221SOL     OW19561   4.444   4.676   4.166
 6221SOL    HW119562   4.354   4.692   4.205
 6221SOL    HW219563   4.436   4.614   4.088
 6222SOL     OW19564   6.573   2.063   1.187
 6222SOL    HW119565   6.586   2.161   1.173
 6222SOL    HW219566   6.632   2.013   1.124
 6223SOL     OW19567   5.003   4.472   3.573
 6223SOL    HW119568   5.099   4.450   3.589
 6223SOL    HW219569   4.971   4.534   3.645
 6224SOL     OW19570   2.502   0.057   4.349
 6224SOL    HW119571   2.440   0.126   4.387
 6224SOL    HW219572   2.596   0.084   4.366
 6225SOL     OW19573   3.884   1.683   6.564
 6225SOL    HW119574   3.797   1.732   6.568
 6225SOL    HW219575   3.958   1.748   6.550
 6226SOL     OW19576   0.359   6.293   4.504
 6226SOL    HW119577   0.427   6.313   4.434
 6226SOL    HW219578   0.268   6.292   4.463
 6227SOL     OW19579   2.632   4.167   6.476
 6227SOL    HW119580   2.553   4.106   6.476
 6227SOL    HW219581   2.707   4.126   6.528
 6228SOL     OW19582   0.067   2.407   2.618
 6228SOL    HW119583   0.041   2.420   2.713
 6228SOL    HW219584   0.080   2.496   2.574
 6229SOL     OW19585   1.246   2.384   2.092
 6229SOL    HW119586   1.346   2.376   2.093
 6229SOL    HW219587   1.220   2.476   2.063
 6230SOL     OW19588   2.022   2.642   3.903
 6230SOL    HW119589   1.922   2.635   3.914
 6230SOL    HW219590   2.044   2.644   3.806
 6231SOL     OW19591   6.382   4.313   1.936
 6231SOL    HW119592   6.404   4.254   1.859
 6231SOL    HW219593   6.458   4.313   2.001
 6232SOL     OW19594   0.814   0.583   0.184
 6232SOL    HW119595   0.900   0.602   0.230
 6232SOL    HW219596   0.811   0.486   0.159
 6233SOL     OW19597   4.266   1.172   6.683
 6233SOL    HW119598   4.306   1.135   6.767
 6233SOL    HW219599   4.283   1.109   6.607
 6234SOL     OW19600   2.746   2.202   3.432
 6234SOL    HW119601   2.823   2.180   3.492
 6234SOL    HW219602   2.766   2.171   3.339
 6235SOL     OW19603   2.165   5.522   1.782
 6235SOL    HW119604   2.198   5.504   1.875
 6235SOL    HW219605   2.104   5.449   1.753
 6236SOL     OW19606   0.436   4.144   0.106
 6236SOL    HW119607   0.458   4.240   0.126
 6236SOL    HW219608   0.467   4.086   0.181
 6237SOL     OW19609   3.389   5.752   5.972
 6237SOL    HW119610   3.418   5.830   6.027
 6237SOL    HW219611   3.311   5.707   6.016
 6238SOL     OW19612   5.221   3.354   1.084
 6238SOL    HW119613   5.312   3.335   1.049
 6238SOL    HW219614   5.173   3.267   1.100
 6239SOL     OW19615   3.787   6.206   3.517
 6239SOL    HW119616   3.872   6.155   3.525
 6239SOL    HW219617   3.743   6.184   3.429
 6240SOL     OW19618   2.659   4.324   0.191
 6240SOL    HW119619   2.755   4.295   0.194
 6240SOL    HW219620   2.603   4.255   0.237
 6241SOL     OW19621   4.657   6.792   2.855
 6241SOL    HW119622   4.660   6.771   2.953
 6241SOL    HW219623   4.748   6.780   2.816
 6242SOL     OW19624   3.457   1.978   2.612
 6242SOL    HW119625   3.438   2.018   2.523
 6242SOL    HW219626   3.542   2.014   2.648
 6243SOL     OW19627   6.329   5.346   3.171
 6243SOL    HW119628   6.339   5.248   3.187
 6243SOL    HW219629   6.235   5.366   3.144
 6244SOL     OW19630   1.458   1.901   1.978
 6244SOL    HW119631   1.463   1.993   2.018
 6244SOL    HW219632   1.405   1.842   2.038
 6245SOL     OW19633   2.314   3.708   0.130
 6245SOL    HW119634   2.291   3.805   0.138
 6245SOL    HW219635   2.236   3.653   0.160
 6246SOL     OW19636   4.362   6.590   0.409
 6246SOL    HW119637   4.434   6.633   0.355
 6246SOL    HW219638   4.285   6.568   0.349
 6247SOL     OW19639   6.753   6.719   2.930
 6247SOL    HW119640   6.689   6.678   2.994
 6247SOL    HW219641   6.845   6.684   2.949
 6248SOL     OW19642   0.877   5.864   0.704
 6248SOL    HW119643   0.937   5.787   0.681
 6248SOL    HW219644   0.882   5.933   0.632
 6249SOL     OW19645   6.054   2.441   5.824
 6249SOL    HW119646   6.056   2.417   5.921
 6249SOL    HW219647   6.018   2.533   5.813
 6250SOL     OW19648   6.661   4.164   5.937
 6250SOL    HW119649   6.599   4.121   6.003
 6250SOL    HW219650   6.755   4.137   5.957
 6251SOL     OW19651   4.223   1.147   0.794
 6251SOL    HW119652   4.228   1.170   0.891
 6251SOL    HW219653   4.181   1.222   0.744
 6252SOL     OW19654   1.519   6.337   5.649
 6252SOL    HW119655   1.518   6.390   5.564
 6252SOL    HW219656   1.487   6.395   5.724
 6253SOL     OW19657   2.327   3.390   1.391
 6253SOL    HW119658   2.391   3.319   1.361
 6253SOL    HW219659   2.365   3.437   1.470
 6254SOL     OW19660   5.380   0.435   0.411
 6254SOL    HW119661   5.317   0.464   0.339
 6254SOL    HW219662   5.419   0.516   0.456
 6255SOL     OW19663   0.809   3.319   2.825
 6255SOL    HW119664   0.867   3.294   2.902
 6255SOL    HW219665   0.714   3.292   2.845
 6256SOL     OW19666   3.824   5.137   4.353
 6256SOL    HW119667   3.901   5.169   4.408
 6256SOL    HW219668   3.827   5.037   4.347
 6257SOL     OW19669   4.294   2.867   6.821
 6257SOL    HW119670   4.246   2.851   6.735
 6257SOL    HW219671   4.264   2.800   6.889
 6258SOL     OW19672   4.705   1.805   3.109
 6258SOL    HW119673   4.658   1.815   3.197
 6258SOL    HW219674   4.668   1.871   3.044
 6259SOL     OW19675   3.447   2.251   1.740
 6259SOL    HW119676   3.468   2.155   1.721
 6259SOL    HW219677   3.529   2.296   1.775
 6260SOL     OW19678   3.479   4.537   1.358
 6260SOL    HW119679   3.425   4.524   1.275
 6260SOL    HW219680   3.420   4.531   1.438
 6261SOL     OW19681   4.826   6.422   6.156
 6261SOL    HW119682   4.920   6.456   6.163
 6261SOL    HW219683   4.765   6.480   6.211
 6262SOL     OW19684   6.910   5.902   5.277
 6262SOL    HW119685   6.897   5.808   5.244
 6262SOL    HW219686   7.005   5.914   5.306
 6263SOL     OW19687   6.499   0.418   1.529
 6263SOL    HW119688   6.476   0.482   1.456
 6263SOL    HW219689   6.468   0.455   1.617
 6264SOL     OW19690   2.617   1.449   0.480
 6264SOL    HW119691   2.633   1.528   0.421
 6264SOL    HW219692   2.687   1.446   0.551
 6265SOL     OW19693   6.507   3.488   0.538
 6265SOL    HW119694   6.596   3.520   0.569
 6265SOL    HW219695   6.441   3.563   0.545
 6266SOL     OW19696   2.466   6.829   2.644
 6266SOL    HW119697   2.523   6.907   2.668
 6266SOL    HW219698   2.519   6.766   2.586
 6267SOL     OW19699   3.073   6.542   6.835
 6267SOL    HW119700   3.105   6.509   6.746
 6267SOL    HW219701   3.082   6.468   6.903
 6268SOL     OW19702   2.181   6.217   1.911
 6268SOL    HW119703   2.151   6.256   1.998
 6268SOL    HW219704   2.218   6.126   1.926
 6269SOL     OW19705   6.577   4.158   6.577
 6269SOL    HW119706   6.482   4.136   6.555
 6269SOL    HW219707   6.604   4.242   6.531
 6270SOL     OW19708   0.725   1.382   4.050
 6270SOL    HW119709   0.748   1.442   4.126
 6270SOL    HW219710   0.804   1.376   3.988
 6271SOL     OW19711   5.630   1.576   1.128
 6271SOL    HW119712   5.625   1.533   1.037
 6271SOL    HW219713   5.719   1.620   1.139
 6272SOL     OW19714   2.478   2.581   3.903
 6272SOL    HW119715   2.439   2.664   3.944
 6272SOL    HW219716   2.404   2.518   3.881
 6273SOL     OW19717   3.702   1.451   2.769
 6273SOL    HW119718   3.741   1.479   2.681
 6273SOL    HW219719   3.775   1.447   2.837
 6274SOL     OW19720   2.841   5.512   6.907
 6274SOL    HW119721   2.852   5.412   6.904
 6274SOL    HW219722   2.835   5.548   6.814
 6275SOL     OW19723   3.303   0.805   4.595
 6275SOL    HW119724   3.381   0.788   4.535
 6275SOL    HW219725   3.317   0.756   4.682
 6276SOL     OW19726   1.074   5.180   3.557
 6276SOL    HW119727   1.132   5.099   3.570
 6276SOL    HW219728   1.028   5.174   3.469
 6277SOL     OW19729   6.263   3.382   3.873
 6277SOL    HW119730   6.322   3.349   3.946
 6277SOL    HW219731   6.176   3.415   3.912
 6278SOL     OW19732   5.059   0.972   3.373
 6278SOL    HW119733   5.151   1.012   3.374
 6278SOL    HW219734   5.043   0.926   3.461
 6279SOL     OW19735   3.698   1.702   5.951
 6279SOL    HW119736   3.708   1.604   5.969
 6279SOL    HW219737   3.726   1.722   5.857
 6280SOL     OW19738   1.525   5.336   5.767
 6280SOL    HW119739   1.458   5.410   5.772
 6280SOL    HW219740   1.547   5.304   5.860
 6281SOL     OW19741   3.473   6.166   4.941
 6281SOL    HW119742   3.571   6.156   4.955
 6281SOL    HW219743   3.456   6.196   4.847
 6282SOL     OW19744   0.953   6.541   4.615
 6282SOL    HW119745   1.033   6.492   4.583
 6282SOL    HW219746   0.962   6.560   4.713
 6283SOL     OW19747   1.055   3.011   4.979
 6283SOL    HW119748   1.124   2.952   4.937
 6283SOL    HW219749   0.963   2.976   4.957
 6284SOL     OW19750   2.349   5.118   0.338
 6284SOL    HW119751   2.429   5.126   0.278
 6284SOL    HW219752   2.324   5.209   0.371
 6285SOL     OW19753   2.196   3.815   2.160
 6285SOL    HW119754   2.110   3.858   2.188
 6285SOL    HW219755   2.195   3.798   2.061
 6286SOL     OW19756   0.107   6.114   4.559
 6286SOL    HW119757   0.129   6.075   4.469
 6286SOL    HW219758   0.117   6.213   4.555
 6287SOL     OW19759   3.695   4.900   3.091
 6287SOL    HW119760   3.621   4.909   3.024
 6287SOL    HW219761   3.725   4.990   3.121
 6288SOL     OW19762   6.749   3.572   0.655
 6288SOL    HW119763   6.766   3.551   0.751
 6288SOL    HW219764   6.818   3.528   0.598
 6289SOL     OW19765   0.510   6.768   2.695
 6289SOL    HW119766   0.571   6.704   2.740
 6289SOL    HW219767   0.430   6.785   2.753
 6290SOL     OW19768   5.638   3.927   4.016
 6290SOL    HW119769   5.584   4.000   3.975
 6290SOL    HW219770   5.603   3.906   4.107
 6291SOL     OW19771   3.577   4.129   3.332
 6291SOL    HW119772   3.509   4.068   3.373
 6291SOL    HW219773   3.584   4.212   3.386
 6292SOL     OW19774   7.000   0.869   1.578
 6292SOL    HW119775   6.982   0.785   1.528
 6292SOL    HW219776   6.945   0.943   1.539
 6293SOL     OW19777   5.538   4.420   5.834
 6293SOL    HW119778   5.440   4.417   5.854
 6293SOL    HW219779   5.582   4.486   5.893
 6294SOL     OW19780   3.082   6.437   1.444
 6294SOL    HW119781   3.052   6.391   1.360
 6294SOL    HW219782   3.111   6.368   1.511
 6295SOL     OW19783   6.263   5.722   6.157
 6295SOL    HW119784   6.264   5.630   6.197
 6295SOL    HW219785   6.357   5.756   6.149
 6296SOL     OW19786   6.410   1.860   3.358
 6296SOL    HW119787   6.448   1.894   3.444
 6296SOL    HW219788   6.424   1.929   3.287
 6297SOL     OW19789   5.240   1.536   5.890
 6297SOL    HW119790   5.247   1.631   5.859
 6297SOL    HW219791   5.274   1.475   5.819
 6298SOL     OW19792   6.308   2.487   4.202
 6298SOL    HW119793   6.400   2.502   4.239
 6298SOL    HW219794   6.248   2.562   4.231
 6299SOL     OW19795   0.223   2.398   0.174
 6299SOL    HW119796   0.174   2.311   0.166
 6299SOL    HW219797   0.272   2.400   0.262
 6300SOL     OW19798   5.244   1.380   3.652
 6300SOL    HW119799   5.201   1.411   3.567
 6300SOL    HW219800   5.173   1.362   3.720
 6301SOL     OW19801   3.351   0.127   1.367
 6301SOL    HW119802   3.321   0.197   1.302
 6301SOL    HW219803   3.391   0.171   1.447
 6302SOL     OW19804   6.535   0.146   2.902
 6302SOL    HW119805   6.510   0.222   2.843
 6302SOL    HW219806   6.586   0.077   2.850
 6303SOL     OW19807   2.484   5.202   4.488
 6303SOL    HW119808   2.577   5.164   4.482
 6303SOL    HW219809   2.464   5.253   4.404
 6304SOL     OW19810   4.315   0.665   4.777
 6304SOL    HW119811   4.351   0.696   4.865
 6304SOL    HW219812   4.391   0.650   4.714
 6305SOL     OW19813   5.224   0.141   3.024
 6305SOL    HW119814   5.240   0.054   2.977
 6305SOL    HW219815   5.220   0.125   3.122
 6306SOL     OW19816   5.988   3.178   3.952
 6306SOL    HW119817   5.906   3.120   3.957
 6306SOL    HW219818   6.064   3.132   3.997
 6307SOL     OW19819   2.259   4.899   0.202
 6307SOL    HW119820   2.203   4.954   0.140
 6307SOL    HW219821   2.307   4.960   0.265
 6308SOL     OW19822   4.062   2.568   6.199
 6308SOL    HW119823   4.076   2.471   6.221
 6308SOL    HW219824   4.006   2.575   6.115
 6309SOL     OW19825   6.118   2.488   5.210
 6309SOL    HW119826   6.139   2.509   5.306
 6309SOL    HW219827   6.065   2.563   5.171
 6310SOL     OW19828   6.778   5.756   4.685
 6310SOL    HW119829   6.736   5.838   4.724
 6310SOL    HW219830   6.876   5.771   4.673
 6311SOL     OW19831   6.017   0.207   4.605
 6311SOL    HW119832   6.001   0.219   4.507
 6311SOL    HW219833   6.099   0.259   4.632
 6312SOL     OW19834   5.987   4.106   5.391
 6312SOL    HW119835   5.976   4.017   5.437
 6312SOL    HW219836   6.045   4.165   5.447
 6313SOL     OW19837   2.520   5.676   3.999
 6313SOL    HW119838   2.544   5.582   3.974
 6313SOL    HW219839   2.594   5.715   4.055
 6314SOL     OW19840   1.239   0.182   3.066
 6314SOL    HW119841   1.304   0.258   3.075
 6314SOL    HW219842   1.169   0.190   3.137
 6315SOL     OW19843   1.620   3.727   0.540
 6315SOL    HW119844   1.583   3.744   0.632
 6315SOL    HW219845   1.601   3.807   0.482
 6316SOL     OW19846   4.387   1.057   4.900
 6316SOL    HW119847   4.397   0.968   4.944
 6316SOL    HW219848   4.299   1.098   4.925
 6317SOL     OW19849   6.748   5.709   4.340
 6317SOL    HW119850   6.704   5.655   4.412
 6317SOL    HW219851   6.776   5.797   4.377
 6318SOL     OW19852   1.786   2.624   3.984
 6318SOL    HW119853   1.724   2.566   3.931
 6318SOL    HW219854   1.789   2.592   4.079
 6319SOL     OW19855   1.086   1.907   3.193
 6319SOL    HW119856   1.009   1.940   3.138
 6319SOL    HW219857   1.168   1.962   3.171
 6320SOL     OW19858   0.352   2.621   2.868
 6320SOL    HW119859   0.393   2.553   2.807
 6320SOL    HW219860   0.259   2.594   2.891
 6321SOL     OW19861   2.257   3.997   5.822
 6321SOL    HW119862   2.281   4.002   5.724
 6321SOL    HW219863   2.311   3.925   5.866
 6322SOL     OW19864   2.503   6.901   6.937
 6322SOL    HW119865   2.491   6.867   0.012
 6322SOL    HW219866   2.579   6.852   6.893
 6323SOL     OW19867   4.412   1.588   2.050
 6323SOL    HW119868   4.435   1.523   2.123
 6323SOL    HW219869   4.336   1.552   1.996
 6324SOL     OW19870   3.031   1.715   1.102
 6324SOL    HW119871   2.966   1.662   1.048
 6324SOL    HW219872   2.991   1.735   1.191
 6325SOL     OW19873   1.913   3.043   3.208
 6325SOL    HW119874   1.930   3.016   3.303
 6325SOL    HW219875   1.871   3.134   3.206
 6326SOL     OW19876   4.712   6.621   1.554
 6326SOL    HW119877   4.693   6.591   1.461
 6326SOL    HW219878   4.796   6.577   1.587
 6327SOL     OW19879   3.838   5.444   5.267
 6327SOL    HW119880   3.831   5.389   5.350
 6327SOL    HW219881   3.933   5.467   5.250
 6328SOL     OW19882   3.596   4.326   0.212
 6328SOL    HW119883   3.542   4.401   0.173
 6328SOL    HW219884   3.548   4.287   0.290
 6329SOL     OW19885   0.724   2.364   3.502
 6329SOL    HW119886   0.770   2.439   3.452
 6329SOL    HW219887   0.757   2.362   3.596
 6330SOL     OW19888   3.605   0.528   6.867
 6330SOL    HW119889   3.643   0.457   6.927
 6330SOL    HW219890   3.573   0.486   6.782
 6331SOL     OW19891   5.118   2.745   1.319
 6331SOL    HW119892   5.067   2.680   1.262
 6331SOL    HW219893   5.091   2.733   1.414
 6332SOL     OW19894   4.461   6.117   1.782
 6332SOL    HW119895   4.446   6.035   1.727
 6332SOL    HW219896   4.382   6.133   1.841
 6333SOL     OW19897   2.323   5.447   2.434
 6333SOL    HW119898   2.344   5.360   2.390
 6333SOL    HW219899   2.361   5.448   2.527
 6334SOL     OW19900   1.938   0.645   1.967
 6334SOL    HW119901   1.986   0.651   1.879
 6334SOL    HW219902   1.882   0.726   1.979
 6335SOL     OW19903   6.341   1.074   0.059
 6335SOL    HW119904   6.378   1.022   0.136
 6335SOL    HW219905   6.412   1.085   7.007
 6336SOL     OW19906   1.607   2.785   5.290
 6336SOL    HW119907   1.673   2.711   5.299
 6336SOL    HW219908   1.642   2.853   5.225
 6337SOL     OW19909   0.697   4.732   5.336
 6337SOL    HW119910   0.617   4.764   5.284
 6337SOL    HW219911   0.781   4.763   5.291
 6338SOL     OW19912   3.646   0.923   4.254
 6338SOL    HW119913   3.643   1.009   4.204
 6338SOL    HW219914   3.555   0.880   4.251
 6339SOL     OW19915   6.355   2.856   4.245
 6339SOL    HW119916   6.437   2.818   4.201
 6339SOL    HW219917   6.369   2.953   4.262
 6340SOL     OW19918   3.092   5.529   3.392
 6340SOL    HW119919   3.143   5.505   3.475
 6340SOL    HW219920   3.051   5.446   3.354
 6341SOL     OW19921   6.270   5.069   2.106
 6341SOL    HW119922   6.178   5.041   2.135
 6341SOL    HW219923   6.278   5.168   2.117
 6342SOL     OW19924   0.905   3.536   0.640
 6342SOL    HW119925   0.822   3.585   0.667
 6342SOL    HW219926   0.918   3.546   0.541
 6343SOL     OW19927   3.911   1.605   0.029
 6343SOL    HW119928   3.831   1.630   0.084
 6343SOL    HW219929   3.994   1.611   0.086
 6344SOL     OW19930   5.897   5.027   4.542
 6344SOL    HW119931   5.906   4.976   4.628
 6344SOL    HW219932   5.820   5.090   4.549
 6345SOL     OW19933   2.310   1.850   1.010
 6345SOL    HW119934   2.270   1.781   1.071
 6345SOL    HW219935   2.239   1.914   0.982
 6346SOL     OW19936   0.570   5.091   4.122
 6346SOL    HW119937   0.529   5.169   4.075
 6346SOL    HW219938   0.643   5.124   4.183
 6347SOL     OW19939   2.936   0.601   0.484
 6347SOL    HW119940   2.960   0.693   0.516
 6347SOL    HW219941   2.859   0.607   0.421
 6348SOL     OW19942   0.186   2.335   4.354
 6348SOL    HW119943   0.146   2.390   4.282
 6348SOL    HW219944   0.275   2.373   4.380
 6349SOL     OW19945   0.747   1.033   0.381
 6349SOL    HW119946   0.720   1.010   0.474
 6349SOL    HW219947   0.832   1.086   0.382
 6350SOL     OW19948   6.846   5.785   3.031
 6350SOL    HW119949   6.763   5.827   3.066
 6350SOL    HW219950   6.844   5.686   3.050
 6351SOL     OW19951   0.348   2.173   2.932
 6351SOL    HW119952   0.387   2.081   2.932
 6351SOL    HW219953   0.421   2.240   2.939
 6352SOL     OW19954   6.329   4.045   2.723
 6352SOL    HW119955   6.262   3.983   2.683
 6352SOL    HW219956   6.384   3.995   2.791
 6353SOL     OW19957   6.788   6.950   2.087
 6353SOL    HW119958   6.839   0.004   2.040
 6353SOL    HW219959   6.812   6.861   2.048
 6354SOL     OW19960   6.861   0.294   4.972
 6354SOL    HW119961   6.825   0.204   4.997
 6354SOL    HW219962   6.844   0.311   4.875
 6355SOL     OW19963   1.326   1.605   1.218
 6355SOL    HW119964   1.340   1.646   1.309
 6355SOL    HW219965   1.326   1.678   1.149
 6356SOL     OW19966   3.596   3.906   1.548
 6356SOL    HW119967   3.621   3.879   1.641
 6356SOL    HW219968   3.636   3.995   1.527
 6357SOL     OW19969   4.981   1.454   1.073
 6357SOL    HW119970   5.076   1.461   1.041
 6357SOL    HW219971   4.973   1.379   1.139
 6358SOL     OW19972   0.994   2.785   5.365
 6358SOL    HW119973   0.958   2.696   5.394
 6358SOL    HW219974   1.054   2.772   5.285
 6359SOL     OW19975   6.869   0.565   6.374
 6359SOL    HW119976   6.817   0.614   6.445
 6359SOL    HW219977   6.855   0.610   6.286
 6360SOL     OW19978   2.004   4.733   3.994
 6360SOL    HW119979   1.931   4.768   4.053
 6360SOL    HW219980   2.078   4.800   3.990
 6361SOL     OW19981   3.003   5.961   5.298
 6361SOL    HW119982   3.055   5.899   5.239
 6361SOL    HW219983   2.916   5.918   5.323
 6362SOL     OW19984   6.991   4.619   5.432
 6362SOL    HW119985   6.905   4.636   5.385
 6362SOL    HW219986   0.039   4.580   5.367
 6363SOL     OW19987   1.018   5.665   3.630
 6363SOL    HW119988   0.943   5.703   3.576
 6363SOL    HW219989   1.093   5.731   3.633
 6364SOL     OW19990   2.704   1.675   6.284
 6364SOL    HW119991   2.775   1.612   6.317
 6364SOL    HW219992   2.741   1.733   6.212
 6365SOL     OW19993   4.052   5.504   2.202
 6365SOL    HW119994   4.005   5.584   2.239
 6365SOL    HW219995   3.989   5.451   2.146
 6366SOL     OW19996   0.485   4.029   5.184
 6366SOL    HW119997   0.529   4.037   5.273
 6366SOL    HW219998   0.503   4.111   5.130
 6367SOL     OW19999   5.528   5.495   2.198
 6367SOL    HW120000   5.520   5.517   2.296
 6367SOL    HW220001   5.453   5.538   2.148
 6368SOL     OW20002   3.023   1.390   2.441
 6368SOL    HW120003   2.968   1.307   2.450
 6368SOL    HW220004   3.060   1.396   2.349
 6369SOL     OW20005   2.229   5.911   5.074
 6369SOL    HW120006   2.216   5.813   5.056
 6369SOL    HW220007   2.149   5.961   5.043
 6370SOL     OW20008   5.438   2.366   2.105
 6370SOL    HW120009   5.463   2.385   2.010
 6370SOL    HW220010   5.479   2.435   2.165
 6371SOL     OW20011   4.394   1.285   3.180
 6371SOL    HW120012   4.395   1.187   3.204
 6371SOL    HW220013   4.441   1.337   3.251
 6372SOL     OW20014   2.995   0.096   2.747
 6372SOL    HW120015   2.933   0.022   2.775
 6372SOL    HW220016   2.963   0.136   2.662
 6373SOL     OW20017   3.808   4.596   0.123
 6373SOL    HW120018   3.772   4.539   0.049
 6373SOL    HW220019   3.883   4.653   0.088
 6374SOL     OW20020   2.947   3.220   4.695
 6374SOL    HW120021   2.881   3.194   4.765
 6374SOL    HW220022   3.005   3.294   4.729
 6375SOL     OW20023   1.998   5.857   2.122
 6375SOL    HW120024   2.049   5.875   2.206
 6375SOL    HW220025   1.983   5.943   2.073
 6376SOL     OW20026   1.433   1.409   5.401
 6376SOL    HW120027   1.388   1.493   5.432
 6376SOL    HW220028   1.365   1.351   5.355
 6377SOL     OW20029   0.589   2.711   3.722
 6377SOL    HW120030   0.685   2.689   3.706
 6377SOL    HW220031   0.580   2.808   3.744
 6378SOL     OW20032   3.777   4.983   3.734
 6378SOL    HW120033   3.844   5.015   3.668
 6378SOL    HW220034   3.816   4.908   3.787
 6379SOL     OW20035   2.152   4.451   1.984
 6379SOL    HW120036   2.178   4.487   1.894
 6379SOL    HW220037   2.056   4.471   2.001
 6380SOL     OW20038   1.179   0.575   6.468
 6380SOL    HW120039   1.086   0.580   6.430
 6380SOL    HW220040   1.211   0.481   6.467
 6381SOL     OW20041   3.359   3.325   2.881
 6381SOL    HW120042   3.404   3.260   2.942
 6381SOL    HW220043   3.309   3.392   2.936
 6382SOL     OW20044   1.265   4.369   5.324
 6382SOL    HW120045   1.251   4.444   5.258
 6382SOL    HW220046   1.249   4.282   5.278
 6383SOL     OW20047   4.131   1.757   3.903
 6383SOL    HW120048   4.141   1.856   3.893
 6383SOL    HW220049   4.043   1.728   3.866
 6384SOL     OW20050   6.820   4.260   1.768
 6384SOL    HW120051   6.808   4.342   1.824
 6384SOL    HW220052   6.845   4.183   1.827
 6385SOL     OW20053   1.056   5.856   5.388
 6385SOL    HW120054   1.145   5.887   5.353
 6385SOL    HW220055   0.992   5.933   5.389
 6386SOL     OW20056   1.836   5.658   2.994
 6386SOL    HW120057   1.838   5.578   3.054
 6386SOL    HW220058   1.892   5.641   2.913
 6387SOL     OW20059   5.922   1.025   4.884
 6387SOL    HW120060   5.950   1.018   4.788
 6387SOL    HW220061   5.918   0.934   4.925
 6388SOL     OW20062   1.980   4.923   2.389
 6388SOL    HW120063   2.079   4.927   2.370
 6388SOL    HW220064   1.947   5.015   2.412
 6389SOL     OW20065   1.432   3.645   0.985
 6389SOL    HW120066   1.441   3.587   1.065
 6389SOL    HW220067   1.462   3.596   0.904
 6390SOL     OW20068   0.558   3.298   4.743
 6390SOL    HW120069   0.652   3.311   4.711
 6390SOL    HW220070   0.501   3.267   4.668
 6391SOL     OW20071   3.748   0.404   0.530
 6391SOL    HW120072   3.789   0.458   0.604
 6391SOL    HW220073   3.796   0.422   0.444
 6392SOL     OW20074   1.124   5.896   4.430
 6392SOL    HW120075   1.224   5.886   4.427
 6392SOL    HW220076   1.091   5.919   4.338
 6393SOL     OW20077   4.886   0.940   6.882
 6393SOL    HW120078   4.921   1.034   6.876
 6393SOL    HW220079   4.953   0.877   6.843
 6394SOL     OW20080   3.806   5.632   1.877
 6394SOL    HW120081   3.786   5.534   1.875
 6394SOL    HW220082   3.729   5.680   1.918
 6395SOL     OW20083   5.838   1.544   0.372
 6395SOL    HW120084   5.837   1.643   0.357
 6395SOL    HW220085   5.933   1.512   0.377
 6396SOL     OW20086   6.685   2.025   6.572
 6396SOL    HW120087   6.599   2.062   6.609
 6396SOL    HW220088   6.704   2.067   6.483
 6397SOL     OW20089   6.729   0.013   0.533
 6397SOL    HW120090   6.670   6.963   0.491
 6397SOL    HW220091   6.792   0.050   0.464
 6398SOL     OW20092   4.359   1.312   1.687
 6398SOL    HW120093   4.286   1.314   1.620
 6398SOL    HW220094   4.413   1.396   1.680
 6399SOL     OW20095   1.264   6.411   6.404
 6399SOL    HW120096   1.336   6.353   6.366
 6399SOL    HW220097   1.283   6.507   6.382
 6400SOL     OW20098   3.447   4.939   4.854
 6400SOL    HW120099   3.401   4.854   4.830
 6400SOL    HW220100   3.464   4.941   4.953
 6401SOL     OW20101   6.988   4.945   5.611
 6401SOL    HW120102   7.006   4.956   5.708
 6401SOL    HW220103   6.966   5.034   5.571
 6402SOL     OW20104   1.883   3.508   2.984
 6402SOL    HW120105   1.939   3.471   3.058
 6402SOL    HW220106   1.798   3.456   2.977
 6403SOL     OW20107   0.150   6.201   1.897
 6403SOL    HW120108   0.115   6.240   1.811
 6403SOL    HW220109   0.210   6.124   1.876
 6404SOL     OW20110   4.840   0.567   2.483
 6404SOL    HW120111   4.859   0.662   2.508
 6404SOL    HW220112   4.753   0.561   2.435
 6405SOL     OW20113   3.422   6.993   1.816
 6405SOL    HW120114   3.491   6.932   1.777
 6405SOL    HW220115   3.465   0.035   1.883
 6406SOL     OW20116   2.534   1.998   3.388
 6406SOL    HW120117   2.537   1.980   3.486
 6406SOL    HW220118   2.578   2.085   3.369
 6407SOL     OW20119   5.059   6.180   6.821
 6407SOL    HW120120   5.021   6.216   6.736
 6407SOL    HW220121   5.152   6.214   6.833
 6408SOL     OW20122   6.255   2.505   1.060
 6408SOL    HW120123   6.271   2.535   1.155
 6408SOL    HW220124   6.166   2.459   1.055
 6409SOL     OW20125   1.130   4.933   1.801
 6409SOL    HW120126   1.076   4.941   1.717
 6409SOL    HW220127   1.135   4.837   1.828
 6410SOL     OW20128   0.031   6.998   1.008
 6410SOL    HW120129   0.031   6.899   0.996
 6410SOL    HW220130   0.039   0.001   1.106
 6411SOL     OW20131   1.714   1.649   3.109
 6411SOL    HW120132   1.805   1.639   3.069
 6411SOL    HW220133   1.646   1.613   3.046
 6412SOL     OW20134   5.767   2.192   4.890
 6412SOL    HW120135   5.709   2.151   4.960
 6412SOL    HW220136   5.821   2.266   4.931
 6413SOL     OW20137   0.552   5.255   0.740
 6413SOL    HW120138   0.531   5.223   0.648
 6413SOL    HW220139   0.536   5.181   0.806
 6414SOL     OW20140   6.424   0.305   3.656
 6414SOL    HW120141   6.446   0.268   3.746
 6414SOL    HW220142   6.500   0.289   3.594
 6415SOL     OW20143   1.305   1.758   2.133
 6415SOL    HW120144   1.362   1.738   2.213
 6415SOL    HW220145   1.212   1.778   2.163
 6416SOL     OW20146   2.971   6.210   6.714
 6416SOL    HW120147   2.931   6.179   6.628
 6416SOL    HW220148   3.054   6.263   6.694
 6417SOL     OW20149   6.890   6.209   4.702
 6417SOL    HW120150   6.959   6.271   4.663
 6417SOL    HW220151   6.915   6.115   4.682
 6418SOL     OW20152   6.666   5.142   2.074
 6418SOL    HW120153   6.630   5.108   2.160
 6418SOL    HW220154   6.649   5.076   2.001
 6419SOL     OW20155   2.662   2.139   0.380
 6419SOL    HW120156   2.732   2.137   0.309
 6419SOL    HW220157   2.703   2.172   0.465
 6420SOL     OW20158   0.616   2.157   0.252
 6420SOL    HW120159   0.549   2.094   0.291
 6420SOL    HW220160   0.693   2.105   0.216
 6421SOL     OW20161   5.854   1.242   0.658
 6421SOL    HW120162   5.899   1.167   0.610
 6421SOL    HW220163   5.921   1.292   0.712
 6422SOL     OW20164   5.424   2.405   3.202
 6422SOL    HW120165   5.519   2.376   3.192
 6422SOL    HW220166   5.373   2.382   3.120
 6423SOL     OW20167   5.423   3.709   0.650
 6423SOL    HW120168   5.494   3.655   0.605
 6423SOL    HW220169   5.334   3.667   0.632
 6424SOL     OW20170   6.012   3.550   5.165
 6424SOL    HW120171   6.072   3.599   5.102
 6424SOL    HW220172   5.928   3.524   5.118
 6425SOL     OW20173   1.227   5.505   0.760
 6425SOL    HW120174   1.208   5.487   0.664
 6425SOL    HW220175   1.143   5.495   0.813
 6426SOL     OW20176   6.560   3.505   3.380
 6426SOL    HW120177   6.520   3.549   3.460
 6426SOL    HW220178   6.520   3.544   3.297
 6427SOL     OW20179   1.176   3.723   6.086
 6427SOL    HW120180   1.091   3.737   6.034
 6427SOL    HW220181   1.234   3.657   6.038
 6428SOL     OW20182   6.065   3.932   5.191
 6428SOL    HW120183   6.036   4.019   5.230
 6428SOL    HW220184   6.164   3.922   5.202
 6429SOL     OW20185   1.124   0.638   5.513
 6429SOL    HW120186   1.170   0.725   5.501
 6429SOL    HW220187   1.191   0.565   5.522
 6430SOL     OW20188   6.510   3.243   6.883
 6430SOL    HW120189   6.597   3.239   6.932
 6430SOL    HW220190   6.438   3.271   6.946
 6431SOL     OW20191   5.677   1.554   2.258
 6431SOL    HW120192   5.668   1.506   2.171
 6431SOL    HW220193   5.734   1.500   2.320
 6432SOL     OW20194   6.373   3.956   0.574
 6432SOL    HW120195   6.451   3.929   0.630
 6432SOL    HW220196   6.368   3.897   0.494
 6433SOL     OW20197   2.134   3.313   1.540
 6433SOL    HW120198   2.100   3.236   1.486
 6433SOL    HW220199   2.210   3.357   1.492
 6434SOL     OW20200   1.803   6.226   0.848
 6434SOL    HW120201   1.886   6.211   0.901
 6434SOL    HW220202   1.756   6.140   0.834
 6435SOL     OW20203   5.995   3.437   0.833
 6435SOL    HW120204   6.084   3.482   0.830
 6435SOL    HW220205   6.007   3.342   0.859
 6436SOL     OW20206   2.822   2.354   0.847
 6436SOL    HW120207   2.808   2.451   0.867
 6436SOL    HW220208   2.774   2.330   0.762
 6437SOL     OW20209   0.073   1.355   1.621
 6437SOL    HW120210   0.106   1.304   1.700
 6437SOL    HW220211   0.094   1.452   1.633
 6438SOL     OW20212   0.683   3.601   4.259
 6438SOL    HW120213   0.598   3.630   4.305
 6438SOL    HW220214   0.761   3.620   4.319
 6439SOL     OW20215   0.089   6.062   2.730
 6439SOL    HW120216   0.166   6.000   2.717
 6439SOL    HW220217   0.089   6.131   2.657
 6440SOL     OW20218   0.352   0.531   2.265
 6440SOL    HW120219   0.425   0.575   2.213
 6440SOL    HW220220   0.392   0.474   2.337
 6441SOL     OW20221   5.262   2.013   3.250
 6441SOL    HW120222   5.306   1.926   3.274
 6441SOL    HW220223   5.164   1.999   3.241
 6442SOL     OW20224   1.416   1.992   3.606
 6442SOL    HW120225   1.333   1.987   3.551
 6442SOL    HW220226   1.496   1.982   3.546
 6443SOL     OW20227   2.394   0.828   1.048
 6443SOL    HW120228   2.390   0.733   1.076
 6443SOL    HW220229   2.405   0.887   1.128
 6444SOL     OW20230   0.985   1.140   2.621
 6444SOL    HW120231   1.047   1.214   2.646
 6444SOL    HW220232   0.924   1.121   2.698
 6445SOL     OW20233   3.462   4.484   6.244
 6445SOL    HW120234   3.402   4.465   6.167
 6445SOL    HW220235   3.450   4.579   6.273
 6446SOL     OW20236   0.465   1.321   1.496
 6446SOL    HW120237   0.486   1.235   1.542
 6446SOL    HW220238   0.384   1.309   1.438
 6447SOL     OW20239   2.044   1.278   3.401
 6447SOL    HW120240   1.982   1.354   3.385
 6447SOL    HW220241   1.996   1.207   3.453
 6448SOL     OW20242   6.476   2.341   2.214
 6448SOL    HW120243   6.493   2.382   2.304
 6448SOL    HW220244   6.408   2.268   2.223
 6449SOL     OW20245   4.777   2.463   0.525
 6449SOL    HW120246   4.802   2.544   0.576
 6449SOL    HW220247   4.683   2.437   0.547
 6450SOL     OW20248   6.521   2.495   0.064
 6450SOL    HW120249   6.516   2.586   0.023
 6450SOL    HW220250   6.592   2.442   0.017
 6451SOL     OW20251   3.080   6.221   4.674
 6451SOL    HW120252   3.095   6.142   4.733
 6451SOL    HW220253   3.057   6.190   4.582
 6452SOL     OW20254   3.876   5.937   4.285
 6452SOL    HW120255   3.856   5.852   4.334
 6452SOL    HW220256   3.797   5.962   4.228
 6453SOL     OW20257   2.528   5.170   6.770
 6453SOL    HW120258   2.514   5.242   6.838
 6453SOL    HW220259   2.469   5.092   6.790
 6454SOL     OW20260   3.875   0.836   4.892
 6454SOL    HW120261   3.872   0.934   4.911
 6454SOL    HW220262   3.938   0.791   4.955
 6455SOL     OW20263   6.550   3.573   6.972
 6455SOL    HW120264   6.484   3.546   6.902
 6455SOL    HW220265   6.521   3.659   7.014
 6456SOL     OW20266   6.442   1.956   4.092
 6456SOL    HW120267   6.478   2.049   4.093
 6456SOL    HW220268   6.343   1.959   4.103
 6457SOL     OW20269   5.534   3.039   1.867
 6457SOL    HW120270   5.501   3.017   1.775
 6457SOL    HW220271   5.551   2.954   1.917
 6458SOL     OW20272   1.542   5.578   3.797
 6458SOL    HW120273   1.583   5.575   3.706
 6458SOL    HW220274   1.458   5.523   3.799
 6459SOL     OW20275   5.862   4.002   0.176
 6459SOL    HW120276   5.806   3.960   0.247
 6459SOL    HW220277   5.958   4.005   0.206
 6460SOL     OW20278   3.765   4.988   1.685
 6460SOL    HW120279   3.845   5.024   1.733
 6460SOL    HW220280   3.775   5.005   1.587
 6461SOL     OW20281   3.011   5.583   4.299
 6461SOL    HW120282   3.039   5.671   4.338
 6461SOL    HW220283   3.089   5.520   4.298
 6462SOL     OW20284   1.878   3.872   2.570
 6462SOL    HW120285   1.834   3.784   2.590
 6462SOL    HW220286   1.960   3.881   2.626
 6463SOL     OW20287   1.982   3.075   6.085
 6463SOL    HW120288   1.904   3.137   6.086
 6463SOL    HW220289   2.025   3.077   5.994
 6464SOL     OW20290   0.822   5.195   1.922
 6464SOL    HW120291   0.800   5.105   1.887
 6464SOL    HW220292   0.867   5.186   2.011
 6465SOL     OW20293   6.723   0.301   3.221
 6465SOL    HW120294   6.750   0.282   3.126
 6465SOL    HW220295   6.805   0.303   3.279
 6466SOL     OW20296   6.330   2.837   4.603
 6466SOL    HW120297   6.405   2.903   4.609
 6466SOL    HW220298   6.270   2.861   4.527
 6467SOL     OW20299   3.759   0.088   6.312
 6467SOL    HW120300   3.693   0.036   6.258
 6467SOL    HW220301   3.842   0.034   6.325
 6468SOL     OW20302   6.434   4.667   2.338
 6468SOL    HW120303   6.513   4.668   2.276
 6468SOL    HW220304   6.467   4.670   2.433
 6469SOL     OW20305   5.767   2.278   6.109
 6469SOL    HW120306   5.816   2.363   6.130
 6469SOL    HW220307   5.703   2.295   6.033
 6470SOL     OW20308   6.593   6.503   4.807
 6470SOL    HW120309   6.578   6.408   4.832
 6470SOL    HW220310   6.581   6.514   4.709
 6471SOL     OW20311   6.690   0.009   4.767
 6471SOL    HW120312   6.682   6.934   4.801
 6471SOL    HW220313   6.637   0.071   4.826
 6472SOL     OW20314   1.705   6.655   2.006
 6472SOL    HW120315   1.624   6.661   2.065
 6472SOL    HW220316   1.691   6.711   1.925
 6473SOL     OW20317   2.371   1.604   5.581
 6473SOL    HW120318   2.287   1.659   5.580
 6473SOL    HW220319   2.370   1.540   5.504
 6474SOL     OW20320   2.102   2.966   6.598
 6474SOL    HW120321   2.162   2.940   6.674
 6474SOL    HW220322   2.009   2.978   6.631
 6475SOL     OW20323   4.121   5.350   3.794
 6475SOL    HW120324   4.168   5.307   3.717
 6475SOL    HW220325   4.079   5.279   3.851
 6476SOL     OW20326   4.941   5.928   2.929
 6476SOL    HW120327   4.963   6.025   2.927
 6476SOL    HW220328   5.025   5.874   2.931
 6477SOL     OW20329   6.440   5.991   0.439
 6477SOL    HW120330   6.509   6.044   0.489
 6477SOL    HW220331   6.465   5.894   0.442
 6478SOL     OW20332   4.109   6.071   1.204
 6478SOL    HW120333   4.183   6.020   1.162
 6478SOL    HW220334   4.132   6.093   1.299
 6479SOL     OW20335   3.242   5.602   2.778
 6479SOL    HW120336   3.205   5.601   2.685
 6479SOL    HW220337   3.342   5.591   2.774
 6480SOL     OW20338   2.163   0.993   0.649
 6480SOL    HW120339   2.246   1.033   0.611
 6480SOL    HW220340   2.100   1.067   0.676
 6481SOL     OW20341   4.751   0.682   1.094
 6481SOL    HW120342   4.769   0.779   1.077
 6481SOL    HW220343   4.671   0.653   1.042
 6482SOL     OW20344   0.070   0.640   5.544
 6482SOL    HW120345   0.095   0.632   5.640
 6482SOL    HW220346   0.065   0.549   5.502
 6483SOL     OW20347   1.276   5.410   1.546
 6483SOL    HW120348   1.346   5.424   1.616
 6483SOL    HW220349   1.187   5.393   1.589
 6484SOL     OW20350   4.651   0.195   3.230
 6484SOL    HW120351   4.712   0.225   3.157
 6484SOL    HW220352   4.595   0.119   3.197
 6485SOL     OW20353   6.802   2.800   1.967
 6485SOL    HW120354   6.775   2.876   1.908
 6485SOL    HW220355   6.798   2.714   1.916
 6486SOL     OW20356   1.421   2.994   3.073
 6486SOL    HW120357   1.337   2.943   3.057
 6486SOL    HW220358   1.423   3.026   3.168
 6487SOL     OW20359   6.171   5.780   3.111
 6487SOL    HW120360   6.188   5.758   3.207
 6487SOL    HW220361   6.075   5.805   3.098
 6488SOL     OW20362   3.341   5.148   4.233
 6488SOL    HW120363   3.241   5.160   4.235
 6488SOL    HW220364   3.373   5.123   4.324
 6489SOL     OW20365   2.913   0.929   6.366
 6489SOL    HW120366   2.878   0.892   6.280
 6489SOL    HW220367   2.960   0.857   6.417
 6490SOL     OW20368   4.577   0.679   0.305
 6490SOL    HW120369   4.648   0.699   0.373
 6490SOL    HW220370   4.501   0.743   0.317
 6491SOL     OW20371   5.090   1.395   6.053
 6491SOL    HW120372   5.146   1.445   5.988
 6491SOL    HW220373   5.123   1.412   6.146
 6492SOL     OW20374   5.644   5.183   5.900
 6492SOL    HW120375   5.704   5.154   5.825
 6492SOL    HW220376   5.552   5.147   5.886
 6493SOL     OW20377   6.991   6.888   5.359
 6493SOL    HW120378   0.020   6.805   5.388
 6493SOL    HW220379   6.939   6.870   5.275
 6494SOL     OW20380   0.343   2.799   3.470
 6494SOL    HW120381   0.410   2.873   3.464
 6494SOL    HW220382   0.289   2.797   3.386
 6495SOL     OW20383   5.736   4.523   2.218
 6495SOL    HW120384   5.724   4.597   2.284
 6495SOL    HW220385   5.701   4.552   2.128
 6496SOL     OW20386   0.113   6.730   3.562
 6496SOL    HW120387   0.050   6.712   3.486
 6496SOL    HW220388   0.160   6.645   3.587
 6497SOL     OW20389   0.943   0.082   1.347
 6497SOL    HW120390   0.945   7.014   1.398
 6497SOL    HW220391   1.018   0.083   1.280
 6498SOL     OW20392   1.269   3.640   4.175
 6498SOL    HW120393   1.266   3.549   4.217
 6498SOL    HW220394   1.347   3.646   4.113
 6499SOL     OW20395   6.400   1.273   3.073
 6499SOL    HW120396   6.334   1.332   3.026
 6499SOL    HW220397   6.490   1.317   3.072
 6500SOL     OW20398   5.624   4.869   1.921
 6500SOL    HW120399   5.638   4.771   1.934
 6500SOL    HW220400   5.571   4.906   1.997
 6501SOL     OW20401   6.526   4.561   0.886
 6501SOL    HW120402   6.514   4.474   0.934
 6501SOL    HW220403   6.497   4.636   0.946
 6502SOL     OW20404   0.558   5.622   1.805
 6502SOL    HW120405   0.585   5.678   1.727
 6502SOL    HW220406   0.619   5.641   1.882
 6503SOL     OW20407   3.989   0.624   3.911
 6503SOL    HW120408   4.073   0.668   3.942
 6503SOL    HW220409   4.012   0.539   3.863
 6504SOL     OW20410   2.083   2.430   7.004
 6504SOL    HW120411   2.004   2.416   6.944
 6504SOL    HW220412   2.120   2.522   6.989
 6505SOL     OW20413   5.623   4.925   0.679
 6505SOL    HW120414   5.656   4.924   0.774
 6505SOL    HW220415   5.644   5.013   0.638
 6506SOL     OW20416   2.334   1.297   1.779
 6506SOL    HW120417   2.248   1.295   1.830
 6506SOL    HW220418   2.400   1.237   1.824
 6507SOL     OW20419   3.037   0.823   1.551
 6507SOL    HW120420   3.087   0.870   1.624
 6507SOL    HW220421   3.003   0.890   1.485
 6508SOL     OW20422   1.145   3.020   1.737
 6508SOL    HW120423   1.080   2.990   1.806
 6508SOL    HW220424   1.237   3.022   1.777
 6509SOL     OW20425   1.552   2.994   3.968
 6509SOL    HW120426   1.649   2.988   3.946
 6509SOL    HW220427   1.535   2.947   4.055
 6510SOL     OW20428   6.093   4.165   6.401
 6510SOL    HW120429   6.119   4.259   6.378
 6510SOL    HW220430   6.099   4.107   6.319
 6511SOL     OW20431   6.574   6.984   6.000
 6511SOL    HW120432   6.529   6.906   6.044
 6511SOL    HW220433   6.529   0.051   6.027
 6512SOL     OW20434   5.191   6.535   4.618
 6512SOL    HW120435   5.140   6.488   4.690
 6512SOL    HW220436   5.148   6.623   4.599
 6513SOL     OW20437   1.328   6.913   3.589
 6513SOL    HW120438   1.376   6.989   3.544
 6513SOL    HW220439   1.391   6.836   3.598
 6514SOL     OW20440   2.460   0.676   4.027
 6514SOL    HW120441   2.530   0.688   3.957
 6514SOL    HW220442   2.484   0.599   4.086
 6515SOL     OW20443   1.269   0.966   3.421
 6515SOL    HW120444   1.313   0.986   3.333
 6515SOL    HW220445   1.326   1.000   3.495
 6516SOL     OW20446   2.290   1.308   5.668
 6516SOL    HW120447   2.255   1.397   5.641
 6516SOL    HW220448   2.213   1.247   5.689
 6517SOL     OW20449   2.886   2.142   1.015
 6517SOL    HW120450   2.938   2.069   0.970
 6517SOL    HW220451   2.881   2.221   0.954
 6518SOL     OW20452   5.562   6.156   1.225
 6518SOL    HW120453   5.569   6.204   1.313
 6518SOL    HW220454   5.550   6.058   1.242
 6519SOL     OW20455   0.180   1.982   3.747
 6519SOL    HW120456   0.190   2.060   3.809
 6519SOL    HW220457   0.209   2.009   3.655
 6520SOL     OW20458   5.687   5.266   0.937
 6520SOL    HW120459   5.658   5.331   0.867
 6520SOL    HW220460   5.628   5.186   0.935
 6521SOL     OW20461   1.328   2.323   5.808
 6521SOL    HW120462   1.395   2.254   5.780
 6521SOL    HW220463   1.287   2.365   5.727
 6522SOL     OW20464   2.560   4.669   4.174
 6522SOL    HW120465   2.592   4.671   4.079
 6522SOL    HW220466   2.487   4.736   4.187
 6523SOL     OW20467   2.389   2.323   0.840
 6523SOL    HW120468   2.460   2.349   0.774
 6523SOL    HW220469   2.422   2.246   0.896
 6524SOL     OW20470   4.058   2.319   5.515
 6524SOL    HW120471   4.028   2.228   5.544
 6524SOL    HW220472   3.992   2.388   5.546
 6525SOL     OW20473   0.650   2.414   4.318
 6525SOL    HW120474   0.669   2.351   4.242
 6525SOL    HW220475   0.722   2.405   4.387
 6526SOL     OW20476   1.403   5.935   3.313
 6526SOL    HW120477   1.385   5.990   3.395
 6526SOL    HW220478   1.367   5.842   3.328
 6527SOL     OW20479   2.170   1.337   4.712
 6527SOL    HW120480   2.121   1.349   4.626
 6527SOL    HW220481   2.162   1.243   4.743
 6528SOL     OW20482   0.000   0.763   2.968
 6528SOL    HW120483   0.015   0.821   3.047
 6528SOL    HW220484   0.011   0.667   2.994
 6529SOL     OW20485   5.909   3.086   2.481
 6529SOL    HW120486   6.006   3.064   2.472
 6529SOL    HW220487   5.887   3.165   2.423
 6530SOL     OW20488   0.293   1.188   0.290
 6530SOL    HW120489   0.277   1.105   0.344
 6530SOL    HW220490   0.260   1.268   0.340
 6531SOL     OW20491   5.081   2.209   5.773
 6531SOL    HW120492   5.036   2.192   5.685
 6531SOL    HW220493   5.142   2.133   5.795
 6532SOL     OW20494   1.712   1.651   6.803
 6532SOL    HW120495   1.617   1.679   6.809
 6532SOL    HW220496   1.759   1.672   6.889
 6533SOL     OW20497   5.096   0.346   0.439
 6533SOL    HW120498   5.071   0.369   0.345
 6533SOL    HW220499   5.191   0.374   0.456
 6534SOL     OW20500   3.791   2.595   6.771
 6534SOL    HW120501   3.808   2.498   6.791
 6534SOL    HW220502   3.812   2.613   6.675
 6535SOL     OW20503   1.976   3.152   5.386
 6535SOL    HW120504   2.071   3.129   5.365
 6535SOL    HW220505   1.915   3.085   5.343
 6536SOL     OW20506   0.614   1.561   0.593
 6536SOL    HW120507   0.619   1.572   0.693
 6536SOL    HW220508   0.698   1.597   0.552
 6537SOL     OW20509   0.622   0.730   6.526
 6537SOL    HW120510   0.595   0.823   6.551
 6537SOL    HW220511   0.630   0.674   6.608
 6538SOL     OW20512   3.022   2.717   5.760
 6538SOL    HW120513   2.942   2.665   5.732
 6538SOL    HW220514   3.005   2.757   5.850
 6539SOL     OW20515   3.259   1.807   6.974
 6539SOL    HW120516   3.175   1.761   7.004
 6539SOL    HW220517   3.330   1.798   0.025
 6540SOL     OW20518   3.974   2.163   3.162
 6540SOL    HW120519   4.063   2.203   3.141
 6540SOL    HW220520   3.984   2.065   3.179
 6541SOL     OW20521   3.026   2.075   5.140
 6541SOL    HW120522   3.060   2.146   5.078
 6541SOL    HW220523   2.926   2.075   5.139
 6542SOL     OW20524   4.454   4.470   2.806
 6542SOL    HW120525   4.487   4.389   2.756
 6542SOL    HW220526   4.495   4.471   2.897
 6543SOL     OW20527   1.559   6.521   6.310
 6543SOL    HW120528   1.595   6.525   6.404
 6543SOL    HW220529   1.615   6.458   6.256
 6544SOL     OW20530   0.552   5.157   2.602
 6544SOL    HW120531   0.475   5.187   2.547
 6544SOL    HW220532   0.636   5.201   2.569
 6545SOL     OW20533   6.262   2.410   6.394
 6545SOL    HW120534   6.178   2.406   6.448
 6545SOL    HW220535   6.245   2.461   6.310
 6546SOL     OW20536   3.087   4.748   6.438
 6546SOL    HW120537   3.054   4.799   6.359
 6546SOL    HW220538   3.164   4.795   6.480
 6547SOL     OW20539   3.944   1.206   6.071
 6547SOL    HW120540   4.044   1.208   6.070
 6547SOL    HW220541   3.911   1.160   5.989
 6548SOL     OW20542   4.820   3.843   5.741
 6548SOL    HW120543   4.834   3.855   5.839
 6548SOL    HW220544   4.878   3.768   5.708
 6549SOL     OW20545   2.614   2.272   2.187
 6549SOL    HW120546   2.584   2.350   2.132
 6549SOL    HW220547   2.631   2.194   2.126
 6550SOL     OW20548   1.294   6.058   2.058
 6550SOL    HW120549   1.346   6.131   2.013
 6550SOL    HW220550   1.308   6.064   2.157
 6551SOL     OW20551   3.315   5.343   1.805
 6551SOL    HW120552   3.259   5.406   1.752
 6551SOL    HW220553   3.260   5.263   1.830
 6552SOL     OW20554   4.343   4.811   5.535
 6552SOL    HW120555   4.376   4.729   5.581
 6552SOL    HW220556   4.410   4.885   5.546
 6553SOL     OW20557   6.896   3.521   3.315
 6553SOL    HW120558   6.869   3.531   3.219
 6553SOL    HW220559   6.815   3.525   3.373
 6554SOL     OW20560   6.497   3.036   4.596
 6554SOL    HW120561   6.538   3.029   4.686
 6554SOL    HW220562   6.533   3.116   4.549
 6555SOL     OW20563   0.501   1.608   1.719
 6555SOL    HW120564   0.486   1.693   1.769
 6555SOL    HW220565   0.533   1.629   1.626
 6556SOL     OW20566   3.342   0.045   3.386
 6556SOL    HW120567   3.373   0.061   3.480
 6556SOL    HW220568   3.421   0.031   3.327
 6557SOL     OW20569   5.406   6.323   0.444
 6557SOL    HW120570   5.331   6.263   0.470
 6557SOL    HW220571   5.375   6.386   0.373
 6558SOL     OW20572   6.268   6.967   6.130
 6558SOL    HW120573   6.203   6.946   6.203
 6558SOL    HW220574   6.330   6.889   6.118
 6559SOL     OW20575   3.072   3.943   0.988
 6559SOL    HW120576   2.974   3.924   0.982
 6559SOL    HW220577   3.092   3.983   1.078
 6560SOL     OW20578   4.665   1.643   0.807
 6560SOL    HW120579   4.764   1.628   0.813
 6560SOL    HW220580   4.625   1.634   0.898
 6561SOL     OW20581   3.865   3.424   4.659
 6561SOL    HW120582   3.776   3.385   4.683
 6561SOL    HW220583   3.914   3.360   4.600
 6562SOL     OW20584   0.256   4.301   4.897
 6562SOL    HW120585   0.226   4.366   4.967
 6562SOL    HW220586   0.218   4.211   4.916
 6563SOL     OW20587   0.939   6.330   2.275
 6563SOL    HW120588   1.024   6.368   2.313
 6563SOL    HW220589   0.888   6.403   2.229
 6564SOL     OW20590   1.826   5.414   3.092
 6564SOL    HW120591   1.784   5.323   3.096
 6564SOL    HW220592   1.845   5.446   3.185
 6565SOL     OW20593   6.951   3.277   5.230
 6565SOL    HW120594   7.009   3.196   5.220
 6565SOL    HW220595   6.966   3.339   5.152
 6566SOL     OW20596   3.832   1.100   0.722
 6566SOL    HW120597   3.794   1.089   0.813
 6566SOL    HW220598   3.868   1.012   0.690
 6567SOL     OW20599   6.891   2.496   0.762
 6567SOL    HW120600   6.955   2.573   0.765
 6567SOL    HW220601   6.816   2.516   0.699
 6568SOL     OW20602   5.529   3.417   1.429
 6568SOL    HW120603   5.598   3.486   1.407
 6568SOL    HW220604   5.559   3.327   1.396
 6569SOL     OW20605   1.211   4.050   5.422
 6569SOL    HW120606   1.298   4.020   5.460
 6569SOL    HW220607   1.162   4.105   5.489
 6570SOL     OW20608   0.212   3.990   2.230
 6570SOL    HW120609   0.307   3.995   2.261
 6570SOL    HW220610   0.197   3.905   2.181
 6571SOL     OW20611   2.149   4.990   4.043
 6571SOL    HW120612   2.238   5.009   4.083
 6571SOL    HW220613   2.078   5.000   4.112
 6572SOL     OW20614   1.452   3.811   5.353
 6572SOL    HW120615   1.371   3.756   5.376
 6572SOL    HW220616   1.448   3.838   5.258
 6573SOL     OW20617   1.647   2.177   1.402
 6573SOL    HW120618   1.611   2.200   1.311
 6573SOL    HW220619   1.691   2.087   1.398
 6574SOL     OW20620   2.130   4.654   4.516
 6574SOL    HW120621   2.136   4.570   4.463
 6574SOL    HW220622   2.221   4.680   4.548
 6575SOL     OW20623   1.419   1.839   2.543
 6575SOL    HW120624   1.341   1.901   2.544
 6575SOL    HW220625   1.489   1.870   2.608
 6576SOL     OW20626   0.417   5.467   4.426
 6576SOL    HW120627   0.409   5.368   4.419
 6576SOL    HW220628   0.355   5.510   4.361
 6577SOL     OW20629   0.537   3.928   5.677
 6577SOL    HW120630   0.530   3.828   5.681
 6577SOL    HW220631   0.544   3.965   5.770
 6578SOL     OW20632   6.308   5.982   4.013
 6578SOL    HW120633   6.360   5.942   4.088
 6578SOL    HW220634   6.345   6.072   3.990
 6579SOL     OW20635   0.096   3.794   3.687
 6579SOL    HW120636   0.129   3.889   3.683
 6579SOL    HW220637   0.171   3.732   3.666
 6580SOL     OW20638   6.132   2.370   0.626
 6580SOL    HW120639   6.219   2.324   0.611
 6580SOL    HW220640   6.087   2.331   0.707
 6581SOL     OW20641   2.550   2.116   5.399
 6581SOL    HW120642   2.642   2.118   5.439
 6581SOL    HW220643   2.514   2.209   5.394
 6582SOL     OW20644   6.302   0.723   2.715
 6582SOL    HW120645   6.323   0.740   2.811
 6582SOL    HW220646   6.242   0.795   2.681
 6583SOL     OW20647   6.371   0.831   6.156
 6583SOL    HW120648   6.367   0.840   6.057
 6583SOL    HW220649   6.430   0.755   6.180
 6584SOL     OW20650   5.929   2.375   0.434
 6584SOL    HW120651   5.994   2.368   0.510
 6584SOL    HW220652   5.923   2.470   0.404
 6585SOL     OW20653   2.398   0.576   2.632
 6585SOL    HW120654   2.463   0.511   2.673
 6585SOL    HW220655   2.438   0.667   2.632
 6586SOL     OW20656   5.716   0.933   6.773
 6586SOL    HW120657   5.762   0.874   6.706
 6586SOL    HW220658   5.784   0.981   6.827
 6587SOL     OW20659   1.308   5.600   1.886
 6587SOL    HW120660   1.212   5.627   1.877
 6587SOL    HW220661   1.361   5.641   1.812
 6588SOL     OW20662   3.510   3.250   0.357
 6588SOL    HW120663   3.584   3.184   0.375
 6588SOL    HW220664   3.508   3.270   0.259
 6589SOL     OW20665   4.830   1.755   6.185
 6589SOL    HW120666   4.746   1.726   6.230
 6589SOL    HW220667   4.900   1.685   6.195
 6590SOL     OW20668   6.481   1.838   5.269
 6590SOL    HW120669   6.424   1.849   5.350
 6590SOL    HW220670   6.504   1.741   5.258
 6591SOL     OW20671   4.871   0.297   2.463
 6591SOL    HW120672   4.794   0.258   2.413
 6591SOL    HW220673   4.861   0.397   2.467
 6592SOL     OW20674   5.393   4.911   5.448
 6592SOL    HW120675   5.442   4.930   5.533
 6592SOL    HW220676   5.295   4.904   5.466
 6593SOL     OW20677   5.667   0.958   2.884
 6593SOL    HW120678   5.731   1.018   2.931
 6593SOL    HW220679   5.606   1.013   2.826
 6594SOL     OW20680   5.561   0.748   6.921
 6594SOL    HW120681   5.636   0.694   6.884
 6594SOL    HW220682   5.595   0.838   6.948
 6595SOL     OW20683   3.595   2.823   6.351
 6595SOL    HW120684   3.543   2.875   6.283
 6595SOL    HW220685   3.693   2.828   6.328
 6596SOL     OW20686   2.166   5.368   4.525
 6596SOL    HW120687   2.234   5.407   4.587
 6596SOL    HW220688   2.154   5.271   4.545
 6597SOL     OW20689   0.070   4.363   0.096
 6597SOL    HW120690   6.998   4.402   0.081
 6597SOL    HW220691   0.064   4.291   0.165
 6598SOL     OW20692   3.205   6.273   4.078
 6598SOL    HW120693   3.301   6.294   4.065
 6598SOL    HW220694   3.194   6.175   4.097
 6599SOL     OW20695   4.175   3.873   6.358
 6599SOL    HW120696   4.215   3.837   6.274
 6599SOL    HW220697   4.235   3.851   6.435
 6600SOL     OW20698   4.359   4.708   4.818
 6600SOL    HW120699   4.362   4.623   4.871
 6600SOL    HW220700   4.451   4.728   4.782
 6601SOL     OW20701   1.052   1.017   2.386
 6601SOL    HW120702   1.010   1.064   2.464
 6601SOL    HW220703   1.146   1.049   2.375
 6602SOL     OW20704   5.410   1.385   1.143
 6602SOL    HW120705   5.418   1.316   1.215
 6602SOL    HW220706   5.467   1.463   1.164
 6603SOL     OW20707   2.895   2.108   1.297
 6603SOL    HW120708   2.922   2.090   1.202
 6603SOL    HW220709   2.874   2.205   1.307
 6604SOL     OW20710   4.208   5.082   5.047
 6604SOL    HW120711   4.269   5.111   5.120
 6604SOL    HW220712   4.239   5.120   4.960
 6605SOL     OW20713   4.881   5.829   1.070
 6605SOL    HW120714   4.816   5.809   0.997
 6605SOL    HW220715   4.935   5.909   1.046
 6606SOL     OW20716   0.455   3.019   3.012
 6606SOL    HW120717   0.488   2.928   3.040
 6606SOL    HW220718   0.453   3.079   3.091
 6607SOL     OW20719   2.007   3.487   2.681
 6607SOL    HW120720   2.034   3.413   2.743
 6607SOL    HW220721   1.913   3.514   2.702
 6608SOL     OW20722   5.275   4.512   4.593
 6608SOL    HW120723   5.298   4.420   4.560
 6608SOL    HW220724   5.336   4.536   4.668
 6609SOL     OW20725   5.483   2.247   6.694
 6609SOL    HW120726   5.385   2.234   6.705
 6609SOL    HW220727   5.531   2.161   6.715
 6610SOL     OW20728   4.020   1.255   0.594
 6610SOL    HW120729   3.940   1.200   0.621
 6610SOL    HW220730   4.030   1.333   0.656
 6611SOL     OW20731   5.489   3.297   2.323
 6611SOL    HW120732   5.541   3.328   2.243
 6611SOL    HW220733   5.492   3.369   2.393
 6612SOL     OW20734   0.685   5.614   6.429
 6612SOL    HW120735   0.778   5.578   6.437
 6612SOL    HW220736   0.622   5.552   6.475
 6613SOL     OW20737   6.048   4.906   0.702
 6613SOL    HW120738   6.143   4.925   0.724
 6613SOL    HW220739   6.017   4.966   0.629
 6614SOL     OW20740   5.612   4.280   6.284
 6614SOL    HW120741   5.639   4.207   6.346
 6614SOL    HW220742   5.686   4.299   6.219
 6615SOL     OW20743   0.076   3.668   4.632
 6615SOL    HW120744   0.173   3.654   4.613
 6615SOL    HW220745   0.044   3.598   4.696
 6616SOL     OW20746   4.874   1.656   4.180
 6616SOL    HW120747   4.931   1.590   4.228
 6616SOL    HW220748   4.897   1.656   4.083
 6617SOL     OW20749   4.201   0.435   4.502
 6617SOL    HW120750   4.134   0.495   4.459
 6617SOL    HW220751   4.165   0.342   4.506
 6618SOL     OW20752   0.393   4.358   1.159
 6618SOL    HW120753   0.344   4.445   1.154
 6618SOL    HW220754   0.484   4.368   1.117
 6619SOL     OW20755   6.359   6.105   2.715
 6619SOL    HW120756   6.319   6.195   2.729
 6619SOL    HW220757   6.317   6.039   2.778
 6620SOL     OW20758   4.910   2.967   5.449
 6620SOL    HW120759   4.891   3.060   5.417
 6620SOL    HW220760   4.831   2.932   5.499
 6621SOL     OW20761   3.742   3.264   1.198
 6621SOL    HW120762   3.774   3.199   1.129
 6621SOL    HW220763   3.752   3.358   1.164
 6622SOL     OW20764   5.973   5.470   0.195
 6622SOL    HW120765   6.026   5.385   0.201
 6622SOL    HW220766   5.875   5.447   0.191
 6623SOL     OW20767   3.022   3.923   2.665
 6623SOL    HW120768   2.926   3.951   2.656
 6623SOL    HW220769   3.037   3.839   2.612
 6624SOL     OW20770   4.594   5.098   4.065
 6624SOL    HW120771   4.570   5.007   4.032
 6624SOL    HW220772   4.621   5.093   4.161
 6625SOL     OW20773   5.373   6.774   0.229
 6625SOL    HW120774   5.438   6.835   0.184
 6625SOL    HW220775   5.376   6.789   0.328
 6626SOL     OW20776   2.707   5.256   4.150
 6626SOL    HW120777   2.716   5.242   4.249
 6626SOL    HW220778   2.686   5.169   4.106
 6627SOL     OW20779   0.253   0.997   1.513
 6627SOL    HW120780   0.253   1.084   1.465
 6627SOL    HW220781   0.170   0.989   1.568
 6628SOL     OW20782   4.067   6.165   3.914
 6628SOL    HW120783   4.058   6.265   3.912
 6628SOL    HW220784   4.164   6.141   3.916
 6629SOL     OW20785   3.047   4.575   0.254
 6629SOL    HW120786   3.134   4.538   0.219
 6629SOL    HW220787   2.990   4.500   0.287
 6630SOL     OW20788   3.233   1.029   6.130
 6630SOL    HW120789   3.304   1.097   6.145
 6630SOL    HW220790   3.150   1.055   6.180
 6631SOL     OW20791   3.371   6.967   2.126
 6631SOL    HW120792   3.456   7.015   2.104
 6631SOL    HW220793   3.384   6.915   2.211
 6632SOL     OW20794   5.911   3.101   1.759
 6632SOL    HW120795   5.842   3.173   1.764
 6632SOL    HW220796   5.873   3.021   1.713
 6633SOL     OW20797   1.049   5.968   3.428
 6633SOL    HW120798   1.135   6.012   3.401
 6633SOL    HW220799   1.040   5.970   3.528
 6634SOL     OW20800   6.129   2.181   5.001
 6634SOL    HW120801   6.189   2.173   4.922
 6634SOL    HW220802   6.059   2.109   4.997
 6635SOL     OW20803   4.289   5.009   3.655
 6635SOL    HW120804   4.201   4.970   3.628
 6635SOL    HW220805   4.299   5.099   3.614
 6636SOL     OW20806   1.897   3.147   2.599
 6636SOL    HW120807   1.980   3.100   2.567
 6636SOL    HW220808   1.918   3.199   2.681
 6637SOL     OW20809   6.989   2.940   0.388
 6637SOL    HW120810   6.987   2.983   0.298
 6637SOL    HW220811   6.942   2.852   0.385
 6638SOL     OW20812   1.626   0.485   6.842
 6638SOL    HW120813   1.571   0.415   6.886
 6638SOL    HW220814   1.585   0.510   6.755
 6639SOL     OW20815   3.891   5.652   6.065
 6639SOL    HW120816   3.800   5.621   6.039
 6639SOL    HW220817   3.957   5.580   6.048
 6640SOL     OW20818   5.430   3.640   3.164
 6640SOL    HW120819   5.404   3.664   3.258
 6640SOL    HW220820   5.356   3.664   3.102
 6641SOL     OW20821   2.522   5.219   6.475
 6641SOL    HW120822   2.509   5.315   6.452
 6641SOL    HW220823   2.539   5.210   6.573
 6642SOL     OW20824   6.520   6.564   5.891
 6642SOL    HW120825   6.509   6.607   5.802
 6642SOL    HW220826   6.524   6.464   5.880
 6643SOL     OW20827   4.179   5.813   0.356
 6643SOL    HW120828   4.174   5.829   0.455
 6643SOL    HW220829   4.220   5.724   0.339
 6644SOL     OW20830   1.161   3.399   1.962
 6644SOL    HW120831   1.122   3.487   1.934
 6644SOL    HW220832   1.254   3.391   1.926
 6645SOL     OW20833   0.179   4.922   5.430
 6645SOL    HW120834   0.108   4.900   5.497
 6645SOL    HW220835   0.225   5.007   5.457
 6646SOL     OW20836   2.170   4.998   3.763
 6646SOL    HW120837   2.270   4.993   3.767
 6646SOL    HW220838   2.132   4.992   3.855
 6647SOL     OW20839   4.167   1.558   1.851
 6647SOL    HW120840   4.178   1.652   1.882
 6647SOL    HW220841   4.124   1.557   1.761
 6648SOL     OW20842   3.497   5.568   1.890
 6648SOL    HW120843   3.422   5.517   1.933
 6648SOL    HW220844   3.550   5.614   1.961
 6649SOL     OW20845   4.067   1.838   5.416
 6649SOL    HW120846   4.130   1.770   5.380
 6649SOL    HW220847   3.976   1.825   5.377
 6650SOL     OW20848   3.585   1.478   4.200
 6650SOL    HW120849   3.602   1.497   4.103
 6650SOL    HW220850   3.521   1.545   4.238
 6651SOL     OW20851   0.731   1.438   1.095
 6651SOL    HW120852   0.831   1.441   1.100
 6651SOL    HW220853   0.701   1.343   1.102
 6652SOL     OW20854   0.621   5.239   3.647
 6652SOL    HW120855   0.627   5.242   3.547
 6652SOL    HW220856   0.659   5.152   3.679
 6653SOL     OW20857   3.846   4.085   3.361
 6653SOL    HW120858   3.747   4.092   3.346
 6653SOL    HW220859   3.869   4.123   3.451
 6654SOL     OW20860   1.561   3.274   1.735
 6654SOL    HW120861   1.657   3.271   1.705
 6654SOL    HW220862   1.502   3.283   1.656
 6655SOL     OW20863   1.207   1.212   6.861
 6655SOL    HW120864   1.222   1.308   6.835
 6655SOL    HW220865   1.276   1.155   6.816
 6656SOL     OW20866   6.350   2.150   1.669
 6656SOL    HW120867   6.404   2.170   1.587
 6656SOL    HW220868   6.294   2.069   1.653
 6657SOL     OW20869   3.620   4.907   5.384
 6657SOL    HW120870   3.698   4.856   5.420
 6657SOL    HW220871   3.564   4.846   5.328
 6658SOL     OW20872   6.271   0.189   5.441
 6658SOL    HW120873   6.309   0.205   5.532
 6658SOL    HW220874   6.184   0.140   5.450
 6659SOL     OW20875   2.231   3.124   0.315
 6659SOL    HW120876   2.170   3.167   0.249
 6659SOL    HW220877   2.310   3.182   0.331
 6660SOL     OW20878   0.275   6.824   2.933
 6660SOL    HW120879   0.218   6.907   2.938
 6660SOL    HW220880   0.326   6.815   3.018
 6661SOL     OW20881   6.842   0.242   3.966
 6661SOL    HW120882   6.859   0.171   4.034
 6661SOL    HW220883   6.812   0.199   3.881
 6662SOL     OW20884   1.271   3.344   6.257
 6662SOL    HW120885   1.244   3.247   6.261
 6662SOL    HW220886   1.225   3.394   6.329
 6663SOL     OW20887   0.362   5.501   2.233
 6663SOL    HW120888   0.430   5.567   2.266
 6663SOL    HW220889   0.270   5.536   2.251
 6664SOL     OW20890   6.826   1.923   1.875
 6664SOL    HW120891   6.917   1.881   1.875
 6664SOL    HW220892   6.835   2.020   1.897
 6665SOL     OW20893   1.935   6.269   3.496
 6665SOL    HW120894   1.946   6.353   3.442
 6665SOL    HW220895   1.984   6.194   3.451
 6666SOL     OW20896   5.997   0.725   0.448
 6666SOL    HW120897   5.901   0.714   0.474
 6666SOL    HW220898   6.003   0.759   0.354
 6667SOL     OW20899   5.425   5.051   5.228
 6667SOL    HW120900   5.343   5.040   5.173
 6667SOL    HW220901   5.417   4.998   5.312
 6668SOL     OW20902   6.262   6.111   1.070
 6668SOL    HW120903   6.248   6.127   0.972
 6668SOL    HW220904   6.359   6.091   1.087
 6669SOL     OW20905   0.711   4.737   3.247
 6669SOL    HW120906   0.728   4.782   3.334
 6669SOL    HW220907   0.677   4.644   3.263
 6670SOL     OW20908   5.303   4.983   0.312
 6670SOL    HW120909   5.325   4.977   0.409
 6670SOL    HW220910   5.234   5.054   0.298
 6671SOL     OW20911   1.149   2.361   5.173
 6671SOL    HW120912   1.222   2.426   5.194
 6671SOL    HW220913   1.060   2.408   5.177
 6672SOL     OW20914   0.003   1.209   5.000
 6672SOL    HW120915   0.017   1.150   5.080
 6672SOL    HW220916   6.924   1.224   4.986
 6673SOL     OW20917   3.457   6.098   1.825
 6673SOL    HW120918   3.435   6.013   1.873
 6673SOL    HW220919   3.468   6.172   1.891
 6674SOL     OW20920   0.707   5.781   5.116
 6674SOL    HW120921   0.735   5.737   5.030
 6674SOL    HW220922   0.696   5.879   5.101
 6675SOL     OW20923   6.138   6.506   6.412
 6675SOL    HW120924   6.093   6.550   6.334
 6675SOL    HW220925   6.086   6.424   6.438
 6676SOL     OW20926   0.624   1.586   0.887
 6676SOL    HW120927   0.693   1.573   0.958
 6676SOL    HW220928   0.590   1.496   0.857
 6677SOL     OW20929   0.663   4.889   0.645
 6677SOL    HW120930   0.603   4.949   0.593
 6677SOL    HW220931   0.628   4.880   0.738
 6678SOL     OW20932   0.554   3.692   3.804
 6678SOL    HW120933   0.473   3.731   3.847
 6678SOL    HW220934   0.632   3.752   3.819
 6679SOL     OW20935   2.423   1.281   4.628
 6679SOL    HW120936   2.323   1.279   4.634
 6679SOL    HW220937   2.456   1.192   4.597
 6680SOL     OW20938   2.941   0.703   6.877
 6680SOL    HW120939   2.974   0.631   6.938
 6680SOL    HW220940   2.902   0.661   6.795
 6681SOL     OW20941   5.966   5.344   6.389
 6681SOL    HW120942   5.993   5.251   6.413
 6681SOL    HW220943   5.973   5.357   6.290
 6682SOL     OW20944   6.221   4.847   2.342
 6682SOL    HW120945   6.300   4.794   2.310
 6682SOL    HW220946   6.253   4.930   2.387
 6683SOL     OW20947   5.273   3.075   4.135
 6683SOL    HW120948   5.346   3.111   4.194
 6683SOL    HW220949   5.268   2.976   4.147
 6684SOL     OW20950   1.750   0.868   1.956
 6684SOL    HW120951   1.715   0.903   2.043
 6684SOL    HW220952   1.710   0.920   1.881
 6685SOL     OW20953   6.146   2.966   6.780
 6685SOL    HW120954   6.109   2.900   6.846
 6685SOL    HW220955   6.091   2.965   6.697
 6686SOL     OW20956   4.977   4.443   3.907
 6686SOL    HW120957   5.047   4.512   3.890
 6686SOL    HW220958   5.016   4.352   3.893
 6687SOL     OW20959   0.382   7.000   6.859
 6687SOL    HW120960   0.373   0.081   6.853
 6687SOL    HW220961   0.335   6.958   6.781
 6688SOL     OW20962   0.392   4.605   2.817
 6688SOL    HW120963   0.471   4.597   2.877
 6688SOL    HW220964   0.421   4.592   2.722
 6689SOL     OW20965   5.725   3.890   0.376
 6689SOL    HW120966   5.712   3.798   0.340
 6689SOL    HW220967   5.643   3.920   0.425
 6690SOL     OW20968   0.206   1.403   0.468
 6690SOL    HW120969   0.171   1.392   0.561
 6690SOL    HW220970   0.165   1.485   0.427
 6691SOL     OW20971   1.016   5.455   1.102
 6691SOL    HW120972   1.053   5.546   1.082
 6691SOL    HW220973   0.955   5.461   1.181
 6692SOL     OW20974   4.985   3.495   6.380
 6692SOL    HW120975   5.079   3.476   6.349
 6692SOL    HW220976   4.970   3.449   6.467
 6693SOL     OW20977   4.113   3.357   6.350
 6693SOL    HW120978   4.023   3.362   6.307
 6693SOL    HW220979   4.103   3.357   6.449
 6694SOL     OW20980   2.990   5.763   6.935
 6694SOL    HW120981   2.919   5.697   6.909
 6694SOL    HW220982   3.068   5.714   6.973
 6695SOL     OW20983   1.751   1.461   0.277
 6695SOL    HW120984   1.851   1.449   0.278
 6695SOL    HW220985   1.715   1.426   0.191
 6696SOL     OW20986   1.537   2.217   1.156
 6696SOL    HW120987   1.532   2.119   1.135
 6696SOL    HW220988   1.547   2.268   1.070
 6697SOL     OW20989   5.334   3.805   4.665
 6697SOL    HW120990   5.277   3.723   4.667
 6697SOL    HW220991   5.398   3.799   4.588
 6698SOL     OW20992   2.586   4.482   6.172
 6698SOL    HW120993   2.664   4.470   6.110
 6698SOL    HW220994   2.608   4.443   6.262
 6699SOL     OW20995   1.947   3.239   6.636
 6699SOL    HW120996   1.997   3.294   6.570
 6699SOL    HW220997   1.909   3.158   6.591
 6700SOL     OW20998   6.985   6.089   6.208
 6700SOL    HW120999   6.908   6.048   6.160
 6700SOL    HW221000   6.952   6.161   6.269
 6701SOL     OW21001   1.767   2.529   6.862
 6701SOL    HW121002   1.767   2.626   6.887
 6701SOL    HW221003   1.743   2.519   6.766
 6702SOL     OW21004   3.400   3.200   0.943
 6702SOL    HW121005   3.371   3.295   0.957
 6702SOL    HW221006   3.496   3.191   0.969
 6703SOL     OW21007   0.421   2.046   0.526
 6703SOL    HW121008   0.491   2.105   0.567
 6703SOL    HW221009   0.456   2.008   0.440
 6704SOL     OW21010   5.242   3.357   2.559
 6704SOL    HW121011   5.239   3.293   2.483
 6704SOL    HW221012   5.321   3.417   2.549
 6705SOL     OW21013   5.112   2.096   1.273
 6705SOL    HW121014   5.013   2.102   1.263
 6705SOL    HW221015   5.152   2.060   1.189
 6706SOL     OW21016   1.652   6.690   6.817
 6706SOL    HW121017   1.677   6.757   6.747
 6706SOL    HW221018   1.664   6.598   6.779
 6707SOL     OW21019   1.382   5.142   3.421
 6707SOL    HW121020   1.334   5.073   3.474
 6707SOL    HW221021   1.349   5.233   3.447
 6708SOL     OW21022   2.037   5.949   1.180
 6708SOL    HW121023   1.993   6.020   1.236
 6708SOL    HW221024   2.039   5.863   1.231
 6709SOL     OW21025   4.996   1.696   3.890
 6709SOL    HW121026   4.928   1.636   3.848
 6709SOL    HW221027   4.954   1.785   3.909
 6710SOL     OW21028   2.540   2.424   0.642
 6710SOL    HW121029   2.577   2.514   0.620
 6710SOL    HW221030   2.536   2.368   0.560
 6711SOL     OW21031   5.720   3.466   6.584
 6711SOL    HW121032   5.635   3.418   6.560
 6711SOL    HW221033   5.743   3.532   6.513
 6712SOL     OW21034   2.970   6.415   0.307
 6712SOL    HW121035   2.930   6.326   0.331
 6712SOL    HW221036   3.069   6.405   0.298
 6713SOL     OW21037   0.581   2.723   3.026
 6713SOL    HW121038   0.496   2.690   2.986
 6713SOL    HW221039   0.575   2.719   3.125
 6714SOL     OW21040   6.735   1.184   4.956
 6714SOL    HW121041   6.705   1.090   4.942
 6714SOL    HW221042   6.671   1.231   5.017
 6715SOL     OW21043   5.254   2.652   0.849
 6715SOL    HW121044   5.176   2.594   0.871
 6715SOL    HW221045   5.338   2.608   0.879
 6716SOL     OW21046   3.276   6.069   0.873
 6716SOL    HW121047   3.301   5.997   0.938
 6716SOL    HW221048   3.292   6.036   0.780
 6717SOL     OW21049   3.843   1.098   0.079
 6717SOL    HW121050   3.843   1.092   0.179
 6717SOL    HW221051   3.897   1.177   0.051
 6718SOL     OW21052   4.276   0.681   6.503
 6718SOL    HW121053   4.274   0.637   6.593
 6718SOL    HW221054   4.256   0.779   6.514
 6719SOL     OW21055   0.883   1.811   5.222
 6719SOL    HW121056   0.942   1.857   5.156
 6719SOL    HW221057   0.905   1.843   5.315
 6720SOL     OW21058   1.399   4.733   0.438
 6720SOL    HW121059   1.321   4.701   0.492
 6720SOL    HW221060   1.418   4.829   0.460
 6721SOL     OW21061   6.592   6.422   2.800
 6721SOL    HW121062   6.537   6.380   2.728
 6721SOL    HW221063   6.679   6.373   2.810
 6722SOL     OW21064   3.917   4.572   6.668
 6722SOL    HW121065   3.909   4.472   6.659
 6722SOL    HW221066   4.010   4.595   6.697
 6723SOL     OW21067   3.748   1.838   2.546
 6723SOL    HW121068   3.728   1.912   2.611
 6723SOL    HW221069   3.720   1.867   2.455
 6724SOL     OW21070   3.124   4.569   5.868
 6724SOL    HW121071   3.043   4.578   5.810
 6724SOL    HW221072   3.152   4.660   5.900
 6725SOL     OW21073   0.867   6.063   1.485
 6725SOL    HW121074   0.823   6.096   1.401
 6725SOL    HW221075   0.810   6.085   1.564
 6726SOL     OW21076   2.265   2.603   1.713
 6726SOL    HW121077   2.246   2.701   1.717
 6726SOL    HW221078   2.245   2.568   1.621
 6727SOL     OW21079   3.054   3.762   1.280
 6727SOL    HW121080   3.103   3.680   1.251
 6727SOL    HW221081   3.108   3.843   1.256
 6728SOL     OW21082   3.999   1.275   3.920
 6728SOL    HW121083   4.087   1.236   3.947
 6728SOL    HW221084   3.930   1.251   3.988
 6729SOL     OW21085   4.252   5.910   3.698
 6729SOL    HW121086   4.225   5.820   3.664
 6729SOL    HW221087   4.253   5.909   3.798
 6730SOL     OW21088   1.061   6.822   2.659
 6730SOL    HW121089   1.116   6.818   2.576
 6730SOL    HW221090   1.020   6.733   2.676
 6731SOL     OW21091   1.688   3.872   1.140
 6731SOL    HW121092   1.682   3.778   1.107
 6731SOL    HW221093   1.783   3.891   1.168
 6732SOL     OW21094   3.536   5.843   0.411
 6732SOL    HW121095   3.493   5.933   0.405
 6732SOL    HW221096   3.536   5.812   0.506
 6733SOL     OW21097   6.547   6.036   4.392
 6733SOL    HW121098   6.465   6.063   4.443
 6733SOL    HW221099   6.579   6.114   4.338
 6734SOL     OW21100   2.662   3.834   6.753
 6734SOL    HW121101   2.688   3.816   6.848
 6734SOL    HW221102   2.577   3.887   6.751
 6735SOL     OW21103   0.517   6.803   5.805
 6735SOL    HW121104   0.557   6.712   5.816
 6735SOL    HW221105   0.548   6.843   5.718
 6736SOL     OW21106   1.824   4.148   1.884
 6736SOL    HW121107   1.919   4.175   1.898
 6736SOL    HW221108   1.816   4.049   1.895
 6737SOL     OW21109   1.774   0.260   1.222
 6737SOL    HW121110   1.691   0.226   1.177
 6737SOL    HW221111   1.817   0.330   1.164
 6738SOL     OW21112   5.139   1.491   0.533
 6738SOL    HW121113   5.191   1.410   0.560
 6738SOL    HW221114   5.188   1.537   0.458
 6739SOL     OW21115   3.973   5.746   5.549
 6739SOL    HW121116   3.954   5.713   5.641
 6739SOL    HW221117   3.891   5.787   5.510
 6740SOL     OW21118   5.539   2.225   5.595
 6740SOL    HW121119   5.588   2.229   5.508
 6740SOL    HW221120   5.493   2.312   5.611
 6741SOL     OW21121   0.659   0.956   5.741
 6741SOL    HW121122   0.658   0.856   5.744
 6741SOL    HW221123   0.706   0.992   5.821
 6742SOL     OW21124   6.121   5.953   5.032
 6742SOL    HW121125   6.072   5.907   4.958
 6742SOL    HW221126   6.156   5.885   5.097
 6743SOL     OW21127   5.968   1.930   0.842
 6743SOL    HW121128   5.984   1.878   0.759
 6743SOL    HW221129   5.886   1.986   0.831
 6744SOL     OW21130   4.475   0.666   4.141
 6744SOL    HW121131   4.427   0.644   4.226
 6744SOL    HW221132   4.407   0.681   4.068
 6745SOL     OW21133   0.990   3.484   3.207
 6745SOL    HW121134   1.078   3.511   3.246
 6745SOL    HW221135   0.949   3.561   3.159
 6746SOL     OW21136   6.148   0.462   0.322
 6746SOL    HW121137   6.082   0.536   0.331
 6746SOL    HW221138   6.178   0.432   0.412
 6747SOL     OW21139   5.412   5.434   6.353
 6747SOL    HW121140   5.460   5.386   6.279
 6747SOL    HW221141   5.397   5.371   6.429
 6748SOL     OW21142   6.462   6.716   2.585
 6748SOL    HW121143   6.438   6.685   2.676
 6748SOL    HW221144   6.561   6.728   2.579
 6749SOL     OW21145   2.743   5.118   0.970
 6749SOL    HW121146   2.839   5.091   0.971
 6749SOL    HW221147   2.711   5.125   0.875
 6750SOL     OW21148   2.256   3.381   5.301
 6750SOL    HW121149   2.344   3.337   5.285
 6750SOL    HW221150   2.234   3.442   5.225
 6751SOL     OW21151   4.619   2.629   5.673
 6751SOL    HW121152   4.553   2.686   5.624
 6751SOL    HW221153   4.687   2.688   5.717
 6752SOL     OW21154   6.548   1.006   0.372
 6752SOL    HW121155   6.562   1.104   0.390
 6752SOL    HW221156   6.465   0.975   0.419
 6753SOL     OW21157   5.836   0.483   6.242
 6753SOL    HW121158   5.874   0.567   6.281
 6753SOL    HW221159   5.764   0.505   6.176
 6754SOL     OW21160   4.208   1.493   6.869
 6754SOL    HW121161   4.201   1.591   6.853
 6754SOL    HW221162   4.174   1.444   6.789
 6755SOL     OW21163   5.303   1.527   2.850
 6755SOL    HW121164   5.236   1.457   2.876
 6755SOL    HW221165   5.263   1.617   2.865
 6756SOL     OW21166   4.613   5.362   2.939
 6756SOL    HW121167   4.533   5.305   2.957
 6756SOL    HW221168   4.692   5.304   2.919
 6757SOL     OW21169   6.161   4.101   1.400
 6757SOL    HW121170   6.094   4.049   1.453
 6757SOL    HW221171   6.207   4.167   1.460
 6758SOL     OW21172   6.783   1.995   2.717
 6758SOL    HW121173   6.878   1.998   2.747
 6758SOL    HW221174   6.777   1.947   2.629
 6759SOL     OW21175   0.229   5.362   4.143
 6759SOL    HW121176   0.232   5.297   4.219
 6759SOL    HW221177   0.197   5.451   4.176
 6760SOL     OW21178   0.554   3.748   5.168
 6760SOL    HW121179   0.551   3.848   5.174
 6760SOL    HW221180   0.508   3.718   5.085
 6761SOL     OW21181   6.406   3.050   6.722
 6761SOL    HW121182   6.318   3.020   6.759
 6761SOL    HW221183   6.431   3.138   6.762
 6762SOL     OW21184   6.968   2.151   4.344
 6762SOL    HW121185   0.033   2.205   4.327
 6762SOL    HW221186   6.927   2.126   4.256
 6763SOL     OW21187   5.698   6.389   5.381
 6763SOL    HW121188   5.665   6.354   5.468
 6763SOL    HW221189   5.791   6.355   5.365
 6764SOL     OW21190   1.999   3.593   6.931
 6764SOL    HW121191   1.990   3.668   6.997
 6764SOL    HW221192   1.950   3.512   6.966
 6765SOL     OW21193   4.817   5.419   1.759
 6765SOL    HW121194   4.744   5.437   1.824
 6765SOL    HW221195   4.867   5.337   1.787
 6766SOL     OW21196   2.747   2.101   5.195
 6766SOL    HW121197   2.663   2.069   5.238
 6766SOL    HW221198   2.765   2.195   5.226
 6767SOL     OW21199   0.530   2.713   5.964
 6767SOL    HW121200   0.444   2.744   5.925
 6767SOL    HW221201   0.514   2.676   6.056
 6768SOL     OW21202   6.585   0.597   5.836
 6768SOL    HW121203   6.618   0.551   5.754
 6768SOL    HW221204   6.632   0.684   5.847
 6769SOL     OW21205   0.967   2.169   6.389
 6769SOL    HW121206   0.933   2.246   6.334
 6769SOL    HW221207   1.035   2.202   6.454
 6770SOL     OW21208   0.543   2.107   3.683
 6770SOL    HW121209   0.622   2.047   3.695
 6770SOL    HW221210   0.503   2.090   3.593
 6771SOL     OW21211   5.399   2.106   1.937
 6771SOL    HW121212   5.321   2.158   1.902
 6771SOL    HW221213   5.433   2.149   2.020
 6772SOL     OW21214   1.598   6.901   1.815
 6772SOL    HW121215   1.563   6.816   1.777
 6772SOL    HW221216   1.672   6.936   1.757
 6773SOL     OW21217   1.714   1.319   2.993
 6773SOL    HW121218   1.681   1.275   3.076
 6773SOL    HW221219   1.683   1.413   2.989
 6774SOL     OW21220   3.595   0.997   5.409
 6774SOL    HW121221   3.629   0.903   5.411
 6774SOL    HW221222   3.672   1.061   5.403
 6775SOL     OW21223   1.477   2.996   4.889
 6775SOL    HW121224   1.416   3.074   4.871
 6775SOL    HW221225   1.566   3.030   4.920
 6776SOL     OW21226   3.251   3.421   3.876
 6776SOL    HW121227   3.239   3.495   3.810
 6776SOL    HW221228   3.223   3.453   3.967
 6777SOL     OW21229   0.037   0.394   5.432
 6777SOL    HW121230   0.011   0.431   5.343
 6777SOL    HW221231   0.085   0.307   5.419
 6778SOL     OW21232   5.980   5.973   2.028
 6778SOL    HW121233   5.931   6.059   2.012
 6778SOL    HW221234   5.934   5.921   2.100
 6779SOL     OW21235   6.098   3.102   5.645
 6779SOL    HW121236   6.172   3.129   5.584
 6779SOL    HW221237   6.011   3.106   5.596
 6780SOL     OW21238   4.705   0.875   2.199
 6780SOL    HW121239   4.685   0.805   2.131
 6780SOL    HW221240   4.802   0.900   2.193
 6781SOL     OW21241   5.276   4.042   3.106
 6781SOL    HW121242   5.373   4.021   3.095
 6781SOL    HW221243   5.221   3.965   3.076
 6782SOL     OW21244   6.721   2.163   2.968
 6782SOL    HW121245   6.753   2.114   2.887
 6782SOL    HW221246   6.621   2.166   2.969
 6783SOL     OW21247   0.819   6.643   6.907
 6783SOL    HW121248   0.769   6.695   6.976
 6783SOL    HW221249   0.890   6.701   6.868
 6784SOL     OW21250   1.672   4.824   6.320
 6784SOL    HW121251   1.694   4.730   6.297
 6784SOL    HW221252   1.748   4.884   6.293
 6785SOL     OW21253   5.617   4.183   1.488
 6785SOL    HW121254   5.664   4.095   1.481
 6785SOL    HW221255   5.684   4.255   1.503
 6786SOL     OW21256   6.408   1.322   6.327
 6786SOL    HW121257   6.327   1.374   6.352
 6786SOL    HW221258   6.381   1.236   6.283
 6787SOL     OW21259   4.283   2.259   1.667
 6787SOL    HW121260   4.186   2.255   1.646
 6787SOL    HW221261   4.326   2.334   1.616
 6788SOL     OW21262   1.413   4.398   1.401
 6788SOL    HW121263   1.508   4.412   1.372
 6788SOL    HW221264   1.366   4.338   1.337
 6789SOL     OW21265   5.679   2.552   2.769
 6789SOL    HW121266   5.720   2.461   2.767
 6789SOL    HW221267   5.657   2.576   2.863
 6790SOL     OW21268   0.927   5.909   6.944
 6790SOL    HW121269   1.026   5.905   6.933
 6790SOL    HW221270   0.897   5.837   7.006
 6791SOL     OW21271   2.133   6.425   3.823
 6791SOL    HW121272   2.193   6.498   3.792
 6791SOL    HW221273   2.067   6.461   3.889
 6792SOL     OW21274   3.171   5.869   0.442
 6792SOL    HW121275   3.232   5.790   0.449
 6792SOL    HW221276   3.129   5.870   0.351
 6793SOL     OW21277   1.405   3.291   6.025
 6793SOL    HW121278   1.350   3.275   6.107
 6793SOL    HW221279   1.502   3.293   6.050
 6794SOL     OW21280   4.590   2.235   4.054
 6794SOL    HW121281   4.511   2.282   4.093
 6794SOL    HW221282   4.646   2.197   4.128
 6795SOL     OW21283   0.819   0.146   2.422
 6795SOL    HW121284   0.759   0.109   2.494
 6795SOL    HW221285   0.763   0.172   2.343
 6796SOL     OW21286   6.227   2.227   2.346
 6796SOL    HW121287   6.205   2.196   2.438
 6796SOL    HW221288   6.182   2.167   2.279
 6797SOL     OW21289   1.651   4.116   0.622
 6797SOL    HW121290   1.652   4.052   0.545
 6797SOL    HW221291   1.689   4.070   0.703
 6798SOL     OW21292   5.319   1.988   1.579
 6798SOL    HW121293   5.272   1.989   1.667
 6798SOL    HW221294   5.281   2.059   1.520
 6799SOL     OW21295   4.127   6.607   2.361
 6799SOL    HW121296   4.036   6.588   2.399
 6799SOL    HW221297   4.195   6.605   2.434
 6800SOL     OW21298   6.788   2.631   2.411
 6800SOL    HW121299   6.731   2.695   2.360
 6800SOL    HW221300   6.874   2.617   2.363
 6801SOL     OW21301   2.216   4.867   5.327
 6801SOL    HW121302   2.207   4.935   5.401
 6801SOL    HW221303   2.171   4.782   5.355
 6802SOL     OW21304   2.272   4.313   2.197
 6802SOL    HW121305   2.254   4.362   2.112
 6802SOL    HW221306   2.272   4.378   2.274
 6803SOL     OW21307   6.214   5.270   6.172
 6803SOL    HW121308   6.118   5.294   6.163
 6803SOL    HW221309   6.263   5.345   6.217
 6804SOL     OW21310   3.029   5.837   1.476
 6804SOL    HW121311   2.972   5.760   1.505
 6804SOL    HW221312   3.043   5.833   1.377
 6805SOL     OW21313   0.081   4.009   4.246
 6805SOL    HW121314   0.050   3.932   4.191
 6805SOL    HW221315   0.166   4.046   4.207
 6806SOL     OW21316   5.870   3.453   1.960
 6806SOL    HW121317   5.792   3.394   1.978
 6806SOL    HW221318   5.851   3.512   1.881
 6807SOL     OW21319   3.868   3.681   2.553
 6807SOL    HW121320   3.963   3.674   2.584
 6807SOL    HW221321   3.807   3.654   2.627
 6808SOL     OW21322   2.446   6.518   4.015
 6808SOL    HW121323   2.530   6.489   4.061
 6808SOL    HW221324   2.437   6.617   4.022
 6809SOL     OW21325   6.410   2.477   0.314
 6809SOL    HW121326   6.438   2.485   0.219
 6809SOL    HW221327   6.484   2.510   0.374
 6810SOL     OW21328   3.295   6.815   4.997
 6810SOL    HW121329   3.304   6.864   4.910
 6810SOL    HW221330   3.218   6.751   4.991
 6811SOL     OW21331   6.479   2.218   1.443
 6811SOL    HW121332   6.446   2.305   1.406
 6811SOL    HW221333   6.457   2.144   1.380
 6812SOL     OW21334   3.422   4.717   5.284
 6812SOL    HW121335   3.350   4.709   5.353
 6812SOL    HW221336   3.403   4.795   5.225
 6813SOL     OW21337   0.463   3.505   1.706
 6813SOL    HW121338   0.418   3.435   1.762
 6813SOL    HW221339   0.410   3.590   1.709
 6814SOL     OW21340   4.885   2.116   1.588
 6814SOL    HW121341   4.970   2.085   1.629
 6814SOL    HW221342   4.835   2.174   1.653
 6815SOL     OW21343   1.984   6.241   1.035
 6815SOL    HW121344   2.072   6.289   1.038
 6815SOL    HW221345   1.942   6.242   1.125
 6816SOL     OW21346   5.690   0.218   3.461
 6816SOL    HW121347   5.709   0.122   3.440
 6816SOL    HW221348   5.629   0.256   3.392
 6817SOL     OW21349   6.143   0.985   1.139
 6817SOL    HW121350   6.064   0.999   1.079
 6817SOL    HW221351   6.200   0.913   1.101
 6818SOL     OW21352   6.959   7.012   5.631
 6818SOL    HW121353   0.023   0.023   5.680
 6818SOL    HW221354   6.978   7.008   5.533
 6819SOL     OW21355   6.280   3.742   0.410
 6819SOL    HW121356   6.338   3.678   0.359
 6819SOL    HW221357   6.187   3.707   0.414
 6820SOL     OW21358   2.417   4.383   0.940
 6820SOL    HW121359   2.376   4.412   1.026
 6820SOL    HW221360   2.516   4.400   0.942
 6821SOL     OW21361   2.408   3.793   5.923
 6821SOL    HW121362   2.416   3.702   5.884
 6821SOL    HW221363   2.485   3.849   5.892
 6822SOL     OW21364   0.531   4.285   4.839
 6822SOL    HW121365   0.577   4.250   4.920
 6822SOL    HW221366   0.434   4.294   4.857
 6823SOL     OW21367   6.760   3.322   5.430
 6823SOL    HW121368   6.821   3.332   5.351
 6823SOL    HW221369   6.704   3.404   5.439
 6824SOL     OW21370   1.445   0.545   3.879
 6824SOL    HW121371   1.533   0.575   3.843
 6824SOL    HW221372   1.425   0.453   3.848
 6825SOL     OW21373   4.769   5.315   1.502
 6825SOL    HW121374   4.798   5.369   1.581
 6825SOL    HW221375   4.788   5.365   1.418
 6826SOL     OW21376   5.631   0.797   4.398
 6826SOL    HW121377   5.626   0.700   4.424
 6826SOL    HW221378   5.538   0.832   4.383
 6827SOL     OW21379   5.157   4.989   5.374
 6827SOL    HW121380   5.062   4.996   5.405
 6827SOL    HW221381   5.162   5.014   5.277
 6828SOL     OW21382   2.414   2.150   2.352
 6828SOL    HW121383   2.440   2.054   2.344
 6828SOL    HW221384   2.487   2.207   2.313
 6829SOL     OW21385   5.763   6.415   4.743
 6829SOL    HW121386   5.787   6.323   4.715
 6829SOL    HW221387   5.674   6.414   4.789
 6830SOL     OW21388   3.858   6.455   3.175
 6830SOL    HW121389   3.890   6.542   3.211
 6830SOL    HW221390   3.759   6.450   3.182
 6831SOL     OW21391   2.093   0.440   0.098
 6831SOL    HW121392   2.140   0.437   0.010
 6831SOL    HW221393   2.018   0.505   0.095
 6832SOL     OW21394   3.808   3.711   0.535
 6832SOL    HW121395   3.756   3.740   0.616
 6832SOL    HW221396   3.828   3.613   0.542
 6833SOL     OW21397   4.053   5.328   0.402
 6833SOL    HW121398   3.991   5.351   0.477
 6833SOL    HW221399   4.070   5.409   0.347
 6834SOL     OW21400   6.630   5.525   5.149
 6834SOL    HW121401   6.724   5.544   5.177
 6834SOL    HW221402   6.627   5.434   5.107
 6835SOL     OW21403   3.828   0.377   2.897
 6835SOL    HW121404   3.919   0.401   2.864
 6835SOL    HW221405   3.786   0.457   2.940
 6836SOL     OW21406   0.729   4.598   6.642
 6836SOL    HW121407   0.700   4.502   6.639
 6836SOL    HW221408   0.807   4.607   6.704
 6837SOL     OW21409   5.892   2.337   1.380
 6837SOL    HW121410   5.810   2.284   1.402
 6837SOL    HW221411   5.967   2.308   1.440
 6838SOL     OW21412   1.995   4.786   6.805
 6838SOL    HW121413   2.000   4.727   6.725
 6838SOL    HW221414   1.899   4.795   6.833
 6839SOL     OW21415   6.408   2.449   5.314
 6839SOL    HW121416   6.493   2.492   5.282
 6839SOL    HW221417   6.394   2.471   5.411
 6840SOL     OW21418   3.078   0.356   4.463
 6840SOL    HW121419   3.091   0.453   4.485
 6840SOL    HW221420   3.160   0.305   4.490
 6841SOL     OW21421   4.773   5.996   0.486
 6841SOL    HW121422   4.739   6.082   0.448
 6841SOL    HW221423   4.823   6.015   0.571
 6842SOL     OW21424   0.143   3.053   3.183
 6842SOL    HW121425   0.235   3.091   3.173
 6842SOL    HW221426   0.079   3.106   3.127
 6843SOL     OW21427   4.364   3.070   1.730
 6843SOL    HW121428   4.453   3.086   1.772
 6843SOL    HW221429   4.372   2.997   1.662
 6844SOL     OW21430   3.032   6.501   4.026
 6844SOL    HW121431   3.050   6.515   3.929
 6844SOL    HW221432   3.083   6.422   4.059
 6845SOL     OW21433   4.034   4.304   0.056
 6845SOL    HW121434   4.038   4.221   0.111
 6845SOL    HW221435   3.940   4.318   0.025
 6846SOL     OW21436   3.663   3.524   4.001
 6846SOL    HW121437   3.732   3.461   3.966
 6846SOL    HW221438   3.589   3.472   4.044
 6847SOL     OW21439   5.039   3.547   1.020
 6847SOL    HW121440   5.108   3.476   1.036
 6847SOL    HW221441   5.077   3.636   1.044
 6848SOL     OW21442   0.985   6.211   4.893
 6848SOL    HW121443   0.950   6.141   4.831
 6848SOL    HW221444   1.012   6.292   4.840
 6849SOL     OW21445   2.507   0.630   4.555
 6849SOL    HW121446   2.418   0.591   4.581
 6849SOL    HW221447   2.495   0.690   4.477
 6850SOL     OW21448   6.835   2.187   1.923
 6850SOL    HW121449   6.826   2.233   2.011
 6850SOL    HW221450   6.753   2.202   1.869
 6851SOL     OW21451   2.354   5.544   0.828
 6851SOL    HW121452   2.363   5.590   0.916
 6851SOL    HW221453   2.260   5.512   0.815
 6852SOL     OW21454   4.798   4.640   2.624
 6852SOL    HW121455   4.793   4.740   2.632
 6852SOL    HW221456   4.706   4.602   2.623
 6853SOL     OW21457   5.694   4.421   4.207
 6853SOL    HW121458   5.684   4.480   4.287
 6853SOL    HW221459   5.652   4.332   4.226
 6854SOL     OW21460   6.182   0.628   6.723
 6854SOL    HW121461   6.192   0.554   6.657
 6854SOL    HW221462   6.175   0.715   6.675
 6855SOL     OW21463   2.710   6.570   2.975
 6855SOL    HW121464   2.684   6.500   2.908
 6855SOL    HW221465   2.640   6.640   2.980
 6856SOL     OW21466   1.100   5.055   6.003
 6856SOL    HW121467   1.090   5.034   6.100
 6856SOL    HW221468   1.159   5.135   5.992
 6857SOL     OW21469   4.524   1.136   6.428
 6857SOL    HW121470   4.590   1.073   6.469
 6857SOL    HW221471   4.440   1.136   6.483
 6858SOL     OW21472   3.354   3.099   6.365
 6858SOL    HW121473   3.276   3.162   6.366
 6858SOL    HW221474   3.327   3.012   6.406
 6859SOL     OW21475   4.309   6.923   1.589
 6859SOL    HW121476   4.355   6.983   1.524
 6859SOL    HW221477   4.219   6.959   1.611
 6860SOL     OW21478   4.720   3.351   0.213
 6860SOL    HW121479   4.668   3.414   0.271
 6860SOL    HW221480   4.776   3.291   0.270
 6861SOL     OW21481   6.430   3.823   6.990
 6861SOL    HW121482   6.383   3.866   0.049
 6861SOL    HW221483   6.467   3.894   6.930
 6862SOL     OW21484   2.730   4.725   4.625
 6862SOL    HW121485   2.783   4.764   4.700
 6862SOL    HW221486   2.681   4.644   4.658
 6863SOL     OW21487   0.765   3.822   4.120
 6863SOL    HW121488   0.744   3.745   4.180
 6863SOL    HW221489   0.848   3.803   4.068
 6864SOL     OW21490   3.068   5.480   6.096
 6864SOL    HW121491   3.118   5.403   6.056
 6864SOL    HW221492   2.975   5.452   6.118
 6865SOL     OW21493   0.939   2.552   5.500
 6865SOL    HW121494   0.908   2.495   5.423
 6865SOL    HW221495   1.014   2.506   5.547
 6866SOL     OW21496   0.221   4.203   2.784
 6866SOL    HW121497   0.249   4.224   2.690
 6866SOL    HW221498   0.159   4.275   2.817
 6867SOL     OW21499   2.658   5.332   3.713
 6867SOL    HW121500   2.724   5.393   3.669
 6867SOL    HW221501   2.700   5.243   3.728
 6868SOL     OW21502   1.847   5.446   5.158
 6868SOL    HW121503   1.843   5.395   5.244
 6868SOL    HW221504   1.756   5.477   5.133
 6869SOL     OW21505   0.317   2.741   3.949
 6869SOL    HW121506   0.305   2.704   3.857
 6869SOL    HW221507   0.286   2.673   4.016
 6870SOL     OW21508   4.983   3.997   3.050
 6870SOL    HW121509   4.954   3.938   2.975
 6870SOL    HW221510   5.017   3.941   3.126
 6871SOL     OW21511   4.214   5.940   2.111
 6871SOL    HW121512   4.313   5.929   2.119
 6871SOL    HW221513   4.178   5.872   2.048
 6872SOL     OW21514   3.123   4.164   0.679
 6872SOL    HW121515   3.031   4.125   0.683
 6872SOL    HW221516   3.117   4.264   0.673
 6873SOL     OW21517   4.669   4.673   5.166
 6873SOL    HW121518   4.708   4.633   5.083
 6873SOL    HW221519   4.739   4.676   5.237
 6874SOL     OW21520   1.275   1.588   6.324
 6874SOL    HW121521   1.307   1.682   6.334
 6874SOL    HW221522   1.353   1.528   6.308
 6875SOL     OW21523   3.834   6.735   5.114
 6875SOL    HW121524   3.767   6.696   5.178
 6875SOL    HW221525   3.820   6.695   5.023
 6876SOL     OW21526   2.748   6.589   5.026
 6876SOL    HW121527   2.701   6.667   5.068
 6876SOL    HW221528   2.689   6.509   5.031
 6877SOL     OW21529   2.128   4.077   0.743
 6877SOL    HW121530   2.113   4.021   0.824
 6877SOL    HW221531   2.109   4.023   0.661
 6878SOL     OW21532   2.417   1.646   5.083
 6878SOL    HW121533   2.369   1.665   5.169
 6878SOL    HW221534   2.479   1.722   5.061
 6879SOL     OW21535   6.157   1.450   5.846
 6879SOL    HW121536   6.169   1.518   5.774
 6879SOL    HW221537   6.065   1.412   5.841
 6880SOL     OW21538   1.065   4.777   4.575
 6880SOL    HW121539   0.996   4.849   4.567
 6880SOL    HW221540   1.130   4.785   4.499
 6881SOL     OW21541   4.855   6.194   1.559
 6881SOL    HW121542   4.824   6.162   1.469
 6881SOL    HW221543   4.940   6.148   1.583
 6882SOL     OW21544   2.613   5.721   5.192
 6882SOL    HW121545   2.540   5.676   5.243
 6882SOL    HW221546   2.664   5.782   5.252
 6883SOL     OW21547   2.547   6.676   2.130
 6883SOL    HW121548   2.513   6.583   2.117
 6883SOL    HW221549   2.475   6.741   2.105
 6884SOL     OW21550   1.721   5.164   3.176
 6884SOL    HW121551   1.736   5.104   3.255
 6884SOL    HW221552   1.650   5.125   3.117
 6885SOL     OW21553   4.175   4.743   4.630
 6885SOL    HW121554   4.249   4.720   4.692
 6885SOL    HW221555   4.090   4.754   4.682
 6886SOL     OW21556   5.163   6.778   0.878
 6886SOL    HW121557   5.134   6.738   0.965
 6886SOL    HW221558   5.106   6.858   0.858
 6887SOL     OW21559   6.690   1.115   4.658
 6887SOL    HW121560   6.740   1.125   4.744
 6887SOL    HW221561   6.747   1.064   4.592
 6888SOL     OW21562   0.006   6.809   3.893
 6888SOL    HW121563   6.925   6.819   3.900
 6888SOL    HW221564   0.030   6.712   3.889
 6889SOL     OW21565   1.893   4.198   6.442
 6889SOL    HW121566   1.955   4.269   6.477
 6889SOL    HW221567   1.874   4.215   6.345
 6890SOL     OW21568   1.374   0.514   1.560
 6890SOL    HW121569   1.334   0.470   1.480
 6890SOL    HW221570   1.302   0.557   1.615
 6891SOL     OW21571   5.196   5.380   5.557
 6891SOL    HW121572   5.165   5.367   5.462
 6891SOL    HW221573   5.179   5.475   5.584
 6892SOL     OW21574   3.081   1.850   4.071
 6892SOL    HW121575   3.145   1.776   4.090
 6892SOL    HW221576   3.108   1.931   4.122
 6893SOL     OW21577   4.848   0.049   1.265
 6893SOL    HW121578   4.799   7.006   1.204
 6893SOL    HW221579   4.827   0.144   1.242
 6894SOL     OW21580   5.389   4.157   5.740
 6894SOL    HW121581   5.290   4.156   5.756
 6894SOL    HW221582   5.431   4.232   5.792
 6895SOL     OW21583   4.838   5.043   4.353
 6895SOL    HW121584   4.895   4.973   4.310
 6895SOL    HW221585   4.743   5.014   4.353
 6896SOL     OW21586   5.149   1.939   2.279
 6896SOL    HW121587   5.233   1.942   2.225
 6896SOL    HW221588   5.111   2.032   2.286
 6897SOL     OW21589   4.194   1.301   1.441
 6897SOL    HW121590   4.228   1.353   1.363
 6897SOL    HW221591   4.198   1.204   1.421
 6898SOL     OW21592   3.931   1.256   1.632
 6898SOL    HW121593   3.935   1.350   1.665
 6898SOL    HW221594   3.999   1.201   1.680
 6899SOL     OW21595   5.252   4.427   5.849
 6899SOL    HW121596   5.202   4.439   5.935
 6899SOL    HW221597   5.187   4.426   5.773
 6900SOL     OW21598   4.270   0.398   5.964
 6900SOL    HW121599   4.259   0.362   6.057
 6900SOL    HW221600   4.343   0.348   5.918
 6901SOL     OW21601   1.327   0.684   0.024
 6901SOL    HW121602   1.316   0.740   6.961
 6901SOL    HW221603   1.406   0.717   0.076
 6902SOL     OW21604   6.343   5.060   2.750
 6902SOL    HW121605   6.439   5.071   2.776
 6902SOL    HW221606   6.300   4.994   2.811
 6903SOL     OW21607   5.841   4.358   6.668
 6903SOL    HW121608   5.842   4.396   6.761
 6903SOL    HW221609   5.883   4.268   6.669
 6904SOL     OW21610   0.415   1.385   2.302
 6904SOL    HW121611   0.367   1.407   2.387
 6904SOL    HW221612   0.494   1.327   2.322
 6905SOL     OW21613   3.515   5.502   0.818
 6905SOL    HW121614   3.604   5.533   0.784
 6905SOL    HW221615   3.504   5.405   0.797
 6906SOL     OW21616   5.917   6.521   2.300
 6906SOL    HW121617   5.844   6.544   2.364
 6906SOL    HW221618   6.002   6.506   2.350
 6907SOL     OW21619   3.743   0.741   1.991
 6907SOL    HW121620   3.650   0.712   2.013
 6907SOL    HW221621   3.798   0.660   1.970
 6908SOL     OW21622   5.251   0.040   0.211
 6908SOL    HW121623   5.286   0.052   0.304
 6908SOL    HW221624   5.200   6.973   0.206
 6909SOL     OW21625   2.374   2.279   6.980
 6909SOL    HW121626   2.403   2.270   6.884
 6909SOL    HW221627   2.295   2.339   6.985
 6910SOL     OW21628   4.330   0.858   0.730
 6910SOL    HW121629   4.317   0.791   0.803
 6910SOL    HW221630   4.270   0.936   0.746
 6911SOL     OW21631   3.728   6.389   5.471
 6911SOL    HW121632   3.741   6.351   5.380
 6911SOL    HW221633   3.647   6.348   5.513
 6912SOL     OW21634   3.377   5.834   1.870
 6912SOL    HW121635   3.331   5.853   1.783
 6912SOL    HW221636   3.407   5.739   1.872
 6913SOL     OW21637   3.875   5.799   5.814
 6913SOL    HW121638   3.874   5.898   5.803
 6913SOL    HW221639   3.871   5.776   5.911
 6914SOL     OW21640   0.015   5.384   6.811
 6914SOL    HW121641   0.012   5.296   6.859
 6914SOL    HW221642   0.098   5.434   6.837
 6915SOL     OW21643   0.979   6.783   6.731
 6915SOL    HW121644   1.069   6.743   6.748
 6915SOL    HW221645   0.979   6.878   6.762
 6916SOL     OW21646   6.128   0.575   6.349
 6916SOL    HW121647   6.224   0.559   6.325
 6916SOL    HW221648   6.082   0.487   6.362
 6917SOL     OW21649   4.243   5.842   6.123
 6917SOL    HW121650   4.166   5.794   6.165
 6917SOL    HW221651   4.234   5.940   6.140
 6918SOL     OW21652   1.603   2.496   3.628
 6918SOL    HW121653   1.569   2.590   3.615
 6918SOL    HW221654   1.604   2.475   3.726
 6919SOL     OW21655   2.078   5.770   3.690
 6919SOL    HW121656   2.123   5.845   3.737
 6919SOL    HW221657   2.073   5.691   3.752
 6920SOL     OW21658   5.753   5.759   4.184
 6920SOL    HW121659   5.771   5.770   4.282
 6920SOL    HW221660   5.743   5.849   4.141
 6921SOL     OW21661   1.894   4.968   2.809
 6921SOL    HW121662   1.836   5.046   2.784
 6921SOL    HW221663   1.859   4.926   2.893
 6922SOL     OW21664   1.657   6.511   1.532
 6922SOL    HW121665   1.582   6.446   1.517
 6922SOL    HW221666   1.721   6.473   1.598
 6923SOL     OW21667   5.126   5.606   4.462
 6923SOL    HW121668   5.118   5.694   4.508
 6923SOL    HW221669   5.200   5.553   4.503
 6924SOL     OW21670   5.559   5.947   2.576
 6924SOL    HW121671   5.642   5.929   2.630
 6924SOL    HW221672   5.581   6.009   2.501
 6925SOL     OW21673   4.253   5.604   1.981
 6925SOL    HW121674   4.245   5.565   2.072
 6925SOL    HW221675   4.163   5.631   1.948
 6926SOL     OW21676   2.761   3.891   5.536
 6926SOL    HW121677   2.858   3.889   5.509
 6926SOL    HW221678   2.705   3.910   5.456
 6927SOL     OW21679   4.036   3.857   0.557
 6927SOL    HW121680   3.939   3.832   0.562
 6927SOL    HW221681   4.074   3.826   0.470
 6928SOL     OW21682   6.718   0.407   6.652
 6928SOL    HW121683   6.809   0.385   6.688
 6928SOL    HW221684   6.663   0.324   6.649
 6929SOL     OW21685   3.718   6.023   0.979
 6929SOL    HW121686   3.642   6.073   1.021
 6929SOL    HW221687   3.699   5.925   0.981
 6930SOL     OW21688   0.123   1.063   3.240
 6930SOL    HW121689   0.076   1.078   3.327
 6930SOL    HW221690   0.137   0.965   3.227
 6931SOL     OW21691   2.591   0.153   1.340
 6931SOL    HW121692   2.640   0.068   1.322
 6931SOL    HW221693   2.503   0.151   1.293
 6932SOL     OW21694   3.128   2.760   0.533
 6932SOL    HW121695   3.102   2.853   0.509
 6932SOL    HW221696   3.107   2.698   0.457
 6933SOL     OW21697   2.985   6.284   5.199
 6933SOL    HW121698   2.965   6.267   5.102
 6933SOL    HW221699   3.053   6.218   5.231
 6934SOL     OW21700   5.197   4.858   6.745
 6934SOL    HW121701   5.187   4.895   6.838
 6934SOL    HW221702   5.114   4.808   6.721
 6935SOL     OW21703   4.517   5.570   3.312
 6935SOL    HW121704   4.606   5.615   3.305
 6935SOL    HW221705   4.529   5.475   3.339
 6936SOL     OW21706   1.258   4.437   0.912
 6936SOL    HW121707   1.270   4.389   0.825
 6936SOL    HW221708   1.299   4.383   0.985
 6937SOL     OW21709   4.205   5.797   6.486
 6937SOL    HW121710   4.205   5.699   6.462
 6937SOL    HW221711   4.126   5.816   6.544
 6938SOL     OW21712   6.407   2.106   5.222
 6938SOL    HW121713   6.401   2.021   5.170
 6938SOL    HW221714   6.418   2.085   5.319
 6939SOL     OW21715   6.690   4.554   1.743
 6939SOL    HW121716   6.665   4.642   1.703
 6939SOL    HW221717   6.685   4.560   1.843
 6940SOL     OW21718   4.289   0.727   3.926
 6940SOL    HW121719   4.286   0.659   3.853
 6940SOL    HW221720   4.243   0.810   3.896
 6941SOL     OW21721   3.534   2.877   4.999
 6941SOL    HW121722   3.435   2.886   4.990
 6941SOL    HW221723   3.557   2.781   5.012
 6942SOL     OW21724   6.323   1.327   6.035
 6942SOL    HW121725   6.293   1.377   5.954
 6942SOL    HW221726   6.423   1.331   6.043
 6943SOL     OW21727   5.938   4.271   0.156
 6943SOL    HW121728   5.947   4.350   0.217
 6943SOL    HW221729   5.875   4.205   0.197
 6944SOL     OW21730   2.227   0.243   0.247
 6944SOL    HW121731   2.184   0.285   0.166
 6944SOL    HW221732   2.316   0.286   0.262
 6945SOL     OW21733   3.790   1.512   6.816
 6945SOL    HW121734   3.819   1.558   6.900
 6945SOL    HW221735   3.811   1.571   6.738
 6946SOL     OW21736   6.179   3.859   2.312
 6946SOL    HW121737   6.136   3.947   2.294
 6946SOL    HW221738   6.137   3.788   2.255
 6947SOL     OW21739   3.766   6.701   1.088
 6947SOL    HW121740   3.842   6.656   1.041
 6947SOL    HW221741   3.789   6.796   1.106
 6948SOL     OW21742   3.243   1.645   5.800
 6948SOL    HW121743   3.299   1.632   5.718
 6948SOL    HW221744   3.292   1.702   5.866
 6949SOL     OW21745   5.268   0.135   2.504
 6949SOL    HW121746   5.196   0.147   2.436
 6949SOL    HW221747   5.277   0.218   2.559
 6950SOL     OW21748   3.470   1.726   3.332
 6950SOL    HW121749   3.421   1.696   3.414
 6950SOL    HW221750   3.457   1.658   3.259
 6951SOL     OW21751   4.401   3.723   5.794
 6951SOL    HW121752   4.349   3.639   5.807
 6951SOL    HW221753   4.464   3.712   5.717
 6952SOL     OW21754   0.552   3.568   6.613
 6952SOL    HW121755   0.462   3.536   6.643
 6952SOL    HW221756   0.564   3.546   6.516
 6953SOL     OW21757   5.766   2.614   4.742
 6953SOL    HW121758   5.842   2.552   4.762
 6953SOL    HW221759   5.732   2.653   4.827
 6954SOL     OW21760   0.245   4.779   1.741
 6954SOL    HW121761   0.249   4.710   1.668
 6954SOL    HW221762   0.255   4.734   1.830
 6955SOL     OW21763   0.239   0.640   3.812
 6955SOL    HW121764   0.315   0.699   3.839
 6955SOL    HW221765   0.194   0.677   3.731
 6956SOL     OW21766   3.540   4.234   1.474
 6956SOL    HW121767   3.584   4.230   1.563
 6956SOL    HW221768   3.517   4.328   1.452
 6957SOL     OW21769   1.649   4.526   0.796
 6957SOL    HW121770   1.745   4.504   0.778
 6957SOL    HW221771   1.625   4.610   0.747
 6958SOL     OW21772   1.831   3.273   5.914
 6958SOL    HW121773   1.903   3.326   5.959
 6958SOL    HW221774   1.838   3.285   5.815
 6959SOL     OW21775   4.133   0.992   5.147
 6959SOL    HW121776   4.096   1.077   5.109
 6959SOL    HW221777   4.058   0.937   5.185
 6960SOL     OW21778   1.231   5.846   6.542
 6960SOL    HW121779   1.141   5.859   6.584
 6960SOL    HW221780   1.293   5.917   6.576
 6961SOL     OW21781   5.942   0.757   3.735
 6961SOL    HW121782   5.907   0.663   3.739
 6961SOL    HW221783   5.880   0.813   3.681
 6962SOL     OW21784   3.452   3.562   0.985
 6962SOL    HW121785   3.429   3.589   1.079
 6962SOL    HW221786   3.510   3.632   0.944
 6963SOL     OW21787   6.153   6.132   1.863
 6963SOL    HW121788   6.202   6.090   1.786
 6963SOL    HW221789   6.094   6.064   1.906
 6964SOL     OW21790   3.706   5.057   5.872
 6964SOL    HW121791   3.736   5.112   5.950
 6964SOL    HW221792   3.772   5.066   5.798
 6965SOL     OW21793   5.942   1.274   5.775
 6965SOL    HW121794   5.879   1.219   5.830
 6965SOL    HW221795   5.889   1.338   5.719
 6966SOL     OW21796   4.535   2.227   3.780
 6966SOL    HW121797   4.548   2.231   3.879
 6966SOL    HW221798   4.537   2.132   3.750
 6967SOL     OW21799   2.961   2.905   6.489
 6967SOL    HW121800   2.938   2.892   6.585
 6967SOL    HW221801   2.888   2.956   6.443
 6968SOL     OW21802   3.763   0.728   3.392
 6968SOL    HW121803   3.737   0.802   3.331
 6968SOL    HW221804   3.685   0.667   3.406
 6969SOL     OW21805   3.720   3.298   1.473
 6969SOL    HW121806   3.643   3.328   1.529
 6969SOL    HW221807   3.696   3.307   1.376
 6970SOL     OW21808   4.951   4.562   0.342
 6970SOL    HW121809   5.000   4.649   0.334
 6970SOL    HW221810   4.854   4.577   0.328
 6971SOL     OW21811   5.918   1.675   2.136
 6971SOL    HW121812   5.828   1.636   2.116
 6971SOL    HW221813   5.958   1.713   2.052
 6972SOL     OW21814   5.030   5.842   4.621
 6972SOL    HW121815   5.089   5.916   4.654
 6972SOL    HW221816   4.934   5.869   4.629
 6973SOL     OW21817   1.504   4.137   2.921
 6973SOL    HW121818   1.537   4.231   2.916
 6973SOL    HW221819   1.574   4.075   2.885
 6974SOL     OW21820   3.273   3.754   5.146
 6974SOL    HW121821   3.363   3.797   5.149
 6974SOL    HW221822   3.279   3.661   5.182
 6975SOL     OW21823   1.845   6.563   6.560
 6975SOL    HW121824   1.826   6.583   6.464
 6975SOL    HW221825   1.921   6.619   6.592
 6976SOL     OW21826   1.092   6.118   1.214
 6976SOL    HW121827   1.103   6.047   1.285
 6976SOL    HW221828   1.108   6.077   1.125
 6977SOL     OW21829   5.675   2.614   1.071
 6977SOL    HW121830   5.575   2.615   1.069
 6977SOL    HW221831   5.708   2.521   1.057
 6978SOL     OW21832   4.643   2.384   3.422
 6978SOL    HW121833   4.546   2.381   3.446
 6978SOL    HW221834   4.697   2.356   3.502
 6979SOL     OW21835   6.956   3.717   4.410
 6979SOL    HW121836   6.927   3.812   4.396
 6979SOL    HW221837   7.011   3.712   4.494
 6980SOL     OW21838   4.697   1.879   5.054
 6980SOL    HW121839   4.788   1.869   5.096
 6980SOL    HW221840   4.700   1.845   4.960
 6981SOL     OW21841   3.302   3.549   6.188
 6981SOL    HW121842   3.230   3.597   6.137
 6981SOL    HW221843   3.387   3.601   6.181
 6982SOL     OW21844   0.877   0.275   5.102
 6982SOL    HW121845   0.949   0.302   5.037
 6982SOL    HW221846   0.880   0.176   5.116
 6983SOL     OW21847   6.184   1.009   2.896
 6983SOL    HW121848   6.242   1.025   2.817
 6983SOL    HW221849   6.174   1.093   2.949
 6984SOL     OW21850   1.901   1.150   6.325
 6984SOL    HW121851   1.884   1.091   6.246
 6984SOL    HW221852   1.898   1.245   6.297
 6985SOL     OW21853   4.779   6.952   3.828
 6985SOL    HW121854   4.778   6.949   3.928
 6985SOL    HW221855   4.744   6.866   3.792
 6986SOL     OW21856   1.971   6.026   5.067
 6986SOL    HW121857   1.982   6.115   5.023
 6986SOL    HW221858   1.941   6.039   5.161
 6987SOL     OW21859   6.881   3.255   6.128
 6987SOL    HW121860   6.791   3.268   6.171
 6987SOL    HW221861   6.875   3.186   6.057
 6988SOL     OW21862   5.585   2.030   6.805
 6988SOL    HW121863   5.512   1.983   6.854
 6988SOL    HW221864   5.674   1.997   6.837
 6989SOL     OW21865   1.845   3.504   4.622
 6989SOL    HW121866   1.926   3.539   4.669
 6989SOL    HW221867   1.812   3.573   4.557
 6990SOL     OW21868   4.204   3.595   1.794
 6990SOL    HW121869   4.229   3.652   1.715
 6990SOL    HW221870   4.274   3.524   1.807
 6991SOL     OW21871   4.530   4.525   5.390
 6991SOL    HW121872   4.498   4.504   5.483
 6991SOL    HW221873   4.630   4.523   5.388
 6992SOL     OW21874   6.648   6.774   4.883
 6992SOL    HW121875   6.586   6.827   4.940
 6992SOL    HW221876   6.601   6.693   4.848
 6993SOL     OW21877   0.479   0.222   3.331
 6993SOL    HW121878   0.416   0.279   3.279
 6993SOL    HW221879   0.538   0.170   3.268
 6994SOL     OW21880   1.942   2.187   0.406
 6994SOL    HW121881   1.930   2.103   0.353
 6994SOL    HW221882   1.890   2.261   0.362
 6995SOL     OW21883   1.340   5.337   3.738
 6995SOL    HW121884   1.423   5.282   3.740
 6995SOL    HW221885   1.298   5.337   3.829
 6996SOL     OW21886   1.821   6.674   5.185
 6996SOL    HW121887   1.738   6.732   5.182
 6996SOL    HW221888   1.882   6.709   5.256
 6997SOL     OW21889   4.309   5.061   4.203
 6997SOL    HW121890   4.342   5.115   4.126
 6997SOL    HW221891   4.337   5.103   4.289
 6998SOL     OW21892   2.901   1.934   2.320
 6998SOL    HW121893   2.835   1.865   2.292
 6998SOL    HW221894   2.869   2.024   2.290
 6999SOL     OW21895   5.615   2.245   0.018
 6999SOL    HW121896   5.565   2.225   6.951
 6999SOL    HW221897   5.712   2.222   0.005
 7000SOL     OW21898   6.931   0.019   1.829
 7000SOL    HW121899   6.983   0.028   1.744
 7000SOL    HW221900   6.986   0.052   1.906
 7001SOL     OW21901   2.641   1.495   6.903
 7001SOL    HW121902   2.586   1.444   6.836
 7001SOL    HW221903   2.728   1.448   6.917
 7002SOL     OW21904   2.740   5.217   1.675
 7002SOL    HW121905   2.792   5.298   1.703
 7002SOL    HW221906   2.790   5.135   1.703
 7003SOL     OW21907   1.615   6.020   5.822
 7003SOL    HW121908   1.627   5.990   5.916
 7003SOL    HW221909   1.534   6.080   5.817
 7004SOL     OW21910   2.102   3.837   6.442
 7004SOL    HW121911   2.041   3.877   6.511
 7004SOL    HW221912   2.143   3.909   6.387
 7005SOL     OW21913   5.944   0.675   5.782
 7005SOL    HW121914   5.962   0.764   5.739
 7005SOL    HW221915   6.012   0.657   5.852
 7006SOL     OW21916   5.085   5.623   3.900
 7006SOL    HW121917   5.105   5.613   3.998
 7006SOL    HW221918   5.038   5.710   3.885
 7007SOL     OW21919   5.479   5.112   1.631
 7007SOL    HW121920   5.536   5.120   1.713
 7007SOL    HW221921   5.404   5.179   1.636
 7008SOL     OW21922   0.788   6.322   4.067
 7008SOL    HW121923   0.781   6.393   3.997
 7008SOL    HW221924   0.734   6.242   4.039
 7009SOL     OW21925   0.176   4.315   0.932
 7009SOL    HW121926   0.268   4.279   0.920
 7009SOL    HW221927   0.169   4.405   0.889
 7010SOL     OW21928   5.118   4.140   5.847
 7010SOL    HW121929   5.133   4.160   5.944
 7010SOL    HW221930   5.045   4.198   5.812
 7011SOL     OW21931   1.120   0.189   5.883
 7011SOL    HW121932   1.031   0.152   5.909
 7011SOL    HW221933   1.147   0.259   5.948
 7012SOL     OW21934   0.532   0.870   1.963
 7012SOL    HW121935   0.460   0.889   1.896
 7012SOL    HW221936   0.621   0.875   1.918
 7013SOL     OW21937   6.191   2.165   1.259
 7013SOL    HW121938   6.224   2.254   1.292
 7013SOL    HW221939   6.094   2.155   1.282
 7014SOL     OW21940   2.355   5.178   0.924
 7014SOL    HW121941   2.412   5.227   0.858
 7014SOL    HW221942   2.265   5.161   0.885
 7015SOL     OW21943   4.754   2.434   2.172
 7015SOL    HW121944   4.702   2.510   2.211
 7015SOL    HW221945   4.756   2.441   2.073
 7016SOL     OW21946   5.166   4.749   0.636
 7016SOL    HW121947   5.088   4.788   0.685
 7016SOL    HW221948   5.247   4.806   0.653
 7017SOL     OW21949   5.322   2.096   5.198
 7017SOL    HW121950   5.262   2.096   5.278
 7017SOL    HW221951   5.272   2.061   5.119
 7018SOL     OW21952   0.454   4.088   2.962
 7018SOL    HW121953   0.514   4.130   2.894
 7018SOL    HW221954   0.395   4.021   2.917
 7019SOL     OW21955   6.792   6.434   2.467
 7019SOL    HW121956   6.842   6.347   2.468
 7019SOL    HW221957   6.775   6.462   2.372
 7020SOL     OW21958   6.824   5.652   6.646
 7020SOL    HW121959   6.741   5.599   6.664
 7020SOL    HW221960   6.882   5.603   6.580
 7021SOL     OW21961   3.112   6.385   5.582
 7021SOL    HW121962   3.104   6.293   5.544
 7021SOL    HW221963   3.136   6.450   5.509
 7022SOL     OW21964   3.519   4.805   5.791
 7022SOL    HW121965   3.428   4.846   5.786
 7022SOL    HW221966   3.587   4.876   5.810
 7023SOL     OW21967   4.431   5.340   2.122
 7023SOL    HW121968   4.513   5.387   2.089
 7023SOL    HW221969   4.443   5.314   2.218
 7024SOL     OW21970   6.104   6.726   2.129
 7024SOL    HW121971   6.022   6.696   2.080
 7024SOL    HW221972   6.182   6.672   2.099
 7025SOL     OW21973   2.796   0.299   1.483
 7025SOL    HW121974   2.741   0.237   1.428
 7025SOL    HW221975   2.753   0.389   1.484
 7026SOL     OW21976   4.762   2.502   0.898
 7026SOL    HW121977   4.744   2.556   0.816
 7026SOL    HW221978   4.861   2.499   0.915
 7027SOL     OW21979   5.782   5.794   4.928
 7027SOL    HW121980   5.744   5.824   5.016
 7027SOL    HW221981   5.825   5.705   4.939
 7028SOL     OW21982   3.225   1.041   4.507
 7028SOL    HW121983   3.255   0.958   4.554
 7028SOL    HW221984   3.188   1.016   4.417
 7029SOL     OW21985   3.863   0.318   4.097
 7029SOL    HW121986   3.792   0.255   4.129
 7029SOL    HW221987   3.820   0.400   4.060
 7030SOL     OW21988   1.010   3.781   4.021
 7030SOL    HW121989   1.069   3.706   3.992
 7030SOL    HW221990   1.060   3.840   4.085
 7031SOL     OW21991   1.899   0.793   4.176
 7031SOL    HW121992   1.905   0.779   4.077
 7031SOL    HW221993   1.982   0.838   4.209
 7032SOL     OW21994   5.907   2.279   3.404
 7032SOL    HW121995   5.901   2.342   3.327
 7032SOL    HW221996   5.819   2.277   3.452
 7033SOL     OW21997   0.302   1.111   4.936
 7033SOL    HW121998   0.212   1.097   4.897
 7033SOL    HW221999   0.351   1.024   4.942
 7034SOL     OW22000   0.224   5.052   3.769
 7034SOL    HW122001   0.277   5.128   3.731
 7034SOL    HW222002   0.147   5.032   3.708
 7035SOL     OW22003   0.093   4.808   1.258
 7035SOL    HW122004   0.095   4.893   1.311
 7035SOL    HW222005   0.029   4.818   1.182
 7036SOL     OW22006   6.492   5.430   0.495
 7036SOL    HW122007   6.402   5.388   0.505
 7036SOL    HW222008   6.540   5.428   0.582
 7037SOL     OW22009   1.106   0.241   6.672
 7037SOL    HW122010   1.200   0.274   6.684
 7037SOL    HW222011   1.106   0.165   6.608
 7038SOL     OW22012   2.358   2.797   4.451
 7038SOL    HW122013   2.357   2.743   4.534
 7038SOL    HW222014   2.399   2.744   4.377
 7039SOL     OW22015   4.070   1.891   6.530
 7039SOL    HW122016   4.106   1.882   6.437
 7039SOL    HW222017   4.063   1.988   6.553
 7040SOL     OW22018   6.331   1.990   6.480
 7040SOL    HW122019   6.280   1.906   6.498
 7040SOL    HW222020   6.392   1.975   6.402
 7041SOL     OW22021   1.915   1.539   3.679
 7041SOL    HW122022   1.823   1.532   3.715
 7041SOL    HW222023   1.917   1.606   3.605
 7042SOL     OW22024   2.081   0.905   6.940
 7042SOL    HW122025   2.098   0.807   6.946
 7042SOL    HW222026   2.007   0.922   6.874
 7043SOL     OW22027   1.829   2.778   1.177
 7043SOL    HW122028   1.820   2.746   1.083
 7043SOL    HW222029   1.827   2.700   1.239
 7044SOL     OW22030   0.161   5.912   0.825
 7044SOL    HW122031   0.092   5.909   0.752
 7044SOL    HW222032   0.118   5.889   0.912
 7045SOL     OW22033   0.420   4.837   0.293
 7045SOL    HW122034   0.414   4.929   0.254
 7045SOL    HW222035   0.335   4.788   0.278
 7046SOL     OW22036   2.771   2.208   3.809
 7046SOL    HW122037   2.780   2.121   3.761
 7046SOL    HW222038   2.701   2.200   3.881
 7047SOL     OW22039   1.442   6.773   3.218
 7047SOL    HW122040   1.530   6.806   3.185
 7047SOL    HW222041   1.369   6.835   3.188
 7048SOL     OW22042   0.216   5.568   6.873
 7048SOL    HW122043   0.301   5.554   6.924
 7048SOL    HW222044   0.166   5.646   6.912
 7049SOL     OW22045   2.430   1.314   6.765
 7049SOL    HW122046   2.460   1.243   6.828
 7049SOL    HW222047   2.369   1.273   6.696
 7050SOL     OW22048   3.636   3.566   5.762
 7050SOL    HW122049   3.646   3.475   5.802
 7050SOL    HW222050   3.564   3.615   5.810
 7051SOL     OW22051   6.195   6.109   2.506
 7051SOL    HW122052   6.159   6.200   2.529
 7051SOL    HW222053   6.240   6.070   2.586
 7052SOL     OW22054   6.306   0.546   5.064
 7052SOL    HW122055   6.206   0.546   5.070
 7052SOL    HW222056   6.343   0.624   5.114
 7053SOL     OW22057   6.393   3.215   6.383
 7053SOL    HW122058   6.339   3.144   6.428
 7053SOL    HW222059   6.364   3.222   6.287
 7054SOL     OW22060   5.861   2.331   2.671
 7054SOL    HW122061   5.862   2.269   2.592
 7054SOL    HW222062   5.891   2.422   2.642
 7055SOL     OW22063   4.219   1.556   3.349
 7055SOL    HW122064   4.258   1.595   3.265
 7055SOL    HW222065   4.179   1.628   3.405
 7056SOL     OW22066   4.729   5.657   4.531
 7056SOL    HW122067   4.632   5.675   4.545
 7056SOL    HW222068   4.775   5.740   4.499
 7057SOL     OW22069   5.775   6.278   3.044
 7057SOL    HW122070   5.725   6.220   3.109
 7057SOL    HW222071   5.720   6.290   2.961
 7058SOL     OW22072   6.887   3.848   4.700
 7058SOL    HW122073   6.972   3.815   4.658
 7058SOL    HW222074   6.906   3.929   4.756
 7059SOL     OW22075   1.348   0.369   1.865
 7059SOL    HW122076   1.264   0.365   1.811
 7059SOL    HW222077   1.424   0.397   1.806
 7060SOL     OW22078   4.080   6.959   1.249
 7060SOL    HW122079   4.045   6.927   1.337
 7060SOL    HW222080   4.173   6.994   1.261
 7061SOL     OW22081   1.000   1.328   3.005
 7061SOL    HW122082   0.921   1.268   3.020
 7061SOL    HW222083   1.007   1.393   3.080
 7062SOL     OW22084   6.623   1.330   5.925
 7062SOL    HW122085   6.710   1.347   5.879
 7062SOL    HW222086   6.622   1.235   5.958
 7063SOL     OW22087   1.901   6.458   1.711
 7063SOL    HW122088   1.937   6.545   1.676
 7063SOL    HW222089   1.967   6.385   1.692
 7064SOL     OW22090   3.386   2.764   0.535
 7064SOL    HW122091   3.421   2.846   0.580
 7064SOL    HW222092   3.286   2.761   0.542
 7065SOL     OW22093   3.229   3.498   2.436
 7065SOL    HW122094   3.205   3.484   2.532
 7065SOL    HW222095   3.326   3.518   2.428
 7066SOL     OW22096   2.497   4.746   1.718
 7066SOL    HW122097   2.445   4.828   1.695
 7066SOL    HW222098   2.587   4.751   1.676
 7067SOL     OW22099   0.789   4.062   4.904
 7067SOL    HW122100   0.792   3.972   4.948
 7067SOL    HW222101   0.881   4.102   4.903
 7068SOL     OW22102   1.013   0.870   2.941
 7068SOL    HW122103   0.946   0.935   2.977
 7068SOL    HW222104   0.969   0.781   2.927
 7069SOL     OW22105   1.525   4.339   5.406
 7069SOL    HW122106   1.428   4.353   5.385
 7069SOL    HW222107   1.563   4.271   5.343
 7070SOL     OW22108   5.922   5.414   2.877
 7070SOL    HW122109   5.901   5.479   2.804
 7070SOL    HW222110   5.968   5.334   2.838
 7071SOL     OW22111   1.504   6.467   5.407
 7071SOL    HW122112   1.575   6.513   5.354
 7071SOL    HW222113   1.415   6.485   5.365
 7072SOL     OW22114   0.201   0.206   6.509
 7072SOL    HW122115   0.149   0.134   6.556
 7072SOL    HW222116   0.157   0.294   6.525
 7073SOL     OW22117   1.994   2.405   6.728
 7073SOL    HW122118   2.079   2.398   6.675
 7073SOL    HW222119   1.978   2.501   6.751
 7074SOL     OW22120   3.616   1.317   6.473
 7074SOL    HW122121   3.546   1.306   6.402
 7074SOL    HW222122   3.702   1.276   6.442
 7075SOL     OW22123   1.109   6.285   3.435
 7075SOL    HW122124   1.058   6.343   3.499
 7075SOL    HW222125   1.068   6.293   3.344
 7076SOL     OW22126   3.009   1.129   6.231
 7076SOL    HW122127   2.981   1.047   6.281
 7076SOL    HW222128   2.992   1.210   6.288
 7077SOL     OW22129   1.115   5.671   6.386
 7077SOL    HW122130   1.176   5.734   6.433
 7077SOL    HW222131   1.168   5.609   6.328
 7078SOL     OW22132   0.545   0.652   1.717
 7078SOL    HW122133   0.524   0.572   1.773
 7078SOL    HW222134   0.467   0.714   1.716
 7079SOL     OW22135   5.101   6.782   4.552
 7079SOL    HW122136   5.049   6.753   4.472
 7079SOL    HW222137   5.190   6.818   4.524
 7080SOL     OW22138   5.959   0.649   4.116
 7080SOL    HW122139   5.900   0.600   4.053
 7080SOL    HW222140   5.994   0.586   4.186
 7081SOL     OW22141   4.746   0.951   4.538
 7081SOL    HW122142   4.734   0.898   4.454
 7081SOL    HW222143   4.656   0.983   4.570
 7082SOL     OW22144   5.965   1.054   0.254
 7082SOL    HW122145   5.867   1.053   0.277
 7082SOL    HW222146   6.018   1.040   0.337
 7083SOL     OW22147   4.047   0.399   5.251
 7083SOL    HW122148   3.978   0.365   5.187
 7083SOL    HW222149   4.127   0.431   5.201
 7084SOL     OW22150   5.881   5.855   0.200
 7084SOL    HW122151   5.809   5.787   0.191
 7084SOL    HW222152   5.851   5.942   0.159
 7085SOL     OW22153   5.009   1.537   1.388
 7085SOL    HW122154   4.986   1.531   1.290
 7085SOL    HW222155   5.045   1.628   1.408
 7086SOL     OW22156   1.424   0.783   6.061
 7086SOL    HW122157   1.417   0.873   6.104
 7086SOL    HW222158   1.517   0.747   6.075
 7087SOL     OW22159   2.472   2.642   4.673
 7087SOL    HW122160   2.460   2.697   4.756
 7087SOL    HW222161   2.562   2.660   4.634
 7088SOL     OW22162   6.942   1.707   4.349
 7088SOL    HW122163   6.962   1.673   4.257
 7088SOL    HW222164   6.968   1.639   4.417
 7089SOL     OW22165   3.075   1.763   2.037
 7089SOL    HW122166   3.042   1.856   2.054
 7089SOL    HW222167   3.159   1.767   1.983
 7090SOL     OW22168   3.054   0.801   5.210
 7090SOL    HW122169   3.067   0.702   5.200
 7090SOL    HW222170   3.120   0.837   5.275
 7091SOL     OW22171   6.430   5.337   6.899
 7091SOL    HW122172   6.525   5.306   6.896
 7091SOL    HW222173   6.428   5.435   6.918
 7092SOL     OW22174   3.570   2.140   0.426
 7092SOL    HW122175   3.628   2.158   0.505
 7092SOL    HW222176   3.525   2.224   0.398
 7093SOL     OW22177   3.886   3.167   6.280
 7093SOL    HW122178   3.788   3.184   6.266
 7093SOL    HW222179   3.906   3.169   6.378
 7094SOL     OW22180   6.206   0.873   6.610
 7094SOL    HW122181   6.292   0.900   6.566
 7094SOL    HW222182   6.130   0.892   6.548
 7095SOL     OW22183   1.079   3.938   1.222
 7095SOL    HW122184   1.162   3.884   1.203
 7095SOL    HW222185   1.077   3.961   1.319
 7096SOL     OW22186   3.776   6.935   3.431
 7096SOL    HW122187   3.802   7.011   3.371
 7096SOL    HW222188   3.734   6.863   3.376
 7097SOL     OW22189   1.732   1.319   1.823
 7097SOL    HW122190   1.779   1.360   1.902
 7097SOL    HW222191   1.794   1.318   1.745
 7098SOL     OW22192   1.505   0.661   6.616
 7098SOL    HW122193   1.430   0.691   6.675
 7098SOL    HW222194   1.467   0.621   6.532
 7099SOL     OW22195   6.836   1.417   5.133
 7099SOL    HW122196   6.741   1.393   5.153
 7099SOL    HW222197   6.897   1.353   5.179
 7100SOL     OW22198   5.404   1.751   1.028
 7100SOL    HW122199   5.349   1.669   1.048
 7100SOL    HW222200   5.453   1.780   1.110
 7101SOL     OW22201   1.570   0.729   4.792
 7101SOL    HW122202   1.484   0.711   4.743
 7101SOL    HW222203   1.625   0.645   4.794
 7102SOL     OW22204   4.474   2.780   0.576
 7102SOL    HW122205   4.455   2.862   0.522
 7102SOL    HW222206   4.402   2.768   0.645
 7103SOL     OW22207   2.052   6.920   6.279
 7103SOL    HW122208   2.053   6.848   6.209
 7103SOL    HW222209   2.145   6.934   6.313
 7104SOL     OW22210   0.339   3.750   1.395
 7104SOL    HW122211   0.406   3.780   1.463
 7104SOL    HW222212   0.265   3.700   1.441
 7105SOL     OW22213   1.837   2.762   5.031
 7105SOL    HW122214   1.905   2.779   4.960
 7105SOL    HW222215   1.767   2.700   4.995
 7106SOL     OW22216   3.150   3.015   5.176
 7106SOL    HW122217   3.117   3.107   5.156
 7106SOL    HW222218   3.074   2.958   5.206
 7107SOL     OW22219   2.094   1.385   0.003
 7107SOL    HW122220   2.066   1.439   0.083
 7107SOL    HW222221   2.059   1.292   0.011
 7108SOL     OW22222   4.507   6.565   2.147
 7108SOL    HW122223   4.409   6.573   2.132
 7108SOL    HW222224   4.543   6.653   2.180
 7109SOL     OW22225   4.672   5.792   6.844
 7109SOL    HW122226   4.768   5.797   6.816
 7109SOL    HW222227   4.614   5.779   6.763
 7110SOL     OW22228   3.732   4.869   4.063
 7110SOL    HW122229   3.774   4.846   4.151
 7110SOL    HW222230   3.636   4.893   4.077
 7111SOL     OW22231   1.161   3.024   3.322
 7111SOL    HW122232   1.136   2.933   3.356
 7111SOL    HW222233   1.155   3.025   3.222
 7112SOL     OW22234   1.570   6.236   2.810
 7112SOL    HW122235   1.551   6.236   2.908
 7112SOL    HW222236   1.493   6.196   2.760
 7113SOL     OW22237   3.509   4.081   5.855
 7113SOL    HW122238   3.429   4.076   5.914
 7113SOL    HW222239   3.587   4.115   5.907
 7114SOL     OW22240   3.755   6.434   1.150
 7114SOL    HW122241   3.833   6.389   1.195
 7114SOL    HW222242   3.769   6.533   1.150
 7115SOL     OW22243   4.012   2.267   1.689
 7115SOL    HW122244   3.971   2.218   1.767
 7115SOL    HW222245   3.956   2.252   1.608
 7116SOL     OW22246   6.187   4.161   3.755
 7116SOL    HW122247   6.213   4.207   3.670
 7116SOL    HW222248   6.188   4.225   3.831
 7117SOL     OW22249   5.282   6.902   2.636
 7117SOL    HW122250   5.271   6.987   2.585
 7117SOL    HW222251   5.209   6.839   2.611
 7118SOL     OW22252   6.596   3.385   3.763
 7118SOL    HW122253   6.691   3.404   3.739
 7118SOL    HW222254   6.550   3.470   3.789
 7119SOL     OW22255   0.680   2.306   2.351
 7119SOL    HW122256   0.751   2.339   2.289
 7119SOL    HW222257   0.590   2.325   2.311
 7120SOL     OW22258   4.501   5.972   4.288
 7120SOL    HW122259   4.471   6.059   4.326
 7120SOL    HW222260   4.526   5.984   4.192
 7121SOL     OW22261   1.941   6.501   1.265
 7121SOL    HW122262   1.845   6.525   1.258
 7121SOL    HW222263   1.998   6.580   1.239
 7122SOL     OW22264   0.052   6.083   0.379
 7122SOL    HW122265   6.979   6.087   0.339
 7122SOL    HW222266   0.086   5.989   0.373
 7123SOL     OW22267   3.274   4.923   0.921
 7123SOL    HW122268   3.252   4.960   1.011
 7123SOL    HW222269   3.371   4.938   0.902
 7124SOL     OW22270   0.313   5.584   6.348
 7124SOL    HW122271   0.293   5.605   6.444
 7124SOL    HW222272   0.243   5.625   6.290
 7125SOL     OW22273   1.361   5.671   3.075
 7125SOL    HW122274   1.419   5.726   3.015
 7125SOL    HW222275   1.415   5.598   3.117
 7126SOL     OW22276   1.746   4.262   1.329
 7126SOL    HW122277   1.787   4.249   1.420
 7126SOL    HW222278   1.694   4.347   1.329
 7127SOL     OW22279   2.326   0.399   4.991
 7127SOL    HW122280   2.232   0.413   4.958
 7127SOL    HW222281   2.324   0.380   5.089
 7128SOL     OW22282   3.453   3.065   2.663
 7128SOL    HW122283   3.478   3.091   2.570
 7128SOL    HW222284   3.417   3.144   2.711
 7129SOL     OW22285   3.236   1.753   0.912
 7129SOL    HW122286   3.315   1.696   0.932
 7129SOL    HW222287   3.174   1.753   0.991
 7130SOL     OW22288   1.818   0.508   2.864
 7130SOL    HW122289   1.831   0.409   2.849
 7130SOL    HW222290   1.830   0.528   2.962
 7131SOL     OW22291   2.401   0.969   3.186
 7131SOL    HW122292   2.344   0.945   3.107
 7131SOL    HW222293   2.379   0.908   3.262
 7132SOL     OW22294   2.875   3.491   2.456
 7132SOL    HW122295   2.785   3.457   2.428
 7132SOL    HW222296   2.914   3.429   2.525
 7133SOL     OW22297   6.744   3.983   1.504
 7133SOL    HW122298   6.746   4.046   1.427
 7133SOL    HW222299   6.819   4.005   1.567
 7134SOL     OW22300   4.502   4.500   2.480
 7134SOL    HW122301   4.523   4.436   2.406
 7134SOL    HW222302   4.547   4.588   2.461
 7135SOL     OW22303   0.031   1.766   5.514
 7135SOL    HW122304   0.012   1.681   5.465
 7135SOL    HW222305   7.000   1.765   5.602
 7136SOL     OW22306   1.816   2.006   6.525
 7136SOL    HW122307   1.833   1.974   6.618
 7136SOL    HW222308   1.812   2.106   6.524
 7137SOL     OW22309   5.117   1.766   4.848
 7137SOL    HW122310   5.107   1.690   4.912
 7137SOL    HW222311   5.117   1.731   4.754
 7138SOL     OW22312   2.037   1.718   6.738
 7138SOL    HW122313   2.131   1.683   6.728
 7138SOL    HW222314   1.991   1.714   6.649
 7139SOL     OW22315   1.906   1.745   0.321
 7139SOL    HW122316   1.918   1.787   0.411
 7139SOL    HW222317   1.867   1.653   0.332
 7140SOL     OW22318   6.598   4.569   4.211
 7140SOL    HW122319   6.542   4.644   4.244
 7140SOL    HW222320   6.559   4.533   4.126
 7141SOL     OW22321   0.720   0.295   2.109
 7141SOL    HW122322   0.635   0.338   2.078
 7141SOL    HW222323   0.788   0.366   2.127
 7142SOL     OW22324   3.777   6.507   3.868
 7142SOL    HW122325   3.719   6.461   3.800
 7142SOL    HW222326   3.791   6.602   3.840
 7143SOL     OW22327   1.676   2.804   3.692
 7143SOL    HW122328   1.656   2.801   3.594
 7143SOL    HW222329   1.593   2.785   3.744
 7144SOL     OW22330   1.459   3.457   3.639
 7144SOL    HW122331   1.550   3.495   3.656
 7144SOL    HW222332   1.462   3.358   3.648
 7145SOL     OW22333   3.519   5.380   0.045
 7145SOL    HW122334   3.453   5.369   6.990
 7145SOL    HW222335   3.571   5.464   0.032
 7146SOL     OW22336   3.370   5.058   1.656
 7146SOL    HW122337   3.359   4.984   1.590
 7146SOL    HW222338   3.327   5.141   1.621
 7147SOL     OW22339   0.625   1.199   3.510
 7147SOL    HW122340   0.720   1.212   3.483
 7147SOL    HW222341   0.573   1.162   3.434
 7148SOL     OW22342   6.790   1.879   0.432
 7148SOL    HW122343   6.837   1.845   0.350
 7148SOL    HW222344   6.693   1.894   0.411
 7149SOL     OW22345   0.983   0.777   5.094
 7149SOL    HW122346   0.919   0.755   5.020
 7149SOL    HW222347   0.971   0.873   5.120
 7150SOL     OW22348   5.897   2.749   5.579
 7150SOL    HW122349   5.925   2.744   5.675
 7150SOL    HW222350   5.917   2.840   5.543
 7151SOL     OW22351   1.442   0.185   0.338
 7151SOL    HW122352   1.404   0.129   0.264
 7151SOL    HW222353   1.369   0.232   0.386
 7152SOL     OW22354   1.118   2.296   4.907
 7152SOL    HW122355   1.159   2.294   4.998
 7152SOL    HW222356   1.019   2.312   4.915
 7153SOL     OW22357   4.559   1.991   2.982
 7153SOL    HW122358   4.584   1.987   2.885
 7153SOL    HW222359   4.551   2.086   3.011
 7154SOL     OW22360   3.360   6.684   4.672
 7154SOL    HW122361   3.324   6.627   4.599
 7154SOL    HW222362   3.304   6.766   4.682
 7155SOL     OW22363   2.493   1.505   4.015
 7155SOL    HW122364   2.451   1.486   3.926
 7155SOL    HW222365   2.588   1.474   4.014
 7156SOL     OW22366   2.350   5.409   5.076
 7156SOL    HW122367   2.432   5.364   5.043
 7156SOL    HW222368   2.275   5.343   5.083
 7157SOL     OW22369   5.496   4.522   0.255
 7157SOL    HW122370   5.421   4.502   0.318
 7157SOL    HW222371   5.506   4.621   0.246
 7158SOL     OW22372   3.617   0.489   3.201
 7158SOL    HW122373   3.555   0.427   3.154
 7158SOL    HW222374   3.579   0.513   3.291
 7159SOL     OW22375   1.367   6.284   0.057
 7159SOL    HW122376   1.417   6.257   0.139
 7159SOL    HW222377   1.411   6.364   0.017
 7160SOL     OW22378   0.082   0.461   2.256
 7160SOL    HW122379   0.034   0.507   2.331
 7160SOL    HW222380   0.179   0.487   2.257
 7161SOL     OW22381   3.108   3.944   4.706
 7161SOL    HW122382   3.078   4.016   4.770
 7161SOL    HW222383   3.099   3.855   4.750
 7162SOL     OW22384   3.479   4.941   4.088
 7162SOL    HW122385   3.397   4.884   4.081
 7162SOL    HW222386   3.455   5.029   4.128
 7163SOL     OW22387   1.028   6.329   3.761
 7163SOL    HW122388   1.105   6.390   3.744
 7163SOL    HW222389   0.971   6.367   3.834
 7164SOL     OW22390   3.840   1.636   4.289
 7164SOL    HW122391   3.899   1.654   4.211
 7164SOL    HW222392   3.760   1.584   4.259
 7165SOL     OW22393   4.231   5.131   2.114
 7165SOL    HW122394   4.161   5.133   2.043
 7165SOL    HW222395   4.287   5.215   2.108
 7166SOL     OW22396   3.164   6.373   2.607
 7166SOL    HW122397   3.103   6.422   2.544
 7166SOL    HW222398   3.256   6.411   2.601
 7167SOL     OW22399   5.819   3.429   0.353
 7167SOL    HW122400   5.801   3.356   0.419
 7167SOL    HW222401   5.761   3.417   0.273
 7168SOL     OW22402   6.800   1.378   4.383
 7168SOL    HW122403   6.857   1.367   4.301
 7168SOL    HW222404   6.849   1.434   4.450
 7169SOL     OW22405   2.538   2.863   6.764
 7169SOL    HW122406   2.601   2.833   6.692
 7169SOL    HW222407   2.542   2.799   6.841
 7170SOL     OW22408   4.827   3.969   4.346
 7170SOL    HW122409   4.854   3.879   4.310
 7170SOL    HW222410   4.807   3.960   4.444
 7171SOL     OW22411   3.714   3.802   5.512
 7171SOL    HW122412   3.627   3.759   5.488
 7171SOL    HW222413   3.721   3.812   5.611
 7172SOL     OW22414   5.946   5.694   1.225
 7172SOL    HW122415   5.973   5.617   1.283
 7172SOL    HW222416   5.872   5.744   1.270
 7173SOL     OW22417   0.050   6.388   4.564
 7173SOL    HW122418   0.018   6.413   4.473
 7173SOL    HW222419   0.107   6.462   4.601
 7174SOL     OW22420   1.094   6.339   6.190
 7174SOL    HW122421   1.176   6.352   6.247
 7174SOL    HW222422   1.101   6.252   6.142
 7175SOL     OW22423   6.264   3.702   5.490
 7175SOL    HW122424   6.168   3.676   5.486
 7175SOL    HW222425   6.291   3.715   5.586
 7176SOL     OW22426   1.118   3.556   0.856
 7176SOL    HW122427   1.043   3.577   0.794
 7176SOL    HW222428   1.205   3.566   0.808
 7177SOL     OW22429   0.630   5.210   1.429
 7177SOL    HW122430   0.566   5.248   1.361
 7177SOL    HW222431   0.632   5.269   1.509
 7178SOL     OW22432   6.270   0.392   6.599
 7178SOL    HW122433   6.315   0.356   6.518
 7178SOL    HW222434   6.186   0.340   6.617
 7179SOL     OW22435   0.565   3.659   5.624
 7179SOL    HW122436   0.615   3.672   5.539
 7179SOL    HW222437   0.524   3.568   5.624
 7180SOL     OW22438   6.947   0.745   2.068
 7180SOL    HW122439   6.875   0.685   2.032
 7180SOL    HW222440   7.011   0.690   2.122
 7181SOL     OW22441   5.335   5.882   2.725
 7181SOL    HW122442   5.416   5.907   2.673
 7181SOL    HW222443   5.262   5.949   2.708
 7182SOL     OW22444   4.248   3.707   6.153
 7182SOL    HW122445   4.337   3.704   6.107
 7182SOL    HW222446   4.204   3.618   6.146
 7183SOL     OW22447   2.366   2.671   3.082
 7183SOL    HW122448   2.391   2.578   3.057
 7183SOL    HW222449   2.366   2.680   3.182
 7184SOL     OW22450   2.422   5.144   3.350
 7184SOL    HW122451   2.422   5.198   3.434
 7184SOL    HW222452   2.350   5.176   3.289
 7185SOL     OW22453   5.473   2.496   6.609
 7185SOL    HW122454   5.548   2.553   6.644
 7185SOL    HW222455   5.483   2.403   6.643
 7186SOL     OW22456   1.304   6.563   4.529
 7186SOL    HW122457   1.248   6.492   4.572
 7186SOL    HW222458   1.401   6.543   4.545
 7187SOL     OW22459   1.616   5.061   1.285
 7187SOL    HW122460   1.583   5.106   1.368
 7187SOL    HW222461   1.639   5.130   1.216
 7188SOL     OW22462   4.907   0.411   1.724
 7188SOL    HW122463   4.898   0.488   1.787
 7188SOL    HW222464   4.822   0.357   1.726
 7189SOL     OW22465   5.676   0.921   6.001
 7189SOL    HW122466   5.668   0.878   6.091
 7189SOL    HW222467   5.644   0.858   5.930
 7190SOL     OW22468   4.986   4.999   2.435
 7190SOL    HW122469   4.903   5.041   2.472
 7190SOL    HW222470   5.045   5.070   2.396
 7191SOL     OW22471   0.655   3.237   1.340
 7191SOL    HW122472   0.682   3.148   1.376
 7191SOL    HW222473   0.682   3.309   1.404
 7192SOL     OW22474   2.767   4.495   5.768
 7192SOL    HW122475   2.748   4.399   5.746
 7192SOL    HW222476   2.804   4.501   5.861
 7193SOL     OW22477   5.763   1.941   4.771
 7193SOL    HW122478   5.848   1.905   4.733
 7193SOL    HW222479   5.779   2.032   4.810
 7194SOL     OW22480   3.066   0.824   1.964
 7194SOL    HW122481   3.005   0.753   1.928
 7194SOL    HW222482   3.087   0.805   2.060
 7195SOL     OW22483   0.534   0.133   3.048
 7195SOL    HW122484   0.611   0.074   3.023
 7195SOL    HW222485   0.553   0.226   3.018
 7196SOL     OW22486   3.860   4.048   1.839
 7196SOL    HW122487   3.922   4.020   1.913
 7196SOL    HW222488   3.775   3.996   1.846
 7197SOL     OW22489   2.110   1.128   4.102
 7197SOL    HW122490   2.143   1.209   4.150
 7197SOL    HW222491   2.010   1.126   4.104
 7198SOL     OW22492   0.130   0.088   5.805
 7198SOL    HW122493   0.215   0.126   5.769
 7198SOL    HW222494   0.145   0.059   5.900
 7199SOL     OW22495   6.149   5.635   2.168
 7199SOL    HW122496   6.166   5.704   2.098
 7199SOL    HW222497   6.226   5.632   2.232
 7200SOL     OW22498   1.248   2.375   2.544
 7200SOL    HW122499   1.229   2.278   2.552
 7200SOL    HW222500   1.188   2.427   2.605
 7201SOL     OW22501   1.564   4.575   3.508
 7201SOL    HW122502   1.500   4.650   3.526
 7201SOL    HW222503   1.577   4.522   3.592
 7202SOL     OW22504   2.410   6.695   6.165
 7202SOL    HW122505   2.389   6.792   6.163
 7202SOL    HW222506   2.508   6.682   6.184
 7203SOL     OW22507   5.553   0.306   0.190
 7203SOL    HW122508   5.608   0.389   0.186
 7203SOL    HW222509   5.484   0.315   0.262
 7204SOL     OW22510   0.368   3.188   2.473
 7204SOL    HW122511   0.301   3.234   2.532
 7204SOL    HW222512   0.369   3.232   2.383
 7205SOL     OW22513   0.803   3.977   1.532
 7205SOL    HW122514   0.825   4.046   1.463
 7205SOL    HW222515   0.879   3.913   1.541
 7206SOL     OW22516   6.450   0.863   1.654
 7206SOL    HW122517   6.442   0.766   1.674
 7206SOL    HW222518   6.490   0.876   1.563
 7207SOL     OW22519   3.979   0.202   1.308
 7207SOL    HW122520   4.028   0.129   1.261
 7207SOL    HW222521   3.883   0.177   1.319
 7208SOL     OW22522   2.573   0.306   4.869
 7208SOL    HW122523   2.641   0.360   4.918
 7208SOL    HW222524   2.481   0.338   4.892
 7209SOL     OW22525   2.910   3.628   5.426
 7209SOL    HW122526   2.919   3.671   5.516
 7209SOL    HW222527   2.961   3.542   5.426
 7210SOL     OW22528   4.397   0.335   4.232
 7210SOL    HW122529   4.400   0.414   4.294
 7210SOL    HW222530   4.409   0.251   4.285
 7211SOL     OW22531   0.782   5.368   2.584
 7211SOL    HW122532   0.864   5.369   2.643
 7211SOL    HW222533   0.712   5.426   2.625
 7212SOL     OW22534   5.723   6.765   3.396
 7212SOL    HW122535   5.677   6.720   3.320
 7212SOL    HW222536   5.760   6.853   3.366
 7213SOL     OW22537   5.633   6.262   5.615
 7213SOL    HW122538   5.603   6.295   5.705
 7213SOL    HW222539   5.683   6.176   5.626
 7214SOL     OW22540   1.400   4.843   6.218
 7214SOL    HW122541   1.487   4.856   6.267
 7214SOL    HW222542   1.372   4.747   6.224
 7215SOL     OW22543   1.138   3.069   1.193
 7215SOL    HW122544   1.225   3.018   1.193
 7215SOL    HW222545   1.151   3.157   1.238
 7216SOL     OW22546   2.653   1.603   2.898
 7216SOL    HW122547   2.595   1.655   2.835
 7216SOL    HW222548   2.731   1.659   2.924
 7217SOL     OW22549   0.695   3.779   1.846
 7217SOL    HW122550   0.650   3.733   1.922
 7217SOL    HW222551   0.793   3.756   1.846
 7218SOL     OW22552   6.330   2.946   3.407
 7218SOL    HW122553   6.353   2.886   3.483
 7218SOL    HW222554   6.314   3.039   3.441
 7219SOL     OW22555   2.199   1.305   1.519
 7219SOL    HW122556   2.158   1.219   1.488
 7219SOL    HW222557   2.226   1.297   1.615
 7220SOL     OW22558   0.053   1.576   3.187
 7220SOL    HW122559   0.071   1.488   3.231
 7220SOL    HW222560   6.995   1.621   3.234
 7221SOL     OW22561   6.603   3.962   4.730
 7221SOL    HW122562   6.684   3.931   4.680
 7221SOL    HW222563   6.628   3.985   4.823
 7222SOL     OW22564   6.617   6.930   2.793
 7222SOL    HW122565   6.684   6.856   2.799
 7222SOL    HW222566   6.538   6.908   2.849
 7223SOL     OW22567   4.773   1.335   4.443
 7223SOL    HW122568   4.823   1.414   4.479
 7223SOL    HW222569   4.695   1.315   4.503
 7224SOL     OW22570   5.683   1.727   3.599
 7224SOL    HW122571   5.662   1.737   3.697
 7224SOL    HW222572   5.748   1.797   3.572
 7225SOL     OW22573   2.803   0.732   1.699
 7225SOL    HW122574   2.762   0.657   1.648
 7225SOL    HW222575   2.884   0.765   1.651
 7226SOL     OW22576   5.936   6.670   5.180
 7226SOL    HW122577   5.863   6.735   5.202
 7226SOL    HW222578   5.947   6.664   5.081
 7227SOL     OW22579   0.667   3.041   5.556
 7227SOL    HW122580   0.751   2.993   5.582
 7227SOL    HW222581   0.682   3.140   5.563
 7228SOL     OW22582   1.604   0.181   2.636
 7228SOL    HW122583   1.540   0.247   2.675
 7228SOL    HW222584   1.697   0.203   2.666
 7229SOL     OW22585   6.641   0.286   3.517
 7229SOL    HW122586   6.628   0.305   3.420
 7229SOL    HW222587   6.662   0.371   3.566
 7230SOL     OW22588   6.444   5.320   1.228
 7230SOL    HW122589   6.360   5.373   1.224
 7230SOL    HW222590   6.430   5.240   1.287
 7231SOL     OW22591   6.004   0.500   6.886
 7231SOL    HW122592   6.079   0.545   6.837
 7231SOL    HW222593   5.965   0.429   6.829
 7232SOL     OW22594   3.237   3.958   0.537
 7232SOL    HW122595   3.217   4.022   0.611
 7232SOL    HW222596   3.296   3.885   0.571
 7233SOL     OW22597   0.980   1.638   6.188
 7233SOL    HW122598   1.053   1.649   6.120
 7233SOL    HW222599   0.991   1.707   6.260
 7234SOL     OW22600   5.193   2.346   4.194
 7234SOL    HW122601   5.256   2.421   4.173
 7234SOL    HW222602   5.222   2.263   4.147
 7235SOL     OW22603   5.977   2.592   4.427
 7235SOL    HW122604   6.040   2.562   4.499
 7235SOL    HW222605   5.925   2.671   4.459
 7236SOL     OW22606   1.046   1.607   3.199
 7236SOL    HW122607   1.022   1.697   3.235
 7236SOL    HW222608   1.034   1.538   3.270
 7237SOL     OW22609   5.713   5.863   5.188
 7237SOL    HW122610   5.789   5.859   5.253
 7237SOL    HW222611   5.668   5.952   5.195
 7238SOL     OW22612   1.611   0.363   2.215
 7238SOL    HW122613   1.546   0.302   2.170
 7238SOL    HW222614   1.698   0.362   2.167
 7239SOL     OW22615   4.838   2.076   1.995
 7239SOL    HW122616   4.799   2.141   1.931
 7239SOL    HW222617   4.783   2.073   2.078
 7240SOL     OW22618   3.462   2.889   3.762
 7240SOL    HW122619   3.393   2.960   3.775
 7240SOL    HW222620   3.456   2.822   3.835
 7241SOL     OW22621   4.289   0.319   5.080
 7241SOL    HW122622   4.263   0.392   5.017
 7241SOL    HW222623   4.328   0.242   5.029
 7242SOL     OW22624   6.244   6.057   0.225
 7242SOL    HW122625   6.320   6.004   0.264
 7242SOL    HW222626   6.269   6.153   0.222
 7243SOL     OW22627   1.074   5.973   0.965
 7243SOL    HW122628   0.987   5.979   0.917
 7243SOL    HW222629   1.106   5.878   0.966
 7244SOL     OW22630   5.372   1.628   1.510
 7244SOL    HW122631   5.337   1.566   1.580
 7244SOL    HW222632   5.299   1.692   1.484
 7245SOL     OW22633   6.168   1.763   3.451
 7245SOL    HW122634   6.149   1.696   3.380
 7245SOL    HW222635   6.243   1.822   3.422
 7246SOL     OW22636   0.682   5.485   5.655
 7246SOL    HW122637   0.726   5.528   5.733
 7246SOL    HW222638   0.718   5.392   5.644
 7247SOL     OW22639   3.925   5.650   4.040
 7247SOL    HW122640   3.842   5.643   3.985
 7247SOL    HW222641   3.904   5.628   4.135
 7248SOL     OW22642   3.213   0.798   4.899
 7248SOL    HW122643   3.177   0.715   4.942
 7248SOL    HW222644   3.277   0.843   4.962
 7249SOL     OW22645   4.788   2.825   6.063
 7249SOL    HW122646   4.878   2.784   6.048
 7249SOL    HW222647   4.749   2.792   6.149
 7250SOL     OW22648   3.195   3.066   0.167
 7250SOL    HW122649   3.208   3.152   0.216
 7250SOL    HW222650   3.197   3.083   0.069
 7251SOL     OW22651   6.090   1.571   5.613
 7251SOL    HW122652   6.036   1.654   5.631
 7251SOL    HW222653   6.084   1.547   5.516
 7252SOL     OW22654   4.567   3.462   5.368
 7252SOL    HW122655   4.576   3.462   5.268
 7252SOL    HW222656   4.496   3.396   5.395
 7253SOL     OW22657   4.825   5.224   6.561
 7253SOL    HW122658   4.893   5.192   6.626
 7253SOL    HW222659   4.869   5.245   6.474
 7254SOL     OW22660   5.416   5.967   5.129
 7254SOL    HW122661   5.350   6.016   5.072
 7254SOL    HW222662   5.481   6.032   5.168
 7255SOL     OW22663   3.553   3.660   3.353
 7255SOL    HW122664   3.463   3.668   3.311
 7255SOL    HW222665   3.623   3.676   3.284
 7256SOL     OW22666   3.446   5.742   3.553
 7256SOL    HW122667   3.399   5.667   3.600
 7256SOL    HW222668   3.379   5.794   3.499
 7257SOL     OW22669   6.104   5.246   2.422
 7257SOL    HW122670   6.063   5.163   2.459
 7257SOL    HW222671   6.094   5.321   2.488
 7258SOL     OW22672   2.744   0.530   6.411
 7258SOL    HW122673   2.767   0.615   6.458
 7258SOL    HW222674   2.733   0.548   6.313
 7259SOL     OW22675   3.302   4.141   6.068
 7259SOL    HW122676   3.288   4.239   6.077
 7259SOL    HW222677   3.376   4.113   6.130
 7260SOL     OW22678   4.320   2.332   2.482
 7260SOL    HW122679   4.348   2.271   2.556
 7260SOL    HW222680   4.270   2.280   2.413
 7261SOL     OW22681   2.392   4.709   1.382
 7261SOL    HW122682   2.412   4.769   1.459
 7261SOL    HW222683   2.444   4.624   1.392
 7262SOL     OW22684   5.875   0.201   4.834
 7262SOL    HW122685   5.795   0.167   4.786
 7262SOL    HW222686   5.946   0.226   4.768
 7263SOL     OW22687   5.152   4.989   1.111
 7263SOL    HW122688   5.149   4.969   1.209
 7263SOL    HW222689   5.060   4.984   1.073
 7264SOL     OW22690   0.211   0.013   4.721
 7264SOL    HW122691   0.118   6.996   4.722
 7264SOL    HW222692   0.276   6.956   4.723
 7265SOL     OW22693   4.623   2.917   6.602
 7265SOL    HW122694   4.557   2.968   6.657
 7265SOL    HW222695   4.686   2.868   6.662
 7266SOL     OW22696   4.158   1.679   2.874
 7266SOL    HW122697   4.230   1.612   2.887
 7266SOL    HW222698   4.197   1.771   2.878
 7267SOL     OW22699   4.878   1.947   3.921
 7267SOL    HW122700   4.779   1.965   3.924
 7267SOL    HW222701   4.921   2.011   3.857
 7268SOL     OW22702   4.020   6.047   6.944
 7268SOL    HW122703   3.988   6.142   6.941
 7268SOL    HW222704   4.062   6.029   0.014
 7269SOL     OW22705   1.730   6.915   3.143
 7269SOL    HW122706   1.801   6.962   3.195
 7269SOL    HW222707   1.685   6.979   3.082
 7270SOL     OW22708   3.307   2.462   1.661
 7270SOL    HW122709   3.329   2.484   1.566
 7270SOL    HW222710   3.350   2.375   1.686
 7271SOL     OW22711   5.382   5.821   3.743
 7271SOL    HW122712   5.323   5.748   3.710
 7271SOL    HW222713   5.440   5.854   3.668
 7272SOL     OW22714   5.772   1.151   1.921
 7272SOL    HW122715   5.785   1.055   1.895
 7272SOL    HW222716   5.729   1.156   2.011
 7273SOL     OW22717   6.165   5.125   4.770
 7273SOL    HW122718   6.156   5.027   4.786
 7273SOL    HW222719   6.140   5.146   4.675
 7274SOL     OW22720   5.779   4.909   3.677
 7274SOL    HW122721   5.693   4.933   3.722
 7274SOL    HW222722   5.820   4.831   3.724
 7275SOL     OW22723   5.962   0.009   2.393
 7275SOL    HW122724   5.974   0.075   2.319
 7275SOL    HW222725   5.970   0.055   2.481
 7276SOL     OW22726   4.291   1.911   2.927
 7276SOL    HW122727   4.279   1.962   2.842
 7276SOL    HW222728   4.386   1.919   2.958
 7277SOL     OW22729   5.882   2.489   4.039
 7277SOL    HW122730   5.929   2.474   3.952
 7277SOL    HW222731   5.899   2.582   4.071
 7278SOL     OW22732   3.834   1.444   3.245
 7278SOL    HW122733   3.827   1.544   3.252
 7278SOL    HW222734   3.930   1.419   3.228
 7279SOL     OW22735   3.611   3.934   1.831
 7279SOL    HW122736   3.631   3.865   1.901
 7279SOL    HW222737   3.519   3.969   1.845
 7280SOL     OW22738   6.464   1.352   5.687
 7280SOL    HW122739   6.513   1.328   5.603
 7280SOL    HW222740   6.527   1.352   5.764
 7281SOL     OW22741   3.751   6.790   3.785
 7281SOL    HW122742   3.827   6.854   3.789
 7281SOL    HW222743   3.673   6.829   3.834
 7282SOL     OW22744   1.015   3.616   1.316
 7282SOL    HW122745   0.923   3.584   1.338
 7282SOL    HW222746   1.022   3.633   1.217
 7283SOL     OW22747   2.818   5.943   2.860
 7283SOL    HW122748   2.888   5.933   2.931
 7283SOL    HW222749   2.770   5.856   2.849
 7284SOL     OW22750   0.726   0.493   4.045
 7284SOL    HW122751   0.691   0.586   4.056
 7284SOL    HW222752   0.662   0.428   4.084
 7285SOL     OW22753   4.887   2.551   1.839
 7285SOL    HW122754   4.859   2.621   1.905
 7285SOL    HW222755   4.818   2.542   1.767
 7286SOL     OW22756   6.566   1.494   4.698
 7286SOL    HW122757   6.623   1.418   4.667
 7286SOL    HW222758   6.476   1.489   4.654
 7287SOL     OW22759   3.562   1.493   4.526
 7287SOL    HW122760   3.489   1.424   4.517
 7287SOL    HW222761   3.570   1.544   4.440
 7288SOL     OW22762   2.845   1.761   1.298
 7288SOL    HW122763   2.831   1.815   1.381
 7288SOL    HW222764   2.779   1.789   1.229
 7289SOL     OW22765   6.647   2.623   1.082
 7289SOL    HW122766   6.715   2.576   1.139
 7289SOL    HW222767   6.685   2.710   1.050
 7290SOL     OW22768   3.346   2.071   5.022
 7290SOL    HW122769   3.298   2.153   5.053
 7290SOL    HW222770   3.282   1.994   5.021
 7291SOL     OW22771   1.034   1.137   0.524
 7291SOL    HW122772   1.036   1.178   0.433
 7291SOL    HW222773   1.102   1.064   0.529
 7292SOL     OW22774   3.449   1.250   2.406
 7292SOL    HW122775   3.446   1.334   2.460
 7292SOL    HW222776   3.543   1.215   2.404
 7293SOL     OW22777   6.350   1.376   4.238
 7293SOL    HW122778   6.315   1.296   4.287
 7293SOL    HW222779   6.306   1.382   4.148
 7294SOL     OW22780   2.391   1.243   2.649
 7294SOL    HW122781   2.406   1.249   2.551
 7294SOL    HW222782   2.318   1.307   2.676
 7295SOL     OW22783   5.338   4.498   1.432
 7295SOL    HW122784   5.267   4.535   1.373
 7295SOL    HW222785   5.349   4.400   1.415
 7296SOL     OW22786   3.096   0.358   2.763
 7296SOL    HW122787   3.092   0.428   2.692
 7296SOL    HW222788   3.123   0.270   2.722
 7297SOL     OW22789   4.394   0.189   6.906
 7297SOL    HW122790   4.355   0.119   6.846
 7297SOL    HW222791   4.328   0.213   6.977
 7298SOL     OW22792   3.928   4.617   0.827
 7298SOL    HW122793   3.870   4.691   0.792
 7298SOL    HW222794   3.871   4.537   0.844
 7299SOL     OW22795   0.140   3.134   6.806
 7299SOL    HW122796   0.171   3.156   6.898
 7299SOL    HW222797   0.179   3.046   6.779
 7300SOL     OW22798   0.587   4.204   2.203
 7300SOL    HW122799   0.638   4.227   2.286
 7300SOL    HW222800   0.560   4.108   2.205
 7301SOL     OW22801   3.656   1.862   0.474
 7301SOL    HW122802   3.633   1.956   0.448
 7301SOL    HW222803   3.752   1.856   0.499
 7302SOL     OW22804   5.800   1.595   6.813
 7302SOL    HW122805   5.896   1.571   6.796
 7302SOL    HW222806   5.792   1.638   6.902
 7303SOL     OW22807   3.908   2.428   0.950
 7303SOL    HW122808   3.981   2.496   0.943
 7303SOL    HW222809   3.947   2.337   0.943
 7304SOL     OW22810   3.275   0.179   0.518
 7304SOL    HW122811   3.262   0.219   0.428
 7304SOL    HW222812   3.187   0.169   0.563
 7305SOL     OW22813   6.859   0.236   6.306
 7305SOL    HW122814   6.952   0.243   6.271
 7305SOL    HW222815   6.829   0.326   6.339
 7306SOL     OW22816   2.099   3.338   1.125
 7306SOL    HW122817   2.094   3.309   1.220
 7306SOL    HW222818   2.052   3.425   1.113
 7307SOL     OW22819   4.320   6.489   1.354
 7307SOL    HW122820   4.253   6.517   1.286
 7307SOL    HW222821   4.357   6.571   1.400
 7308SOL     OW22822   3.544   1.996   2.959
 7308SOL    HW122823   3.631   2.039   2.935
 7308SOL    HW222824   3.506   1.951   2.878
 7309SOL     OW22825   2.592   4.879   3.494
 7309SOL    HW122826   2.493   4.882   3.513
 7309SOL    HW222827   2.610   4.919   3.405
 7310SOL     OW22828   4.951   2.967   0.333
 7310SOL    HW122829   5.004   2.882   0.328
 7310SOL    HW222830   4.946   3.009   0.243
 7311SOL     OW22831   1.278   6.653   5.654
 7311SOL    HW122832   1.375   6.661   5.674
 7311SOL    HW222833   1.239   6.575   5.704
 7312SOL     OW22834   5.655   1.987   4.313
 7312SOL    HW122835   5.637   2.002   4.215
 7312SOL    HW222836   5.629   2.068   4.364
 7313SOL     OW22837   3.457   1.020   3.435
 7313SOL    HW122838   3.391   1.080   3.389
 7313SOL    HW222839   3.542   1.070   3.451
 7314SOL     OW22840   2.373   5.588   4.725
 7314SOL    HW122841   2.408   5.495   4.738
 7314SOL    HW222842   2.289   5.599   4.777
 7315SOL     OW22843   2.537   5.029   2.336
 7315SOL    HW122844   2.503   5.028   2.430
 7315SOL    HW222845   2.637   5.026   2.336
 7316SOL     OW22846   3.548   0.924   2.539
 7316SOL    HW122847   3.639   0.966   2.537
 7316SOL    HW222848   3.491   0.971   2.608
 7317SOL     OW22849   5.873   1.700   1.476
 7317SOL    HW122850   5.886   1.798   1.492
 7317SOL    HW222851   5.777   1.682   1.453
 7318SOL     OW22852   5.106   6.698   1.474
 7318SOL    HW122853   5.050   6.615   1.475
 7318SOL    HW222854   5.157   6.704   1.560
 7319SOL     OW22855   4.571   5.182   5.773
 7319SOL    HW122856   4.614   5.268   5.802
 7319SOL    HW222857   4.475   5.182   5.800
 7320SOL     OW22858   1.922   3.436   0.451
 7320SOL    HW122859   1.878   3.403   0.535
 7320SOL    HW222860   1.853   3.447   0.380
 7321SOL     OW22861   2.051   2.131   5.320
 7321SOL    HW122862   2.042   2.143   5.221
 7321SOL    HW222863   1.990   2.196   5.366
 7322SOL     OW22864   2.549   2.161   3.999
 7322SOL    HW122865   2.598   2.143   4.084
 7322SOL    HW222866   2.462   2.206   4.020
 7323SOL     OW22867   2.334   1.832   6.990
 7323SOL    HW122868   2.336   1.924   6.952
 7323SOL    HW222869   2.318   1.766   6.916
 7324SOL     OW22870   5.453   3.969   5.053
 7324SOL    HW122871   5.369   4.000   5.008
 7324SOL    HW222872   5.486   3.886   5.009
 7325SOL     OW22873   3.422   0.915   6.645
 7325SOL    HW122874   3.466   0.909   6.735
 7325SOL    HW222875   3.376   1.003   6.636
 7326SOL     OW22876   3.593   6.643   0.011
 7326SOL    HW122877   3.561   6.738   0.021
 7326SOL    HW222878   3.675   6.630   0.066
 7327SOL     OW22879   1.885   4.570   2.987
 7327SOL    HW122880   1.819   4.640   3.014
 7327SOL    HW222881   1.847   4.479   3.006
 7328SOL     OW22882   3.986   5.439   6.877
 7328SOL    HW122883   3.913   5.375   6.901
 7328SOL    HW222884   3.957   5.496   6.800
 7329SOL     OW22885   2.822   3.987   6.554
 7329SOL    HW122886   2.770   3.969   6.638
 7329SOL    HW222887   2.780   3.937   6.478
 7330SOL     OW22888   2.420   3.555   1.591
 7330SOL    HW122889   2.390   3.530   1.684
 7330SOL    HW222890   2.504   3.609   1.597
 7331SOL     OW22891   5.471   1.391   2.461
 7331SOL    HW122892   5.531   1.405   2.540
 7331SOL    HW222893   5.462   1.477   2.411
 7332SOL     OW22894   1.617   0.088   5.101
 7332SOL    HW122895   1.624   0.068   5.199
 7332SOL    HW222896   1.550   0.027   5.059
 7333SOL     OW22897   6.460   1.675   2.020
 7333SOL    HW122898   6.407   1.610   1.965
 7333SOL    HW222899   6.404   1.755   2.039
 7334SOL     OW22900   0.959   5.166   5.131
 7334SOL    HW122901   1.002   5.257   5.140
 7334SOL    HW222902   1.027   5.101   5.097
 7335SOL     OW22903   6.362   2.639   1.769
 7335SOL    HW122904   6.303   2.560   1.749
 7335SOL    HW222905   6.395   2.633   1.863
 7336SOL     OW22906   2.805   0.097   1.026
 7336SOL    HW122907   2.744   0.112   0.948
 7336SOL    HW222908   2.755   0.049   1.098
 7337SOL     OW22909   3.120   1.531   2.163
 7337SOL    HW122910   3.104   1.599   2.092
 7337SOL    HW222911   3.216   1.536   2.192
 7338SOL     OW22912   5.362   2.632   0.279
 7338SOL    HW122913   5.314   2.585   0.204
 7338SOL    HW222914   5.412   2.565   0.333
 7339SOL     OW22915   6.947   6.950   3.628
 7339SOL    HW122916   6.989   6.863   3.602
 7339SOL    HW222917   6.977   6.975   3.720
 7340SOL     OW22918   3.142   0.095   0.283
 7340SOL    HW122919   3.076   0.166   0.308
 7340SOL    HW222920   3.118   0.057   0.194
 7341SOL     OW22921   6.306   5.060   3.212
 7341SOL    HW122922   6.212   5.081   3.240
 7341SOL    HW222923   6.349   5.000   3.279
 7342SOL     OW22924   6.920   4.881   6.676
 7342SOL    HW122925   6.821   4.880   6.660
 7342SOL    HW222926   6.964   4.937   6.606
 7343SOL     OW22927   0.639   1.853   3.319
 7343SOL    HW122928   0.589   1.769   3.340
 7343SOL    HW222929   0.722   1.858   3.374
 7344SOL     OW22930   1.753   1.772   5.857
 7344SOL    HW122931   1.852   1.763   5.846
 7344SOL    HW222932   1.732   1.863   5.892
 7345SOL     OW22933   1.143   6.814   0.021
 7345SOL    HW122934   1.134   6.913   0.022
 7345SOL    HW222935   1.176   6.785   6.949
 7346SOL     OW22936   3.961   5.444   2.751
 7346SOL    HW122937   3.903   5.371   2.788
 7346SOL    HW222938   3.974   5.515   2.820
 7347SOL     OW22939   5.496   2.943   3.443
 7347SOL    HW122940   5.588   2.942   3.483
 7347SOL    HW222941   5.457   2.851   3.446
 7348SOL     OW22942   5.339   0.234   6.309
 7348SOL    HW122943   5.400   0.313   6.311
 7348SOL    HW222944   5.373   0.168   6.242
 7349SOL     OW22945   3.853   2.235   1.278
 7349SOL    HW122946   3.836   2.220   1.375
 7349SOL    HW222947   3.854   2.333   1.258
 7350SOL     OW22948   1.711   1.548   2.625
 7350SOL    HW122949   1.714   1.635   2.576
 7350SOL    HW222950   1.622   1.538   2.669
 7351SOL     OW22951   5.899   4.914   0.195
 7351SOL    HW122952   5.902   4.990   0.130
 7351SOL    HW222953   5.879   4.829   0.146
 7352SOL     OW22954   6.667   1.419   3.006
 7352SOL    HW122955   6.712   1.474   3.076
 7352SOL    HW222956   6.730   1.403   2.930
 7353SOL     OW22957   5.586   1.579   4.715
 7353SOL    HW122958   5.618   1.490   4.684
 7353SOL    HW222959   5.628   1.601   4.803
 7354SOL     OW22960   5.508   4.565   5.353
 7354SOL    HW122961   5.561   4.549   5.436
 7354SOL    HW222962   5.562   4.540   5.273
 7355SOL     OW22963   6.748   5.805   0.300
 7355SOL    HW122964   6.788   5.896   0.293
 7355SOL    HW222965   6.663   5.801   0.248
 7356SOL     OW22966   6.981   2.202   6.464
 7356SOL    HW122967   6.939   2.112   6.457
 7356SOL    HW222968   6.959   2.255   6.382
 7357SOL     OW22969   0.649   0.854   1.054
 7357SOL    HW122970   0.586   0.840   0.978
 7357SOL    HW222971   0.743   0.849   1.021
 7358SOL     OW22972   3.494   1.456   3.607
 7358SOL    HW122973   3.441   1.540   3.597
 7358SOL    HW222974   3.432   1.377   3.605
 7359SOL     OW22975   3.185   3.636   4.085
 7359SOL    HW122976   3.267   3.643   4.143
 7359SOL    HW222977   3.140   3.725   4.081
 7360SOL     OW22978   1.518   4.466   5.899
 7360SOL    HW122979   1.442   4.437   5.958
 7360SOL    HW222980   1.516   4.565   5.889
 7361SOL     OW22981   4.602   0.281   1.634
 7361SOL    HW122982   4.677   0.216   1.635
 7361SOL    HW222983   4.522   0.240   1.677
 7362SOL     OW22984   1.165   5.196   0.039
 7362SOL    HW122985   1.165   5.098   0.061
 7362SOL    HW222986   1.257   5.233   0.047
 7363SOL     OW22987   5.007   2.407   5.953
 7363SOL    HW122988   4.913   2.440   5.947
 7363SOL    HW222989   5.022   2.335   5.885
 7364SOL     OW22990   5.217   6.854   0.450
 7364SOL    HW122991   5.196   6.774   0.505
 7364SOL    HW222992   5.285   6.911   0.497
 7365SOL     OW22993   5.056   0.003   1.754
 7365SOL    HW122994   5.095   6.957   1.689
 7365SOL    HW222995   5.122   0.022   1.827
 7366SOL     OW22996   3.079   6.674   0.491
 7366SOL    HW122997   3.003   6.611   0.482
 7366SOL    HW222998   3.056   6.761   0.447
 7367SOL     OW22999   4.503   3.191   5.904
 7367SOL    HW123000   4.463   3.117   5.958
 7367SOL    HW223001   4.438   3.220   5.833
 7368SOL     OW23002   3.277   2.845   4.999
 7368SOL    HW123003   3.237   2.890   5.079
 7368SOL    HW223004   3.251   2.748   4.998
 7369SOL     OW23005   0.156   6.683   6.329
 7369SOL    HW123006   0.211   6.610   6.370
 7369SOL    HW223007   0.201   6.716   6.246
 7370SOL     OW23008   0.365   5.642   1.111
 7370SOL    HW123009   0.334   5.733   1.085
 7370SOL    HW223010   0.304   5.573   1.072
 7371SOL     OW23011   2.322   4.879   3.543
 7371SOL    HW123012   2.262   4.800   3.535
 7371SOL    HW223013   2.282   4.945   3.606
 7372SOL     OW23014   2.380   0.141   5.067
 7372SOL    HW123015   2.335   0.210   5.010
 7372SOL    HW223016   2.330   0.131   5.152
 7373SOL     OW23017   3.936   1.591   1.017
 7373SOL    HW123018   3.905   1.496   1.009
 7373SOL    HW223019   3.881   1.649   0.957
 7374SOL     OW23020   2.466   3.770   0.495
 7374SOL    HW123021   2.464   3.809   0.588
 7374SOL    HW223022   2.426   3.678   0.498
 7375SOL     OW23023   2.159   5.559   2.686
 7375SOL    HW123024   2.218   5.510   2.750
 7375SOL    HW223025   2.186   5.655   2.683
 7376SOL     OW23026   3.597   4.816   0.140
 7376SOL    HW123027   3.643   4.856   0.061
 7376SOL    HW223028   3.645   4.734   0.170
 7377SOL     OW23029   5.217   5.773   1.521
 7377SOL    HW123030   5.253   5.704   1.584
 7377SOL    HW223031   5.138   5.818   1.562
 7378SOL     OW23032   0.828   1.474   6.546
 7378SOL    HW123033   0.913   1.527   6.545
 7378SOL    HW223034   0.750   1.537   6.538
 7379SOL     OW23035   4.431   0.983   0.305
 7379SOL    HW123036   4.353   1.032   0.343
 7379SOL    HW223037   4.499   0.969   0.378
 7380SOL     OW23038   0.642   3.502   6.995
 7380SOL    HW123039   0.689   3.547   6.919
 7380SOL    HW223040   0.594   3.422   6.961
 7381SOL     OW23041   5.539   2.709   0.785
 7381SOL    HW123042   5.553   2.728   0.688
 7381SOL    HW223043   5.604   2.762   0.840
 7382SOL     OW23044   1.020   5.405   3.706
 7382SOL    HW123045   1.032   5.328   3.643
 7382SOL    HW223046   1.047   5.490   3.660
 7383SOL     OW23047   1.789   4.731   2.664
 7383SOL    HW123048   1.820   4.822   2.690
 7383SOL    HW223049   1.867   4.675   2.638
 7384SOL     OW23050   5.560   1.131   1.509
 7384SOL    HW123051   5.626   1.206   1.502
 7384SOL    HW223052   5.513   1.136   1.597
 7385SOL     OW23053   5.059   0.155   2.333
 7385SOL    HW123054   5.055   0.168   2.234
 7385SOL    HW223055   4.995   0.218   2.377
 7386SOL     OW23056   6.204   1.822   5.189
 7386SOL    HW123057   6.134   1.892   5.203
 7386SOL    HW223058   6.250   1.803   5.276
 7387SOL     OW23059   5.141   5.657   4.174
 7387SOL    HW123060   5.235   5.672   4.144
 7387SOL    HW223061   5.140   5.638   4.273
 7388SOL     OW23062   5.199   3.575   4.661
 7388SOL    HW123063   5.104   3.597   4.639
 7388SOL    HW223064   5.203   3.525   4.747
 7389SOL     OW23065   2.438   3.532   5.782
 7389SOL    HW123066   2.352   3.503   5.739
 7389SOL    HW223067   2.509   3.541   5.712
 7390SOL     OW23068   4.641   6.215   0.303
 7390SOL    HW123069   4.624   6.281   0.376
 7390SOL    HW223070   4.555   6.179   0.269
 7391SOL     OW23071   0.193   5.227   0.738
 7391SOL    HW123072   0.249   5.304   0.710
 7391SOL    HW223073   0.161   5.177   0.658
 7392SOL     OW23074   1.188   4.372   1.915
 7392SOL    HW123075   1.100   4.332   1.941
 7392SOL    HW223076   1.172   4.456   1.863
 7393SOL     OW23077   1.368   3.858   0.727
 7393SOL    HW123078   1.384   3.945   0.774
 7393SOL    HW223079   1.305   3.872   0.651
 7394SOL     OW23080   3.069   3.975   0.049
 7394SOL    HW123081   3.009   3.897   0.029
 7394SOL    HW223082   3.085   4.027   6.984
 7395SOL     OW23083   2.476   6.914   0.272
 7395SOL    HW123084   2.389   6.934   0.317
 7395SOL    HW223085   2.536   6.994   0.276
 7396SOL     OW23086   6.827   6.943   2.366
 7396SOL    HW123087   6.825   6.966   2.268
 7396SOL    HW223088   6.868   6.853   2.378
 7397SOL     OW23089   5.479   4.396   3.996
 7397SOL    HW123090   5.555   4.460   4.001
 7397SOL    HW223091   5.510   4.305   4.026
 7398SOL     OW23092   4.155   6.056   2.667
 7398SOL    HW123093   4.241   6.094   2.701
 7398SOL    HW223094   4.167   6.025   2.573
 7399SOL     OW23095   5.180   6.214   4.591
 7399SOL    HW123096   5.218   6.163   4.514
 7399SOL    HW223097   5.159   6.307   4.562
 7400SOL     OW23098   2.763   4.359   6.782
 7400SOL    HW123099   2.798   4.445   6.819
 7400SOL    HW223100   2.810   4.337   6.697
 7401SOL     OW23101   6.528   2.692   4.101
 7401SOL    HW123102   6.471   2.613   4.079
 7401SOL    HW223103   6.608   2.694   4.040
 7402SOL     OW23104   1.654   6.294   5.103
 7402SOL    HW123105   1.556   6.273   5.105
 7402SOL    HW223106   1.680   6.321   5.010
 7403SOL     OW23107   2.387   2.909   1.596
 7403SOL    HW123108   2.297   2.940   1.564
 7403SOL    HW223109   2.453   2.983   1.587
 7404SOL     OW23110   1.555   2.789   2.331
 7404SOL    HW123111   1.593   2.698   2.317
 7404SOL    HW223112   1.630   2.854   2.343
 7405SOL     OW23113   3.141   5.439   5.786
 7405SOL    HW123114   3.185   5.387   5.860
 7405SOL    HW223115   3.146   5.387   5.701
 7406SOL     OW23116   5.965   6.065   2.944
 7406SOL    HW123117   5.942   5.979   2.991
 7406SOL    HW223118   5.897   6.083   2.873
 7407SOL     OW23119   3.983   1.519   6.024
 7407SOL    HW123120   4.064   1.468   6.053
 7407SOL    HW223121   3.923   1.460   5.970
 7408SOL     OW23122   0.793   3.378   4.936
 7408SOL    HW123123   0.802   3.359   4.838
 7408SOL    HW223124   0.721   3.320   4.974
 7409SOL     OW23125   1.945   6.970   4.776
 7409SOL    HW123126   1.932   6.883   4.823
 7409SOL    HW223127   1.892   6.971   4.692
 7410SOL     OW23128   4.121   5.493   5.528
 7410SOL    HW123129   4.065   5.573   5.505
 7410SOL    HW223130   4.074   5.439   5.598
 7411SOL     OW23131   6.078   3.569   5.783
 7411SOL    HW123132   6.112   3.661   5.764
 7411SOL    HW223133   6.098   3.510   5.705
 7412SOL     OW23134   1.267   0.669   0.423
 7412SOL    HW123135   1.361   0.682   0.456
 7412SOL    HW223136   1.207   0.646   0.500
 7413SOL     OW23137   6.145   3.845   3.056
 7413SOL    HW123138   6.225   3.839   3.115
 7413SOL    HW223139   6.063   3.854   3.112
 7414SOL     OW23140   0.077   5.811   2.060
 7414SOL    HW123141   0.002   5.870   2.092
 7414SOL    HW223142   0.073   5.804   1.960
 7415SOL     OW23143   2.659   1.434   3.348
 7415SOL    HW123144   2.625   1.407   3.258
 7415SOL    HW223145   2.598   1.503   3.388
 7416SOL     OW23146   6.473   0.784   2.527
 7416SOL    HW123147   6.420   0.849   2.474
 7416SOL    HW223148   6.418   0.748   2.602
 7417SOL     OW23149   0.226   5.570   1.476
 7417SOL    HW123150   0.257   5.481   1.509
 7417SOL    HW223151   0.303   5.620   1.436
 7418SOL     OW23152   2.492   3.661   1.203
 7418SOL    HW123153   2.457   3.570   1.224
 7418SOL    HW223154   2.575   3.654   1.148
 7419SOL     OW23155   6.007   2.018   5.280
 7419SOL    HW123156   5.979   2.050   5.189
 7419SOL    HW223157   6.056   2.091   5.327
 7420SOL     OW23158   0.646   6.364   1.616
 7420SOL    HW123159   0.671   6.282   1.667
 7420SOL    HW223160   0.659   6.444   1.675
 7421SOL     OW23161   4.314   2.058   1.002
 7421SOL    HW123162   4.291   2.105   1.087
 7421SOL    HW223163   4.367   2.119   0.943
 7422SOL     OW23164   1.401   2.199   0.236
 7422SOL    HW123165   1.309   2.195   0.276
 7422SOL    HW223166   1.463   2.142   0.290
 7423SOL     OW23167   2.968   3.915   0.582
 7423SOL    HW123168   3.064   3.912   0.553
 7423SOL    HW223169   2.932   3.822   0.589
 7424SOL     OW23170   5.907   6.903   3.892
 7424SOL    HW123171   5.882   6.954   3.810
 7424SOL    HW223172   5.902   6.805   3.872
 7425SOL     OW23173   3.859   0.321   5.031
 7425SOL    HW123174   3.928   0.264   4.986
 7425SOL    HW223175   3.804   0.368   4.962
 7426SOL     OW23176   0.149   0.636   6.685
 7426SOL    HW123177   0.062   0.675   6.716
 7426SOL    HW223178   0.133   0.576   6.607
 7427SOL     OW23179   5.289   5.200   6.064
 7427SOL    HW123180   5.269   5.165   6.156
 7427SOL    HW223181   5.214   5.259   6.034
 7428SOL     OW23182   5.554   1.710   5.142
 7428SOL    HW123183   5.523   1.627   5.188
 7428SOL    HW223184   5.632   1.688   5.083
 7429SOL     OW23185   5.798   6.257   3.415
 7429SOL    HW123186   5.863   6.198   3.463
 7429SOL    HW223187   5.844   6.341   3.386
 7430SOL     OW23188   0.881   4.060   4.528
 7430SOL    HW123189   0.840   4.058   4.437
 7430SOL    HW223190   0.815   4.023   4.594
 7431SOL     OW23191   7.006   3.569   2.885
 7431SOL    HW123192   6.916   3.537   2.856
 7431SOL    HW223193   0.023   3.634   2.818
 7432SOL     OW23194   2.009   6.206   5.533
 7432SOL    HW123195   1.912   6.182   5.528
 7432SOL    HW223196   2.063   6.125   5.553
 7433SOL     OW23197   0.276   7.010   0.528
 7433SOL    HW123198   0.233   0.063   0.584
 7433SOL    HW223199   0.284   6.926   0.582
 7434SOL     OW23200   4.500   6.994   0.554
 7434SOL    HW123201   4.589   6.954   0.575
 7434SOL    HW223202   4.428   6.927   0.572
 7435SOL     OW23203   0.917   4.618   6.897
 7435SOL    HW123204   0.985   4.684   6.865
 7435SOL    HW223205   0.908   4.626   6.997
 7436SOL     OW23206   5.082   3.696   6.992
 7436SOL    HW123207   5.161   3.702   6.931
 7436SOL    HW223208   5.052   3.600   6.998
 7437SOL     OW23209   6.552   6.810   5.500
 7437SOL    HW123210   6.613   6.737   5.531
 7437SOL    HW223211   6.604   6.895   5.488
 7438SOL     OW23212   6.768   4.518   0.719
 7438SOL    HW123213   6.679   4.524   0.764
 7438SOL    HW223214   6.789   4.423   0.699
 7439SOL     OW23215   1.439   6.291   3.048
 7439SOL    HW123216   1.454   6.376   2.998
 7439SOL    HW223217   1.403   6.312   3.139
 7440SOL     OW23218   1.490   0.906   4.475
 7440SOL    HW123219   1.577   0.857   4.462
 7440SOL    HW223220   1.428   0.850   4.529
 7441SOL     OW23221   0.208   0.631   4.161
 7441SOL    HW123222   0.146   0.580   4.220
 7441SOL    HW223223   0.186   0.615   4.065
 7442SOL     OW23224   1.987   1.275   0.452
 7442SOL    HW123225   1.966   1.296   0.548
 7442SOL    HW223226   2.003   1.177   0.442
 7443SOL     OW23227   6.369   1.629   1.669
 7443SOL    HW123228   6.420   1.714   1.662
 7443SOL    HW223229   6.433   1.552   1.679
 7444SOL     OW23230   2.042   3.276   5.089
 7444SOL    HW123231   2.030   3.319   5.000
 7444SOL    HW223232   1.999   3.334   5.159
 7445SOL     OW23233   5.429   2.989   2.875
 7445SOL    HW123234   5.525   2.991   2.902
 7445SOL    HW223235   5.373   3.028   2.948
 7446SOL     OW23236   4.665   4.326   2.672
 7446SOL    HW123237   4.637   4.391   2.601
 7446SOL    HW223238   4.743   4.363   2.722
 7447SOL     OW23239   1.415   2.926   6.588
 7447SOL    HW123240   1.373   2.851   6.537
 7447SOL    HW223241   1.344   2.986   6.625
 7448SOL     OW23242   0.253   1.030   5.477
 7448SOL    HW123243   0.295   0.949   5.436
 7448SOL    HW223244   0.307   1.060   5.556
 7449SOL     OW23245   3.092   1.010   2.929
 7449SOL    HW123246   3.021   1.075   2.900
 7449SOL    HW223247   3.082   0.925   2.877
 7450SOL     OW23248   4.013   2.011   2.236
 7450SOL    HW123249   4.070   1.968   2.166
 7450SOL    HW223250   3.925   2.037   2.195
 7451SOL     OW23251   0.810   0.677   1.996
 7451SOL    HW123252   0.803   0.617   1.916
 7451SOL    HW223253   0.724   0.673   2.047
 7452SOL     OW23254   1.556   5.788   2.934
 7452SOL    HW123255   1.589   5.855   3.001
 7452SOL    HW223256   1.630   5.766   2.871
 7453SOL     OW23257   6.425   4.715   4.565
 7453SOL    HW123258   6.467   4.624   4.568
 7453SOL    HW223259   6.463   4.772   4.638
 7454SOL     OW23260   2.645   2.146   7.010
 7454SOL    HW123261   2.697   2.120   0.073
 7454SOL    HW223262   2.549   2.160   0.015
 7455SOL     OW23263   5.018   0.085   1.057
 7455SOL    HW123264   5.116   0.079   1.075
 7455SOL    HW223265   4.968   0.061   1.140
 7456SOL     OW23266   1.543   3.428   6.493
 7456SOL    HW123267   1.611   3.486   6.537
 7456SOL    HW223268   1.507   3.475   6.412
 7457SOL     OW23269   0.195   6.774   5.826
 7457SOL    HW123270   0.224   6.849   5.884
 7457SOL    HW223271   0.231   6.688   5.862
 7458SOL     OW23272   3.044   0.383   1.872
 7458SOL    HW123273   3.006   0.474   1.894
 7458SOL    HW223274   3.070   0.380   1.776
 7459SOL     OW23275   4.164   5.859   3.385
 7459SOL    HW123276   4.243   5.823   3.336
 7459SOL    HW223277   4.130   5.789   3.448
 7460SOL     OW23278   1.069   5.197   6.374
 7460SOL    HW123279   1.074   5.234   6.466
 7460SOL    HW223280   1.091   5.099   6.376
 7461SOL     OW23281   3.747   1.526   3.975
 7461SOL    HW123282   3.780   1.601   3.918
 7461SOL    HW223283   3.823   1.465   3.997
 7462SOL     OW23284   1.447   2.069   4.256
 7462SOL    HW123285   1.511   2.124   4.204
 7462SOL    HW223286   1.496   2.016   4.325
 7463SOL     OW23287   3.861   4.044   2.617
 7463SOL    HW123288   3.924   4.118   2.638
 7463SOL    HW223289   3.869   4.019   2.521
 7464SOL     OW23290   4.825   5.886   0.236
 7464SOL    HW123291   4.848   5.951   0.164
 7464SOL    HW223292   4.796   5.936   0.318
 7465SOL     OW23293   2.921   1.364   2.775
 7465SOL    HW123294   2.964   1.454   2.784
 7465SOL    HW223295   2.828   1.376   2.742
 7466SOL     OW23296   6.953   6.521   0.781
 7466SOL    HW123297   6.968   6.443   0.722
 7466SOL    HW223298   6.944   6.604   0.725
 7467SOL     OW23299   4.378   2.552   1.057
 7467SOL    HW123300   4.448   2.511   0.999
 7467SOL    HW223301   4.375   2.504   1.145
 7468SOL     OW23302   4.779   4.726   4.391
 7468SOL    HW123303   4.736   4.671   4.321
 7468SOL    HW223304   4.748   4.696   4.481
 7469SOL     OW23305   5.207   1.996   1.034
 7469SOL    HW123306   5.268   1.918   1.042
 7469SOL    HW223307   5.230   2.048   0.951
 7470SOL     OW23308   0.814   3.691   3.416
 7470SOL    HW123309   0.848   3.761   3.354
 7470SOL    HW223310   0.810   3.603   3.369
 7471SOL     OW23311   6.733   4.273   5.557
 7471SOL    HW123312   6.695   4.264   5.465
 7471SOL    HW223313   6.791   4.193   5.577
 7472SOL     OW23314   4.830   5.818   2.708
 7472SOL    HW123315   4.846   5.865   2.795
 7472SOL    HW223316   4.768   5.741   2.723
 7473SOL     OW23317   1.492   2.013   6.303
 7473SOL    HW123318   1.456   2.072   6.230
 7473SOL    HW223319   1.518   2.069   6.382
 7474SOL     OW23320   2.850   1.282   2.238
 7474SOL    HW123321   2.836   1.194   2.192
 7474SOL    HW223322   2.849   1.355   2.170
 7475SOL     OW23323   5.235   1.073   6.318
 7475SOL    HW123324   5.305   1.003   6.324
 7475SOL    HW223325   5.190   1.082   6.407
 7476SOL     OW23326   1.640   6.490   4.600
 7476SOL    HW123327   1.564   6.437   4.638
 7476SOL    HW223328   1.688   6.435   4.532
 7477SOL     OW23329   4.571   4.442   4.841
 7477SOL    HW123330   4.506   4.456   4.915
 7477SOL    HW223331   4.651   4.501   4.855
 7478SOL     OW23332   0.243   4.603   1.131
 7478SOL    HW123333   0.170   4.661   1.167
 7478SOL    HW223334   0.224   4.581   1.036
 7479SOL     OW23335   3.620   0.043   4.772
 7479SOL    HW123336   3.581   6.974   4.741
 7479SOL    HW223337   3.640   0.038   4.870
 7480SOL     OW23338   5.794   5.046   6.840
 7480SOL    HW123339   5.759   4.953   6.833
 7480SOL    HW223340   5.838   5.072   6.754
 7481SOL     OW23341   5.770   6.224   0.706
 7481SOL    HW123342   5.867   6.243   0.698
 7481SOL    HW223343   5.730   6.214   0.615
 7482SOL     OW23344   4.770   0.559   5.141
 7482SOL    HW123345   4.763   0.460   5.152
 7482SOL    HW223346   4.844   0.580   5.076
 7483SOL     OW23347   3.853   0.128   6.975
 7483SOL    HW123348   3.939   0.155   6.933
 7483SOL    HW223349   3.869   0.053   0.021
 7484SOL     OW23350   3.004   6.396   1.072
 7484SOL    HW123351   3.074   6.382   1.002
 7484SOL    HW223352   3.019   6.483   1.118
 7485SOL     OW23353   1.147   0.146   5.497
 7485SOL    HW123354   1.061   0.197   5.491
 7485SOL    HW223355   1.186   0.137   5.406
 7486SOL     OW23356   1.543   2.246   5.056
 7486SOL    HW123357   1.573   2.276   4.965
 7486SOL    HW223358   1.478   2.313   5.092
 7487SOL     OW23359   2.592   5.790   2.293
 7487SOL    HW123360   2.668   5.733   2.325
 7487SOL    HW223361   2.508   5.762   2.339
 7488SOL     OW23362   4.441   2.143   4.726
 7488SOL    HW123363   4.541   2.137   4.735
 7488SOL    HW223364   4.409   2.227   4.770
 7489SOL     OW23365   1.071   3.409   3.494
 7489SOL    HW123366   1.003   3.366   3.553
 7489SOL    HW223367   1.089   3.502   3.526
 7490SOL     OW23368   5.581   0.604   2.316
 7490SOL    HW123369   5.576   0.532   2.247
 7490SOL    HW223370   5.626   0.568   2.398
 7491SOL     OW23371   0.604   0.161   1.021
 7491SOL    HW123372   0.539   0.228   1.057
 7491SOL    HW223373   0.618   0.088   1.088
 7492SOL     OW23374   1.358   2.427   2.972
 7492SOL    HW123375   1.392   2.337   3.002
 7492SOL    HW223376   1.394   2.448   2.881
 7493SOL     OW23377   5.817   4.423   6.935
 7493SOL    HW123378   5.721   4.395   6.936
 7493SOL    HW223379   5.867   4.371   7.004
 7494SOL     OW23380   4.842   2.081   1.330
 7494SOL    HW123381   4.779   2.159   1.323
 7494SOL    HW223382   4.864   2.064   1.426
 7495SOL     OW23383   1.608   1.568   3.622
 7495SOL    HW123384   1.524   1.554   3.675
 7495SOL    HW223385   1.588   1.628   3.545
 7496SOL     OW23386   0.329   5.113   6.156
 7496SOL    HW123387   0.331   5.198   6.209
 7496SOL    HW223388   0.377   5.041   6.207
 7497SOL     OW23389   0.288   4.336   3.020
 7497SOL    HW123390   0.301   4.408   2.952
 7497SOL    HW223391   0.285   4.247   2.975
 7498SOL     OW23392   5.096   1.911   4.102
 7498SOL    HW123393   5.024   1.956   4.048
 7498SOL    HW223394   5.067   1.905   4.197
 7499SOL     OW23395   3.695   5.227   3.414
 7499SOL    HW123396   3.604   5.263   3.433
 7499SOL    HW223397   3.718   5.158   3.482
 7500SOL     OW23398   4.846   3.867   1.720
 7500SOL    HW123399   4.893   3.818   1.647
 7500SOL    HW223400   4.869   3.964   1.716
 7501SOL     OW23401   1.156   4.092   3.518
 7501SOL    HW123402   1.250   4.124   3.534
 7501SOL    HW223403   1.154   4.034   3.437
 7502SOL     OW23404   1.273   1.821   4.573
 7502SOL    HW123405   1.179   1.788   4.571
 7502SOL    HW223406   1.331   1.756   4.622
 7503SOL     OW23407   2.175   2.014   0.311
 7503SOL    HW123408   2.168   2.019   0.411
 7503SOL    HW223409   2.093   2.054   0.270
 7504SOL     OW23410   5.529   5.771   5.660
 7504SOL    HW123411   5.518   5.690   5.717
 7504SOL    HW223412   5.625   5.780   5.633
 7505SOL     OW23413   1.491   1.553   2.965
 7505SOL    HW123414   1.479   1.652   2.962
 7505SOL    HW223415   1.406   1.510   2.994
 7506SOL     OW23416   3.803   0.639   3.046
 7506SOL    HW123417   3.884   0.678   3.089
 7506SOL    HW223418   3.730   0.631   3.114
 7507SOL     OW23419   1.793   6.931   5.466
 7507SOL    HW123420   1.786   7.010   5.406
 7507SOL    HW223421   1.771   6.958   5.560
 7508SOL     OW23422   4.970   6.230   3.083
 7508SOL    HW123423   5.059   6.186   3.081
 7508SOL    HW223424   4.943   6.257   2.991
 7509SOL     OW23425   3.033   4.528   6.232
 7509SOL    HW123426   3.062   4.452   6.289
 7509SOL    HW223427   3.049   4.614   6.280
 7510SOL     OW23428   4.005   3.112   4.843
 7510SOL    HW123429   4.014   3.158   4.755
 7510SOL    HW223430   4.095   3.104   4.886
 7511SOL     OW23431   1.303   1.113   2.405
 7511SOL    HW123432   1.374   1.086   2.470
 7511SOL    HW223433   1.344   1.132   2.316
 7512SOL     OW23434   2.073   2.419   2.413
 7512SOL    HW123435   2.061   2.473   2.496
 7512SOL    HW223436   2.034   2.468   2.335
 7513SOL     OW23437   2.248   2.663   7.000
 7513SOL    HW123438   2.344   2.648   6.976
 7513SOL    HW223439   2.242   2.711   0.068
 7514SOL     OW23440   3.152   5.130   2.939
 7514SOL    HW123441   3.242   5.121   2.895
 7514SOL    HW223442   3.155   5.204   3.006
 7515SOL     OW23443   6.928   4.906   3.230
 7515SOL    HW123444   7.012   4.959   3.222
 7515SOL    HW223445   6.893   4.914   3.324
 7516SOL     OW23446   1.950   3.546   1.334
 7516SOL    HW123447   2.047   3.570   1.342
 7516SOL    HW223448   1.906   3.557   1.423
 7517SOL     OW23449   1.362   4.831   2.108
 7517SOL    HW123450   1.427   4.798   2.039
 7517SOL    HW223451   1.412   4.876   2.182
 7518SOL     OW23452   5.196   3.883   2.350
 7518SOL    HW123453   5.202   3.788   2.316
 7518SOL    HW223454   5.276   3.903   2.406
 7519SOL     OW23455   1.892   0.703   4.836
 7519SOL    HW123456   1.849   0.770   4.898
 7519SOL    HW223457   1.837   0.620   4.835
 7520SOL     OW23458   2.045   0.200   4.496
 7520SOL    HW123459   1.963   0.252   4.471
 7520SOL    HW223460   2.019   0.109   4.528
 7521SOL     OW23461   4.055   2.623   5.845
 7521SOL    HW123462   4.048   2.700   5.908
 7521SOL    HW223463   4.012   2.543   5.886
 7522SOL     OW23464   1.846   6.455   2.540
 7522SOL    HW123465   1.930   6.494   2.502
 7522SOL    HW223466   1.856   6.356   2.549
 7523SOL     OW23467   6.408   6.563   6.268
 7523SOL    HW123468   6.316   6.549   6.307
 7523SOL    HW223469   6.465   6.484   6.289
 7524SOL     OW23470   6.404   1.657   5.664
 7524SOL    HW123471   6.502   1.650   5.687
 7524SOL    HW223472   6.371   1.567   5.635
 7525SOL     OW23473   6.973   6.720   0.588
 7525SOL    HW123474   0.040   6.676   0.559
 7525SOL    HW223475   6.991   6.814   0.617
 7526SOL     OW23476   3.965   3.171   5.470
 7526SOL    HW123477   3.925   3.233   5.403
 7526SOL    HW223478   3.925   3.080   5.459
 7527SOL     OW23479   2.576   6.610   1.522
 7527SOL    HW123480   2.666   6.578   1.551
 7527SOL    HW223481   2.571   6.607   1.422
 7528SOL     OW23482   6.460   2.740   6.971
 7528SOL    HW123483   6.406   2.732   6.887
 7528SOL    HW223484   6.427   2.818   0.007
 7529SOL     OW23485   1.654   0.038   4.123
 7529SOL    HW123486   1.567   0.081   4.096
 7529SOL    HW223487   1.730   0.091   4.084
 7530SOL     OW23488   0.336   2.878   2.775
 7530SOL    HW123489   0.386   2.947   2.826
 7530SOL    HW223490   0.345   2.789   2.821
 7531SOL     OW23491   1.597   2.365   3.871
 7531SOL    HW123492   1.508   2.332   3.840
 7531SOL    HW223493   1.608   2.344   3.968
 7532SOL     OW23494   4.667   4.359   2.217
 7532SOL    HW123495   4.711   4.296   2.282
 7532SOL    HW223496   4.615   4.306   2.150
 7533SOL     OW23497   3.358   6.983   5.353
 7533SOL    HW123498   3.399   0.014   5.276
 7533SOL    HW223499   3.268   6.948   5.327
 7534SOL     OW23500   4.389   6.226   4.295
 7534SOL    HW123501   4.299   6.254   4.262
 7534SOL    HW223502   4.449   6.305   4.298
 7535SOL     OW23503   3.094   5.271   6.825
 7535SOL    HW123504   3.015   5.251   6.883
 7535SOL    HW223505   3.073   5.246   6.731
 7536SOL     OW23506   4.286   5.126   6.582
 7536SOL    HW123507   4.320   5.215   6.613
 7536SOL    HW223508   4.271   5.129   6.483
 7537SOL     OW23509   2.408   4.382   4.719
 7537SOL    HW123510   2.373   4.288   4.713
 7537SOL    HW223511   2.427   4.416   4.627
 7538SOL     OW23512   3.360   4.208   5.375
 7538SOL    HW123513   3.418   4.269   5.321
 7538SOL    HW223514   3.286   4.173   5.318
 7539SOL     OW23515   0.800   2.946   4.928
 7539SOL    HW123516   0.809   2.943   4.828
 7539SOL    HW223517   0.734   3.017   4.954
 7540SOL     OW23518   2.600   0.917   0.316
 7540SOL    HW123519   2.534   0.863   0.369
 7540SOL    HW223520   2.603   1.010   0.351
 7541SOL     OW23521   0.364   1.661   5.916
 7541SOL    HW123522   0.346   1.728   5.844
 7541SOL    HW223523   0.425   1.590   5.881
 7542SOL     OW23524   1.748   0.489   4.847
 7542SOL    HW123525   1.748   0.474   4.946
 7542SOL    HW223526   1.805   0.418   4.804
 7543SOL     OW23527   2.645   2.505   1.848
 7543SOL    HW123528   2.588   2.494   1.930
 7543SOL    HW223529   2.739   2.480   1.870
 7544SOL     OW23530   1.477   2.155   2.154
 7544SOL    HW123531   1.384   2.124   2.172
 7544SOL    HW223532   1.513   2.199   2.237
 7545SOL     OW23533   4.049   0.380   3.795
 7545SOL    HW123534   4.049   0.345   3.701
 7545SOL    HW223535   4.076   0.307   3.857
 7546SOL     OW23536   4.968   6.983   5.051
 7546SOL    HW123537   5.002   6.918   4.983
 7546SOL    HW223538   4.870   6.998   5.037
 7547SOL     OW23539   2.775   6.450   0.491
 7547SOL    HW123540   2.807   6.489   0.578
 7547SOL    HW223541   2.849   6.453   0.424
 7548SOL     OW23542   2.541   3.774   0.814
 7548SOL    HW123543   2.627   3.800   0.858
 7548SOL    HW223544   2.524   3.677   0.831
 7549SOL     OW23545   6.007   0.161   2.614
 7549SOL    HW123546   6.066   0.232   2.575
 7549SOL    HW223547   6.029   0.150   2.711
 7550SOL     OW23548   1.125   5.557   0.364
 7550SOL    HW123549   1.046   5.555   0.303
 7550SOL    HW223550   1.209   5.556   0.309
 7551SOL     OW23551   5.092   3.878   6.040
 7551SOL    HW123552   5.184   3.892   6.004
 7551SOL    HW223553   5.047   3.805   5.988
 7552SOL     OW23554   3.693   5.978   4.094
 7552SOL    HW123555   3.772   5.969   4.033
 7552SOL    HW223556   3.616   5.927   4.056
 7553SOL     OW23557   4.305   4.078   6.036
 7553SOL    HW123558   4.261   4.004   5.984
 7553SOL    HW223559   4.403   4.058   6.044
 7554SOL     OW23560   6.910   1.556   0.619
 7554SOL    HW123561   6.827   1.599   0.655
 7554SOL    HW223562   6.984   1.569   0.685
 7555SOL     OW23563   1.971   6.498   6.305
 7555SOL    HW123564   2.035   6.445   6.360
 7555SOL    HW223565   2.021   6.548   6.234
 7556SOL     OW23566   0.023   3.272   2.365
 7556SOL    HW123567   0.066   3.261   2.454
 7556SOL    HW223568   0.006   3.182   2.324
 7557SOL     OW23569   4.483   4.326   0.795
 7557SOL    HW123570   4.406   4.290   0.742
 7557SOL    HW223571   4.561   4.265   0.786
 7558SOL     OW23572   1.497   3.360   3.984
 7558SOL    HW123573   1.597   3.362   3.994
 7558SOL    HW223574   1.459   3.449   4.009
 7559SOL     OW23575   0.808   5.086   0.190
 7559SOL    HW123576   0.804   5.146   0.269
 7559SOL    HW223577   0.833   5.140   0.109
 7560SOL     OW23578   4.067   6.722   6.049
 7560SOL    HW123579   4.078   6.821   6.037
 7560SOL    HW223580   3.980   6.705   6.096
 7561SOL     OW23581   1.529   2.908   0.144
 7561SOL    HW123582   1.430   2.916   0.151
 7561SOL    HW223583   1.552   2.820   0.103
 7562SOL     OW23584   4.474   6.555   4.829
 7562SOL    HW123585   4.405   6.524   4.895
 7562SOL    HW223586   4.432   6.618   4.764
 7563SOL     OW23587   2.054   1.734   4.047
 7563SOL    HW123588   2.071   1.740   4.146
 7563SOL    HW223589   2.116   1.796   3.999
 7564SOL     OW23590   6.109   5.735   4.376
 7564SOL    HW123591   6.192   5.776   4.337
 7564SOL    HW223592   6.038   5.805   4.384
 7565SOL     OW23593   5.193   4.951   6.233
 7565SOL    HW123594   5.270   4.890   6.252
 7565SOL    HW223595   5.111   4.917   6.279
 7566SOL     OW23596   1.810   5.215   3.901
 7566SOL    HW123597   1.846   5.218   3.995
 7566SOL    HW223598   1.868   5.270   3.842
 7567SOL     OW23599   3.183   3.846   0.263
 7567SOL    HW123600   3.139   3.915   0.206
 7567SOL    HW223601   3.197   3.882   0.355
 7568SOL     OW23602   4.207   4.782   3.971
 7568SOL    HW123603   4.282   4.787   3.905
 7568SOL    HW223604   4.245   4.759   4.061
 7569SOL     OW23605   3.874   0.125   3.010
 7569SOL    HW123606   3.851   0.218   2.982
 7569SOL    HW223607   3.838   0.061   2.942
 7570SOL     OW23608   5.604   5.154   5.036
 7570SOL    HW123609   5.591   5.092   4.959
 7570SOL    HW223610   5.541   5.130   5.109
 7571SOL     OW23611   6.671   4.425   0.129
 7571SOL    HW123612   6.617   4.353   0.085
 7571SOL    HW223613   6.741   4.457   0.065
 7572SOL     OW23614   6.015   1.472   3.599
 7572SOL    HW123615   5.979   1.495   3.690
 7572SOL    HW223616   6.030   1.556   3.547
 7573SOL     OW23617   3.060   5.078   4.046
 7573SOL    HW123618   3.009   5.060   4.130
 7573SOL    HW223619   3.033   5.167   4.009
 7574SOL     OW23620   4.106   6.043   1.494
 7574SOL    HW123621   4.015   6.078   1.516
 7574SOL    HW223622   4.108   5.944   1.509
 7575SOL     OW23623   4.921   3.434   4.091
 7575SOL    HW123624   4.892   3.417   3.997
 7575SOL    HW223625   4.886   3.361   4.150
 7576SOL     OW23626   0.204   4.645   1.504
 7576SOL    HW123627   0.153   4.653   1.418
 7576SOL    HW223628   0.171   4.565   1.554
 7577SOL     OW23629   4.022   1.568   4.085
 7577SOL    HW123630   4.069   1.644   4.041
 7577SOL    HW223631   4.088   1.513   4.137
 7578SOL     OW23632   2.308   5.481   5.539
 7578SOL    HW123633   2.209   5.486   5.527
 7578SOL    HW223634   2.353   5.504   5.453
 7579SOL     OW23635   4.435   2.106   4.426
 7579SOL    HW123636   4.524   2.130   4.385
 7579SOL    HW223637   4.438   2.124   4.524
 7580SOL     OW23638   1.761   3.431   2.107
 7580SOL    HW123639   1.767   3.506   2.172
 7580SOL    HW223640   1.736   3.347   2.156
 7581SOL     OW23641   5.710   1.085   1.230
 7581SOL    HW123642   5.615   1.083   1.199
 7581SOL    HW223643   5.730   1.175   1.268
 7582SOL     OW23644   4.181   2.882   1.447
 7582SOL    HW123645   4.174   2.804   1.385
 7582SOL    HW223646   4.125   2.958   1.413
 7583SOL     OW23647   6.190   3.935   3.557
 7583SOL    HW123648   6.161   3.982   3.641
 7583SOL    HW223649   6.275   3.976   3.523
 7584SOL     OW23650   2.032   2.579   2.167
 7584SOL    HW123651   2.108   2.640   2.145
 7584SOL    HW223652   2.019   2.513   2.093
 7585SOL     OW23653   2.839   4.081   0.748
 7585SOL    HW123654   2.866   4.029   0.667
 7585SOL    HW223655   2.752   4.127   0.731
 7586SOL     OW23656   1.588   2.643   3.216
 7586SOL    HW123657   1.644   2.566   3.249
 7586SOL    HW223658   1.492   2.616   3.214
 7587SOL     OW23659   2.993   0.698   5.686
 7587SOL    HW123660   3.006   0.604   5.718
 7587SOL    HW223661   2.957   0.754   5.761
 7588SOL     OW23662   0.405   4.844   1.190
 7588SOL    HW123663   0.419   4.826   1.287
 7588SOL    HW223664   0.320   4.800   1.160
 7589SOL     OW23665   4.746   5.655   5.906
 7589SOL    HW123666   4.666   5.612   5.865
 7589SOL    HW223667   4.725   5.751   5.928
 7590SOL     OW23668   2.401   0.775   5.009
 7590SOL    HW123669   2.429   0.768   4.913
 7590SOL    HW223670   2.466   0.833   5.058
 7591SOL     OW23671   6.344   5.470   6.294
 7591SOL    HW123672   6.437   5.437   6.278
 7591SOL    HW223673   6.343   5.529   6.375
 7592SOL     OW23674   4.494   4.746   5.879
 7592SOL    HW123675   4.473   4.656   5.841
 7592SOL    HW223676   4.537   4.802   5.808
 7593SOL     OW23677   6.616   4.881   0.080
 7593SOL    HW123678   6.639   4.842   0.169
 7593SOL    HW223679   6.525   4.850   0.052
 7594SOL     OW23680   1.063   0.023   4.525
 7594SOL    HW123681   1.043   0.068   4.437
 7594SOL    HW223682   1.136   6.975   4.512
 7595SOL     OW23683   0.282   3.730   6.532
 7595SOL    HW123684   0.269   3.640   6.491
 7595SOL    HW223685   0.380   3.751   6.536
 7596SOL     OW23686   5.368   5.223   2.186
 7596SOL    HW123687   5.461   5.248   2.213
 7596SOL    HW223688   5.309   5.223   2.267
 7597SOL     OW23689   2.266   4.091   2.378
 7597SOL    HW123690   2.292   4.177   2.335
 7597SOL    HW223691   2.292   4.015   2.318
 7598SOL     OW23692   6.829   1.459   2.778
 7598SOL    HW123693   6.835   1.443   2.680
 7598SOL    HW223694   6.796   1.552   2.795
 7599SOL     OW23695   5.467   4.006   1.999
 7599SOL    HW123696   5.439   4.033   2.091
 7599SOL    HW223697   5.437   4.076   1.934
 7600SOL     OW23698   2.410   2.239   2.648
 7600SOL    HW123699   2.384   2.298   2.571
 7600SOL    HW223700   2.413   2.144   2.618
 7601SOL     OW23701   1.891   0.883   5.488
 7601SOL    HW123702   1.906   0.815   5.560
 7601SOL    HW223703   1.887   0.837   5.400
 7602SOL     OW23704   2.147   3.192   5.597
 7602SOL    HW123705   2.071   3.182   5.532
 7602SOL    HW223706   2.160   3.289   5.618
 7603SOL     OW23707   6.714   1.557   2.257
 7603SOL    HW123708   6.637   1.498   2.234
 7603SOL    HW223709   6.707   1.643   2.205
 7604SOL     OW23710   5.713   5.662   6.504
 7604SOL    HW123711   5.662   5.690   6.585
 7604SOL    HW223712   5.807   5.697   6.509
 7605SOL     OW23713   5.301   3.793   5.388
 7605SOL    HW123714   5.255   3.781   5.476
 7605SOL    HW223715   5.395   3.823   5.404
 7606SOL     OW23716   5.714   1.283   3.789
 7606SOL    HW123717   5.616   1.305   3.784
 7606SOL    HW223718   5.765   1.364   3.818
 7607SOL     OW23719   5.040   6.231   5.961
 7607SOL    HW123720   5.105   6.161   5.933
 7607SOL    HW223721   5.058   6.315   5.910
 7608SOL     OW23722   3.720   3.554   4.916
 7608SOL    HW123723   3.688   3.504   4.835
 7608SOL    HW223724   3.748   3.647   4.889
 7609SOL     OW23725   1.202   2.800   3.116
 7609SOL    HW123726   1.239   2.729   3.176
 7609SOL    HW223727   1.186   2.762   3.025
 7610SOL     OW23728   5.667   0.164   2.477
 7610SOL    HW123729   5.692   0.182   2.382
 7610SOL    HW223730   5.727   0.216   2.538
 7611SOL     OW23731   1.297   1.433   1.837
 7611SOL    HW123732   1.320   1.445   1.934
 7611SOL    HW223733   1.227   1.362   1.828
 7612SOL     OW23734   4.127   1.356   2.703
 7612SOL    HW123735   4.051   1.420   2.697
 7612SOL    HW223736   4.107   1.275   2.646
 7613SOL     OW23737   6.614   0.802   2.164
 7613SOL    HW123738   6.636   0.726   2.102
 7613SOL    HW223739   6.643   0.779   2.256
 7614SOL     OW23740   4.294   0.670   0.533
 7614SOL    HW123741   4.251   0.726   0.462
 7614SOL    HW223742   4.322   0.728   0.609
 7615SOL     OW23743   4.103   4.476   5.828
 7615SOL    HW123744   4.102   4.553   5.891
 7615SOL    HW223745   4.156   4.401   5.867
 7616SOL     OW23746   7.014   6.035   3.632
 7616SOL    HW123747   0.075   5.978   3.614
 7616SOL    HW223748   6.976   6.013   3.722
 7617SOL     OW23749   4.085   5.286   3.020
 7617SOL    HW123750   4.156   5.330   2.964
 7617SOL    HW223751   3.995   5.324   2.996
 7618SOL     OW23752   3.209   1.689   0.396
 7618SOL    HW123753   3.194   1.725   0.488
 7618SOL    HW223754   3.127   1.640   0.366
 7619SOL     OW23755   5.590   3.496   6.029
 7619SOL    HW123756   5.600   3.397   6.029
 7619SOL    HW223757   5.542   3.525   5.946
 7620SOL     OW23758   2.627   5.623   1.709
 7620SOL    HW123759   2.604   5.586   1.799
 7620SOL    HW223760   2.571   5.579   1.639
 7621SOL     OW23761   2.726   3.004   1.346
 7621SOL    HW123762   2.797   3.015   1.277
 7621SOL    HW223763   2.658   2.938   1.315
 7622SOL     OW23764   5.167   2.238   0.784
 7622SOL    HW123765   5.096   2.216   0.717
 7622SOL    HW223766   5.225   2.311   0.749
 7623SOL     OW23767   6.970   6.962   4.738
 7623SOL    HW123768   6.871   6.965   4.724
 7623SOL    HW223769   6.991   6.977   4.834
 7624SOL     OW23770   6.823   1.569   4.776
 7624SOL    HW123771   6.730   1.532   4.774
 7624SOL    HW223772   6.839   1.611   4.865
 7625SOL     OW23773   2.226   4.649   0.335
 7625SOL    HW123774   2.275   4.632   0.420
 7625SOL    HW223775   2.270   4.724   0.286
 7626SOL     OW23776   2.614   3.932   5.302
 7626SOL    HW123777   2.641   3.839   5.278
 7626SOL    HW223778   2.536   3.959   5.246
 7627SOL     OW23779   6.882   0.431   0.205
 7627SOL    HW123780   6.819   0.356   0.185
 7627SOL    HW223781   6.960   0.427   0.143
 7628SOL     OW23782   4.353   1.586   0.240
 7628SOL    HW123783   4.254   1.597   0.232
 7628SOL    HW223784   4.388   1.650   0.307
 7629SOL     OW23785   6.301   5.543   2.652
 7629SOL    HW123786   6.329   5.614   2.717
 7629SOL    HW223787   6.305   5.453   2.696
 7630SOL     OW23788   5.623   1.433   1.999
 7630SOL    HW123789   5.534   1.395   1.974
 7630SOL    HW223790   5.660   1.486   1.922
 7631SOL     OW23791   1.040   0.087   4.206
 7631SOL    HW123792   1.059   0.185   4.211
 7631SOL    HW223793   1.113   0.041   4.156
 7632SOL     OW23794   4.572   0.693   4.621
 7632SOL    HW123795   4.611   0.693   4.714
 7632SOL    HW223796   4.558   0.787   4.591
 7633SOL     OW23797   5.902   3.380   6.116
 7633SOL    HW123798   5.901   3.336   6.026
 7633SOL    HW223799   5.855   3.322   6.182
 7634SOL     OW23800   1.243   2.396   1.721
 7634SOL    HW123801   1.174   2.346   1.775
 7634SOL    HW223802   1.302   2.330   1.673
 7635SOL     OW23803   1.957   4.804   5.601
 7635SOL    HW123804   1.921   4.724   5.650
 7635SOL    HW223805   1.888   4.877   5.603
 7636SOL     OW23806   0.845   1.316   3.388
 7636SOL    HW123807   0.943   1.307   3.406
 7636SOL    HW223808   0.817   1.411   3.404
 7637SOL     OW23809   2.853   6.060   4.214
 7637SOL    HW123810   2.789   6.056   4.291
 7637SOL    HW223811   2.944   6.034   4.245
 7638SOL     OW23812   4.781   4.852   1.963
 7638SOL    HW123813   4.749   4.914   2.035
 7638SOL    HW223814   4.842   4.784   2.002
 7639SOL     OW23815   0.908   2.266   4.543
 7639SOL    HW123816   0.951   2.357   4.545
 7639SOL    HW223817   0.966   2.201   4.592
 7640SOL     OW23818   1.982   2.810   6.110
 7640SOL    HW123819   2.009   2.768   6.024
 7640SOL    HW223820   1.988   2.910   6.102
 7641SOL     OW23821   5.655   3.283   1.896
 7641SOL    HW123822   5.620   3.189   1.899
 7641SOL    HW223823   5.679   3.306   1.802
 7642SOL     OW23824   1.053   2.506   2.674
 7642SOL    HW123825   0.962   2.542   2.655
 7642SOL    HW223826   1.097   2.562   2.744
 7643SOL     OW23827   5.412   3.849   3.667
 7643SOL    HW123828   5.458   3.794   3.737
 7643SOL    HW223829   5.334   3.799   3.632
 7644SOL     OW23830   6.165   2.499   3.389
 7644SOL    HW123831   6.192   2.428   3.324
 7644SOL    HW223832   6.100   2.561   3.345
 7645SOL     OW23833   4.197   3.042   0.802
 7645SOL    HW123834   4.267   3.061   0.869
 7645SOL    HW223835   4.210   3.101   0.722
 7646SOL     OW23836   0.870   0.474   2.287
 7646SOL    HW123837   0.935   0.538   2.246
 7646SOL    HW223838   0.919   0.392   2.317
 7647SOL     OW23839   2.569   4.170   6.870
 7647SOL    HW123840   2.651   4.223   6.849
 7647SOL    HW223841   2.515   4.217   6.940
 7648SOL     OW23842   2.334   0.577   3.650
 7648SOL    HW123843   2.387   0.499   3.619
 7648SOL    HW223844   2.395   0.646   3.689
 7649SOL     OW23845   3.676   2.106   1.064
 7649SOL    HW123846   3.714   2.019   1.033
 7649SOL    HW223847   3.724   2.136   1.147
 7650SOL     OW23848   0.062   4.831   0.563
 7650SOL    HW123849   0.060   4.800   0.658
 7650SOL    HW223850   0.144   4.886   0.547
 7651SOL     OW23851   5.600   2.035   5.812
 7651SOL    HW123852   5.525   2.013   5.874
 7651SOL    HW223853   5.563   2.067   5.725
 7652SOL     OW23854   0.609   3.075   2.348
 7652SOL    HW123855   0.547   3.066   2.426
 7652SOL    HW223856   0.663   2.991   2.338
 7653SOL     OW23857   4.729   2.478   1.625
 7653SOL    HW123858   4.753   2.564   1.580
 7653SOL    HW223859   4.670   2.424   1.565
 7654SOL     OW23860   5.517   3.959   5.327
 7654SOL    HW123861   5.458   4.027   5.371
 7654SOL    HW223862   5.492   3.951   5.230
 7655SOL     OW23863   5.026   4.834   6.415
 7655SOL    HW123864   4.932   4.803   6.406
 7655SOL    HW223865   5.075   4.775   6.480
 7656SOL     OW23866   0.096   0.759   5.242
 7656SOL    HW123867   0.065   0.664   5.240
 7656SOL    HW223868   0.184   0.764   5.288
 7657SOL     OW23869   3.606   2.008   3.607
 7657SOL    HW123870   3.670   2.005   3.531
 7657SOL    HW223871   3.514   1.990   3.574
 7658SOL     OW23872   4.242   0.986   5.793
 7658SOL    HW123873   4.204   1.007   5.703
 7658SOL    HW223874   4.174   1.006   5.864
 7659SOL     OW23875   5.224   6.194   6.187
 7659SOL    HW123876   5.268   6.106   6.170
 7659SOL    HW223877   5.125   6.183   6.183
 7660SOL     OW23878   5.423   5.190   3.587
 7660SOL    HW123879   5.483   5.251   3.535
 7660SOL    HW223880   5.365   5.244   3.648
 7661SOL     OW23881   5.859   3.242   3.574
 7661SOL    HW123882   5.773   3.247   3.626
 7661SOL    HW223883   5.936   3.264   3.633
 7662SOL     OW23884   6.190   5.668   3.353
 7662SOL    HW123885   6.223   5.586   3.401
 7662SOL    HW223886   6.097   5.689   3.383
 7663SOL     OW23887   0.953   6.525   6.625
 7663SOL    HW123888   1.048   6.504   6.646
 7663SOL    HW223889   0.939   6.624   6.627
 7664SOL     OW23890   4.445   5.140   4.723
 7664SOL    HW123891   4.422   5.142   4.626
 7664SOL    HW223892   4.522   5.078   4.738
 7665SOL     OW23893   2.206   5.446   3.447
 7665SOL    HW123894   2.136   5.515   3.462
 7665SOL    HW223895   2.249   5.423   3.535
 7666SOL     OW23896   2.119   0.269   2.547
 7666SOL    HW123897   2.206   0.219   2.551
 7666SOL    HW223898   2.128   0.355   2.598
 7667SOL     OW23899   5.366   6.937   5.692
 7667SOL    HW123900   5.457   6.958   5.728
 7667SOL    HW223901   5.335   7.013   5.635
 7668SOL     OW23902   3.168   2.984   2.730
 7668SOL    HW123903   3.105   2.964   2.655
 7668SOL    HW223904   3.262   2.978   2.697
 7669SOL     OW23905   4.823   6.687   5.039
 7669SOL    HW123906   4.913   6.651   5.064
 7669SOL    HW223907   4.783   6.630   4.967
 7670SOL     OW23908   1.392   6.043   1.441
 7670SOL    HW123909   1.431   6.007   1.356
 7670SOL    HW223910   1.297   6.013   1.449
 7671SOL     OW23911   4.493   2.551   4.869
 7671SOL    HW123912   4.425   2.624   4.874
 7671SOL    HW223913   4.467   2.475   4.929
 7672SOL     OW23914   5.593   6.790   2.094
 7672SOL    HW123915   5.532   6.765   2.169
 7672SOL    HW223916   5.687   6.795   2.127
 7673SOL     OW23917   1.953   3.777   0.157
 7673SOL    HW123918   1.960   3.877   0.155
 7673SOL    HW223919   1.857   3.751   0.174
 7674SOL     OW23920   6.263   1.202   5.454
 7674SOL    HW123921   6.188   1.256   5.415
 7674SOL    HW223922   6.253   1.196   5.553
 7675SOL     OW23923   5.495   0.232   3.261
 7675SOL    HW123924   5.463   0.324   3.235
 7675SOL    HW223925   5.420   0.167   3.248
 7676SOL     OW23926   2.362   0.104   1.196
 7676SOL    HW123927   2.269   0.105   1.234
 7676SOL    HW223928   2.376   0.185   1.139
 7677SOL     OW23929   1.785   2.614   2.450
 7677SOL    HW123930   1.741   2.703   2.462
 7677SOL    HW223931   1.774   2.560   2.533
 7678SOL     OW23932   4.726   6.714   5.606
 7678SOL    HW123933   4.794   6.781   5.578
 7678SOL    HW223934   4.739   6.629   5.556
 7679SOL     OW23935   1.804   4.929   4.811
 7679SOL    HW123936   1.706   4.921   4.796
 7679SOL    HW223937   1.846   4.839   4.803
 7680SOL     OW23938   4.261   0.432   0.722
 7680SOL    HW123939   4.234   0.371   0.648
 7680SOL    HW223940   4.355   0.463   0.708
 7681SOL     OW23941   4.181   2.007   5.591
 7681SOL    HW123942   4.279   2.026   5.602
 7681SOL    HW223943   4.158   2.003   5.494
 7682SOL     OW23944   3.025   0.944   7.010
 7682SOL    HW123945   3.119   0.937   0.025
 7682SOL    HW223946   3.010   0.875   6.938
 7683SOL     OW23947   6.938   3.190   3.065
 7683SOL    HW123948   6.910   3.214   2.972
 7683SOL    HW223949   6.857   3.190   3.124
 7684SOL     OW23950   3.985   1.797   6.022
 7684SOL    HW123951   3.966   1.850   5.939
 7684SOL    HW223952   3.982   1.700   6.000
 7685SOL     OW23953   4.350   4.787   1.370
 7685SOL    HW123954   4.346   4.838   1.283
 7685SOL    HW223955   4.422   4.718   1.365
 7686SOL     OW23956   1.992   0.635   2.237
 7686SOL    HW123957   1.980   0.732   2.260
 7686SOL    HW223958   1.953   0.618   2.147
 7687SOL     OW23959   4.862   4.292   5.371
 7687SOL    HW123960   4.868   4.366   5.438
 7687SOL    HW223961   4.767   4.263   5.362
 7688SOL     OW23962   6.613   0.983   3.520
 7688SOL    HW123963   6.607   1.083   3.518
 7688SOL    HW223964   6.620   0.952   3.615
 7689SOL     OW23965   3.140   6.916   5.203
 7689SOL    HW123966   3.076   6.842   5.224
 7689SOL    HW223967   3.198   6.888   5.127
 7690SOL     OW23968   0.973   5.516   3.025
 7690SOL    HW123969   1.019   5.521   3.114
 7690SOL    HW223970   1.012   5.585   2.963
 7691SOL     OW23971   6.569   3.530   5.439
 7691SOL    HW123972   6.495   3.499   5.379
 7691SOL    HW223973   6.535   3.542   5.532
 7692SOL     OW23974   1.383   6.275   1.275
 7692SOL    HW123975   1.383   6.193   1.331
 7692SOL    HW223976   1.411   6.252   1.181
 7693SOL     OW23977   4.582   0.978   0.607
 7693SOL    HW123978   4.493   0.950   0.642
 7693SOL    HW223979   4.649   0.906   0.626
 7694SOL     OW23980   5.679   5.331   3.972
 7694SOL    HW123981   5.584   5.346   3.946
 7694SOL    HW223982   5.693   5.234   3.994
 7695SOL     OW23983   4.962   0.087   6.392
 7695SOL    HW123984   5.011   0.073   6.306
 7695SOL    HW223985   4.874   0.039   6.389
 7696SOL     OW23986   1.105   4.108   5.188
 7696SOL    HW123987   1.186   4.143   5.141
 7696SOL    HW223988   1.127   4.089   5.283
 7697SOL     OW23989   4.355   0.573   2.466
 7697SOL    HW123990   4.328   0.598   2.559
 7697SOL    HW223991   4.450   0.599   2.451
 7698SOL     OW23992   0.377   1.767   6.505
 7698SOL    HW123993   0.355   1.795   6.411
 7698SOL    HW223994   0.471   1.735   6.509
 7699SOL     OW23995   3.389   3.274   1.513
 7699SOL    HW123996   3.404   3.216   1.433
 7699SOL    HW223997   3.325   3.347   1.490
 7700SOL     OW23998   5.211   0.776   5.074
 7700SOL    HW123999   5.221   0.734   4.983
 7700SOL    HW224000   5.198   0.874   5.064
 7701SOL     OW24001   6.349   2.374   4.965
 7701SOL    HW124002   6.286   2.441   4.926
 7701SOL    HW224003   6.428   2.363   4.905
 7702SOL     OW24004   1.403   6.505   6.896
 7702SOL    HW124005   1.437   6.597   6.918
 7702SOL    HW224006   1.344   6.511   6.816
 7703SOL     OW24007   0.759   2.377   6.925
 7703SOL    HW124008   0.843   2.353   6.972
 7703SOL    HW224009   0.766   2.353   6.828
 7704SOL     OW24010   3.788   4.088   1.558
 7704SOL    HW124011   3.867   4.146   1.537
 7704SOL    HW224012   3.785   4.069   1.656
 7705SOL     OW24013   4.063   3.739   4.638
 7705SOL    HW124014   4.051   3.679   4.717
 7705SOL    HW224015   4.034   3.832   4.661
 7706SOL     OW24016   5.675   1.369   5.639
 7706SOL    HW124017   5.600   1.408   5.586
 7706SOL    HW224018   5.654   1.273   5.661
 7707SOL     OW24019   6.987   4.740   6.413
 7707SOL    HW124020   6.902   4.693   6.391
 7707SOL    HW224021   0.042   4.706   6.355
 7708SOL     OW24022   4.269   1.464   4.991
 7708SOL    HW124023   4.321   1.547   5.012
 7708SOL    HW224024   4.287   1.394   5.060
 7709SOL     OW24025   3.651   2.583   1.244
 7709SOL    HW124026   3.629   2.519   1.171
 7709SOL    HW224027   3.601   2.669   1.229
 7710SOL     OW24028   3.634   1.812   6.617
 7710SOL    HW124029   3.591   1.902   6.606
 7710SOL    HW224030   3.649   1.794   6.714
 7711SOL     OW24031   4.718   6.484   4.829
 7711SOL    HW124032   4.749   6.484   4.734
 7711SOL    HW224033   4.621   6.510   4.832
 7712SOL     OW24034   6.345   4.345   5.998
 7712SOL    HW124035   6.360   4.279   6.071
 7712SOL    HW224036   6.431   4.358   5.947
 7713SOL     OW24037   0.388   5.015   6.453
 7713SOL    HW124038   0.454   5.081   6.488
 7713SOL    HW224039   0.301   5.028   6.499
 7714SOL     OW24040   5.489   4.942   4.874
 7714SOL    HW124041   5.504   4.869   4.941
 7714SOL    HW224042   5.391   4.958   4.864
 7715SOL     OW24043   3.783   2.155   1.530
 7715SOL    HW124044   3.768   2.113   1.619
 7715SOL    HW224045   3.712   2.223   1.512
 7716SOL     OW24046   3.887   2.123   4.557
 7716SOL    HW124047   3.807   2.178   4.534
 7716SOL    HW224048   3.867   2.026   4.542
 7717SOL     OW24049   2.850   6.603   0.125
 7717SOL    HW124050   2.890   6.573   0.212
 7717SOL    HW224051   2.921   6.642   0.067
 7718SOL     OW24052   1.529   6.235   3.331
 7718SOL    HW124053   1.611   6.178   3.323
 7718SOL    HW224054   1.474   6.203   3.408
 7719SOL     OW24055   5.462   2.477   5.604
 7719SOL    HW124056   5.552   2.520   5.614
 7719SOL    HW224057   5.432   2.485   5.509
 7720SOL     OW24058   4.948   6.473   1.608
 7720SOL    HW124059   4.949   6.500   1.705
 7720SOL    HW224060   4.905   6.384   1.599
 7721SOL     OW24061   0.746   5.145   3.026
 7721SOL    HW124062   0.663   5.137   2.971
 7721SOL    HW224063   0.778   5.054   3.052
 7722SOL     OW24064   0.507   5.702   3.746
 7722SOL    HW124065   0.558   5.632   3.796
 7722SOL    HW224066   0.451   5.755   3.810
 7723SOL     OW24067   7.012   1.936   6.112
 7723SOL    HW124068   0.027   1.937   6.206
 7723SOL    HW224069   0.071   1.945   6.050
 7724SOL     OW24070   2.679   6.068   6.588
 7724SOL    HW124071   2.628   6.024   6.662
 7724SOL    HW224072   2.651   6.164   6.580
 7725SOL     OW24073   5.150   4.147   3.387
 7725SOL    HW124074   5.244   4.119   3.410
 7725SOL    HW224075   5.141   4.245   3.398
 7726SOL     OW24076   5.240   5.613   3.659
 7726SOL    HW124077   5.179   5.616   3.738
 7726SOL    HW224078   5.189   5.581   3.579
 7727SOL     OW24079   6.011   3.682   2.118
 7727SOL    HW124080   6.026   3.585   2.097
 7727SOL    HW224081   5.935   3.690   2.183
 7728SOL     OW24082   2.112   3.128   3.049
 7728SOL    HW124083   2.033   3.088   3.095
 7728SOL    HW224084   2.167   3.056   3.007
 7729SOL     OW24085   5.455   1.682   6.132
 7729SOL    HW124086   5.536   1.742   6.131
 7729SOL    HW224087   5.484   1.587   6.124
 7730SOL     OW24088   4.385   6.196   2.825
 7730SOL    HW124089   4.325   6.275   2.811
 7730SOL    HW224090   4.397   6.179   2.923
 7731SOL     OW24091   6.045   1.608   3.950
 7731SOL    HW124092   6.079   1.650   3.866
 7731SOL    HW224093   6.056   1.672   4.026
 7732SOL     OW24094   4.461   4.694   1.092
 7732SOL    HW124095   4.374   4.742   1.078
 7732SOL    HW224096   4.453   4.601   1.058
 7733SOL     OW24097   3.525   5.671   1.213
 7733SOL    HW124098   3.621   5.667   1.242
 7733SOL    HW224099   3.467   5.682   1.294
 7734SOL     OW24100   1.438   3.043   1.864
 7734SOL    HW124101   1.452   3.061   1.961
 7734SOL    HW224102   1.486   3.112   1.810
 7735SOL     OW24103   5.806   4.211   0.489
 7735SOL    HW124104   5.784   4.114   0.503
 7735SOL    HW224105   5.725   4.266   0.508
 7736SOL     OW24106   5.773   4.493   6.431
 7736SOL    HW124107   5.819   4.440   6.503
 7736SOL    HW224108   5.694   4.441   6.398
 7737SOL     OW24109   5.086   2.752   0.333
 7737SOL    HW124110   5.044   2.661   0.334
 7737SOL    HW224111   5.158   2.756   0.402
 7738SOL     OW24112   1.983   4.900   6.458
 7738SOL    HW124113   1.961   4.851   6.374
 7738SOL    HW224114   1.902   4.949   6.491
 7739SOL     OW24115   5.907   4.099   1.841
 7739SOL    HW124116   5.829   4.089   1.779
 7739SOL    HW224117   5.918   4.014   1.893
 7740SOL     OW24118   6.785   5.977   3.494
 7740SOL    HW124119   6.814   5.903   3.435
 7740SOL    HW224120   6.863   6.012   3.546
 7741SOL     OW24121   3.150   5.177   3.657
 7741SOL    HW124122   3.101   5.220   3.734
 7741SOL    HW224123   3.150   5.078   3.669
 7742SOL     OW24124   0.130   0.535   4.620
 7742SOL    HW124125   0.062   0.560   4.690
 7742SOL    HW224126   0.137   0.609   4.553
 7743SOL     OW24127   4.961   3.111   2.071
 7743SOL    HW124128   4.874   3.063   2.077
 7743SOL    HW224129   4.993   3.136   2.162
 7744SOL     OW24130   0.179   6.693   4.879
 7744SOL    HW124131   0.188   6.775   4.936
 7744SOL    HW224132   0.191   6.611   4.935
 7745SOL     OW24133   5.769   2.502   5.562
 7745SOL    HW124134   5.790   2.599   5.567
 7745SOL    HW224135   5.850   2.449   5.585
 7746SOL     OW24136   1.986   0.899   6.508
 7746SOL    HW124137   1.996   0.899   6.607
 7746SOL    HW224138   1.901   0.852   6.483
 7747SOL     OW24139   4.953   5.598   0.483
 7747SOL    HW124140   4.955   5.627   0.387
 7747SOL    HW224141   4.975   5.501   0.488
 7748SOL     OW24142   1.951   3.664   6.670
 7748SOL    HW124143   1.921   3.753   6.637
 7748SOL    HW224144   1.940   3.660   6.769
 7749SOL     OW24145   5.903   3.260   5.870
 7749SOL    HW124146   5.856   3.174   5.887
 7749SOL    HW224147   5.983   3.243   5.812
 7750SOL     OW24148   4.443   5.618   2.964
 7750SOL    HW124149   4.441   5.663   2.874
 7750SOL    HW224150   4.527   5.564   2.972
 7751SOL     OW24151   1.086   2.486   1.517
 7751SOL    HW124152   1.147   2.460   1.592
 7751SOL    HW224153   1.000   2.435   1.524
 7752SOL     OW24154   3.045   0.788   2.802
 7752SOL    HW124155   2.962   0.755   2.847
 7752SOL    HW224156   3.062   0.734   2.719
 7753SOL     OW24157   4.391   0.409   5.493
 7753SOL    HW124158   4.300   0.443   5.519
 7753SOL    HW224159   4.381   0.325   5.440
 7754SOL     OW24160   4.696   6.139   1.219
 7754SOL    HW124161   4.634   6.111   1.292
 7754SOL    HW224162   4.777   6.081   1.221
 7755SOL     OW24163   1.075   3.413   6.031
 7755SOL    HW124164   1.157   3.451   5.989
 7755SOL    HW224165   1.088   3.410   6.131
 7756SOL     OW24166   1.520   3.676   2.211
 7756SOL    HW124167   1.462   3.683   2.292
 7756SOL    HW224168   1.613   3.705   2.234
 7757SOL     OW24169   1.363   4.440   0.341
 7757SOL    HW124170   1.277   4.466   0.296
 7757SOL    HW224171   1.400   4.519   0.390
 7758SOL     OW24172   0.018   1.008   5.329
 7758SOL    HW124173   0.094   1.041   5.384
 7758SOL    HW224174   0.031   0.912   5.306
 7759SOL     OW24175   3.565   1.204   2.845
 7759SOL    HW124176   3.613   1.281   2.804
 7759SOL    HW224177   3.479   1.236   2.885
 7760SOL     OW24178   5.262   3.079   0.335
 7760SOL    HW124179   5.346   3.047   0.292
 7760SOL    HW224180   5.186   3.069   0.270
 7761SOL     OW24181   5.279   5.481   2.875
 7761SOL    HW124182   5.339   5.447   2.947
 7761SOL    HW224183   5.219   5.407   2.843
 7762SOL     OW24184   4.456   1.769   0.395
 7762SOL    HW124185   4.410   1.825   0.463
 7762SOL    HW224186   4.506   1.828   0.331
 7763SOL     OW24187   1.625   0.813   3.355
 7763SOL    HW124188   1.570   0.864   3.288
 7763SOL    HW224189   1.642   0.870   3.435
 7764SOL     OW24190   3.770   4.470   5.344
 7764SOL    HW124191   3.741   4.553   5.391
 7764SOL    HW224192   3.865   4.480   5.314
 7765SOL     OW24193   6.405   4.070   4.543
 7765SOL    HW124194   6.475   4.027   4.601
 7765SOL    HW224195   6.329   4.006   4.530
 7766SOL     OW24196   6.724   2.461   5.697
 7766SOL    HW124197   6.676   2.437   5.782
 7766SOL    HW224198   6.761   2.377   5.655
 7767SOL     OW24199   4.231   0.742   3.597
 7767SOL    HW124200   4.143   0.722   3.553
 7767SOL    HW224201   4.268   0.659   3.638
 7768SOL     OW24202   3.486   5.991   3.680
 7768SOL    HW124203   3.572   6.007   3.633
 7768SOL    HW224204   3.452   5.899   3.657
 7769SOL     OW24205   3.568   2.203   6.024
 7769SOL    HW124206   3.567   2.200   5.925
 7769SOL    HW224207   3.606   2.117   6.059
 7770SOL     OW24208   1.495   3.190   3.731
 7770SOL    HW124209   1.496   3.172   3.829
 7770SOL    HW224210   1.588   3.194   3.697
 7771SOL     OW24211   0.814   3.836   5.034
 7771SOL    HW124212   0.755   3.763   5.069
 7771SOL    HW224213   0.886   3.797   4.977
 7772SOL     OW24214   4.946   5.121   2.103
 7772SOL    HW124215   5.000   5.036   2.101
 7772SOL    HW224216   4.925   5.149   2.009
 7773SOL     OW24217   2.936   6.678   6.325
 7773SOL    HW124218   3.023   6.673   6.276
 7773SOL    HW224219   2.923   6.594   6.379
 7774SOL     OW24220   5.148   1.039   2.834
 7774SOL    HW124221   5.190   1.117   2.786
 7774SOL    HW224222   5.175   1.041   2.930
 7775SOL     OW24223   3.877   1.914   1.323
 7775SOL    HW124224   3.911   1.948   1.411
 7775SOL    HW224225   3.883   1.987   1.255
 7776SOL     OW24226   2.870   1.757   3.914
 7776SOL    HW124227   2.783   1.777   3.958
 7776SOL    HW224228   2.943   1.763   3.982
 7777SOL     OW24229   5.104   5.043   3.332
 7777SOL    HW124230   5.049   5.098   3.395
 7777SOL    HW224231   5.050   5.021   3.251
 7778SOL     OW24232   0.827   3.013   1.428
 7778SOL    HW124233   0.747   2.953   1.436
 7778SOL    HW224234   0.898   2.966   1.374
 7779SOL     OW24235   2.514   0.847   3.606
 7779SOL    HW124236   2.507   0.943   3.578
 7779SOL    HW224237   2.440   0.795   3.564
 7780SOL     OW24238   6.368   5.802   4.298
 7780SOL    HW124239   6.424   5.722   4.280
 7780SOL    HW224240   6.426   5.877   4.330
 7781SOL     OW24241   3.318   2.808   1.480
 7781SOL    HW124242   3.310   2.709   1.495
 7781SOL    HW224243   3.227   2.849   1.481
 7782SOL     OW24244   5.324   4.946   3.488
 7782SOL    HW124245   5.257   4.988   3.428
 7782SOL    HW224246   5.368   5.016   3.544
 7783SOL     OW24247   0.476   6.306   3.989
 7783SOL    HW124248   0.543   6.232   3.994
 7783SOL    HW224249   0.521   6.391   3.962
 7784SOL     OW24250   1.099   2.884   2.080
 7784SOL    HW124251   1.140   2.975   2.090
 7784SOL    HW224252   1.002   2.889   2.103
 7785SOL     OW24253   6.150   6.915   2.678
 7785SOL    HW124254   6.189   6.866   2.600
 7785SOL    HW224255   6.051   6.900   2.681
 7786SOL     OW24256   5.645   0.548   6.651
 7786SOL    HW124257   5.660   0.461   6.605
 7786SOL    HW224258   5.623   0.531   6.747
 7787SOL     OW24259   1.043   2.318   0.715
 7787SOL    HW124260   1.125   2.272   0.748
 7787SOL    HW224261   1.016   2.389   0.780
 7788SOL     OW24262   0.924   4.324   1.974
 7788SOL    HW124263   0.867   4.304   1.895
 7788SOL    HW224264   0.929   4.243   2.032
 7789SOL     OW24265   3.399   0.226   6.363
 7789SOL    HW124266   3.380   0.176   6.278
 7789SOL    HW224267   3.415   0.323   6.341
 7790SOL     OW24268   4.037   5.271   4.467
 7790SOL    HW124269   4.090   5.310   4.392
 7790SOL    HW224270   3.972   5.339   4.501
 7791SOL     OW24271   2.182   6.829   1.426
 7791SOL    HW124272   2.282   6.828   1.439
 7791SOL    HW224273   2.144   6.741   1.455
 7792SOL     OW24274   1.333   1.441   2.146
 7792SOL    HW124275   1.332   1.455   2.245
 7792SOL    HW224276   1.369   1.523   2.101
 7793SOL     OW24277   5.442   1.461   0.782
 7793SOL    HW124278   5.381   1.388   0.750
 7793SOL    HW224279   5.535   1.425   0.789
 7794SOL     OW24280   1.094   1.355   2.751
 7794SOL    HW124281   1.053   1.329   2.838
 7794SOL    HW224282   1.072   1.450   2.731
 7795SOL     OW24283   4.690   3.858   0.835
 7795SOL    HW124284   4.651   3.902   0.917
 7795SOL    HW224285   4.731   3.770   0.860
 7796SOL     OW24286   4.205   1.157   0.395
 7796SOL    HW124287   4.149   1.179   0.475
 7796SOL    HW224288   4.278   1.225   0.386
 7797SOL     OW24289   1.331   6.001   3.056
 7797SOL    HW124290   1.381   5.970   3.137
 7797SOL    HW224291   1.346   6.099   3.042
 7798SOL     OW24292   2.003   3.118   0.982
 7798SOL    HW124293   1.916   3.160   0.957
 7798SOL    HW224294   2.048   3.174   1.051
 7799SOL     OW24295   2.015   5.923   4.306
 7799SOL    HW124296   2.054   5.948   4.395
 7799SOL    HW224297   1.947   5.851   4.318
 7800SOL     OW24298   0.641   0.624   2.222
 7800SOL    HW124299   0.637   0.712   2.268
 7800SOL    HW224300   0.724   0.575   2.249
 7801SOL     OW24301   2.597   1.937   0.725
 7801SOL    HW124302   2.535   1.941   0.647
 7801SOL    HW224303   2.677   1.881   0.703
 7802SOL     OW24304   6.577   4.881   3.633
 7802SOL    HW124305   6.552   4.794   3.675
 7802SOL    HW224306   6.546   4.957   3.691
 7803SOL     OW24307   3.188   2.375   6.193
 7803SOL    HW124308   3.264   2.440   6.193
 7803SOL    HW224309   3.183   2.329   6.282
 7804SOL     OW24310   2.946   1.044   5.329
 7804SOL    HW124311   2.909   0.971   5.273
 7804SOL    HW224312   2.988   1.005   5.411
 7805SOL     OW24313   6.843   2.121   6.806
 7805SOL    HW124314   6.920   2.155   6.860
 7805SOL    HW224315   6.868   2.117   6.709
 7806SOL     OW24316   6.063   2.440   4.873
 7806SOL    HW124317   6.053   2.349   4.912
 7806SOL    HW224318   6.043   2.509   4.943
 7807SOL     OW24319   1.915   5.741   5.188
 7807SOL    HW124320   1.896   5.645   5.167
 7807SOL    HW224321   1.918   5.793   5.103
 7808SOL     OW24322   0.118   3.101   4.335
 7808SOL    HW124323   0.180   3.036   4.380
 7808SOL    HW224324   0.089   3.065   4.247
 7809SOL     OW24325   3.134   0.522   2.978
 7809SOL    HW124326   3.127   0.474   2.891
 7809SOL    HW224327   3.218   0.575   2.981
 7810SOL     OW24328   2.622   6.694   5.822
 7810SOL    HW124329   2.539   6.656   5.781
 7810SOL    HW224330   2.691   6.622   5.832
 7811SOL     OW24331   1.255   5.061   3.194
 7811SOL    HW124332   1.316   5.077   3.272
 7811SOL    HW224333   1.177   5.123   3.200
 7812SOL     OW24334   3.089   0.489   6.105
 7812SOL    HW124335   3.184   0.461   6.097
 7812SOL    HW224336   3.051   0.457   6.192
 7813SOL     OW24337   5.737   0.822   0.844
 7813SOL    HW124338   5.728   0.742   0.903
 7813SOL    HW224339   5.659   0.883   0.858
 7814SOL     OW24340   0.113   2.360   1.655
 7814SOL    HW124341   0.211   2.376   1.640
 7814SOL    HW224342   0.094   2.262   1.643
 7815SOL     OW24343   4.730   6.030   3.754
 7815SOL    HW124344   4.780   6.090   3.693
 7815SOL    HW224345   4.640   6.069   3.773
 7816SOL     OW24346   1.637   1.605   5.449
 7816SOL    HW124347   1.618   1.656   5.533
 7816SOL    HW224348   1.578   1.524   5.446
 7817SOL     OW24349   4.506   1.135   5.665
 7817SOL    HW124350   4.569   1.191   5.611
 7817SOL    HW224351   4.515   1.039   5.637
 7818SOL     OW24352   4.325   0.654   3.019
 7818SOL    HW124353   4.318   0.563   3.059
 7818SOL    HW224354   4.243   0.674   2.966
 7819SOL     OW24355   2.421   2.411   4.518
 7819SOL    HW124356   2.424   2.488   4.582
 7819SOL    HW224357   2.412   2.446   4.425
 7820SOL     OW24358   2.087   0.624   6.913
 7820SOL    HW124359   2.119   0.577   6.830
 7820SOL    HW224360   1.989   0.609   6.924
 7821SOL     OW24361   3.361   5.786   6.598
 7821SOL    HW124362   3.264   5.802   6.586
 7821SOL    HW224363   3.412   5.836   6.528
 7822SOL     OW24364   0.835   1.219   4.527
 7822SOL    HW124365   0.754   1.172   4.562
 7822SOL    HW224366   0.820   1.245   4.431
 7823SOL     OW24367   2.191   2.643   5.596
 7823SOL    HW124368   2.235   2.619   5.510
 7823SOL    HW224369   2.219   2.578   5.667
 7824SOL     OW24370   6.184   3.816   2.592
 7824SOL    HW124371   6.095   3.792   2.632
 7824SOL    HW224372   6.175   3.823   2.493
 7825SOL     OW24373   3.234   2.979   4.029
 7825SOL    HW124374   3.211   3.012   4.121
 7825SOL    HW224375   3.187   3.036   3.961
 7826SOL     OW24376   6.170   6.499   1.318
 7826SOL    HW124377   6.083   6.538   1.346
 7826SOL    HW224378   6.162   6.400   1.308
 7827SOL     OW24379   5.168   3.670   0.536
 7827SOL    HW124380   5.073   3.678   0.563
 7827SOL    HW224381   5.174   3.665   0.436
 7828SOL     OW24382   1.044   5.923   0.205
 7828SOL    HW124383   1.008   5.838   0.165
 7828SOL    HW224384   0.997   6.001   0.166
 7829SOL     OW24385   3.231   4.029   2.816
 7829SOL    HW124386   3.146   3.995   2.775
 7829SOL    HW224387   3.236   4.001   2.911
 7830SOL     OW24388   6.910   4.623   6.694
 7830SOL    HW124389   6.950   4.557   6.630
 7830SOL    HW224390   6.944   4.714   6.673
 7831SOL     OW24391   3.241   3.285   0.333
 7831SOL    HW124392   3.209   3.352   0.400
 7831SOL    HW224393   3.338   3.265   0.349
 7832SOL     OW24394   3.908   2.532   5.598
 7832SOL    HW124395   3.943   2.520   5.691
 7832SOL    HW224396   3.948   2.614   5.557
 7833SOL     OW24397   6.240   6.849   1.659
 7833SOL    HW124398   6.333   6.873   1.631
 7833SOL    HW224399   6.198   6.928   1.704
 7834SOL     OW24400   5.399   0.873   1.569
 7834SOL    HW124401   5.452   0.957   1.554
 7834SOL    HW224402   5.302   0.895   1.571
 7835SOL     OW24403   2.490   2.162   4.313
 7835SOL    HW124404   2.469   2.219   4.233
 7835SOL    HW224405   2.418   2.171   4.381
 7836SOL     OW24406   2.630   0.386   6.899
 7836SOL    HW124407   2.692   0.462   6.913
 7836SOL    HW224408   2.604   0.382   6.802
 7837SOL     OW24409   5.284   6.228   2.294
 7837SOL    HW124410   5.307   6.324   2.311
 7837SOL    HW224411   5.271   6.214   2.196
 7838SOL     OW24412   3.530   5.623   4.199
 7838SOL    HW124413   3.520   5.525   4.177
 7838SOL    HW224414   3.462   5.649   4.267
 7839SOL     OW24415   0.079   5.803   2.937
 7839SOL    HW124416   0.113   5.897   2.936
 7839SOL    HW224417   7.015   5.797   2.994
 7840SOL     OW24418   3.985   2.779   6.374
 7840SOL    HW124419   4.036   2.716   6.315
 7840SOL    HW224420   3.978   2.868   6.329
 7841SOL     OW24421   1.271   1.772   5.872
 7841SOL    HW124422   1.212   1.762   5.792
 7841SOL    HW224423   1.232   1.841   5.934
 7842SOL     OW24424   1.742   1.179   2.413
 7842SOL    HW124425   1.665   1.244   2.418
 7842SOL    HW224426   1.741   1.120   2.494
 7843SOL     OW24427   0.067   2.103   1.610
 7843SOL    HW124428   0.035   2.091   1.704
 7843SOL    HW224429   7.007   2.116   1.549
 7844SOL     OW24430   3.342   1.999   3.133
 7844SOL    HW124431   3.405   2.058   3.082
 7844SOL    HW224432   3.326   1.915   3.081
 7845SOL     OW24433   1.265   0.893   4.223
 7845SOL    HW124434   1.346   0.934   4.181
 7845SOL    HW224435   1.291   0.807   4.268
 7846SOL     OW24436   4.802   6.510   3.051
 7846SOL    HW124437   4.897   6.500   3.081
 7846SOL    HW224438   4.752   6.566   3.117
 7847SOL     OW24439   0.817   6.666   6.014
 7847SOL    HW124440   0.808   6.625   6.104
 7847SOL    HW224441   0.907   6.645   5.976
 7848SOL     OW24442   4.430   3.798   1.331
 7848SOL    HW124443   4.440   3.698   1.329
 7848SOL    HW224444   4.479   3.835   1.409
 7849SOL     OW24445   5.926   4.530   5.235
 7849SOL    HW124446   5.998   4.478   5.281
 7849SOL    HW224447   5.919   4.621   5.276
 7850SOL     OW24448   1.202   2.866   4.824
 7850SOL    HW124449   1.300   2.882   4.839
 7850SOL    HW224450   1.188   2.772   4.792
 7851SOL     OW24451   2.990   6.744   0.909
 7851SOL    HW124452   2.954   6.785   0.993
 7851SOL    HW224453   3.078   6.701   0.928
 7852SOL     OW24454   2.251   6.620   0.750
 7852SOL    HW124455   2.181   6.672   0.798
 7852SOL    HW224456   2.342   6.651   0.780
 7853SOL     OW24457   2.339   1.488   6.981
 7853SOL    HW124458   2.255   1.448   7.017
 7853SOL    HW224459   2.329   1.501   6.882
 7854SOL     OW24460   3.890   4.079   4.820
 7854SOL    HW124461   3.795   4.096   4.845
 7854SOL    HW224462   3.897   4.069   4.721
 7855SOL     OW24463   2.847   6.682   4.793
 7855SOL    HW124464   2.912   6.615   4.757
 7855SOL    HW224465   2.791   6.640   4.864
 7856SOL     OW24466   2.831   3.031   5.717
 7856SOL    HW124467   2.904   2.970   5.688
 7856SOL    HW224468   2.743   2.993   5.689
 7857SOL     OW24469   0.442   2.884   4.968
 7857SOL    HW124470   0.402   2.957   5.022
 7857SOL    HW224471   0.528   2.915   4.929
 7858SOL     OW24472   5.180   2.574   3.278
 7858SOL    HW124473   5.114   2.642   3.250
 7858SOL    HW224474   5.261   2.579   3.219
 7859SOL     OW24475   6.410   0.050   0.051
 7859SOL    HW124476   6.387   0.078   0.144
 7859SOL    HW224477   6.352   0.100   7.005
 7860SOL     OW24478   4.574   6.399   0.825
 7860SOL    HW124479   4.664   6.370   0.858
 7860SOL    HW224480   4.527   6.451   0.897
 7861SOL     OW24481   6.762   3.510   0.185
 7861SOL    HW124482   6.707   3.476   0.109
 7861SOL    HW224483   6.851   3.464   0.187
 7862SOL     OW24484   2.676   4.348   1.650
 7862SOL    HW124485   2.712   4.411   1.719
 7862SOL    HW224486   2.695   4.254   1.677
 7863SOL     OW24487   4.381   5.822   2.495
 7863SOL    HW124488   4.410   5.905   2.447
 7863SOL    HW224489   4.411   5.742   2.443
 7864SOL     OW24490   1.735   5.801   5.373
 7864SOL    HW124491   1.800   5.799   5.297
 7864SOL    HW224492   1.723   5.895   5.405
 7865SOL     OW24493   4.461   0.587   3.402
 7865SOL    HW124494   4.488   0.575   3.497
 7865SOL    HW224495   4.535   0.632   3.352
 7866SOL     OW24496   2.803   0.269   6.070
 7866SOL    HW124497   2.741   0.196   6.099
 7866SOL    HW224498   2.892   0.256   6.114
 7867SOL     OW24499   6.889   3.155   0.584
 7867SOL    HW124500   6.989   3.146   0.582
 7867SOL    HW224501   6.854   3.159   0.490
 7868SOL     OW24502   5.402   6.715   1.170
 7868SOL    HW124503   5.391   6.642   1.103
 7868SOL    HW224504   5.428   6.799   1.122
 7869SOL     OW24505   5.984   1.764   4.172
 7869SOL    HW124506   6.061   1.797   4.227
 7869SOL    HW224507   5.963   1.831   4.101
 7870SOL     OW24508   6.569   0.064   3.195
 7870SOL    HW124509   6.656   0.109   3.212
 7870SOL    HW224510   6.548   0.069   3.097
 7871SOL     OW24511   5.545   3.126   3.249
 7871SOL    HW124512   5.503   3.060   3.310
 7871SOL    HW224513   5.644   3.111   3.247
 7872SOL     OW24514   5.907   3.896   4.065
 7872SOL    HW124515   5.817   3.920   4.028
 7872SOL    HW224516   5.932   3.960   4.137
 7873SOL     OW24517   6.809   6.112   5.116
 7873SOL    HW124518   6.749   6.158   5.182
 7873SOL    HW224519   6.855   6.035   5.161
 7874SOL     OW24520   6.188   6.587   0.125
 7874SOL    HW124521   6.151   6.499   0.155
 7874SOL    HW224522   6.125   6.628   0.059
 7875SOL     OW24523   5.887   2.657   0.409
 7875SOL    HW124524   5.944   2.725   0.454
 7875SOL    HW224525   5.791   2.682   0.420
 7876SOL     OW24526   6.811   2.222   4.965
 7876SOL    HW124527   6.780   2.131   4.937
 7876SOL    HW224528   6.747   2.291   4.931
 7877SOL     OW24529   5.931   3.569   1.670
 7877SOL    HW124530   5.995   3.643   1.692
 7877SOL    HW224531   5.979   3.482   1.669
 7878SOL     OW24532   3.153   3.942   2.313
 7878SOL    HW124533   3.222   3.946   2.386
 7878SOL    HW224534   3.072   3.993   2.341
 7879SOL     OW24535   0.050   1.870   4.913
 7879SOL    HW124536   0.018   1.933   4.842
 7879SOL    HW224537   6.989   1.834   4.963
 7880SOL     OW24538   2.086   6.267   6.760
 7880SOL    HW124539   2.100   6.185   6.704
 7880SOL    HW224540   1.991   6.272   6.789
 7881SOL     OW24541   0.475   4.670   5.502
 7881SOL    HW124542   0.494   4.653   5.599
 7881SOL    HW224543   0.509   4.760   5.477
 7882SOL     OW24544   1.448   4.885   0.869
 7882SOL    HW124545   1.413   4.852   0.781
 7882SOL    HW224546   1.377   4.874   0.938
 7883SOL     OW24547   2.730   2.273   2.809
 7883SOL    HW124548   2.778   2.239   2.729
 7883SOL    HW224549   2.711   2.371   2.798
 7884SOL     OW24550   0.285   2.171   5.540
 7884SOL    HW124551   0.266   2.107   5.465
 7884SOL    HW224552   0.198   2.198   5.582
 7885SOL     OW24553   5.753   4.908   2.676
 7885SOL    HW124554   5.819   4.833   2.678
 7885SOL    HW224555   5.801   4.995   2.664
 7886SOL     OW24556   3.817   4.970   2.696
 7886SOL    HW124557   3.791   5.067   2.691
 7886SOL    HW224558   3.828   4.934   2.604
 7887SOL     OW24559   0.180   3.111   0.642
 7887SOL    HW124560   0.201   3.062   0.557
 7887SOL    HW224561   0.211   3.205   0.635
 7888SOL     OW24562   0.612   1.851   5.141
 7888SOL    HW124563   0.566   1.805   5.065
 7888SOL    HW224564   0.708   1.824   5.143
 7889SOL     OW24565   5.470   4.798   0.159
 7889SOL    HW124566   5.432   4.879   0.203
 7889SOL    HW224567   5.560   4.820   0.120
 7890SOL     OW24568   1.324   2.658   1.632
 7890SOL    HW124569   1.286   2.581   1.684
 7890SOL    HW224570   1.364   2.724   1.696
 7891SOL     OW24571   5.983   1.046   4.339
 7891SOL    HW124572   5.928   1.008   4.265
 7891SOL    HW224573   5.936   1.031   4.426
 7892SOL     OW24574   0.960   1.934   4.386
 7892SOL    HW124575   0.865   1.957   4.409
 7892SOL    HW224576   0.982   1.843   4.423
 7893SOL     OW24577   5.535   5.869   0.372
 7893SOL    HW124578   5.481   5.785   0.378
 7893SOL    HW224579   5.625   5.853   0.411
 7894SOL     OW24580   3.047   6.890   6.577
 7894SOL    HW124581   3.077   6.858   6.487
 7894SOL    HW224582   3.083   6.982   6.594
 7895SOL     OW24583   5.408   6.482   2.621
 7895SOL    HW124584   5.323   6.532   2.607
 7895SOL    HW224585   5.458   6.521   2.698
 7896SOL     OW24586   3.212   2.237   1.103
 7896SOL    HW124587   3.214   2.160   1.039
 7896SOL    HW224588   3.157   2.311   1.064
 7897SOL     OW24589   5.081   0.746   1.337
 7897SOL    HW124590   4.984   0.731   1.319
 7897SOL    HW224591   5.136   0.690   1.275
 7898SOL     OW24592   4.111   6.670   2.762
 7898SOL    HW124593   4.148   6.695   2.851
 7898SOL    HW224594   4.013   6.652   2.771
 7899SOL     OW24595   6.229   4.643   2.687
 7899SOL    HW124596   6.326   4.664   2.701
 7899SOL    HW224597   6.215   4.544   2.696
 7900SOL     OW24598   0.553   3.918   0.668
 7900SOL    HW124599   0.622   3.979   0.706
 7900SOL    HW224600   0.507   3.869   0.743
 7901SOL     OW24601   0.215   1.992   6.311
 7901SOL    HW124602   0.311   1.981   6.284
 7901SOL    HW224603   0.210   2.023   6.406
 7902SOL     OW24604   1.584   0.376   1.456
 7902SOL    HW124605   1.549   0.429   1.533
 7902SOL    HW224606   1.533   0.398   1.373
 7903SOL     OW24607   3.419   1.990   5.499
 7903SOL    HW124608   3.391   2.085   5.483
 7903SOL    HW224609   3.351   1.929   5.458
 7904SOL     OW24610   5.419   3.372   2.828
 7904SOL    HW124611   5.440   3.366   2.926
 7904SOL    HW224612   5.324   3.347   2.812
 7905SOL     OW24613   5.952   1.918   1.151
 7905SOL    HW124614   6.021   1.926   1.079
 7905SOL    HW224615   5.912   1.827   1.147
 7906SOL     OW24616   6.822   6.384   5.751
 7906SOL    HW124617   6.909   6.371   5.703
 7906SOL    HW224618   6.841   6.402   5.848
 7907SOL     OW24619   5.677   6.088   3.235
 7907SOL    HW124620   5.727   6.132   3.310
 7907SOL    HW224621   5.587   6.060   3.267
 7908SOL     OW24622   1.811   0.048   6.225
 7908SOL    HW124623   1.768   0.086   6.306
 7908SOL    HW224624   1.887   7.006   6.251
 7909SOL     OW24625   6.996   4.374   2.467
 7909SOL    HW124626   0.047   4.435   2.503
 7909SOL    HW224627   0.019   4.285   2.447
 7910SOL     OW24628   1.259   4.390   4.822
 7910SOL    HW124629   1.205   4.402   4.739
 7910SOL    HW224630   1.221   4.447   4.895
 7911SOL     OW24631   6.170   3.485   6.017
 7911SOL    HW124632   6.086   3.467   6.069
 7911SOL    HW224633   6.147   3.528   5.930
 7912SOL     OW24634   5.325   5.597   2.068
 7912SOL    HW124635   5.259   5.547   2.012
 7912SOL    HW224636   5.304   5.695   2.065
 7913SOL     OW24637   1.327   4.270   6.710
 7913SOL    HW124638   1.422   4.303   6.716
 7913SOL    HW224639   1.288   4.265   6.801
 7914SOL     OW24640   1.301   0.236   4.922
 7914SOL    HW124641   1.331   0.280   5.007
 7914SOL    HW224642   1.202   0.248   4.911
 7915SOL     OW24643   3.130   6.240   2.040
 7915SOL    HW124644   3.172   6.170   2.098
 7915SOL    HW224645   3.189   6.321   2.038
 7916SOL     OW24646   1.969   0.808   3.583
 7916SOL    HW124647   1.917   0.752   3.518
 7916SOL    HW224648   2.055   0.837   3.541
 7917SOL     OW24649   4.920   1.645   2.546
 7917SOL    HW124650   4.930   1.616   2.641
 7917SOL    HW224651   4.823   1.662   2.526
 7918SOL     OW24652   1.509   2.218   2.459
 7918SOL    HW124653   1.570   2.189   2.533
 7918SOL    HW224654   1.449   2.290   2.492
 7919SOL     OW24655   0.965   0.317   5.363
 7919SOL    HW124656   0.986   0.414   5.368
 7919SOL    HW224657   0.908   0.299   5.283
 7920SOL     OW24658   5.414   6.925   1.392
 7920SOL    HW124659   5.399   6.877   1.305
 7920SOL    HW224660   5.511   6.946   1.402
 7921SOL     OW24661   6.219   3.564   0.783
 7921SOL    HW124662   6.179   3.656   0.779
 7921SOL    HW224663   6.235   3.531   0.690
 7922SOL     OW24664   2.074   6.055   3.404
 7922SOL    HW124665   2.138   6.081   3.476
 7922SOL    HW224666   2.113   5.981   3.349
 7923SOL     OW24667   5.174   0.362   1.053
 7923SOL    HW124668   5.152   0.313   1.138
 7923SOL    HW224669   5.091   0.375   1.000
 7924SOL     OW24670   5.484   6.163   0.035
 7924SOL    HW124671   5.533   6.237   0.081
 7924SOL    HW224672   5.527   6.076   0.058
 7925SOL     OW24673   2.142   4.722   6.110
 7925SOL    HW124674   2.240   4.730   6.128
 7925SOL    HW224675   2.120   4.768   6.024
 7926SOL     OW24676   4.448   5.932   6.579
 7926SOL    HW124677   4.406   6.000   6.641
 7926SOL    HW224678   4.377   5.895   6.519
 7927SOL     OW24679   5.206   0.095   3.571
 7927SOL    HW124680   5.139   0.095   3.645
 7927SOL    HW224681   5.290   0.050   3.602
 7928SOL     OW24682   5.981   2.230   4.137
 7928SOL    HW124683   5.959   2.293   4.063
 7928SOL    HW224684   5.929   2.255   4.219
 7929SOL     OW24685   4.631   3.792   5.311
 7929SOL    HW124686   4.560   3.746   5.364
 7929SOL    HW224687   4.653   3.736   5.230
 7930SOL     OW24688   3.788   5.602   0.789
 7930SOL    HW124689   3.811   5.574   0.696
 7930SOL    HW224690   3.869   5.598   0.847
 7931SOL     OW24691   4.930   0.557   0.601
 7931SOL    HW124692   5.019   0.542   0.559
 7931SOL    HW224693   4.939   0.555   0.700
 7932SOL     OW24694   0.810   3.822   0.824
 7932SOL    HW124695   0.747   3.744   0.828
 7932SOL    HW224696   0.870   3.821   0.904
 7933SOL     OW24697   1.465   1.064   0.095
 7933SOL    HW124698   1.399   1.133   0.126
 7933SOL    HW224699   1.450   1.044   7.017
 7934SOL     OW24700   6.725   5.385   0.363
 7934SOL    HW124701   6.663   5.459   0.385
 7934SOL    HW224702   6.687   5.298   0.396
 7935SOL     OW24703   6.183   3.464   3.582
 7935SOL    HW124704   6.192   3.366   3.564
 7935SOL    HW224705   6.273   3.507   3.582
 7936SOL     OW24706   2.224   5.854   3.258
 7936SOL    HW124707   2.281   5.848   3.340
 7936SOL    HW224708   2.266   5.914   3.191
 7937SOL     OW24709   3.625   0.997   1.176
 7937SOL    HW124710   3.580   1.014   1.089
 7937SOL    HW224711   3.651   0.900   1.181
 7938SOL     OW24712   2.098   6.450   3.294
 7938SOL    HW124713   2.028   6.459   3.222
 7938SOL    HW224714   2.070   6.503   3.374
 7939SOL     OW24715   1.824   0.137   3.290
 7939SOL    HW124716   1.802   0.121   3.387
 7939SOL    HW224717   1.921   0.116   3.274
 7940SOL     OW24718   6.861   1.671   5.026
 7940SOL    HW124719   6.867   1.578   5.062
 7940SOL    HW224720   6.834   1.734   5.099
 7941SOL     OW24721   2.953   0.486   1.177
 7941SOL    HW124722   2.988   0.403   1.220
 7941SOL    HW224723   2.976   0.486   1.080
 7942SOL     OW24724   1.224   3.932   1.542
 7942SOL    HW124725   1.276   3.848   1.558
 7942SOL    HW224726   1.280   4.011   1.570
 7943SOL     OW24727   1.845   5.629   6.848
 7943SOL    HW124728   1.894   5.546   6.823
 7943SOL    HW224729   1.907   5.707   6.842
 7944SOL     OW24730   1.566   2.268   0.651
 7944SOL    HW124731   1.589   2.185   0.600
 7944SOL    HW224732   1.627   2.342   0.623
 7945SOL     OW24733   6.275   4.563   3.623
 7945SOL    HW124734   6.231   4.608   3.700
 7945SOL    HW224735   6.236   4.596   3.537
 7946SOL     OW24736   4.634   1.523   5.788
 7946SOL    HW124737   4.625   1.617   5.822
 7946SOL    HW224738   4.661   1.463   5.862
 7947SOL     OW24739   0.779   4.312   7.013
 7947SOL    HW124740   0.749   4.242   6.948
 7947SOL    HW224741   0.699   4.354   0.037
 7948SOL     OW24742   1.448   5.728   1.700
 7948SOL    HW124743   1.470   5.652   1.638
 7948SOL    HW224744   1.524   5.743   1.763
 7949SOL     OW24745   3.253   5.497   4.770
 7949SOL    HW124746   3.271   5.432   4.696
 7949SOL    HW224747   3.328   5.492   4.836
 7950SOL     OW24748   6.577   2.427   5.956
 7950SOL    HW124749   6.514   2.505   5.964
 7950SOL    HW224750   6.565   2.367   6.036
 7951SOL     OW24751   3.331   0.761   2.795
 7951SOL    HW124752   3.232   0.754   2.806
 7951SOL    HW224753   3.372   0.669   2.798
 7952SOL     OW24754   0.230   3.328   5.343
 7952SOL    HW124755   0.224   3.231   5.365
 7952SOL    HW224756   0.152   3.353   5.284
 7953SOL     OW24757   0.933   0.838   0.628
 7953SOL    HW124758   0.949   0.931   0.596
 7953SOL    HW224759   0.866   0.793   0.569
 7954SOL     OW24760   3.687   2.914   0.723
 7954SOL    HW124761   3.760   2.954   0.666
 7954SOL    HW224762   3.700   2.816   0.730
 7955SOL     OW24763   6.403   0.515   6.349
 7955SOL    HW124764   6.453   0.525   6.435
 7955SOL    HW224765   6.464   0.534   6.272
 7956SOL     OW24766   0.162   0.391   0.872
 7956SOL    HW124767   0.130   0.312   0.924
 7956SOL    HW224768   0.099   0.468   0.886
 7957SOL     OW24769   5.685   1.851   6.047
 7957SOL    HW124770   5.668   1.830   5.951
 7957SOL    HW224771   5.784   1.853   6.064
 7958SOL     OW24772   4.711   2.457   6.524
 7958SOL    HW124773   4.800   2.494   6.551
 7958SOL    HW224774   4.638   2.514   6.560
 7959SOL     OW24775   5.284   2.836   6.868
 7959SOL    HW124776   5.201   2.846   6.922
 7959SOL    HW224777   5.277   2.893   6.786
 7960SOL     OW24778   0.870   2.434   4.888
 7960SOL    HW124779   0.919   2.519   4.907
 7960SOL    HW224780   0.795   2.452   4.825
 7961SOL     OW24781   5.897   0.054   6.181
 7961SOL    HW124782   5.842   0.030   6.100
 7961SOL    HW224783   5.910   0.153   6.184
 7962SOL     OW24784   5.317   0.346   4.929
 7962SOL    HW124785   5.368   0.288   4.992
 7962SOL    HW224786   5.232   0.376   4.972
 7963SOL     OW24787   5.930   6.216   2.553
 7963SOL    HW124788   5.870   6.168   2.617
 7963SOL    HW224789   5.906   6.313   2.551
 7964SOL     OW24790   0.521   4.392   1.471
 7964SOL    HW124791   0.610   4.426   1.438
 7964SOL    HW224792   0.459   4.383   1.394
 7965SOL     OW24793   4.177   1.558   6.277
 7965SOL    HW124794   4.087   1.545   6.320
 7965SOL    HW224795   4.241   1.490   6.315
 7966SOL     OW24796   6.017   3.627   5.437
 7966SOL    HW124797   5.970   3.601   5.352
 7966SOL    HW224798   5.961   3.694   5.486
 7967SOL     OW24799   2.071   4.167   1.479
 7967SOL    HW124800   2.019   4.171   1.565
 7967SOL    HW224801   2.089   4.071   1.456
 7968SOL     OW24802   2.015   2.369   3.720
 7968SOL    HW124803   1.932   2.421   3.737
 7968SOL    HW224804   1.996   2.271   3.731
 7969SOL     OW24805   3.037   4.094   6.449
 7969SOL    HW124806   2.953   4.066   6.495
 7969SOL    HW224807   3.111   4.033   6.476
 7970SOL     OW24808   6.539   2.777   2.852
 7970SOL    HW124809   6.608   2.816   2.791
 7970SOL    HW224810   6.450   2.778   2.807
 7971SOL     OW24811   2.744   0.192   0.047
 7971SOL    HW124812   2.757   0.113   7.004
 7971SOL    HW224813   2.702   0.267   7.014
 7972SOL     OW24814   4.100   3.294   4.326
 7972SOL    HW124815   4.066   3.379   4.366
 7972SOL    HW224816   4.175   3.314   4.263
 7973SOL     OW24817   0.332   5.361   1.992
 7973SOL    HW124818   0.240   5.327   2.010
 7973SOL    HW224819   0.343   5.452   2.032
 7974SOL     OW24820   6.640   3.039   4.252
 7974SOL    HW124821   6.733   3.061   4.222
 7974SOL    HW224822   6.644   2.965   4.319
 7975SOL     OW24823   3.904   0.687   6.636
 7975SOL    HW124824   3.876   0.655   6.546
 7975SOL    HW224825   3.825   0.723   6.686
 7976SOL     OW24826   0.455   0.490   0.534
 7976SOL    HW124827   0.412   0.409   0.574
 7976SOL    HW224828   0.430   0.497   0.438
 7977SOL     OW24829   5.029   4.924   2.736
 7977SOL    HW124830   4.929   4.927   2.741
 7977SOL    HW224831   5.061   4.988   2.666
 7978SOL     OW24832   0.372   4.130   0.900
 7978SOL    HW124833   0.300   4.062   0.913
 7978SOL    HW224834   0.400   4.130   0.804
 7979SOL     OW24835   3.308   2.302   5.648
 7979SOL    HW124836   3.228   2.343   5.691
 7979SOL    HW224837   3.298   2.304   5.549
 7980SOL     OW24838   4.461   5.801   2.768
 7980SOL    HW124839   4.388   5.844   2.822
 7980SOL    HW224840   4.446   5.820   2.671
 7981SOL     OW24841   0.931   2.716   4.121
 7981SOL    HW124842   1.016   2.707   4.069
 7981SOL    HW224843   0.882   2.798   4.093
 7982SOL     OW24844   6.323   6.930   0.552
 7982SOL    HW124845   6.394   6.868   0.520
 7982SOL    HW224846   6.318   7.010   0.493
 7983SOL     OW24847   3.325   1.564   1.499
 7983SOL    HW124848   3.316   1.661   1.475
 7983SOL    HW224849   3.258   1.510   1.449
 7984SOL     OW24850   6.337   2.404   2.622
 7984SOL    HW124851   6.292   2.315   2.625
 7984SOL    HW224852   6.282   2.467   2.568
 7985SOL     OW24853   3.058   3.465   5.759
 7985SOL    HW124854   3.004   3.417   5.689
 7985SOL    HW224855   3.155   3.458   5.736
 7986SOL     OW24856   2.165   0.907   3.412
 7986SOL    HW124857   2.124   0.908   3.321
 7986SOL    HW224858   2.258   0.871   3.406
 7987SOL     OW24859   1.381   3.349   6.679
 7987SOL    HW124860   1.439   3.374   6.602
 7987SOL    HW224861   1.313   3.282   6.650
 7988SOL     OW24862   6.225   0.081   1.777
 7988SOL    HW124863   6.244   0.134   1.695
 7988SOL    HW224864   6.185   0.140   1.847
 7989SOL     OW24865   0.659   4.885   1.144
 7989SOL    HW124866   0.561   4.865   1.140
 7989SOL    HW224867   0.689   4.883   1.239
 7990SOL     OW24868   4.311   5.316   5.461
 7990SOL    HW124869   4.396   5.355   5.497
 7990SOL    HW224870   4.234   5.375   5.487
 7991SOL     OW24871   5.287   0.932   4.365
 7991SOL    HW124872   5.212   0.991   4.395
 7991SOL    HW224873   5.319   0.962   4.276
 7992SOL     OW24874   2.753   0.408   0.219
 7992SOL    HW124875   2.745   0.321   0.171
 7992SOL    HW224876   2.663   0.450   0.228
 7993SOL     OW24877   6.205   5.402   0.593
 7993SOL    HW124878   6.154   5.443   0.669
 7993SOL    HW224879   6.203   5.464   0.515
 7994SOL     OW24880   0.728   1.358   5.174
 7994SOL    HW124881   0.652   1.391   5.118
 7994SOL    HW224882   0.775   1.285   5.126
 7995SOL     OW24883   0.161   6.187   0.778
 7995SOL    HW124884   0.198   6.096   0.759
 7995SOL    HW224885   0.157   6.201   0.877
 7996SOL     OW24886   1.698   6.378   3.921
 7996SOL    HW124887   1.669   6.435   3.845
 7996SOL    HW224888   1.638   6.394   4.000
 7997SOL     OW24889   2.444   0.354   5.854
 7997SOL    HW124890   2.493   0.438   5.831
 7997SOL    HW224891   2.365   0.344   5.794
 7998SOL     OW24892   1.949   1.764   1.688
 7998SOL    HW124893   1.903   1.750   1.600
 7998SOL    HW224894   1.885   1.743   1.763
 7999SOL     OW24895   6.876   0.579   2.494
 7999SOL    HW124896   6.868   0.653   2.427
 7999SOL    HW224897   6.787   0.562   2.536
 8000SOL     OW24898   4.308   5.984   0.731
 8000SOL    HW124899   4.262   5.902   0.765
 8000SOL    HW224900   4.356   5.962   0.645
 8001SOL     OW24901   5.427   5.109   2.755
 8001SOL    HW124902   5.477   5.052   2.820
 8001SOL    HW224903   5.479   5.193   2.738
 8002SOL     OW24904   1.207   0.643   4.992
 8002SOL    HW124905   1.270   0.635   5.069
 8002SOL    HW224906   1.123   0.689   5.021
 8003SOL     OW24907   2.549   5.369   2.896
 8003SOL    HW124908   2.548   5.276   2.932
 8003SOL    HW224909   2.641   5.407   2.904
 8004SOL     OW24910   2.152   3.657   4.099
 8004SOL    HW124911   2.119   3.563   4.109
 8004SOL    HW224912   2.181   3.672   4.005
 8005SOL     OW24913   2.876   0.350   4.668
 8005SOL    HW124914   2.781   0.360   4.636
 8005SOL    HW224915   2.937   0.348   4.589
 8006SOL     OW24916   4.443   5.161   6.242
 8006SOL    HW124917   4.480   5.196   6.328
 8006SOL    HW224918   4.518   5.143   6.178
 8007SOL     OW24919   7.010   0.394   1.153
 8007SOL    HW124920   0.073   0.378   1.209
 8007SOL    HW224921   6.994   0.493   1.145
 8008SOL     OW24922   5.370   5.269   1.319
 8008SOL    HW124923   5.456   5.316   1.297
 8008SOL    HW224924   5.336   5.222   1.238
 8009SOL     OW24925   6.200   0.355   1.166
 8009SOL    HW124926   6.294   0.321   1.164
 8009SOL    HW224927   6.170   0.366   1.261
 8010SOL     OW24928   3.002   0.341   0.358
 8010SOL    HW124929   2.907   0.332   0.329
 8010SOL    HW224930   3.011   0.423   0.415
 8011SOL     OW24931   3.661   2.072   1.763
 8011SOL    HW124932   3.691   2.000   1.826
 8011SOL    HW224933   3.660   2.159   1.810
 8012SOL     OW24934   5.659   0.560   5.347
 8012SOL    HW124935   5.753   0.531   5.332
 8012SOL    HW224936   5.630   0.620   5.272
 8013SOL     OW24937   3.471   0.035   3.643
 8013SOL    HW124938   3.568   0.013   3.637
 8013SOL    HW224939   3.457   0.108   3.710
 8014SOL     OW24940   2.256   2.890   3.412
 8014SOL    HW124941   2.278   2.893   3.510
 8014SOL    HW224942   2.287   2.804   3.374
 8015SOL     OW24943   3.310   5.770   4.906
 8015SOL    HW124944   3.405   5.756   4.878
 8015SOL    HW224945   3.266   5.681   4.918
 8016SOL     OW24946   2.939   3.200   5.054
 8016SOL    HW124947   2.897   3.275   5.105
 8016SOL    HW224948   2.886   3.116   5.068
 8017SOL     OW24949   5.282   6.183   2.034
 8017SOL    HW124950   5.186   6.181   2.008
 8017SOL    HW224951   5.332   6.245   1.973
 8018SOL     OW24952   3.183   2.691   1.222
 8018SOL    HW124953   3.151   2.776   1.264
 8018SOL    HW224954   3.174   2.697   1.123
 8019SOL     OW24955   3.158   3.427   1.532
 8019SOL    HW124956   3.062   3.445   1.512
 8019SOL    HW224957   3.184   3.472   1.617
 8020SOL     OW24958   0.861   6.937   0.162
 8020SOL    HW124959   0.821   7.009   0.218
 8020SOL    HW224960   0.788   6.887   0.114
 8021SOL     OW24961   1.015   2.461   0.471
 8021SOL    HW124962   1.046   2.550   0.503
 8021SOL    HW224963   1.032   2.392   0.541
 8022SOL     OW24964   4.321   0.288   2.829
 8022SOL    HW124965   4.285   0.195   2.829
 8022SOL    HW224966   4.394   0.295   2.761
 8023SOL     OW24967   3.533   4.939   2.154
 8023SOL    HW124968   3.585   4.888   2.085
 8023SOL    HW224969   3.452   4.978   2.112
 8024SOL     OW24970   3.060   0.440   6.381
 8024SOL    HW124971   2.961   0.431   6.395
 8024SOL    HW224972   3.104   0.458   6.469
 8025SOL     OW24973   0.990   6.864   1.477
 8025SOL    HW124974   1.078   6.851   1.522
 8025SOL    HW224975   0.975   6.789   1.412
 8026SOL     OW24976   0.432   6.724   5.459
 8026SOL    HW124977   0.505   6.659   5.435
 8026SOL    HW224978   0.351   6.673   5.488
 8027SOL     OW24979   4.102   6.667   6.619
 8027SOL    HW124980   4.078   6.659   6.523
 8027SOL    HW224981   4.041   6.733   6.663
 8028SOL     OW24982   3.934   5.601   6.673
 8028SOL    HW124983   3.837   5.591   6.696
 8028SOL    HW224984   3.954   5.697   6.653
 8029SOL     OW24985   1.268   6.780   1.951
 8029SOL    HW124986   1.249   6.871   1.914
 8029SOL    HW224987   1.317   6.726   1.883
 8030SOL     OW24988   0.641   3.666   1.019
 8030SOL    HW124989   0.690   3.744   1.058
 8030SOL    HW224990   0.692   3.582   1.037
 8031SOL     OW24991   0.688   0.980   3.983
 8031SOL    HW124992   0.632   0.917   4.038
 8031SOL    HW224993   0.645   0.993   3.894
 8032SOL     OW24994   0.129   3.557   1.422
 8032SOL    HW124995   0.220   3.518   1.431
 8032SOL    HW224996   0.098   3.547   1.327
 8033SOL     OW24997   4.241   4.960   0.923
 8033SOL    HW124998   4.262   4.911   0.839
 8033SOL    HW224999   4.150   5.001   0.916
 8034SOL     OW25000   1.356   1.339   4.928
 8034SOL    HW125001   1.310   1.302   4.847
 8034SOL    HW225002   1.452   1.310   4.927
 8035SOL     OW25003   5.215   0.263   4.646
 8035SOL    HW125004   5.254   0.354   4.634
 8035SOL    HW225005   5.278   0.205   4.697
 8036SOL     OW25006   5.264   4.715   5.249
 8036SOL    HW125007   5.354   4.717   5.292
 8036SOL    HW225008   5.215   4.799   5.271
 8037SOL     OW25009   2.990   1.222   6.656
 8037SOL    HW125010   2.896   1.217   6.623
 8037SOL    HW225011   3.051   1.183   6.587
 8038SOL     OW25012   5.966   5.644   1.721
 8038SOL    HW125013   5.899   5.628   1.794
 8038SOL    HW225014   6.044   5.695   1.757
 8039SOL     OW25015   1.742   3.066   5.020
 8039SOL    HW125016   1.817   3.128   4.998
 8039SOL    HW225017   1.778   2.984   5.063
 8040SOL     OW25018   0.535   6.950   5.564
 8040SOL    HW125019   0.506   6.874   5.507
 8040SOL    HW225020   0.632   6.969   5.547
 8041SOL     OW25021   3.103   1.604   2.812
 8041SOL    HW125022   3.026   1.659   2.780
 8041SOL    HW225023   3.169   1.592   2.737
 8042SOL     OW25024   4.572   4.049   6.108
 8042SOL    HW125025   4.660   4.070   6.067
 8042SOL    HW225026   4.574   3.955   6.144
 8043SOL     OW25027   5.590   5.645   6.838
 8043SOL    HW125028   5.514   5.615   6.896
 8043SOL    HW225029   5.656   5.571   6.827
 8044SOL     OW25030   1.125   2.560   1.247
 8044SOL    HW125031   1.037   2.551   1.201
 8044SOL    HW225032   1.122   2.515   1.336
 8045SOL     OW25033   5.696   3.167   5.083
 8045SOL    HW125034   5.742   3.188   5.169
 8045SOL    HW225035   5.743   3.214   5.008
 8046SOL     OW25036   0.737   4.218   1.202
 8046SOL    HW125037   0.754   4.247   1.108
 8046SOL    HW225038   0.676   4.139   1.202
 8047SOL     OW25039   3.102   6.455   6.574
 8047SOL    HW125040   3.015   6.486   6.534
 8047SOL    HW225041   3.136   6.376   6.523
 8048SOL     OW25042   4.616   1.806   6.666
 8048SOL    HW125043   4.712   1.802   6.693
 8048SOL    HW225044   4.591   1.721   6.619
 8049SOL     OW25045   2.466   1.254   1.102
 8049SOL    HW125046   2.445   1.206   1.016
 8049SOL    HW225047   2.480   1.351   1.083
 8050SOL     OW25048   6.440   4.998   5.932
 8050SOL    HW125049   6.529   5.004   5.887
 8050SOL    HW225050   6.382   4.934   5.883
 8051SOL     OW25051   4.033   6.793   3.496
 8051SOL    HW125052   4.062   6.888   3.499
 8051SOL    HW225053   3.954   6.780   3.556
 8052SOL     OW25054   2.345   1.471   2.987
 8052SOL    HW125055   2.412   1.398   2.995
 8052SOL    HW225056   2.305   1.470   2.896
 8053SOL     OW25057   1.548   1.143   6.614
 8053SOL    HW125058   1.510   1.234   6.604
 8053SOL    HW225059   1.647   1.149   6.624
 8054SOL     OW25060   5.136   3.759   4.998
 8054SOL    HW125061   5.060   3.787   4.940
 8054SOL    HW225062   5.193   3.839   5.020
 8055SOL     OW25063   6.898   0.777   6.728
 8055SOL    HW125064   6.818   0.755   6.672
 8055SOL    HW225065   6.917   0.875   6.724
 8056SOL     OW25066   1.897   2.824   2.669
 8056SOL    HW125067   1.934   2.731   2.674
 8056SOL    HW225068   1.917   2.872   2.754
 8057SOL     OW25069   3.125   1.787   1.440
 8057SOL    HW125070   3.042   1.769   1.387
 8057SOL    HW225071   3.185   1.846   1.387
 8058SOL     OW25072   3.618   6.285   1.997
 8058SOL    HW125073   3.640   6.236   2.082
 8058SOL    HW225074   3.702   6.314   1.952
 8059SOL     OW25075   4.658   4.041   5.186
 8059SOL    HW125076   4.620   3.955   5.220
 8059SOL    HW225077   4.595   4.116   5.208
 8060SOL     OW25078   0.284   1.542   5.183
 8060SOL    HW125079   0.368   1.518   5.135
 8060SOL    HW225080   0.224   1.463   5.187
 8061SOL     OW25081   6.759   0.934   0.893
 8061SOL    HW125082   6.770   0.885   0.806
 8061SOL    HW225083   6.807   1.022   0.888
 8062SOL     OW25084   4.758   4.722   6.342
 8062SOL    HW125085   4.687   4.740   6.410
 8062SOL    HW225086   4.733   4.767   6.256
 8063SOL     OW25087   2.402   4.552   2.349
 8063SOL    HW125088   2.413   4.580   2.254
 8063SOL    HW225089   2.357   4.625   2.400
 8064SOL     OW25090   6.936   2.667   0.350
 8064SOL    HW125091   0.010   2.669   0.312
 8064SOL    HW225092   6.878   2.605   0.297
 8065SOL     OW25093   4.452   0.476   6.770
 8065SOL    HW125094   4.425   0.573   6.767
 8065SOL    HW225095   4.452   0.444   6.864
 8066SOL     OW25096   6.366   0.915   5.881
 8066SOL    HW125097   6.345   0.825   5.842
 8066SOL    HW225098   6.290   0.977   5.863
 8067SOL     OW25099   5.327   0.243   4.335
 8067SOL    HW125100   5.279   0.299   4.402
 8067SOL    HW225101   5.424   0.238   4.358
 8068SOL     OW25102   0.541   4.288   0.686
 8068SOL    HW125103   0.598   4.237   0.750
 8068SOL    HW225104   0.580   4.282   0.594
 8069SOL     OW25105   0.693   2.921   1.895
 8069SOL    HW125106   0.693   2.898   1.993
 8069SOL    HW225107   0.724   2.842   1.843
 8070SOL     OW25108   5.166   4.118   1.858
 8070SOL    HW125109   5.068   4.104   1.842
 8070SOL    HW225110   5.179   4.162   1.947
 8071SOL     OW25111   1.716   0.200   6.466
 8071SOL    HW125112   1.661   0.174   6.545
 8071SOL    HW225113   1.792   0.258   6.495
 8072SOL     OW25114   2.802   2.056   5.540
 8072SOL    HW125115   2.859   2.138   5.548
 8072SOL    HW225116   2.861   1.976   5.531
 8073SOL     OW25117   5.470   6.555   0.091
 8073SOL    HW125118   5.427   6.611   0.161
 8073SOL    HW225119   5.419   6.564   0.005
 8074SOL     OW25120   6.465   0.563   0.931
 8074SOL    HW125121   6.404   0.525   0.862
 8074SOL    HW225122   6.532   0.494   0.959
 8075SOL     OW25123   0.437   6.891   0.998
 8075SOL    HW125124   0.391   6.979   1.005
 8075SOL    HW225125   0.529   6.904   0.961
 8076SOL     OW25126   6.794   5.708   0.532
 8076SOL    HW125127   6.711   5.700   0.588
 8076SOL    HW225128   6.770   5.741   0.441
 8077SOL     OW25129   6.287   4.648   0.732
 8077SOL    HW125130   6.232   4.610   0.806
 8077SOL    HW225131   6.383   4.629   0.749
 8078SOL     OW25132   5.649   1.632   1.810
 8078SOL    HW125133   5.670   1.587   1.722
 8078SOL    HW225134   5.592   1.712   1.793
 8079SOL     OW25135   6.828   0.536   6.916
 8079SOL    HW125136   6.835   0.626   6.960
 8079SOL    HW225137   6.804   0.549   6.820
 8080SOL     OW25138   6.987   3.370   3.721
 8080SOL    HW125139   6.960   3.466   3.733
 8080SOL    HW225140   6.938   3.331   3.644
 8081SOL     OW25141   5.482   0.748   5.188
 8081SOL    HW125142   5.523   0.836   5.166
 8081SOL    HW225143   5.390   0.743   5.150
 8082SOL     OW25144   4.363   1.874   4.747
 8082SOL    HW125145   4.412   1.826   4.674
 8082SOL    HW225146   4.370   1.973   4.733
 8083SOL     OW25147   6.765   2.656   3.923
 8083SOL    HW125148   6.718   2.611   3.847
 8083SOL    HW225149   6.823   2.730   3.887
 8084SOL     OW25150   5.714   1.484   0.111
 8084SOL    HW125151   5.627   1.532   0.112
 8084SOL    HW225152   5.771   1.516   0.186
 8085SOL     OW25153   1.578   5.823   4.144
 8085SOL    HW125154   1.666   5.782   4.168
 8085SOL    HW225155   1.573   5.835   4.045
 8086SOL     OW25156   0.054   1.844   1.989
 8086SOL    HW125157   0.005   1.757   1.975
 8086SOL    HW225158   0.088   1.847   2.083
 8087SOL     OW25159   6.351   1.079   6.256
 8087SOL    HW125160   6.363   1.067   6.354
 8087SOL    HW225161   6.367   0.992   6.209
 8088SOL     OW25162   6.435   0.165   5.214
 8088SOL    HW125163   6.365   0.148   5.283
 8088SOL    HW225164   6.401   0.139   5.124
 8089SOL     OW25165   6.571   0.590   0.250
 8089SOL    HW125166   6.645   0.532   0.215
 8089SOL    HW225167   6.483   0.554   0.217
 8090SOL     OW25168   4.146   2.105   4.663
 8090SOL    HW125169   4.050   2.102   4.637
 8090SOL    HW225170   4.196   2.165   4.601
 8091SOL     OW25171   0.949   3.481   5.366
 8091SOL    HW125172   0.872   3.540   5.391
 8091SOL    HW225173   0.974   3.424   5.443
 8092SOL     OW25174   3.987   6.894   5.447
 8092SOL    HW125175   3.962   6.798   5.444
 8092SOL    HW225176   3.999   6.928   5.353
 8093SOL     OW25177   3.892   0.383   3.334
 8093SOL    HW125178   3.807   0.427   3.305
 8093SOL    HW225179   3.969   0.425   3.286
 8094SOL     OW25180   2.157   4.876   3.260
 8094SOL    HW125181   2.159   4.975   3.243
 8094SOL    HW225182   2.246   4.847   3.296
 8095SOL     OW25183   1.039   5.707   4.649
 8095SOL    HW125184   1.032   5.778   4.579
 8095SOL    HW225185   1.011   5.743   4.737
 8096SOL     OW25186   0.941   4.927   0.553
 8096SOL    HW125187   0.861   4.914   0.612
 8096SOL    HW225188   1.000   4.998   0.592
 8097SOL     OW25189   4.216   0.274   0.345
 8097SOL    HW125190   4.208   0.298   0.249
 8097SOL    HW225191   4.305   0.302   0.380
 8098SOL     OW25192   2.354   6.308   5.345
 8098SOL    HW125193   2.276   6.332   5.287
 8098SOL    HW225194   2.423   6.380   5.341
 8099SOL     OW25195   2.190   4.084   3.080
 8099SOL    HW125196   2.192   3.985   3.090
 8099SOL    HW225197   2.185   4.108   2.983
 8100SOL     OW25198   0.104   6.350   0.065
 8100SOL    HW125199   0.055   6.265   0.048
 8100SOL    HW225200   0.134   6.352   0.161
 8101SOL     OW25201   3.046   4.936   6.727
 8101SOL    HW125202   2.956   4.922   6.686
 8101SOL    HW225203   3.053   4.885   6.813
 8102SOL     OW25204   1.644   4.364   4.042
 8102SOL    HW125205   1.671   4.444   3.988
 8102SOL    HW225206   1.673   4.281   3.995
 8103SOL     OW25207   4.665   0.748   1.938
 8103SOL    HW125208   4.647   0.825   1.875
 8103SOL    HW225209   4.639   0.662   1.893
 8104SOL     OW25210   1.270   6.665   0.211
 8104SOL    HW125211   1.233   6.728   0.144
 8104SOL    HW225212   1.218   6.580   0.210
 8105SOL     OW25213   0.035   6.975   2.563
 8105SOL    HW125214   6.974   6.986   2.504
 8105SOL    HW225215   0.041   0.034   2.626
 8106SOL     OW25216   3.941   6.298   6.932
 8106SOL    HW125217   3.974   6.364   7.000
 8106SOL    HW225218   3.850   6.325   6.900
 8107SOL     OW25219   0.871   6.180   0.224
 8107SOL    HW125220   0.900   6.275   0.227
 8107SOL    HW225221   0.801   6.168   0.154
 8108SOL     OW25222   1.497   0.934   1.214
 8108SOL    HW125223   1.536   0.942   1.122
 8108SOL    HW225224   1.414   0.988   1.221
 8109SOL     OW25225   0.079   4.302   2.010
 8109SOL    HW125226   0.121   4.265   1.927
 8109SOL    HW225227   0.147   4.310   2.082
 8110SOL     OW25228   4.414   4.455   6.972
 8110SOL    HW125229   4.329   4.447   6.919
 8110SOL    HW225230   4.393   4.491   0.045
 8111SOL     OW25231   5.391   1.892   2.128
 8111SOL    HW125232   5.390   1.966   2.060
 8111SOL    HW225233   5.471   1.902   2.187
 8112SOL     OW25234   2.011   4.567   6.648
 8112SOL    HW125235   2.068   4.578   6.566
 8112SOL    HW225236   1.923   4.529   6.622
 8113SOL     OW25237   5.442   5.291   6.599
 8113SOL    HW125238   5.380   5.217   6.624
 8113SOL    HW225239   5.526   5.284   6.653
 8114SOL     OW25240   2.275   2.881   2.948
 8114SOL    HW125241   2.176   2.870   2.958
 8114SOL    HW225242   2.322   2.812   3.004
 8115SOL     OW25243   2.492   1.491   6.232
 8115SOL    HW125244   2.572   1.538   6.269
 8115SOL    HW225245   2.410   1.521   6.281
 8116SOL     OW25246   4.173   3.448   2.338
 8116SOL    HW125247   4.235   3.445   2.259
 8116SOL    HW225248   4.149   3.355   2.365
 8117SOL     OW25249   0.908   0.667   3.486
 8117SOL    HW125250   0.938   0.715   3.569
 8117SOL    HW225251   0.809   0.652   3.489
 8118SOL     OW25252   6.484   2.493   6.551
 8118SOL    HW125253   6.403   2.476   6.494
 8118SOL    HW225254   6.511   2.409   6.598
 8119SOL     OW25255   5.394   4.991   6.621
 8119SOL    HW125256   5.338   4.940   6.687
 8119SOL    HW225257   5.465   5.042   6.669
 8120SOL     OW25258   1.921   6.176   2.532
 8120SOL    HW125259   2.017   6.183   2.557
 8120SOL    HW225260   1.875   6.113   2.596
 8121SOL     OW25261   1.311   2.560   3.210
 8121SOL    HW125262   1.342   2.507   3.131
 8121SOL    HW225263   1.265   2.499   3.275
 8122SOL     OW25264   0.944   5.335   0.868
 8122SOL    HW125265   0.906   5.244   0.882
 8122SOL    HW225266   0.955   5.381   0.956
 8123SOL     OW25267   6.563   0.608   6.118
 8123SOL    HW125268   6.654   0.649   6.128
 8123SOL    HW225269   6.543   0.595   6.021
 8124SOL     OW25270   6.090   6.215   5.849
 8124SOL    HW125271   6.068   6.313   5.853
 8124SOL    HW225272   6.166   6.196   5.911
 8125SOL     OW25273   0.876   6.010   2.145
 8125SOL    HW125274   0.952   6.063   2.107
 8125SOL    HW225275   0.836   6.060   2.223
 8126SOL     OW25276   3.332   5.664   4.445
 8126SOL    HW125277   3.405   5.636   4.508
 8126SOL    HW225278   3.291   5.749   4.477
 8127SOL     OW25279   4.309   1.537   6.035
 8127SOL    HW125280   4.408   1.536   6.047
 8127SOL    HW225281   4.265   1.541   6.125
 8128SOL     OW25282   3.804   3.519   1.139
 8128SOL    HW125283   3.785   3.596   1.079
 8128SOL    HW225284   3.881   3.542   1.199
 8129SOL     OW25285   6.181   2.560   3.108
 8129SOL    HW125286   6.247   2.600   3.172
 8129SOL    HW225287   6.117   2.631   3.077
 8130SOL     OW25288   0.070   6.119   6.922
 8130SOL    HW125289   0.024   6.056   6.859
 8130SOL    HW225290   0.132   6.178   6.870
 8131SOL     OW25291   2.372   2.681   0.418
 8131SOL    HW125292   2.325   2.739   0.350
 8131SOL    HW225293   2.419   2.739   0.484
 8132SOL     OW25294   5.872   1.589   4.358
 8132SOL    HW125295   5.814   1.646   4.416
 8132SOL    HW225296   5.890   1.635   4.272
 8133SOL     OW25297   4.037   5.431   1.301
 8133SOL    HW125298   3.962   5.497   1.294
 8133SOL    HW225299   4.043   5.378   1.216
 8134SOL     OW25300   6.621   1.531   6.950
 8134SOL    HW125301   6.598   1.598   6.879
 8134SOL    HW225302   6.712   1.494   6.932
 8135SOL     OW25303   2.367   6.031   2.059
 8135SOL    HW125304   2.464   6.025   2.080
 8135SOL    HW225305   2.335   5.942   2.026
 8136SOL     OW25306   4.612   4.744   2.433
 8136SOL    HW125307   4.682   4.722   2.366
 8136SOL    HW225308   4.558   4.822   2.401
 8137SOL     OW25309   3.766   1.052   5.677
 8137SOL    HW125310   3.743   0.992   5.754
 8137SOL    HW225311   3.682   1.081   5.631
 8138SOL     OW25312   6.433   0.320   2.738
 8138SOL    HW125313   6.433   0.360   2.646
 8138SOL    HW225314   6.410   0.223   2.732
 8139SOL     OW25315   1.219   1.278   4.488
 8139SOL    HW125316   1.176   1.188   4.482
 8139SOL    HW225317   1.216   1.309   4.583
 8140SOL     OW25318   4.612   2.580   2.957
 8140SOL    HW125319   4.648   2.564   3.049
 8140SOL    HW225320   4.662   2.656   2.915
 8141SOL     OW25321   5.768   4.050   3.650
 8141SOL    HW125322   5.704   4.018   3.719
 8141SOL    HW225323   5.861   4.025   3.676
 8142SOL     OW25324   0.847   6.067   0.504
 8142SOL    HW125325   0.852   6.102   0.411
 8142SOL    HW225326   0.752   6.070   0.535
 8143SOL     OW25327   6.860   2.589   6.284
 8143SOL    HW125328   6.850   2.688   6.286
 8143SOL    HW225329   6.848   2.552   6.376
 8144SOL     OW25330   4.828   6.266   0.110
 8144SOL    HW125331   4.802   6.180   0.068
 8144SOL    HW225332   4.776   6.279   0.195
 8145SOL     OW25333   4.412   6.570   4.224
 8145SOL    HW125334   4.465   6.627   4.161
 8145SOL    HW225335   4.345   6.627   4.272
 8146SOL     OW25336   3.282   1.778   2.981
 8146SOL    HW125337   3.209   1.713   2.960
 8146SOL    HW225338   3.364   1.727   3.007
 8147SOL     OW25339   5.124   1.441   3.387
 8147SOL    HW125340   5.201   1.426   3.325
 8147SOL    HW225341   5.076   1.355   3.403
 8148SOL     OW25342   0.629   3.384   3.142
 8148SOL    HW125343   0.682   3.378   3.228
 8148SOL    HW225344   0.663   3.461   3.088
 8149SOL     OW25345   3.936   5.207   4.091
 8149SOL    HW125346   3.900   5.149   4.164
 8149SOL    HW225347   3.993   5.152   4.030
 8150SOL     OW25348   1.173   5.706   0.951
 8150SOL    HW125349   1.258   5.708   1.003
 8150SOL    HW225350   1.194   5.686   0.855
 8151SOL     OW25351   1.099   1.512   5.155
 8151SOL    HW125352   1.096   1.588   5.091
 8151SOL    HW225353   1.028   1.524   5.225
 8152SOL     OW25354   0.639   0.924   3.117
 8152SOL    HW125355   0.563   0.904   3.054
 8152SOL    HW225356   0.710   0.854   3.107
 8153SOL     OW25357   2.327   6.105   6.991
 8153SOL    HW125358   2.406   6.142   0.021
 8153SOL    HW225359   2.244   6.150   0.007
 8154SOL     OW25360   1.863   6.107   3.691
 8154SOL    HW125361   1.956   6.116   3.725
 8154SOL    HW225362   1.855   6.152   3.602
 8155SOL     OW25363   3.780   3.760   4.698
 8155SOL    HW125364   3.729   3.705   4.632
 8155SOL    HW225365   3.813   3.843   4.653
 8156SOL     OW25366   0.655   6.835   5.057
 8156SOL    HW125367   0.699   6.787   4.981
 8156SOL    HW225368   0.632   6.928   5.029
 8157SOL     OW25369   5.901   2.167   7.003
 8157SOL    HW125370   5.955   2.107   6.944
 8157SOL    HW225371   5.947   2.174   0.074
 8158SOL     OW25372   1.065   6.089   2.982
 8158SOL    HW125373   1.146   6.030   2.978
 8158SOL    HW225374   0.984   6.033   3.001
 8159SOL     OW25375   0.494   6.358   0.253
 8159SOL    HW125376   0.409   6.310   0.232
 8159SOL    HW225377   0.550   6.302   0.313
 8160SOL     OW25378   5.582   2.335   0.950
 8160SOL    HW125379   5.666   2.368   0.907
 8160SOL    HW225380   5.510   2.330   0.882
 8161SOL     OW25381   4.235   3.736   1.543
 8161SOL    HW125382   4.141   3.762   1.523
 8161SOL    HW225383   4.293   3.756   1.464
 8162SOL     OW25384   6.137   0.665   1.372
 8162SOL    HW125385   6.229   0.691   1.344
 8162SOL    HW225386   6.072   0.693   1.301
 8163SOL     OW25387   2.254   3.032   5.348
 8163SOL    HW125388   2.312   3.074   5.418
 8163SOL    HW225389   2.298   3.041   5.259
 8164SOL     OW25390   5.724   4.631   1.643
 8164SOL    HW125391   5.771   4.546   1.668
 8164SOL    HW225392   5.791   4.706   1.637
 8165SOL     OW25393   1.408   3.272   1.484
 8165SOL    HW125394   1.336   3.232   1.428
 8165SOL    HW225395   1.448   3.350   1.435
 8166SOL     OW25396   2.648   0.000   2.672
 8166SOL    HW125397   2.713   0.036   2.606
 8166SOL    HW225398   2.690   0.001   2.763
 8167SOL     OW25399   5.343   2.644   4.479
 8167SOL    HW125400   5.345   2.680   4.572
 8167SOL    HW225401   5.252   2.607   4.460
 8168SOL     OW25402   2.728   1.731   2.237
 8168SOL    HW125403   2.767   1.730   2.145
 8168SOL    HW225404   2.755   1.648   2.285
 8169SOL     OW25405   5.627   3.821   5.547
 8169SOL    HW125406   5.621   3.877   5.464
 8169SOL    HW225407   5.571   3.862   5.619
 8170SOL     OW25408   0.897   5.221   4.046
 8170SOL    HW125409   0.888   5.307   4.096
 8170SOL    HW225410   0.860   5.231   3.954
 8171SOL     OW25411   1.833   0.581   7.007
 8171SOL    HW125412   1.805   0.579   0.085
 8171SOL    HW225413   1.762   0.539   6.951
 8172SOL     OW25414   6.896   6.165   1.962
 8172SOL    HW125415   6.872   6.091   2.024
 8172SOL    HW225416   6.995   6.165   1.947
 8173SOL     OW25417   6.989   3.021   0.132
 8173SOL    HW125418   7.013   3.104   0.081
 8173SOL    HW225419   6.936   2.960   0.074
 8174SOL     OW25420   4.794   6.462   2.734
 8174SOL    HW125421   4.769   6.551   2.696
 8174SOL    HW225422   4.791   6.467   2.834
 8175SOL     OW25423   1.222   2.415   3.411
 8175SOL    HW125424   1.290   2.375   3.472
 8175SOL    HW225425   1.132   2.373   3.429
 8176SOL     OW25426   4.401   5.224   3.185
 8176SOL    HW125427   4.447   5.135   3.178
 8176SOL    HW225428   4.330   5.230   3.115
 8177SOL     OW25429   2.281   6.640   6.384
 8177SOL    HW125430   2.344   6.668   6.457
 8177SOL    HW225431   2.310   6.681   6.298
 8178SOL     OW25432   1.854   6.166   6.378
 8178SOL    HW125433   1.940   6.182   6.330
 8178SOL    HW225434   1.839   6.240   6.444
 8179SOL     OW25435   4.126   0.531   6.318
 8179SOL    HW125436   4.152   0.460   6.252
 8179SOL    HW225437   4.203   0.549   6.380
 8180SOL     OW25438   4.792   3.972   4.628
 8180SOL    HW125439   4.739   4.005   4.706
 8180SOL    HW225440   4.826   3.880   4.648
 8181SOL     OW25441   2.158   2.197   2.297
 8181SOL    HW125442   2.251   2.173   2.324
 8181SOL    HW225443   2.131   2.283   2.341
 8182SOL     OW25444   5.592   2.823   5.679
 8182SOL    HW125445   5.677   2.842   5.629
 8182SOL    HW225446   5.606   2.745   5.740
 8183SOL     OW25447   1.898   3.620   3.435
 8183SOL    HW125448   1.949   3.551   3.486
 8183SOL    HW225449   1.958   3.698   3.416
 8184SOL     OW25450   6.484   6.152   4.793
 8184SOL    HW125451   6.411   6.181   4.855
 8184SOL    HW225452   6.537   6.079   4.835
 8185SOL     OW25453   0.800   2.612   3.390
 8185SOL    HW125454   0.848   2.623   3.303
 8185SOL    HW225455   0.702   2.625   3.376
 8186SOL     OW25456   4.643   3.167   6.446
 8186SOL    HW125457   4.654   3.115   6.362
 8186SOL    HW225458   4.616   3.105   6.520
 8187SOL     OW25459   2.005   1.691   5.829
 8187SOL    HW125460   2.075   1.756   5.857
 8187SOL    HW225461   2.044   1.624   5.767
 8188SOL     OW25462   5.143   3.357   2.846
 8188SOL    HW125463   5.094   3.311   2.772
 8188SOL    HW225464   5.077   3.400   2.908
 8189SOL     OW25465   6.620   5.230   3.404
 8189SOL    HW125466   6.695   5.292   3.428
 8189SOL    HW225467   6.619   5.217   3.305
 8190SOL     OW25468   5.490   3.390   3.078
 8190SOL    HW125469   5.515   3.310   3.133
 8190SOL    HW225470   5.488   3.471   3.137
 8191SOL     OW25471   6.117   4.681   1.088
 8191SOL    HW125472   6.096   4.670   1.185
 8191SOL    HW225473   6.126   4.591   1.045
 8192SOL     OW25474   1.584   2.007   0.611
 8192SOL    HW125475   1.639   1.987   0.692
 8192SOL    HW225476   1.523   1.930   0.592
 8193SOL     OW25477   3.773   5.982   6.166
 8193SOL    HW125478   3.831   5.935   6.233
 8193SOL    HW225479   3.829   6.015   6.090
 8194SOL     OW25480   1.502   0.965   2.562
 8194SOL    HW125481   1.472   0.879   2.521
 8194SOL    HW225482   1.601   0.962   2.579
 8195SOL     OW25483   6.127   1.009   1.418
 8195SOL    HW125484   6.153   1.024   1.323
 8195SOL    HW225485   6.038   0.964   1.422
 8196SOL     OW25486   2.806   0.708   1.342
 8196SOL    HW125487   2.840   0.627   1.293
 8196SOL    HW225488   2.866   0.786   1.324
 8197SOL     OW25489   0.192   6.593   0.492
 8197SOL    HW125490   0.222   6.660   0.561
 8197SOL    HW225491   0.212   6.501   0.524
 8198SOL     OW25492   2.401   1.132   2.891
 8198SOL    HW125493   2.467   1.178   2.950
 8198SOL    HW225494   2.409   1.167   2.798
 8199SOL     OW25495   5.619   4.513   1.213
 8199SOL    HW125496   5.699   4.497   1.154
 8199SOL    HW225497   5.539   4.467   1.173
 8200SOL     OW25498   3.823   4.448   1.523
 8200SOL    HW125499   3.862   4.500   1.599
 8200SOL    HW225500   3.888   4.376   1.495
 8201SOL     OW25501   0.862   1.408   4.706
 8201SOL    HW125502   0.846   1.353   4.624
 8201SOL    HW225503   0.913   1.354   4.773
 8202SOL     OW25504   1.664   3.340   4.297
 8202SOL    HW125505   1.569   3.319   4.274
 8202SOL    HW225506   1.670   3.371   4.392
 8203SOL     OW25507   6.729   4.154   6.252
 8203SOL    HW125508   6.808   4.149   6.191
 8203SOL    HW225509   6.748   4.099   6.334
 8204SOL     OW25510   3.261   6.798   1.646
 8204SOL    HW125511   3.314   6.816   1.563
 8204SOL    HW225512   3.310   6.834   1.726
 8205SOL     OW25513   3.722   6.786   2.973
 8205SOL    HW125514   3.744   6.859   2.909
 8205SOL    HW225515   3.633   6.747   2.951
 8206SOL     OW25516   3.594   1.969   4.348
 8206SOL    HW125517   3.688   1.948   4.371
 8206SOL    HW225518   3.592   2.039   4.276
 8207SOL     OW25519   2.502   6.253   0.143
 8207SOL    HW125520   2.491   6.337   0.196
 8207SOL    HW225521   2.560   6.270   0.064
 8208SOL     OW25522   1.211   5.963   0.697
 8208SOL    HW125523   1.187   5.896   0.628
 8208SOL    HW225524   1.139   5.967   0.767
 8209SOL     OW25525   0.838   5.741   4.875
 8209SOL    HW125526   0.818   5.643   4.880
 8209SOL    HW225527   0.768   5.786   4.820
 8210SOL     OW25528   2.420   0.592   1.201
 8210SOL    HW125529   2.352   0.637   1.259
 8210SOL    HW225530   2.468   0.522   1.255
 8211SOL     OW25531   3.133   4.045   4.178
 8211SOL    HW125532   3.217   4.047   4.124
 8211SOL    HW225533   3.135   4.117   4.247
 8212SOL     OW25534   3.986   5.082   6.951
 8212SOL    HW125535   3.908   5.143   6.970
 8212SOL    HW225536   4.038   5.068   0.016
 8213SOL     OW25537   4.809   4.143   2.027
 8213SOL    HW125538   4.724   4.179   1.987
 8213SOL    HW225539   4.868   4.219   2.052
 8214SOL     OW25540   4.293   5.262   3.555
 8214SOL    HW125541   4.378   5.301   3.521
 8214SOL    HW225542   4.217   5.291   3.496
 8215SOL     OW25543   2.565   6.374   5.123
 8215SOL    HW125544   2.573   6.313   5.202
 8215SOL    HW225545   2.480   6.356   5.075
 8216SOL     OW25546   6.214   4.962   6.845
 8216SOL    HW125547   6.268   5.029   6.794
 8216SOL    HW225548   6.167   4.901   6.782
 8217SOL     OW25549   3.644   6.407   3.632
 8217SOL    HW125550   3.704   6.340   3.587
 8217SOL    HW225551   3.568   6.359   3.676
 8218SOL     OW25552   2.530   6.080   4.047
 8218SOL    HW125553   2.483   6.066   3.960
 8218SOL    HW225554   2.629   6.070   4.034
 8219SOL     OW25555   3.320   3.645   4.329
 8219SOL    HW125556   3.420   3.644   4.337
 8219SOL    HW225557   3.283   3.564   4.374
 8220SOL     OW25558   4.283   4.341   5.987
 8220SOL    HW125559   4.306   4.384   6.074
 8220SOL    HW225560   4.290   4.242   5.996
 8221SOL     OW25561   6.409   3.858   3.935
 8221SOL    HW125562   6.434   3.945   3.893
 8221SOL    HW225563   6.334   3.874   4.000
 8222SOL     OW25564   5.152   2.180   6.199
 8222SOL    HW125565   5.235   2.206   6.247
 8222SOL    HW225566   5.165   2.091   6.156
 8223SOL     OW25567   1.164   6.415   5.768
 8223SOL    HW125568   1.127   6.409   5.675
 8223SOL    HW225569   1.208   6.328   5.791
 8224SOL     OW25570   5.168   1.435   5.196
 8224SOL    HW125571   5.188   1.527   5.228
 8224SOL    HW225572   5.240   1.373   5.228
 8225SOL     OW25573   6.160   2.302   0.014
 8225SOL    HW125574   6.121   2.257   0.094
 8225SOL    HW225575   6.095   2.368   6.997
 8226SOL     OW25576   3.726   0.764   6.820
 8226SOL    HW125577   3.684   0.674   6.826
 8226SOL    HW225578   3.728   0.806   6.911
 8227SOL     OW25579   5.866   3.310   2.307
 8227SOL    HW125580   5.881   3.243   2.235
 8227SOL    HW225581   5.799   3.378   2.277
 8228SOL     OW25582   2.871   1.620   4.619
 8228SOL    HW125583   2.966   1.651   4.623
 8228SOL    HW225584   2.810   1.699   4.624
 8229SOL     OW25585   4.428   3.684   0.382
 8229SOL    HW125586   4.428   3.714   0.478
 8229SOL    HW225587   4.464   3.757   0.324
 8230SOL     OW25588   6.111   0.848   6.289
 8230SOL    HW125589   6.084   0.756   6.315
 8230SOL    HW225590   6.203   0.846   6.249
 8231SOL     OW25591   3.643   1.813   1.509
 8231SOL    HW125592   3.552   1.850   1.527
 8231SOL    HW225593   3.682   1.859   1.429
 8232SOL     OW25594   3.489   6.342   4.035
 8232SOL    HW125595   3.523   6.434   4.053
 8232SOL    HW225596   3.477   6.330   3.936
 8233SOL     OW25597   3.248   0.713   6.667
 8233SOL    HW125598   3.307   0.793   6.670
 8233SOL    HW225599   3.214   0.694   6.759
 8234SOL     OW25600   0.610   2.279   6.333
 8234SOL    HW125601   0.687   2.326   6.376
 8234SOL    HW225602   0.526   2.301   6.382
 8235SOL     OW25603   1.168   6.430   0.166
 8235SOL    HW125604   1.078   6.404   0.131
 8235SOL    HW225605   1.238   6.373   0.122
 8236SOL     OW25606   0.999   0.209   0.427
 8236SOL    HW125607   1.023   0.143   0.498
 8236SOL    HW225608   0.923   0.175   0.373
 8237SOL     OW25609   4.306   4.536   5.590
 8237SOL    HW125610   4.288   4.535   5.492
 8237SOL    HW225611   4.225   4.503   5.640
 8238SOL     OW25612   6.906   5.421   6.325
 8238SOL    HW125613   6.925   5.323   6.335
 8238SOL    HW225614   6.956   5.472   6.395
 8239SOL     OW25615   4.633   2.701   3.512
 8239SOL    HW125616   4.563   2.637   3.544
 8239SOL    HW225617   4.610   2.731   3.419
 8240SOL     OW25618   3.677   3.605   5.250
 8240SOL    HW125619   3.697   3.703   5.247
 8240SOL    HW225620   3.595   3.590   5.306
 8241SOL     OW25621   0.445   2.895   5.737
 8241SOL    HW125622   0.366   2.886   5.677
 8241SOL    HW225623   0.522   2.935   5.686
 8242SOL     OW25624   0.891   3.903   3.224
 8242SOL    HW125625   0.865   3.849   3.144
 8242SOL    HW225626   0.990   3.915   3.226
 8243SOL     OW25627   2.232   5.895   3.954
 8243SOL    HW125628   2.269   5.831   3.886
 8243SOL    HW225629   2.256   5.865   4.046
 8244SOL     OW25630   5.410   7.012   4.642
 8244SOL    HW125631   5.396   6.991   4.545
 8244SOL    HW225632   5.382   6.934   4.698
 8245SOL     OW25633   5.704   3.876   2.555
 8245SOL    HW125634   5.662   3.965   2.544
 8245SOL    HW225635   5.700   3.848   2.651
 8246SOL     OW25636   2.218   4.762   6.978
 8246SOL    HW125637   2.160   4.755   6.897
 8246SOL    HW225638   2.192   4.843   0.012
 8247SOL     OW25639   2.121   4.451   3.248
 8247SOL    HW125640   2.117   4.501   3.334
 8247SOL    HW225641   2.038   4.470   3.195
 8248SOL     OW25642   6.652   0.307   2.384
 8248SOL    HW125643   6.663   0.393   2.433
 8248SOL    HW225644   6.652   0.231   2.449
 8249SOL     OW25645   3.562   6.756   5.740
 8249SOL    HW125646   3.615   6.768   5.657
 8249SOL    HW225647   3.565   6.840   5.794
 8250SOL     OW25648   1.601   1.360   6.863
 8250SOL    HW125649   1.517   1.390   6.817
 8250SOL    HW225650   1.679   1.377   6.803
 8251SOL     OW25651   1.626   1.259   6.212
 8251SOL    HW125652   1.572   1.322   6.268
 8251SOL    HW225653   1.721   1.260   6.245
 8252SOL     OW25654   0.849   1.054   6.520
 8252SOL    HW125655   0.942   1.089   6.535
 8252SOL    HW225656   0.796   1.120   6.467
 8253SOL     OW25657   6.827   3.723   4.998
 8253SOL    HW125658   6.830   3.781   5.080
 8253SOL    HW225659   6.870   3.771   4.922
 8254SOL     OW25660   4.721   4.296   0.153
 8254SOL    HW125661   4.663   4.250   0.085
 8254SOL    HW225662   4.806   4.326   0.109
 8255SOL     OW25663   1.699   6.123   5.539
 8255SOL    HW125664   1.627   6.185   5.568
 8255SOL    HW225665   1.707   6.048   5.605
 8256SOL     OW25666   1.761   5.776   2.719
 8256SOL    HW125667   1.834   5.844   2.728
 8256SOL    HW225668   1.801   5.685   2.709
 8257SOL     OW25669   4.711   4.733   3.528
 8257SOL    HW125670   4.707   4.638   3.559
 8257SOL    HW225671   4.806   4.764   3.530
 8258SOL     OW25672   0.300   2.950   4.473
 8258SOL    HW125673   0.293   2.916   4.566
 8258SOL    HW225674   0.389   2.995   4.460
 8259SOL     OW25675   5.512   3.718   4.206
 8259SOL    HW125676   5.416   3.721   4.234
 8259SOL    HW225677   5.532   3.629   4.166
 8260SOL     OW25678   4.964   2.559   6.539
 8260SOL    HW125679   5.052   2.517   6.560
 8260SOL    HW225680   4.949   2.557   6.440
 8261SOL     OW25681   5.340   2.375   2.537
 8261SOL    HW125682   5.268   2.403   2.600
 8261SOL    HW225683   5.304   2.309   2.472
 8262SOL     OW25684   5.257   4.286   2.130
 8262SOL    HW125685   5.312   4.224   2.186
 8262SOL    HW225686   5.287   4.380   2.145
 8263SOL     OW25687   6.947   1.306   0.151
 8263SOL    HW125688   6.944   1.378   0.221
 8263SOL    HW225689   6.945   1.216   0.196
 8264SOL     OW25690   3.180   1.546   1.824
 8264SOL    HW125691   3.107   1.570   1.759
 8264SOL    HW225692   3.261   1.600   1.804
 8265SOL     OW25693   5.313   5.466   6.779
 8265SOL    HW125694   5.332   5.563   6.764
 8265SOL    HW225695   5.360   5.411   6.710
 8266SOL     OW25696   4.454   2.455   2.787
 8266SOL    HW125697   4.443   2.511   2.706
 8266SOL    HW225698   4.509   2.504   2.855
 8267SOL     OW25699   2.083   3.265   2.821
 8267SOL    HW125700   2.103   3.250   2.917
 8267SOL    HW225701   2.121   3.190   2.767
 8268SOL     OW25702   2.535   4.984   1.045
 8268SOL    HW125703   2.467   5.033   0.991
 8268SOL    HW225704   2.623   5.033   1.040
 8269SOL     OW25705   6.810   2.081   3.236
 8269SOL    HW125706   6.787   2.102   3.141
 8269SOL    HW225707   6.729   2.094   3.293
 8270SOL     OW25708   4.219   5.094   0.145
 8270SOL    HW125709   4.214   5.032   0.223
 8270SOL    HW225710   4.308   5.085   0.100
 8271SOL     OW25711   2.326   6.862   5.482
 8271SOL    HW125712   2.229   6.852   5.506
 8271SOL    HW225713   2.370   6.923   5.548
 8272SOL     OW25714   0.329   0.855   1.759
 8272SOL    HW125715   0.247   0.854   1.816
 8272SOL    HW225716   0.317   0.923   1.686
 8273SOL     OW25717   5.088   0.130   5.839
 8273SOL    HW125718   5.110   0.190   5.915
 8273SOL    HW225719   5.170   0.114   5.784
 8274SOL     OW25720   5.625   6.569   3.781
 8274SOL    HW125721   5.540   6.521   3.759
 8274SOL    HW225722   5.611   6.668   3.772
 8275SOL     OW25723   4.995   0.742   4.150
 8275SOL    HW125724   4.930   0.748   4.074
 8275SOL    HW225725   5.025   0.833   4.176
 8276SOL     OW25726   5.066   2.470   0.925
 8276SOL    HW125727   5.101   2.385   0.884
 8276SOL    HW225728   5.072   2.464   1.025
 8277SOL     OW25729   0.956   6.895   1.814
 8277SOL    HW125730   0.889   6.961   1.778
 8277SOL    HW225731   0.946   6.808   1.765
 8278SOL     OW25732   1.601   0.756   1.550
 8278SOL    HW125733   1.654   0.837   1.528
 8278SOL    HW225734   1.573   0.710   1.466
 8279SOL     OW25735   6.017   4.371   5.627
 8279SOL    HW125736   6.049   4.393   5.719
 8279SOL    HW225737   5.940   4.307   5.633
 8280SOL     OW25738   0.085   4.902   0.032
 8280SOL    HW125739   0.072   4.859   0.121
 8280SOL    HW225740   7.014   4.918   7.008
 8281SOL     OW25741   2.587   4.776   6.986
 8281SOL    HW125742   2.508   4.817   6.940
 8281SOL    HW225743   2.587   4.677   6.969
 8282SOL     OW25744   4.648   3.010   1.004
 8282SOL    HW125745   4.711   3.028   0.929
 8282SOL    HW225746   4.553   3.020   0.972
 8283SOL     OW25747   0.969   2.080   3.878
 8283SOL    HW125748   1.043   2.051   3.818
 8283SOL    HW225749   0.931   2.166   3.844
 8284SOL     OW25750   4.730   2.588   1.214
 8284SOL    HW125751   4.781   2.661   1.169
 8284SOL    HW225752   4.669   2.628   1.282
 8285SOL     OW25753   0.179   4.984   6.786
 8285SOL    HW125754   0.116   4.929   6.841
 8285SOL    HW225755   0.133   5.014   6.703
 8286SOL     OW25756   6.410   2.147   0.005
 8286SOL    HW125757   6.419   2.072   0.071
 8286SOL    HW225758   6.333   2.205   0.031
 8287SOL     OW25759   0.709   1.809   3.001
 8287SOL    HW125760   0.775   1.882   2.982
 8287SOL    HW225761   0.686   1.809   3.098
 8288SOL     OW25762   2.206   6.730   2.712
 8288SOL    HW125763   2.294   6.751   2.670
 8288SOL    HW225764   2.221   6.668   2.790
 8289SOL     OW25765   6.097   6.883   0.678
 8289SOL    HW125766   6.096   6.950   0.752
 8289SOL    HW225767   6.178   6.897   0.621
 8290SOL     OW25768   4.585   2.900   1.645
 8290SOL    HW125769   4.605   2.940   1.555
 8290SOL    HW225770   4.607   2.967   1.716
 8291SOL     OW25771   5.791   5.313   5.208
 8291SOL    HW125772   5.769   5.229   5.160
 8291SOL    HW225773   5.830   5.380   5.144
 8292SOL     OW25774   0.214   4.029   5.734
 8292SOL    HW125775   0.197   3.967   5.811
 8292SOL    HW225776   0.250   3.978   5.657
 8293SOL     OW25777   2.765   5.236   4.412
 8293SOL    HW125778   2.760   5.334   4.398
 8293SOL    HW225779   2.791   5.217   4.507
 8294SOL     OW25780   6.522   3.630   5.713
 8294SOL    HW125781   6.492   3.584   5.796
 8294SOL    HW225782   6.488   3.724   5.712
 8295SOL     OW25783   4.192   4.507   1.416
 8295SOL    HW125784   4.278   4.555   1.435
 8295SOL    HW225785   4.136   4.503   1.499
 8296SOL     OW25786   3.144   0.334   2.103
 8296SOL    HW125787   3.156   0.237   2.122
 8296SOL    HW225788   3.108   0.346   2.011
 8297SOL     OW25789   6.086   4.535   1.876
 8297SOL    HW125790   6.066   4.622   1.832
 8297SOL    HW225791   6.056   4.538   1.972
 8298SOL     OW25792   6.963   6.285   0.637
 8298SOL    HW125793   0.021   6.257   0.695
 8298SOL    HW225794   6.945   6.213   0.569
 8299SOL     OW25795   1.137   1.646   6.987
 8299SOL    HW125796   1.153   1.562   6.935
 8299SOL    HW225797   1.217   1.706   6.979
 8300SOL     OW25798   4.250   6.737   4.393
 8300SOL    HW125799   4.308   6.818   4.388
 8300SOL    HW225800   4.182   6.741   4.321
 8301SOL     OW25801   6.349   4.769   6.395
 8301SOL    HW125802   6.372   4.842   6.459
 8301SOL    HW225803   6.291   4.701   6.442
 8302SOL     OW25804   3.511   5.948   6.115
 8302SOL    HW125805   3.609   5.966   6.122
 8302SOL    HW225806   3.465   5.982   6.198
 8303SOL     OW25807   0.092   4.562   4.141
 8303SOL    HW125808   0.088   4.497   4.217
 8303SOL    HW225809   0.058   4.651   4.172
 8304SOL     OW25810   5.793   2.978   4.031
 8304SOL    HW125811   5.742   2.997   4.114
 8304SOL    HW225812   5.736   2.996   3.951
 8305SOL     OW25813   4.362   6.387   5.980
 8305SOL    HW125814   4.417   6.305   5.997
 8305SOL    HW225815   4.269   6.360   5.955
 8306SOL     OW25816   5.429   1.146   3.561
 8306SOL    HW125817   5.518   1.121   3.599
 8306SOL    HW225818   5.383   1.209   3.623
 8307SOL     OW25819   0.032   4.709   4.478
 8307SOL    HW125820   0.127   4.722   4.448
 8307SOL    HW225821   0.031   4.661   4.565
 8308SOL     OW25822   2.208   4.966   0.529
 8308SOL    HW125823   2.246   5.041   0.475
 8308SOL    HW225824   2.141   4.916   0.475
 8309SOL     OW25825   5.739   5.194   2.613
 8309SOL    HW125826   5.679   5.174   2.535
 8309SOL    HW225827   5.693   5.255   2.676
 8310SOL     OW25828   2.088   5.878   2.710
 8310SOL    HW125829   2.130   5.837   2.791
 8310SOL    HW225830   2.106   5.976   2.709
 8311SOL     OW25831   4.884   6.742   2.685
 8311SOL    HW125832   4.968   6.691   2.665
 8311SOL    HW225833   4.884   6.827   2.633
 8312SOL     OW25834   6.763   6.946   0.793
 8312SOL    HW125835   6.709   6.875   0.838
 8312SOL    HW225836   6.726   6.964   0.702
 8313SOL     OW25837   4.751   2.474   5.895
 8313SOL    HW125838   4.756   2.566   5.856
 8313SOL    HW225839   4.656   2.452   5.916
 8314SOL     OW25840   5.569   6.308   4.943
 8314SOL    HW125841   5.521   6.276   4.862
 8314SOL    HW225842   5.519   6.280   5.025
 8315SOL     OW25843   3.614   1.382   0.413
 8315SOL    HW125844   3.571   1.472   0.424
 8315SOL    HW225845   3.657   1.377   0.323
 8316SOL     OW25846   1.598   1.467   4.525
 8316SOL    HW125847   1.566   1.420   4.443
 8316SOL    HW225848   1.681   1.518   4.504
 8317SOL     OW25849   2.274   1.706   6.123
 8317SOL    HW125850   2.373   1.704   6.112
 8317SOL    HW225851   2.234   1.764   6.051
 8318SOL     OW25852   4.106   6.257   5.193
 8318SOL    HW125853   4.021   6.261   5.141
 8318SOL    HW225854   4.091   6.203   5.276
 8319SOL     OW25855   2.855   5.986   6.158
 8319SOL    HW125856   2.845   5.896   6.116
 8319SOL    HW225857   2.765   6.024   6.179
 8320SOL     OW25858   4.065   5.469   5.101
 8320SOL    HW125859   4.072   5.539   5.030
 8320SOL    HW225860   4.151   5.464   5.152
 8321SOL     OW25861   0.333   0.265   0.226
 8321SOL    HW125862   0.363   0.359   0.244
 8321SOL    HW225863   0.269   0.265   0.149
 8322SOL     OW25864   2.395   0.193   2.050
 8322SOL    HW125865   2.415   0.270   1.989
 8322SOL    HW225866   2.475   0.133   2.054
 8323SOL     OW25867   6.264   5.645   6.516
 8323SOL    HW125868   6.178   5.606   6.550
 8323SOL    HW225869   6.244   5.724   6.457
 8324SOL     OW25870   6.723   6.170   5.591
 8324SOL    HW125871   6.752   6.084   5.634
 8324SOL    HW225872   6.747   6.247   5.650
 8325SOL     OW25873   1.389   5.667   5.165
 8325SOL    HW125874   1.317   5.643   5.100
 8325SOL    HW225875   1.370   5.757   5.204
 8326SOL     OW25876   2.785   0.895   6.752
 8326SOL    HW125877   2.775   0.994   6.765
 8326SOL    HW225878   2.858   0.861   6.811
 8327SOL     OW25879   0.511   6.340   5.830
 8327SOL    HW125880   0.561   6.426   5.839
 8327SOL    HW225881   0.485   6.327   5.734
 8328SOL     OW25882   0.709   7.011   0.568
 8328SOL    HW125883   0.641   0.032   0.629
 8328SOL    HW225884   0.664   6.945   0.507
 8329SOL     OW25885   1.614   2.251   5.545
 8329SOL    HW125886   1.565   2.204   5.619
 8329SOL    HW225887   1.629   2.346   5.571
 8330SOL     OW25888   3.637   6.854   6.788
 8330SOL    HW125889   3.620   6.950   6.767
 8330SOL    HW225890   3.562   6.818   6.843
 8331SOL     OW25891   1.597   2.532   5.534
 8331SOL    HW125892   1.512   2.509   5.486
 8331SOL    HW225893   1.584   2.616   5.587
 8332SOL     OW25894   5.522   4.086   0.954
 8332SOL    HW125895   5.615   4.119   0.971
 8332SOL    HW225896   5.525   4.010   0.890
 8333SOL     OW25897   2.313   4.494   5.843
 8333SOL    HW125898   2.235   4.465   5.898
 8333SOL    HW225899   2.340   4.586   5.869
 8334SOL     OW25900   3.010   2.829   5.326
 8334SOL    HW125901   3.020   2.730   5.337
 8334SOL    HW225902   3.025   2.874   5.413
 8335SOL     OW25903   6.307   2.972   0.050
 8335SOL    HW125904   6.350   3.029   6.998
 8335SOL    HW225905   6.307   3.021   0.137
 8336SOL     OW25906   0.511   4.525   3.714
 8336SOL    HW125907   0.417   4.494   3.705
 8336SOL    HW225908   0.573   4.447   3.702
 8337SOL     OW25909   6.455   6.596   4.498
 8337SOL    HW125910   6.550   6.607   4.467
 8337SOL    HW225911   6.416   6.686   4.518
 8338SOL     OW25912   2.320   4.582   0.580
 8338SOL    HW125913   2.259   4.514   0.621
 8338SOL    HW225914   2.318   4.666   0.635
 8339SOL     OW25915   6.718   0.485   1.787
 8339SOL    HW125916   6.759   0.401   1.751
 8339SOL    HW225917   6.623   0.468   1.812
 8340SOL     OW25918   6.059   2.399   6.603
 8340SOL    HW125919   6.127   2.351   6.659
 8340SOL    HW225920   5.979   2.341   6.591
 8341SOL     OW25921   3.585   0.184   1.188
 8341SOL    HW125922   3.502   0.238   1.174
 8341SOL    HW225923   3.649   0.201   1.113
 8342SOL     OW25924   3.949   0.933   1.616
 8342SOL    HW125925   3.930   0.960   1.522
 8342SOL    HW225926   4.030   0.981   1.649
 8343SOL     OW25927   4.404   6.509   3.087
 8343SOL    HW125928   4.395   6.561   3.172
 8343SOL    HW225929   4.371   6.415   3.102
 8344SOL     OW25930   2.247   4.156   4.720
 8344SOL    HW125931   2.274   4.126   4.811
 8344SOL    HW225932   2.203   4.080   4.672
 8345SOL     OW25933   6.931   0.023   4.113
 8345SOL    HW125934   6.879   7.017   4.195
 8345SOL    HW225935   6.967   6.959   4.071
 8346SOL     OW25936   5.662   4.295   3.233
 8346SOL    HW125937   5.563   4.277   3.233
 8346SOL    HW225938   5.694   4.299   3.328
 8347SOL     OW25939   1.080   1.026   7.013
 8347SOL    HW125940   1.118   1.093   6.950
 8347SOL    HW225941   1.108   0.934   6.985
 8348SOL     OW25942   2.619   6.754   0.464
 8348SOL    HW125943   2.590   6.660   0.447
 8348SOL    HW225944   2.571   6.815   0.400
 8349SOL     OW25945   4.867   5.747   1.342
 8349SOL    HW125946   4.881   5.766   1.245
 8349SOL    HW225947   4.928   5.805   1.397
 8350SOL     OW25948   2.292   0.901   6.544
 8350SOL    HW125949   2.259   0.945   6.628
 8350SOL    HW225950   2.220   0.841   6.508
 8351SOL     OW25951   0.115   3.878   3.125
 8351SOL    HW125952   0.166   3.793   3.113
 8351SOL    HW225953   0.084   3.912   3.035
 8352SOL     OW25954   2.227   0.315   6.452
 8352SOL    HW125955   2.140   0.272   6.427
 8352SOL    HW225956   2.251   0.383   6.383
 8353SOL     OW25957   0.758   6.034   2.718
 8353SOL    HW125958   0.778   6.067   2.626
 8353SOL    HW225959   0.669   6.068   2.747
 8354SOL     OW25960   5.172   2.765   3.871
 8354SOL    HW125961   5.089   2.722   3.907
 8354SOL    HW225962   5.232   2.790   3.947
 8355SOL     OW25963   3.559   4.531   5.699
 8355SOL    HW125964   3.486   4.498   5.638
 8355SOL    HW225965   3.537   4.625   5.728
 8356SOL     OW25966   3.314   3.147   2.398
 8356SOL    HW125967   3.322   3.216   2.325
 8356SOL    HW225968   3.262   3.069   2.364
 8357SOL     OW25969   2.808   6.435   5.359
 8357SOL    HW125970   2.770   6.380   5.433
 8357SOL    HW225971   2.872   6.379   5.306
 8358SOL     OW25972   0.479   0.317   4.846
 8358SOL    HW125973   0.390   0.329   4.803
 8358SOL    HW225974   0.526   0.239   4.805
 8359SOL     OW25975   4.916   2.402   5.066
 8359SOL    HW125976   4.886   2.424   5.159
 8359SOL    HW225977   4.856   2.448   5.000
 8360SOL     OW25978   3.180   0.147   2.527
 8360SOL    HW125979   3.223   0.237   2.523
 8360SOL    HW225980   3.174   0.109   2.435
 8361SOL     OW25981   4.624   1.486   6.808
 8361SOL    HW125982   4.655   1.422   6.878
 8361SOL    HW225983   4.569   1.558   6.851
 8362SOL     OW25984   0.690   4.553   1.751
 8362SOL    HW125985   0.644   4.482   1.805
 8362SOL    HW225986   0.621   4.607   1.703
 8363SOL     OW25987   3.567   2.283   1.483
 8363SOL    HW125988   3.514   2.347   1.427
 8363SOL    HW225989   3.521   2.269   1.571
 8364SOL     OW25990   0.838   1.592   3.409
 8364SOL    HW125991   0.740   1.594   3.389
 8364SOL    HW225992   0.859   1.658   3.481
 8365SOL     OW25993   2.463   2.613   1.031
 8365SOL    HW125994   2.453   2.615   0.932
 8365SOL    HW225995   2.560   2.605   1.055
 8366SOL     OW25996   5.029   5.943   1.603
 8366SOL    HW125997   5.062   6.024   1.651
 8366SOL    HW225998   4.963   5.894   1.660
 8367SOL     OW25999   1.086   4.789   3.990
 8367SOL    HW126000   1.030   4.871   4.007
 8367SOL    HW226001   1.128   4.759   4.076
 8368SOL     OW26002   0.659   3.052   6.230
 8368SOL    HW126003   0.718   2.973   6.249
 8368SOL    HW226004   0.600   3.032   6.152
 8369SOL     OW26005   0.890   0.857   0.926
 8369SOL    HW126006   0.888   0.832   0.829
 8369SOL    HW226007   0.951   0.796   0.976
 8370SOL     OW26008   2.454   3.160   1.329
 8370SOL    HW126009   2.460   3.138   1.232
 8370SOL    HW226010   2.539   3.135   1.375
 8371SOL     OW26011   2.917   4.293   5.538
 8371SOL    HW126012   2.983   4.234   5.583
 8371SOL    HW226013   2.825   4.253   5.545
 8372SOL     OW26014   1.729   6.744   2.860
 8372SOL    HW126015   1.791   6.794   2.801
 8372SOL    HW226016   1.740   6.774   2.955
 8373SOL     OW26017   6.012   0.401   4.390
 8373SOL    HW126018   6.051   0.401   4.298
 8373SOL    HW226019   6.069   0.457   4.450
 8374SOL     OW26020   0.500   2.460   3.922
 8374SOL    HW126021   0.500   2.547   3.873
 8374SOL    HW226022   0.433   2.463   3.995
 8375SOL     OW26023   2.057   2.849   5.458
 8375SOL    HW126024   2.135   2.904   5.428
 8375SOL    HW226025   2.090   2.773   5.513
 8376SOL     OW26026   0.967   1.618   3.680
 8376SOL    HW126027   1.000   1.670   3.760
 8376SOL    HW226028   0.972   1.520   3.700
 8377SOL     OW26029   4.298   5.490   1.499
 8377SOL    HW126030   4.341   5.407   1.534
 8377SOL    HW226031   4.215   5.466   1.449
 8378SOL     OW26032   4.257   6.074   5.793
 8378SOL    HW126033   4.326   6.003   5.807
 8378SOL    HW226034   4.182   6.038   5.738
 8379SOL     OW26035   5.832   2.573   1.798
 8379SOL    HW126036   5.872   2.526   1.876
 8379SOL    HW226037   5.900   2.636   1.760
 8380SOL     OW26038   0.953   4.882   2.636
 8380SOL    HW126039   0.973   4.859   2.541
 8380SOL    HW226040   1.038   4.884   2.688
 8381SOL     OW26041   0.850   2.690   2.780
 8381SOL    HW126042   0.796   2.748   2.718
 8381SOL    HW226043   0.882   2.745   2.857
 8382SOL     OW26044   1.191   0.011   1.885
 8382SOL    HW126045   1.102   6.988   1.865
 8382SOL    HW226046   1.224   0.061   1.805
 8383SOL     OW26047   1.964   6.773   4.968
 8383SOL    HW126048   1.916   6.734   5.046
 8383SOL    HW226049   2.048   6.722   4.950
 8384SOL     OW26050   0.532   4.300   3.893
 8384SOL    HW126051   0.540   4.236   3.817
 8384SOL    HW226052   0.441   4.292   3.934
 8385SOL     OW26053   4.572   2.586   2.001
 8385SOL    HW126054   4.631   2.654   2.044
 8385SOL    HW226055   4.529   2.625   1.920
 8386SOL     OW26056   6.539   5.452   2.359
 8386SOL    HW126057   6.505   5.358   2.351
 8386SOL    HW226058   6.577   5.466   2.451
 8387SOL     OW26059   0.549   2.638   3.283
 8387SOL    HW126060   0.523   2.544   3.307
 8387SOL    HW226061   0.507   2.702   3.347
 8388SOL     OW26062   3.370   6.206   1.583
 8388SOL    HW126063   3.270   6.211   1.580
 8388SOL    HW226064   3.398   6.159   1.667
 8389SOL     OW26065   1.266   2.656   4.300
 8389SOL    HW126066   1.293   2.648   4.204
 8389SOL    HW226067   1.188   2.597   4.318
 8390SOL     OW26068   1.215   6.447   6.670
 8390SOL    HW126069   1.215   6.356   6.712
 8390SOL    HW226070   1.239   6.439   6.574
 8391SOL     OW26071   4.858   6.144   0.740
 8391SOL    HW126072   4.811   6.213   0.685
 8391SOL    HW226073   4.956   6.149   0.722
 8392SOL     OW26074   3.310   5.919   0.665
 8392SOL    HW126075   3.296   5.825   0.698
 8392SOL    HW226076   3.255   5.933   0.583
 8393SOL     OW26077   1.848   6.431   1.979
 8393SOL    HW126078   1.890   6.446   1.890
 8393SOL    HW226079   1.783   6.505   1.998
 8394SOL     OW26080   2.013   1.223   3.776
 8394SOL    HW126081   2.069   1.282   3.834
 8394SOL    HW226082   1.927   1.203   3.822
 8395SOL     OW26083   2.134   6.146   6.248
 8395SOL    HW126084   2.138   6.046   6.240
 8395SOL    HW226085   2.200   6.177   6.316
 8396SOL     OW26086   4.860   1.657   0.497
 8396SOL    HW126087   4.790   1.594   0.531
 8396SOL    HW226088   4.950   1.629   0.530
 8397SOL     OW26089   0.348   4.268   3.511
 8397SOL    HW126090   0.415   4.219   3.569
 8397SOL    HW226091   0.271   4.208   3.493
 8398SOL     OW26092   5.583   1.681   6.432
 8398SOL    HW126093   5.494   1.688   6.387
 8398SOL    HW226094   5.571   1.647   6.526
 8399SOL     OW26095   5.615   6.658   5.385
 8399SOL    HW126096   5.556   6.657   5.465
 8399SOL    HW226097   5.659   6.569   5.375
 8400SOL     OW26098   6.135   6.118   3.304
 8400SOL    HW126099   6.131   6.206   3.257
 8400SOL    HW226100   6.223   6.074   3.287
 8401SOL     OW26101   2.617   3.472   5.344
 8401SOL    HW126102   2.565   3.528   5.408
 8401SOL    HW226103   2.584   3.378   5.347
 8402SOL     OW26104   4.531   1.293   4.570
 8402SOL    HW126105   4.488   1.379   4.594
 8402SOL    HW226106   4.460   1.223   4.555
 8403SOL     OW26107   0.525   1.476   6.298
 8403SOL    HW126108   0.551   1.519   6.385
 8403SOL    HW226109   0.599   1.487   6.232
 8404SOL     OW26110   4.814   4.927   5.148
 8404SOL    HW126111   4.876   4.986   5.097
 8404SOL    HW226112   4.747   4.887   5.085
 8405SOL     OW26113   0.695   2.267   6.079
 8405SOL    HW126114   0.727   2.360   6.064
 8405SOL    HW226115   0.656   2.259   6.171
 8406SOL     OW26116   5.958   3.974   1.545
 8406SOL    HW126117   6.013   3.905   1.593
 8406SOL    HW226118   5.936   3.940   1.453
 8407SOL     OW26119   5.513   3.406   2.562
 8407SOL    HW126120   5.489   3.493   2.604
 8407SOL    HW226121   5.489   3.331   2.624
 8408SOL     OW26122   4.878   4.414   4.157
 8408SOL    HW126123   4.793   4.461   4.183
 8408SOL    HW226124   4.892   4.422   4.058
 8409SOL     OW26125   1.278   1.948   4.085
 8409SOL    HW126126   1.341   1.997   4.145
 8409SOL    HW226127   1.184   1.975   4.107
 8410SOL     OW26128   2.041   5.417   2.453
 8410SOL    HW126129   2.017   5.477   2.377
 8410SOL    HW226130   2.123   5.450   2.498
 8411SOL     OW26131   1.782   3.291   3.175
 8411SOL    HW126132   1.730   3.311   3.092
 8411SOL    HW226133   1.755   3.356   3.247
 8412SOL     OW26134   5.387   2.098   2.548
 8412SOL    HW126135   5.380   2.194   2.577
 8412SOL    HW226136   5.317   2.044   2.595
 8413SOL     OW26137   1.584   5.421   2.004
 8413SOL    HW126138   1.603   5.428   2.102
 8413SOL    HW226139   1.600   5.327   1.974
 8414SOL     OW26140   6.170   6.949   4.348
 8414SOL    HW126141   6.085   6.898   4.339
 8414SOL    HW226142   6.192   6.993   4.261
 8415SOL     OW26143   0.578   5.001   0.907
 8415SOL    HW126144   0.479   4.996   0.906
 8415SOL    HW226145   0.615   4.925   0.961
 8416SOL     OW26146   4.226   4.802   3.104
 8416SOL    HW126147   4.127   4.814   3.110
 8416SOL    HW226148   4.265   4.875   3.046
 8417SOL     OW26149   0.572   5.457   0.265
 8417SOL    HW126150   0.553   5.524   0.337
 8417SOL    HW226151   0.503   5.464   0.194
 8418SOL     OW26152   5.249   6.249   2.833
 8418SOL    HW126153   5.277   6.214   2.743
 8418SOL    HW226154   5.199   6.178   2.883
 8419SOL     OW26155   2.863   1.233   3.026
 8419SOL    HW126156   2.936   1.219   3.094
 8419SOL    HW226157   2.898   1.290   2.951
 8420SOL     OW26158   4.775   1.815   5.352
 8420SOL    HW126159   4.779   1.777   5.444
 8420SOL    HW226160   4.865   1.805   5.309
 8421SOL     OW26161   0.401   0.824   0.474
 8421SOL    HW126162   0.470   0.808   0.545
 8421SOL    HW226163   0.316   0.854   0.517
 8422SOL     OW26164   2.908   0.898   1.142
 8422SOL    HW126165   2.828   0.850   1.105
 8422SOL    HW226166   2.951   0.951   1.069
 8423SOL     OW26167   2.015   4.626   1.135
 8423SOL    HW126168   2.080   4.694   1.101
 8423SOL    HW226169   2.004   4.637   1.234
 8424SOL     OW26170   2.682   2.098   1.965
 8424SOL    HW126171   2.759   2.160   1.979
 8424SOL    HW226172   2.688   2.058   1.873
 8425SOL     OW26173   0.300   5.118   5.672
 8425SOL    HW126174   0.298   5.187   5.745
 8425SOL    HW226175   0.383   5.063   5.681
 8426SOL     OW26176   3.814   3.759   1.963
 8426SOL    HW126177   3.785   3.663   1.961
 8426SOL    HW226178   3.908   3.764   1.998
 8427SOL     OW26179   2.524   1.103   6.906
 8427SOL    HW126180   2.524   1.023   6.846
 8427SOL    HW226181   2.586   1.087   6.982
 8428SOL     OW26182   6.289   3.657   1.759
 8428SOL    HW126183   6.358   3.661   1.687
 8428SOL    HW226184   6.332   3.629   1.845
 8429SOL     OW26185   1.229   6.724   2.938
 8429SOL    HW126186   1.269   6.787   3.005
 8429SOL    HW226187   1.173   6.775   2.873
 8430SOL     OW26188   3.588   6.411   3.211
 8430SOL    HW126189   3.620   6.331   3.262
 8430SOL    HW226190   3.528   6.382   3.137
 8431SOL     OW26191   3.043   3.009   2.376
 8431SOL    HW126192   3.031   3.051   2.286
 8431SOL    HW226193   3.117   2.941   2.371
 8432SOL     OW26194   4.991   5.691   0.206
 8432SOL    HW126195   4.924   5.764   0.217
 8432SOL    HW226196   5.061   5.720   0.141
 8433SOL     OW26197   0.217   1.578   3.967
 8433SOL    HW126198   0.293   1.631   4.006
 8433SOL    HW226199   0.250   1.488   3.941
 8434SOL     OW26200   5.378   6.615   6.674
 8434SOL    HW126201   5.357   6.702   6.719
 8434SOL    HW226202   5.476   6.608   6.657
 8435SOL     OW26203   4.968   3.536   0.735
 8435SOL    HW126204   4.878   3.574   0.713
 8435SOL    HW226205   5.003   3.580   0.818
 8436SOL     OW26206   3.328   4.114   1.612
 8436SOL    HW126207   3.403   4.162   1.567
 8436SOL    HW226208   3.365   4.048   1.678
 8437SOL     OW26209   0.351   2.642   0.565
 8437SOL    HW126210   0.268   2.590   0.544
 8437SOL    HW226211   0.375   2.630   0.661
 8438SOL     OW26212   2.423   5.546   1.530
 8438SOL    HW126213   2.345   5.541   1.592
 8438SOL    HW226214   2.394   5.587   1.443
 8439SOL     OW26215   5.320   0.227   2.174
 8439SOL    HW126216   5.226   0.217   2.144
 8439SOL    HW226217   5.355   0.138   2.204
 8440SOL     OW26218   1.311   4.089   3.941
 8440SOL    HW126219   1.327   4.184   3.915
 8440SOL    HW226220   1.242   4.049   3.880
 8441SOL     OW26221   3.745   5.701   1.346
 8441SOL    HW126222   3.743   5.691   1.445
 8441SOL    HW226223   3.810   5.773   1.321
 8442SOL     OW26224   2.632   3.157   0.898
 8442SOL    HW126225   2.654   3.186   0.991
 8442SOL    HW226226   2.694   3.201   0.833
 8443SOL     OW26227   0.021   2.592   1.036
 8443SOL    HW126228   6.951   2.549   1.016
 8443SOL    HW226229   0.058   2.632   0.952
 8444SOL     OW26230   5.039   2.400   3.094
 8444SOL    HW126231   5.096   2.421   3.173
 8444SOL    HW226232   5.027   2.482   3.038
 8445SOL     OW26233   3.734   5.690   2.364
 8445SOL    HW126234   3.798   5.766   2.370
 8445SOL    HW226235   3.774   5.607   2.403
 8446SOL     OW26236   5.711   3.636   3.116
 8446SOL    HW126237   5.616   3.664   3.133
 8446SOL    HW226238   5.739   3.569   3.184
 8447SOL     OW26239   5.456   4.633   1.636
 8447SOL    HW126240   5.424   4.583   1.555
 8447SOL    HW226241   5.553   4.611   1.652
 8448SOL     OW26242   1.627   4.758   5.634
 8448SOL    HW126243   1.597   4.674   5.680
 8448SOL    HW226244   1.602   4.753   5.537
 8449SOL     OW26245   1.575   0.530   5.600
 8449SOL    HW126246   1.659   0.554   5.551
 8449SOL    HW226247   1.521   0.612   5.616
 8450SOL     OW26248   1.703   5.976   0.810
 8450SOL    HW126249   1.729   5.957   0.905
 8450SOL    HW226250   1.768   5.932   0.748
 8451SOL     OW26251   2.686   4.110   1.349
 8451SOL    HW126252   2.621   4.149   1.414
 8451SOL    HW226253   2.643   4.099   1.260
 8452SOL     OW26254   6.780   6.047   2.550
 8452SOL    HW126255   6.681   6.036   2.540
 8452SOL    HW226256   6.807   6.025   2.644
 8453SOL     OW26257   0.619   4.442   5.319
 8453SOL    HW126258   0.541   4.410   5.373
 8453SOL    HW226259   0.612   4.541   5.304
 8454SOL     OW26260   1.748   6.668   5.515
 8454SOL    HW126261   1.775   6.761   5.492
 8454SOL    HW226262   1.830   6.611   5.523
 8455SOL     OW26263   6.029   2.178   0.229
 8455SOL    HW126264   6.002   2.245   0.298
 8455SOL    HW226265   6.066   2.096   0.274
 8456SOL     OW26266   6.281   4.304   3.531
 8456SOL    HW126267   6.337   4.287   3.450
 8456SOL    HW226268   6.294   4.398   3.561
 8457SOL     OW26269   5.728   6.154   5.961
 8457SOL    HW126270   5.725   6.113   6.052
 8457SOL    HW226271   5.791   6.102   5.903
 8458SOL     OW26272   1.059   1.563   1.571
 8458SOL    HW126273   1.009   1.483   1.538
 8458SOL    HW226274   1.048   1.570   1.670
 8459SOL     OW26275   2.816   4.727   2.879
 8459SOL    HW126276   2.895   4.787   2.865
 8459SOL    HW226277   2.795   4.678   2.795
 8460SOL     OW26278   3.765   1.099   0.992
 8460SOL    HW126279   3.708   1.065   1.066
 8460SOL    HW226280   3.861   1.094   1.018
 8461SOL     OW26281   5.670   4.812   3.173
 8461SOL    HW126282   5.700   4.722   3.140
 8461SOL    HW226283   5.573   4.809   3.195
 8462SOL     OW26284   2.079   3.556   0.894
 8462SOL    HW126285   2.166   3.605   0.895
 8462SOL    HW226286   2.078   3.492   0.816
 8463SOL     OW26287   0.161   6.293   1.021
 8463SOL    HW126288   0.062   6.297   1.033
 8463SOL    HW226289   0.206   6.334   1.100
 8464SOL     OW26290   0.522   3.181   6.612
 8464SOL    HW126291   0.470   3.265   6.596
 8464SOL    HW226292   0.615   3.193   6.575
 8465SOL     OW26293   6.025   4.074   0.433
 8465SOL    HW126294   6.096   4.137   0.401
 8465SOL    HW226295   5.941   4.124   0.449
 8466SOL     OW26296   0.477   1.302   4.841
 8466SOL    HW126297   0.414   1.237   4.884
 8466SOL    HW226298   0.502   1.268   4.751
 8467SOL     OW26299   3.261   1.490   1.153
 8467SOL    HW126300   3.230   1.582   1.174
 8467SOL    HW226301   3.215   1.425   1.214
 8468SOL     OW26302   6.468   3.688   1.556
 8468SOL    HW126303   6.564   3.690   1.583
 8468SOL    HW226304   6.462   3.698   1.457
 8469SOL     OW26305   3.440   2.787   5.456
 8469SOL    HW126306   3.387   2.767   5.538
 8469SOL    HW226307   3.475   2.701   5.417
 8470SOL     OW26308   2.044   5.686   1.293
 8470SOL    HW126309   2.006   5.724   1.377
 8470SOL    HW226310   2.098   5.604   1.314
 8471SOL     OW26311   4.241   2.306   3.863
 8471SOL    HW126312   4.177   2.314   3.787
 8471SOL    HW226313   4.332   2.332   3.833
 8472SOL     OW26314   6.368   1.446   7.011
 8472SOL    HW126315   6.308   1.403   6.944
 8472SOL    HW226316   6.459   1.458   6.970
 8473SOL     OW26317   4.890   5.008   5.393
 8473SOL    HW126318   4.845   4.968   5.314
 8473SOL    HW226319   4.832   5.080   5.431
 8474SOL     OW26320   3.383   3.945   6.307
 8474SOL    HW126321   3.437   3.901   6.235
 8474SOL    HW226322   3.387   4.044   6.295
 8475SOL     OW26323   0.671   2.169   2.878
 8475SOL    HW126324   0.685   2.260   2.915
 8475SOL    HW226325   0.609   2.173   2.799
 8476SOL     OW26326   6.724   1.017   2.368
 8476SOL    HW126327   6.641   0.982   2.412
 8476SOL    HW226328   6.700   1.061   2.282
 8477SOL     OW26329   5.747   6.463   1.010
 8477SOL    HW126330   5.663   6.415   0.983
 8477SOL    HW226331   5.798   6.406   1.076
 8478SOL     OW26332   1.731   6.866   6.586
 8478SOL    HW126333   1.825   6.893   6.607
 8478SOL    HW226334   1.731   6.803   6.508
 8479SOL     OW26335   0.999   2.278   0.016
 8479SOL    HW126336   1.023   2.219   0.093
 8479SOL    HW226337   1.040   2.243   6.951
 8480SOL     OW26338   3.015   4.399   1.678
 8480SOL    HW126339   2.984   4.449   1.760
 8480SOL    HW226340   3.023   4.302   1.700
 8481SOL     OW26341   5.375   3.755   2.030
 8481SOL    HW126342   5.278   3.763   2.008
 8481SOL    HW226343   5.424   3.835   1.995
 8482SOL     OW26344   4.905   0.165   5.582
 8482SOL    HW126345   4.850   0.209   5.510
 8482SOL    HW226346   4.890   0.213   5.668
 8483SOL     OW26347   4.629   5.365   3.697
 8483SOL    HW126348   4.541   5.318   3.685
 8483SOL    HW226349   4.650   5.371   3.794
 8484SOL     OW26350   5.886   6.855   5.458
 8484SOL    HW126351   5.821   6.842   5.533
 8484SOL    HW226352   5.836   6.870   5.373
 8485SOL     OW26353   3.531   0.298   6.001
 8485SOL    HW126354   3.497   0.250   5.921
 8485SOL    HW226355   3.625   0.328   5.985
 8486SOL     OW26356   4.804   2.971   4.734
 8486SOL    HW126357   4.773   2.878   4.714
 8486SOL    HW226358   4.815   3.021   4.648
 8487SOL     OW26359   0.183   1.289   5.335
 8487SOL    HW126360   0.229   1.251   5.415
 8487SOL    HW226361   0.085   1.273   5.342
 8488SOL     OW26362   4.784   5.596   2.917
 8488SOL    HW126363   4.724   5.518   2.937
 8488SOL    HW226364   4.777   5.663   2.992
 8489SOL     OW26365   6.305   2.113   1.938
 8489SOL    HW126366   6.321   2.210   1.954
 8489SOL    HW226367   6.314   2.093   1.841
 8490SOL     OW26368   4.002   6.808   0.349
 8490SOL    HW126369   4.008   6.758   0.435
 8490SOL    HW226370   4.001   6.906   0.367
 8491SOL     OW26371   3.028   6.053   1.871
 8491SOL    HW126372   3.070   6.123   1.928
 8491SOL    HW226373   3.000   6.093   1.784
 8492SOL     OW26374   6.014   6.700   4.183
 8492SOL    HW126375   6.101   6.691   4.231
 8492SOL    HW226376   6.010   6.633   4.108
 8493SOL     OW26377   5.322   0.184   5.656
 8493SOL    HW126378   5.310   0.180   5.557
 8493SOL    HW226379   5.314   0.278   5.688
 8494SOL     OW26380   0.157   3.723   2.170
 8494SOL    HW126381   0.060   3.723   2.145
 8494SOL    HW226382   0.170   3.670   2.253
 8495SOL     OW26383   4.940   6.047   4.871
 8495SOL    HW126384   4.899   6.063   4.781
 8495SOL    HW226385   4.947   6.134   4.921
 8496SOL     OW26386   3.822   2.147   2.491
 8496SOL    HW126387   3.906   2.095   2.505
 8496SOL    HW226388   3.835   2.214   2.418
 8497SOL     OW26389   6.799   0.881   3.141
 8497SOL    HW126390   6.773   0.785   3.147
 8497SOL    HW226391   6.726   0.932   3.095
 8498SOL     OW26392   5.657   6.544   5.044
 8498SOL    HW126393   5.622   6.451   5.037
 8498SOL    HW226394   5.756   6.542   5.054
 8499SOL     OW26395   6.194   0.152   5.981
 8499SOL    HW126396   6.123   0.208   6.024
 8499SOL    HW226397   6.203   0.066   6.032
 8500SOL     OW26398   0.823   0.858   6.083
 8500SOL    HW126399   0.769   0.941   6.068
 8500SOL    HW226400   0.846   0.850   6.180
 8501SOL     OW26401   3.542   0.133   5.224
 8501SOL    HW126402   3.582   0.113   5.313
 8501SOL    HW226403   3.582   0.217   5.187
 8502SOL     OW26404   6.364   2.967   0.332
 8502SOL    HW126405   6.337   2.896   0.397
 8502SOL    HW226406   6.463   2.966   0.319
 8503SOL     OW26407   4.918   1.938   6.354
 8503SOL    HW126408   4.896   2.030   6.322
 8503SOL    HW226409   4.874   1.870   6.294
 8504SOL     OW26410   1.435   0.959   3.195
 8504SOL    HW126411   1.493   0.930   3.119
 8504SOL    HW226412   1.342   0.974   3.162
 8505SOL     OW26413   6.172   1.693   2.954
 8505SOL    HW126414   6.181   1.757   3.030
 8505SOL    HW226415   6.125   1.738   2.878
 8506SOL     OW26416   1.839   1.180   4.211
 8506SOL    HW126417   1.755   1.192   4.265
 8506SOL    HW226418   1.816   1.144   4.121
 8507SOL     OW26419   4.228   5.409   0.125
 8507SOL    HW126420   4.251   5.425   0.029
 8507SOL    HW226421   4.214   5.311   0.140
 8508SOL     OW26422   4.000   0.860   6.227
 8508SOL    HW126423   3.978   0.766   6.254
 8508SOL    HW226424   3.987   0.921   6.306
 8509SOL     OW26425   4.425   2.122   2.222
 8509SOL    HW126426   4.424   2.208   2.171
 8509SOL    HW226427   4.379   2.051   2.168
 8510SOL     OW26428   0.428   2.102   5.098
 8510SOL    HW126429   0.506   2.159   5.121
 8510SOL    HW226430   0.454   2.006   5.103
 8511SOL     OW26431   5.523   2.089   4.097
 8511SOL    HW126432   5.432   2.086   4.056
 8511SOL    HW226433   5.580   2.153   4.046
 8512SOL     OW26434   2.586   6.319   6.424
 8512SOL    HW126435   2.593   6.405   6.474
 8512SOL    HW226436   2.490   6.294   6.412
 8513SOL     OW26437   3.795   5.877   6.940
 8513SOL    HW126438   3.747   5.860   0.008
 8513SOL    HW226439   3.849   5.961   6.949
 8514SOL     OW26440   4.452   5.500   4.413
 8514SOL    HW126441   4.357   5.523   4.389
 8514SOL    HW226442   4.507   5.496   4.330
 8515SOL     OW26443   5.467   2.945   1.597
 8515SOL    HW126444   5.370   2.967   1.607
 8515SOL    HW226445   5.478   2.845   1.592
 8516SOL     OW26446   6.618   2.650   1.401
 8516SOL    HW126447   6.638   2.731   1.457
 8516SOL    HW226448   6.641   2.669   1.306
 8517SOL     OW26449   0.855   3.647   4.464
 8517SOL    HW126450   0.806   3.627   4.549
 8517SOL    HW226451   0.950   3.670   4.485
 8518SOL     OW26452   3.855   5.935   1.252
 8518SOL    HW126453   3.782   5.960   1.188
 8518SOL    HW226454   3.935   5.992   1.236
 8519SOL     OW26455   2.753   5.495   3.468
 8519SOL    HW126456   2.814   5.574   3.472
 8519SOL    HW226457   2.726   5.479   3.373
 8520SOL     OW26458   3.345   5.579   0.240
 8520SOL    HW126459   3.285   5.608   0.314
 8520SOL    HW226460   3.340   5.479   0.231
 8521SOL     OW26461   0.856   1.086   3.057
 8521SOL    HW126462   0.913   1.089   3.140
 8521SOL    HW226463   0.771   1.037   3.078
 8522SOL     OW26464   2.385   5.760   3.777
 8522SOL    HW126465   2.419   5.707   3.700
 8522SOL    HW226466   2.436   5.736   3.859
 8523SOL     OW26467   2.106   5.446   6.472
 8523SOL    HW126468   2.085   5.412   6.564
 8523SOL    HW226469   2.129   5.368   6.413
 8524SOL     OW26470   1.572   1.467   6.390
 8524SOL    HW126471   1.605   1.443   6.481
 8524SOL    HW226472   1.624   1.546   6.356
 8525SOL     OW26473   5.405   4.387   4.345
 8525SOL    HW126474   5.464   4.427   4.414
 8525SOL    HW226475   5.459   4.328   4.284
 8526SOL     OW26476   0.019   3.223   1.845
 8526SOL    HW126477   0.032   3.286   1.769
 8526SOL    HW226478   0.072   3.255   1.924
 8527SOL     OW26479   4.958   0.996   5.173
 8527SOL    HW126480   5.008   0.966   5.254
 8527SOL    HW226481   5.022   1.030   5.105
 8528SOL     OW26482   5.398   0.133   0.456
 8528SOL    HW126483   5.360   0.224   0.438
 8528SOL    HW226484   5.384   0.109   0.552
 8529SOL     OW26485   0.028   0.746   4.485
 8529SOL    HW126486   0.046   0.839   4.516
 8529SOL    HW226487   6.963   0.745   4.429
 8530SOL     OW26488   1.844   5.115   5.895
 8530SOL    HW126489   1.905   5.115   5.974
 8530SOL    HW226490   1.867   5.038   5.835
 8531SOL     OW26491   3.545   5.579   2.847
 8531SOL    HW126492   3.568   5.671   2.816
 8531SOL    HW226493   3.548   5.516   2.769
 8532SOL     OW26494   1.166   3.754   6.944
 8532SOL    HW126495   1.159   3.672   6.888
 8532SOL    HW226496   1.250   3.750   6.998
 8533SOL     OW26497   3.310   0.113   6.135
 8533SOL    HW126498   3.213   0.121   6.114
 8533SOL    HW226499   3.364   0.159   6.065
 8534SOL     OW26500   2.829   2.626   1.002
 8534SOL    HW126501   2.808   2.620   1.099
 8534SOL    HW226502   2.788   2.708   0.963
 8535SOL     OW26503   0.096   2.243   5.820
 8535SOL    HW126504   0.039   2.270   5.897
 8535SOL    HW226505   0.188   2.279   5.832
 8536SOL     OW26506   6.512   0.565   6.587
 8536SOL    HW126507   6.576   0.498   6.624
 8536SOL    HW226508   6.418   0.534   6.603
 8537SOL     OW26509   3.937   6.085   2.817
 8537SOL    HW126510   4.017   6.080   2.757
 8537SOL    HW226511   3.914   6.181   2.833
 8538SOL     OW26512   3.916   1.266   5.199
 8538SOL    HW126513   4.012   1.284   5.178
 8538SOL    HW226514   3.859   1.340   5.163
 8539SOL     OW26515   0.378   3.424   2.932
 8539SOL    HW126516   0.435   3.437   3.013
 8539SOL    HW226517   0.289   3.388   2.960
 8540SOL     OW26518   4.648   5.898   5.988
 8540SOL    HW126519   4.586   5.902   5.910
 8540SOL    HW226520   4.595   5.884   6.072
 8541SOL     OW26521   3.385   5.825   5.733
 8541SOL    HW126522   3.476   5.861   5.714
 8541SOL    HW226523   3.384   5.787   5.826
 8542SOL     OW26524   1.859   5.319   5.420
 8542SOL    HW126525   1.788   5.363   5.475
 8542SOL    HW226526   1.823   5.233   5.382
 8543SOL     OW26527   3.435   1.559   5.580
 8543SOL    HW126528   3.404   1.467   5.605
 8543SOL    HW226529   3.477   1.557   5.490
 8544SOL     OW26530   4.887   3.802   5.211
 8544SOL    HW126531   4.817   3.848   5.266
 8544SOL    HW226532   4.972   3.856   5.213
 8545SOL     OW26533   2.034   0.529   6.381
 8545SOL    HW126534   1.963   0.530   6.312
 8545SOL    HW226535   2.119   0.566   6.343
 8546SOL     OW26536   2.781   1.456   4.049
 8546SOL    HW126537   2.793   1.383   4.116
 8546SOL    HW226538   2.841   1.532   4.071
 8547SOL     OW26539   5.999   4.800   5.804
 8547SOL    HW126540   5.922   4.855   5.772
 8547SOL    HW226541   5.965   4.715   5.843
 8548SOL     OW26542   1.664   4.068   4.084
 8548SOL    HW126543   1.715   3.985   4.064
 8548SOL    HW226544   1.610   4.054   4.167
 8549SOL     OW26545   3.161   0.377   3.831
 8549SOL    HW126546   3.220   0.440   3.882
 8549SOL    HW226547   3.077   0.360   3.883
 8550SOL     OW26548   0.351   3.427   4.880
 8550SOL    HW126549   0.419   3.384   4.821
 8550SOL    HW226550   0.348   3.380   4.968
 8551SOL     OW26551   3.814   1.811   3.873
 8551SOL    HW126552   3.720   1.846   3.881
 8551SOL    HW226553   3.878   1.879   3.909
 8552SOL     OW26554   4.005   1.165   2.245
 8552SOL    HW126555   3.931   1.231   2.255
 8552SOL    HW226556   3.976   1.092   2.183
 8553SOL     OW26557   5.883   2.896   0.632
 8553SOL    HW126558   5.845   2.851   0.713
 8553SOL    HW226559   5.982   2.902   0.641
 8554SOL     OW26560   0.416   1.100   6.812
 8554SOL    HW126561   0.328   1.064   6.842
 8554SOL    HW226562   0.490   1.039   6.842
 8555SOL     OW26563   3.602   2.022   3.871
 8555SOL    HW126564   3.504   2.026   3.893
 8555SOL    HW226565   3.615   2.036   3.773
 8556SOL     OW26566   1.072   4.120   5.983
 8556SOL    HW126567   1.046   4.174   6.064
 8556SOL    HW226568   1.165   4.087   5.994
 8557SOL     OW26569   6.023   0.369   0.820
 8557SOL    HW126570   5.977   0.444   0.868
 8557SOL    HW226571   6.082   0.407   0.749
 8558SOL     OW26572   3.009   6.059   3.616
 8558SOL    HW126573   2.967   6.099   3.534
 8558SOL    HW226574   2.937   6.040   3.683
 8559SOL     OW26575   1.578   3.109   3.338
 8559SOL    HW126576   1.552   3.187   3.394
 8559SOL    HW226577   1.629   3.141   3.257
 8560SOL     OW26578   3.291   4.474   1.566
 8560SOL    HW126579   3.352   4.434   1.633
 8560SOL    HW226580   3.199   4.437   1.578
 8561SOL     OW26581   3.579   0.654   2.540
 8561SOL    HW126582   3.600   0.629   2.635
 8561SOL    HW226583   3.550   0.750   2.537
 8562SOL     OW26584   5.382   3.596   6.179
 8562SOL    HW126585   5.408   3.654   6.256
 8562SOL    HW226586   5.461   3.580   6.121
 8563SOL     OW26587   0.509   4.195   3.212
 8563SOL    HW126588   0.494   4.118   3.273
 8563SOL    HW226589   0.436   4.199   3.144
 8564SOL     OW26590   4.077   6.390   6.681
 8564SOL    HW126591   4.021   6.369   6.762
 8564SOL    HW226592   4.078   6.488   6.665
 8565SOL     OW26593   1.118   5.108   0.618
 8565SOL    HW126594   1.173   5.094   0.700
 8565SOL    HW226595   1.091   5.204   0.611
 8566SOL     OW26596   2.394   0.740   3.381
 8566SOL    HW126597   2.321   0.676   3.357
 8566SOL    HW226598   2.482   0.692   3.382
 8567SOL     OW26599   1.644   3.520   0.363
 8567SOL    HW126600   1.629   3.573   0.280
 8567SOL    HW226601   1.638   3.579   0.443
 8568SOL     OW26602   5.500   6.930   6.719
 8568SOL    HW126603   5.402   6.946   6.731
 8568SOL    HW226604   5.532   6.979   6.638
 8569SOL     OW26605   4.144   1.835   6.272
 8569SOL    HW126606   4.115   1.880   6.188
 8569SOL    HW226607   4.147   1.736   6.258
 8570SOL     OW26608   1.807   2.581   4.240
 8570SOL    HW126609   1.820   2.669   4.285
 8570SOL    HW226610   1.743   2.525   4.293
 8571SOL     OW26611   1.701   0.605   3.748
 8571SOL    HW126612   1.725   0.552   3.829
 8571SOL    HW226613   1.757   0.575   3.671
 8572SOL     OW26614   2.587   3.177   6.178
 8572SOL    HW126615   2.517   3.107   6.191
 8572SOL    HW226616   2.545   3.257   6.135
 8573SOL     OW26617   2.037   6.132   6.000
 8573SOL    HW126618   2.062   6.150   6.095
 8573SOL    HW226619   1.993   6.043   5.993
 8574SOL     OW26620   6.159   2.528   5.523
 8574SOL    HW126621   6.126   2.445   5.567
 8574SOL    HW226622   6.258   2.536   5.537
 8575SOL     OW26623   1.920   6.705   3.879
 8575SOL    HW126624   1.958   6.675   3.967
 8575SOL    HW226625   1.854   6.638   3.846
 8576SOL     OW26626   1.168   3.869   4.296
 8576SOL    HW126627   1.229   3.929   4.243
 8576SOL    HW226628   1.188   3.774   4.274
 8577SOL     OW26629   2.177   1.432   1.099
 8577SOL    HW126630   2.121   1.476   1.029
 8577SOL    HW226631   2.183   1.334   1.079
 8578SOL     OW26632   1.745   0.719   5.946
 8578SOL    HW126633   1.749   0.745   6.042
 8578SOL    HW226634   1.727   0.800   5.890
 8579SOL     OW26635   2.748   6.993   2.916
 8579SOL    HW126636   2.778   6.899   2.896
 8579SOL    HW226637   2.815   0.019   2.976
 8580SOL     OW26638   1.074   0.341   1.725
 8580SOL    HW126639   0.999   0.281   1.699
 8580SOL    HW226640   1.037   0.419   1.777
 8581SOL     OW26641   4.029   3.561   3.961
 8581SOL    HW126642   4.058   3.474   3.921
 8581SOL    HW226643   4.077   3.576   4.047
 8582SOL     OW26644   5.535   5.653   6.255
 8582SOL    HW126645   5.615   5.593   6.258
 8582SOL    HW226646   5.459   5.611   6.304
 8583SOL     OW26647   3.376   0.455   2.104
 8583SOL    HW126648   3.288   0.409   2.115
 8583SOL    HW226649   3.449   0.394   2.135
 8584SOL     OW26650   5.273   2.571   5.803
 8584SOL    HW126651   5.340   2.544   5.734
 8584SOL    HW226652   5.185   2.588   5.758
 8585SOL     OW26653   4.715   2.546   3.202
 8585SOL    HW126654   4.728   2.631   3.253
 8585SOL    HW226655   4.699   2.471   3.267
 8586SOL     OW26656   5.908   0.019   5.771
 8586SOL    HW126657   5.996   6.993   5.784
 8586SOL    HW226658   5.918   0.096   5.708
 8587SOL     OW26659   6.900   6.679   1.215
 8587SOL    HW126660   6.813   6.729   1.209
 8587SOL    HW226661   6.935   6.664   1.123
 8588SOL     OW26662   1.991   2.442   5.771
 8588SOL    HW126663   2.091   2.442   5.771
 8588SOL    HW226664   1.957   2.418   5.680
 8589SOL     OW26665   6.080   3.412   6.464
 8589SOL    HW126666   6.093   3.380   6.558
 8589SOL    HW226667   6.082   3.334   6.402
 8590SOL     OW26668   0.780   1.089   2.782
 8590SOL    HW126669   0.825   1.110   2.869
 8590SOL    HW226670   0.682   1.101   2.792
 8591SOL     OW26671   0.489   4.175   5.984
 8591SOL    HW126672   0.534   4.086   5.978
 8591SOL    HW226673   0.557   4.246   5.999
 8592SOL     OW26674   0.109   2.537   4.543
 8592SOL    HW126675   0.109   2.519   4.641
 8592SOL    HW226676   0.098   2.451   4.493
 8593SOL     OW26677   6.280   0.905   0.503
 8593SOL    HW126678   6.245   0.826   0.452
 8593SOL    HW226679   6.339   0.873   0.577
 8594SOL     OW26680   6.305   2.675   6.753
 8594SOL    HW126681   6.304   2.709   6.659
 8594SOL    HW226682   6.216   2.693   6.796
 8595SOL     OW26683   5.621   6.380   2.196
 8595SOL    HW126684   5.698   6.318   2.210
 8595SOL    HW226685   5.613   6.402   2.099
 8596SOL     OW26686   0.699   2.727   5.741
 8596SOL    HW126687   0.639   2.735   5.821
 8596SOL    HW226688   0.678   2.643   5.692
 8597SOL     OW26689   6.174   2.192   5.380
 8597SOL    HW126690   6.126   2.222   5.462
 8597SOL    HW226691   6.258   2.144   5.405
 8598SOL     OW26692   6.301   0.649   5.499
 8598SOL    HW126693   6.349   0.731   5.467
 8598SOL    HW226694   6.336   0.569   5.451
 8599SOL     OW26695   5.647   4.483   5.143
 8599SOL    HW126696   5.727   4.520   5.191
 8599SOL    HW226697   5.653   4.384   5.139
 8600SOL     OW26698   3.740   3.032   2.009
 8600SOL    HW126699   3.661   3.079   2.048
 8600SOL    HW226700   3.714   2.985   1.925
 8601SOL     OW26701   5.115   4.616   1.335
 8601SOL    HW126702   5.110   4.572   1.245
 8601SOL    HW226703   5.039   4.586   1.392
 8602SOL     OW26704   1.767   6.101   5.266
 8602SOL    HW126705   1.725   6.171   5.208
 8602SOL    HW226706   1.748   6.122   5.362
 8603SOL     OW26707   0.472   1.305   0.517
 8603SOL    HW126708   0.374   1.304   0.497
 8603SOL    HW226709   0.523   1.326   0.433
 8604SOL     OW26710   2.231   6.037   5.816
 8604SOL    HW126711   2.212   5.993   5.728
 8604SOL    HW226712   2.145   6.058   5.862
 8605SOL     OW26713   6.767   4.730   3.958
 8605SOL    HW126714   6.728   4.780   3.880
 8605SOL    HW226715   6.700   4.729   4.033
 8606SOL     OW26716   0.839   0.314   6.586
 8606SOL    HW126717   0.928   0.315   6.630
 8606SOL    HW226718   0.834   0.239   6.521
 8607SOL     OW26719   3.459   2.815   2.070
 8607SOL    HW126720   3.516   2.743   2.032
 8607SOL    HW226721   3.399   2.851   2.000
 8608SOL     OW26722   1.299   5.399   2.456
 8608SOL    HW126723   1.252   5.313   2.478
 8608SOL    HW226724   1.258   5.473   2.508
 8609SOL     OW26725   4.930   2.462   3.791
 8609SOL    HW126726   5.030   2.461   3.782
 8609SOL    HW226727   4.905   2.465   3.888
 8610SOL     OW26728   0.050   5.402   2.323
 8610SOL    HW126729   6.970   5.385   2.318
 8610SOL    HW226730   0.096   5.353   2.248
 8611SOL     OW26731   2.255   1.709   5.284
 8611SOL    HW126732   2.171   1.761   5.269
 8611SOL    HW226733   2.319   1.764   5.337
 8612SOL     OW26734   3.409   2.906   5.845
 8612SOL    HW126735   3.387   2.984   5.785
 8612SOL    HW226736   3.375   2.924   5.937
 8613SOL     OW26737   3.489   3.157   3.556
 8613SOL    HW126738   3.501   3.255   3.539
 8613SOL    HW226739   3.555   3.105   3.500
 8614SOL     OW26740   0.230   3.264   3.936
 8614SOL    HW126741   0.211   3.280   3.839
 8614SOL    HW226742   0.144   3.250   3.985
 8615SOL     OW26743   3.826   0.597   5.253
 8615SOL    HW126744   3.908   0.541   5.240
 8615SOL    HW226745   3.842   0.689   5.219
 8616SOL     OW26746   5.872   4.119   5.056
 8616SOL    HW126747   5.963   4.157   5.041
 8616SOL    HW226748   5.864   4.031   5.011
 8617SOL     OW26749   0.847   6.929   4.253
 8617SOL    HW126750   0.923   6.994   4.254
 8617SOL    HW226751   0.853   6.869   4.333
 8618SOL     OW26752   6.879   5.157   0.255
 8618SOL    HW126753   6.829   5.241   0.273
 8618SOL    HW226754   6.818   5.079   0.265
 8619SOL     OW26755   5.921   4.690   6.568
 8619SOL    HW126756   5.863   4.621   6.524
 8619SOL    HW226757   5.876   4.779   6.562
 8620SOL     OW26758   1.122   5.908   4.130
 8620SOL    HW126759   1.158   6.001   4.139
 8620SOL    HW226760   1.137   5.875   4.037
 8621SOL     OW26761   6.377   3.331   1.509
 8621SOL    HW126762   6.395   3.387   1.589
 8621SOL    HW226763   6.345   3.388   1.434
 8622SOL     OW26764   1.060   6.437   1.707
 8622SOL    HW126765   1.091   6.387   1.626
 8622SOL    HW226766   0.995   6.508   1.680
 8623SOL     OW26767   1.930   2.144   3.454
 8623SOL    HW126768   1.884   2.148   3.365
 8623SOL    HW226769   2.026   2.169   3.442
 8624SOL     OW26770   3.053   3.629   5.992
 8624SOL    HW126771   3.081   3.720   5.961
 8624SOL    HW226772   3.046   3.567   5.913
 8625SOL     OW26773   4.651   3.418   6.545
 8625SOL    HW126774   4.657   3.319   6.530
 8625SOL    HW226775   4.555   3.445   6.543
 8626SOL     OW26776   5.199   0.999   0.068
 8626SOL    HW126777   5.238   1.055   7.013
 8626SOL    HW226778   5.104   1.027   0.084
 8627SOL     OW26779   6.997   0.135   2.077
 8627SOL    HW126780   0.006   0.139   2.173
 8627SOL    HW226781   6.919   0.195   2.062
 8628SOL     OW26782   1.169   6.503   0.503
 8628SOL    HW126783   1.128   6.546   0.422
 8628SOL    HW226784   1.103   6.440   0.545
 8629SOL     OW26785   0.101   1.228   4.504
 8629SOL    HW126786   0.061   1.198   4.590
 8629SOL    HW226787   0.201   1.220   4.509
 8630SOL     OW26788   5.249   3.058   1.757
 8630SOL    HW126789   5.206   3.144   1.783
 8630SOL    HW226790   5.233   2.990   1.829
 8631SOL     OW26791   1.535   6.146   0.253
 8631SOL    HW126792   1.460   6.095   0.295
 8631SOL    HW226793   1.598   6.176   0.324
 8632SOL     OW26794   6.396   5.893   3.618
 8632SOL    HW126795   6.372   5.922   3.711
 8632SOL    HW226796   6.332   5.822   3.589
 8633SOL     OW26797   6.551   3.904   5.804
 8633SOL    HW126798   6.530   4.000   5.784
 8633SOL    HW226799   6.643   3.897   5.841
 8634SOL     OW26800   4.526   4.674   6.841
 8634SOL    HW126801   4.496   4.602   6.903
 8634SOL    HW226802   4.586   4.636   6.771
 8635SOL     OW26803   5.497   1.659   0.084
 8635SOL    HW126804   5.463   1.718   0.157
 8635SOL    HW226805   5.425   1.646   0.016
 8636SOL     OW26806   4.594   5.842   0.094
 8636SOL    HW126807   4.614   5.827   7.015
 8636SOL    HW226808   4.679   5.865   0.142
 8637SOL     OW26809   3.128   2.691   0.923
 8637SOL    HW126810   3.039   2.665   0.886
 8637SOL    HW226811   3.188   2.611   0.926
 8638SOL     OW26812   4.684   2.104   4.326
 8638SOL    HW126813   4.742   2.147   4.394
 8638SOL    HW226814   4.670   2.008   4.350
 8639SOL     OW26815   4.051   4.183   0.469
 8639SOL    HW126816   4.003   4.269   0.452
 8639SOL    HW226817   3.984   4.109   0.479
 8640SOL     OW26818   2.849   2.548   6.547
 8640SOL    HW126819   2.868   2.526   6.643
 8640SOL    HW226820   2.806   2.639   6.541
 8641SOL     OW26821   3.414   5.189   3.026
 8641SOL    HW126822   3.477   5.266   3.039
 8641SOL    HW226823   3.458   5.118   2.972
 8642SOL     OW26824   2.478   6.290   2.935
 8642SOL    HW126825   2.515   6.336   2.854
 8642SOL    HW226826   2.481   6.353   3.012
 8643SOL     OW26827   3.589   6.202   1.179
 8643SOL    HW126828   3.646   6.279   1.152
 8643SOL    HW226829   3.494   6.218   1.150
 8644SOL     OW26830   5.593   2.510   0.103
 8644SOL    HW126831   5.608   2.421   0.060
 8644SOL    HW226832   5.537   2.498   0.185
 8645SOL     OW26833   5.059   5.652   2.908
 8645SOL    HW126834   4.967   5.615   2.894
 8645SOL    HW226835   5.125   5.593   2.861
 8646SOL     OW26836   6.277   1.659   3.749
 8646SOL    HW126837   6.245   1.752   3.733
 8646SOL    HW226838   6.309   1.620   3.662
 8647SOL     OW26839   1.924   4.353   2.136
 8647SOL    HW126840   1.973   4.434   2.170
 8647SOL    HW226841   1.974   4.271   2.161
 8648SOL     OW26842   5.842   5.629   6.052
 8648SOL    HW126843   5.822   5.578   6.135
 8648SOL    HW226844   5.757   5.644   6.001
 8649SOL     OW26845   5.312   2.677   2.296
 8649SOL    HW126846   5.319   2.613   2.219
 8649SOL    HW226847   5.225   2.726   2.290
 8650SOL     OW26848   0.923   1.143   4.836
 8650SOL    HW126849   0.925   1.101   4.926
 8650SOL    HW226850   0.829   1.148   4.803
 8651SOL     OW26851   4.772   1.037   1.521
 8651SOL    HW126852   4.730   1.029   1.612
 8651SOL    HW226853   4.871   1.041   1.531
 8652SOL     OW26854   6.397   3.135   5.052
 8652SOL    HW126855   6.338   3.119   4.973
 8652SOL    HW226856   6.406   3.233   5.068
 8653SOL     OW26857   4.565   0.893   6.915
 8653SOL    HW126858   4.663   0.893   6.933
 8653SOL    HW226859   4.546   0.945   6.832
 8654SOL     OW26860   6.869   4.447   3.409
 8654SOL    HW126861   6.796   4.486   3.352
 8654SOL    HW226862   6.907   4.518   3.468
 8655SOL     OW26863   1.460   6.883   4.989
 8655SOL    HW126864   1.464   6.804   4.927
 8655SOL    HW226865   1.373   6.930   4.977
 8656SOL     OW26866   3.562   6.372   0.237
 8656SOL    HW126867   3.505   6.345   0.314
 8656SOL    HW226868   3.532   6.461   0.202
 8657SOL     OW26869   3.039   1.919   2.606
 8657SOL    HW126870   3.097   1.934   2.686
 8657SOL    HW226871   3.096   1.892   2.529
 8658SOL     OW26872   5.939   4.046   0.803
 8658SOL    HW126873   5.959   3.954   0.836
 8658SOL    HW226874   5.863   4.043   0.738
 8659SOL     OW26875   3.215   7.000   3.760
 8659SOL    HW126876   3.200   6.901   3.763
 8659SOL    HW226877   3.313   0.000   3.750
 8660SOL     OW26878   6.926   4.726   1.062
 8660SOL    HW126879   6.851   4.786   1.032
 8660SOL    HW226880   6.888   4.649   1.114
 8661SOL     OW26881   5.588   3.223   1.014
 8661SOL    HW126882   5.648   3.302   1.026
 8661SOL    HW226883   5.610   3.178   0.927
 8662SOL     OW26884   1.864   2.911   2.037
 8662SOL    HW126885   1.825   2.825   2.003
 8662SOL    HW226886   1.793   2.964   2.082
 8663SOL     OW26887   2.971   5.380   1.768
 8663SOL    HW126888   3.003   5.475   1.765
 8663SOL    HW226889   3.021   5.326   1.701
 8664SOL     OW26890   3.061   6.126   4.400
 8664SOL    HW126891   3.160   6.135   4.385
 8664SOL    HW226892   3.015   6.208   4.367
 8665SOL     OW26893   0.767   3.174   6.484
 8665SOL    HW126894   0.768   3.142   6.389
 8665SOL    HW226895   0.741   3.270   6.486
 8666SOL     OW26896   4.563   0.043   3.000
 8666SOL    HW126897   4.521   6.974   3.024
 8666SOL    HW226898   4.560   0.054   2.900
 8667SOL     OW26899   4.428   2.354   2.071
 8667SOL    HW126900   4.450   2.437   2.019
 8667SOL    HW226901   4.338   2.321   2.043
 8668SOL     OW26902   3.794   1.996   3.395
 8668SOL    HW126903   3.813   1.910   3.443
 8668SOL    HW226904   3.745   1.978   3.310
 8669SOL     OW26905   0.631   6.091   5.709
 8669SOL    HW126906   0.614   6.024   5.782
 8669SOL    HW226907   0.632   6.183   5.748
 8670SOL     OW26908   0.008   4.947   4.892
 8670SOL    HW126909   0.044   4.872   4.835
 8670SOL    HW226910   0.056   4.949   4.979
 8671SOL     OW26911   0.159   3.505   3.348
 8671SOL    HW126912   0.181   3.558   3.430
 8671SOL    HW226913   0.063   3.517   3.326
 8672SOL     OW26914   6.488   1.233   2.494
 8672SOL    HW126915   6.513   1.252   2.399
 8672SOL    HW226916   6.432   1.308   2.529
 8673SOL     OW26917   0.208   1.143   1.825
 8673SOL    HW126918   0.134   1.076   1.813
 8673SOL    HW226919   0.228   1.153   1.922
 8674SOL     OW26920   0.529   2.877   4.076
 8674SOL    HW126921   0.579   2.811   4.132
 8674SOL    HW226922   0.469   2.829   4.013
 8675SOL     OW26923   5.592   2.434   4.975
 8675SOL    HW126924   5.532   2.431   4.896
 8675SOL    HW226925   5.596   2.343   5.017
 8676SOL     OW26926   5.089   2.929   1.125
 8676SOL    HW126927   5.126   2.884   1.206
 8676SOL    HW226928   5.164   2.966   1.069
 8677SOL     OW26929   3.015   1.698   7.007
 8677SOL    HW126930   2.962   1.778   6.980
 8677SOL    HW226931   2.976   1.616   6.965
 8678SOL     OW26932   2.620   1.688   0.094
 8678SOL    HW126933   2.537   1.742   0.095
 8678SOL    HW226934   2.612   1.615   0.025
 8679SOL     OW26935   2.186   1.966   6.526
 8679SOL    HW126936   2.141   1.883   6.495
 8679SOL    HW226937   2.236   2.007   6.450
 8680SOL     OW26938   0.055   0.054   1.252
 8680SOL    HW126939   0.002   0.001   1.318
 8680SOL    HW226940   0.079   0.142   1.291
 8681SOL     OW26941   5.533   5.602   0.775
 8681SOL    HW126942   5.451   5.599   0.832
 8681SOL    HW226943   5.613   5.621   0.832
 8682SOL     OW26944   1.859   1.949   1.965
 8682SOL    HW126945   1.894   1.985   1.878
 8682SOL    HW226946   1.773   1.901   1.949
 8683SOL     OW26947   2.469   4.509   4.461
 8683SOL    HW126948   2.451   4.590   4.516
 8683SOL    HW226949   2.508   4.537   4.373
 8684SOL     OW26950   2.245   4.034   3.572
 8684SOL    HW126951   2.244   4.108   3.504
 8684SOL    HW226952   2.211   3.950   3.530
 8685SOL     OW26953   4.818   3.249   5.477
 8685SOL    HW126954   4.900   3.215   5.524
 8685SOL    HW226955   4.745   3.264   5.544
 8686SOL     OW26956   0.870   4.792   2.187
 8686SOL    HW126957   0.909   4.882   2.169
 8686SOL    HW226958   0.776   4.802   2.218
 8687SOL     OW26959   5.797   3.294   5.549
 8687SOL    HW126960   5.709   3.270   5.589
 8687SOL    HW226961   5.847   3.354   5.611
 8688SOL     OW26962   1.275   3.392   4.285
 8688SOL    HW126963   1.192   3.337   4.293
 8688SOL    HW226964   1.350   3.334   4.255
 8689SOL     OW26965   5.404   3.566   1.208
 8689SOL    HW126966   5.398   3.527   1.116
 8689SOL    HW226967   5.426   3.493   1.273
 8690SOL     OW26968   1.274   2.538   2.326
 8690SOL    HW126969   1.229   2.491   2.249
 8690SOL    HW226970   1.264   2.482   2.408
 8691SOL     OW26971   3.524   1.428   6.913
 8691SOL    HW126972   3.616   1.454   6.882
 8691SOL    HW226973   3.460   1.434   6.837
 8692SOL     OW26974   5.441   2.236   4.427
 8692SOL    HW126975   5.492   2.300   4.485
 8692SOL    HW226976   5.450   2.263   4.331
 8693SOL     OW26977   0.723   0.372   5.541
 8693SOL    HW126978   0.656   0.348   5.471
 8693SOL    HW226979   0.814   0.343   5.512
 8694SOL     OW26980   3.526   3.721   6.127
 8694SOL    HW126981   3.495   3.739   6.034
 8694SOL    HW226982   3.572   3.802   6.164
 8695SOL     OW26983   3.706   4.324   1.257
 8695SOL    HW126984   3.688   4.277   1.343
 8695SOL    HW226985   3.781   4.278   1.209
 8696SOL     OW26986   2.774   4.547   6.447
 8696SOL    HW126987   2.685   4.505   6.467
 8696SOL    HW226988   2.846   4.479   6.462
 8697SOL     OW26989   0.924   2.985   4.336
 8697SOL    HW126990   0.964   2.966   4.246
 8697SOL    HW226991   0.914   2.899   4.387
 8698SOL     OW26992   5.536   4.648   6.903
 8698SOL    HW126993   5.594   4.725   6.875
 8698SOL    HW226994   5.467   4.631   6.832
 8699SOL     OW26995   2.170   1.873   1.394
 8699SOL    HW126996   2.161   1.970   1.370
 8699SOL    HW226997   2.211   1.865   1.485
 8700SOL     OW26998   0.558   2.485   4.772
 8700SOL    HW126999   0.527   2.391   4.785
 8700SOL    HW227000   0.485   2.548   4.798
 8701SOL     OW27001   2.684   2.893   0.129
 8701SOL    HW127002   2.783   2.899   0.120
 8701SOL    HW227003   2.644   2.984   0.120
 8702SOL     OW27004   5.336   4.331   0.696
 8702SOL    HW127005   5.283   4.401   0.743
 8702SOL    HW227006   5.310   4.241   0.729
 8703SOL     OW27007   2.475   5.329   0.717
 8703SOL    HW127008   2.479   5.347   0.619
 8703SOL    HW227009   2.427   5.404   0.763
 8704SOL     OW27010   6.878   1.381   3.513
 8704SOL    HW127011   6.888   1.385   3.612
 8704SOL    HW227012   6.935   1.307   3.477
 8705SOL     OW27013   3.705   1.676   0.183
 8705SOL    HW127014   3.607   1.692   0.178
 8705SOL    HW227015   3.728   1.641   0.274
 8706SOL     OW27016   4.684   2.816   5.251
 8706SOL    HW127017   4.679   2.887   5.322
 8706SOL    HW227018   4.746   2.846   5.178
 8707SOL     OW27019   1.838   0.798   3.892
 8707SOL    HW127020   1.891   0.807   3.807
 8707SOL    HW227021   1.777   0.719   3.885
 8708SOL     OW27022   5.800   2.462   0.816
 8708SOL    HW127023   5.825   2.559   0.826
 8708SOL    HW227024   5.884   2.407   0.811
 8709SOL     OW27025   6.060   6.344   4.278
 8709SOL    HW127026   6.037   6.248   4.294
 8709SOL    HW227027   6.154   6.361   4.308
 8710SOL     OW27028   2.214   2.901   3.686
 8710SOL    HW127029   2.276   2.863   3.754
 8710SOL    HW227030   2.146   2.833   3.659
 8711SOL     OW27031   0.961   2.182   2.426
 8711SOL    HW127032   0.872   2.188   2.380
 8711SOL    HW227033   0.951   2.205   2.522
 8712SOL     OW27034   1.507   3.628   4.061
 8712SOL    HW127035   1.606   3.610   4.064
 8712SOL    HW227036   1.485   3.704   4.122
 8713SOL     OW27037   6.713   4.895   4.195
 8713SOL    HW127038   6.802   4.922   4.159
 8713SOL    HW227039   6.725   4.855   4.286
 8714SOL     OW27040   1.099   4.247   6.221
 8714SOL    HW127041   1.037   4.287   6.288
 8714SOL    HW227042   1.157   4.179   6.266
 8715SOL     OW27043   1.910   5.027   1.247
 8715SOL    HW127044   1.982   4.958   1.255
 8715SOL    HW227045   1.849   5.022   1.325
 8716SOL     OW27046   5.186   6.838   3.148
 8716SOL    HW127047   5.152   6.745   3.165
 8716SOL    HW227048   5.240   6.839   3.063
 8717SOL     OW27049   4.528   2.260   0.042
 8717SOL    HW127050   4.452   2.265   0.107
 8717SOL    HW227051   4.492   2.260   6.967
 8718SOL     OW27052   2.600   5.436   5.799
 8718SOL    HW127053   2.628   5.351   5.844
 8718SOL    HW227054   2.653   5.448   5.715
 8719SOL     OW27055   3.168   2.151   4.521
 8719SOL    HW127056   3.143   2.160   4.618
 8719SOL    HW227057   3.261   2.114   4.515
 8720SOL     OW27058   0.318   6.801   5.210
 8720SOL    HW127059   0.346   6.884   5.162
 8720SOL    HW227060   0.380   6.784   5.286
 8721SOL     OW27061   0.415   0.336   2.087
 8721SOL    HW127062   0.426   0.250   2.136
 8721SOL    HW227063   0.325   0.375   2.109
 8722SOL     OW27064   3.912   1.053   0.359
 8722SOL    HW127065   3.882   0.959   0.376
 8722SOL    HW227066   4.006   1.064   0.392
 8723SOL     OW27067   3.558   6.856   2.736
 8723SOL    HW127068   3.491   6.928   2.717
 8723SOL    HW227069   3.515   6.785   2.793
 8724SOL     OW27070   5.401   0.232   5.359
 8724SOL    HW127071   5.425   0.325   5.386
 8724SOL    HW227072   5.319   0.234   5.302
 8725SOL     OW27073   6.899   0.806   2.333
 8725SOL    HW127074   6.841   0.879   2.370
 8725SOL    HW227075   6.928   0.831   2.241
 8726SOL     OW27076   0.009   0.782   0.735
 8726SOL    HW127077   0.107   0.789   0.753
 8726SOL    HW227078   7.003   0.842   0.659
 8727SOL     OW27079   4.988   5.186   5.806
 8727SOL    HW127080   5.043   5.152   5.730
 8727SOL    HW227081   4.995   5.124   5.884
 8728SOL     OW27082   5.251   6.783   4.136
 8728SOL    HW127083   5.311   6.706   4.158
 8728SOL    HW227084   5.291   6.868   4.169
 8729SOL     OW27085   5.677   6.020   6.198
 8729SOL    HW127086   5.625   5.943   6.234
 8729SOL    HW227087   5.634   6.106   6.225
 8730SOL     OW27088   4.123   4.919   1.751
 8730SOL    HW127089   4.113   4.993   1.818
 8730SOL    HW227090   4.132   4.959   1.659
 8731SOL     OW27091   0.111   2.895   4.080
 8731SOL    HW127092   0.103   2.842   4.164
 8731SOL    HW227093   0.201   2.881   4.040
 8732SOL     OW27094   5.435   6.614   5.634
 8732SOL    HW127095   5.405   6.519   5.630
 8732SOL    HW227096   5.473   6.634   5.724
 8733SOL     OW27097   5.742   4.023   2.152
 8733SOL    HW127098   5.786   3.986   2.071
 8733SOL    HW227099   5.644   4.008   2.147
 8734SOL     OW27100   0.105   6.268   1.572
 8734SOL    HW127101   0.118   6.231   1.480
 8734SOL    HW227102   0.030   6.334   1.570
 8735SOL     OW27103   1.748   2.333   0.023
 8735SOL    HW127104   1.770   2.409   6.980
 8735SOL    HW227105   1.663   2.354   0.072
 8736SOL     OW27106   0.818   5.956   3.769
 8736SOL    HW127107   0.807   5.903   3.685
 8736SOL    HW227108   0.910   5.995   3.772
 8737SOL     OW27109   0.766   5.660   6.802
 8737SOL    HW127110   0.715   5.710   6.731
 8737SOL    HW227111   0.706   5.594   6.845
 8738SOL     OW27112   1.635   2.209   2.738
 8738SOL    HW127113   1.595   2.296   2.707
 8738SOL    HW227114   1.733   2.210   2.721
 8739SOL     OW27115   4.562   4.835   3.312
 8739SOL    HW127116   4.621   4.790   3.380
 8739SOL    HW227117   4.499   4.768   3.273
 8740SOL     OW27118   1.632   1.007   3.572
 8740SOL    HW127119   1.703   1.067   3.534
 8740SOL    HW227120   1.644   1.000   3.671
 8741SOL     OW27121   1.784   2.458   2.988
 8741SOL    HW127122   1.871   2.434   3.031
 8741SOL    HW227123   1.780   2.557   2.973
 8742SOL     OW27124   1.832   3.311   0.664
 8742SOL    HW127125   1.752   3.351   0.707
 8742SOL    HW227126   1.809   3.222   0.626
 8743SOL     OW27127   1.704   3.020   0.349
 8743SOL    HW127128   1.621   2.979   0.310
 8743SOL    HW227129   1.695   3.025   0.448
 8744SOL     OW27130   2.580   3.950   5.746
 8744SOL    HW127131   2.568   4.047   5.724
 8744SOL    HW227132   2.656   3.913   5.693
 8745SOL     OW27133   5.484   0.949   6.650
 8745SOL    HW127134   5.470   0.872   6.588
 8745SOL    HW227135   5.572   0.939   6.696
 8746SOL     OW27136   4.602   4.844   3.954
 8746SOL    HW127137   4.698   4.834   3.980
 8746SOL    HW227138   4.560   4.753   3.947
 8747SOL     OW27139   0.134   6.653   1.322
 8747SOL    HW127140   0.054   6.627   1.268
 8747SOL    HW227141   0.124   6.618   1.414
 8748SOL     OW27142   6.018   1.879   4.740
 8748SOL    HW127143   6.085   1.806   4.753
 8748SOL    HW227144   6.015   1.906   4.644
 8749SOL     OW27145   2.366   1.527   4.288
 8749SOL    HW127146   2.450   1.532   4.342
 8749SOL    HW227147   2.389   1.528   4.190
 8750SOL     OW27148   4.091   3.722   2.272
 8750SOL    HW127149   4.090   3.625   2.296
 8750SOL    HW227150   4.171   3.766   2.313
 8751SOL     OW27151   2.144   6.325   0.027
 8751SOL    HW127152   2.163   6.337   6.948
 8751SOL    HW227153   2.083   6.398   0.058
 8752SOL     OW27154   1.566   2.752   6.762
 8752SOL    HW127155   1.564   2.742   6.861
 8752SOL    HW227156   1.545   2.847   6.737
 8753SOL     OW27157   2.129   2.057   0.983
 8753SOL    HW127158   2.179   2.142   0.995
 8753SOL    HW227159   2.085   2.031   1.069
 8754SOL     OW27160   1.858   6.306   6.899
 8754SOL    HW127161   1.761   6.283   6.900
 8754SOL    HW227162   1.879   6.366   6.976
 8755SOL     OW27163   7.007   1.397   2.011
 8755SOL    HW127164   0.083   1.368   2.028
 8755SOL    HW227165   7.003   1.443   1.922
 8756SOL     OW27166   2.056   1.546   2.122
 8756SOL    HW127167   1.980   1.512   2.177
 8756SOL    HW227168   2.086   1.634   2.158
 8757SOL     OW27169   5.512   5.921   5.411
 8757SOL    HW127170   5.515   5.859   5.489
 8757SOL    HW227171   5.521   5.869   5.326
 8758SOL     OW27172   3.579   5.257   6.464
 8758SOL    HW127173   3.596   5.346   6.505
 8758SOL    HW227174   3.483   5.232   6.475
 8759SOL     OW27175   6.560   0.901   1.380
 8759SOL    HW127176   6.638   0.839   1.369
 8759SOL    HW227177   6.572   0.980   1.319
 8760SOL     OW27178   1.641   2.688   4.476
 8760SOL    HW127179   1.577   2.686   4.399
 8760SOL    HW227180   1.591   2.704   4.561
 8761SOL     OW27181   4.945   2.747   4.028
 8761SOL    HW127182   4.853   2.782   4.013
 8761SOL    HW227183   4.987   2.794   4.106
 8762SOL     OW27184   3.837   5.965   2.050
 8762SOL    HW127185   3.841   6.033   1.977
 8762SOL    HW227186   3.870   5.877   2.015
 8763SOL     OW27187   0.170   1.976   5.369
 8763SOL    HW127188   0.135   1.909   5.434
 8763SOL    HW227189   0.183   1.932   5.280
 8764SOL     OW27190   2.248   5.734   5.938
 8764SOL    HW127191   2.200   5.701   5.856
 8764SOL    HW227192   2.346   5.717   5.929
 8765SOL     OW27193   4.475   0.295   3.660
 8765SOL    HW127194   4.484   0.239   3.743
 8765SOL    HW227195   4.564   0.306   3.617
 8766SOL     OW27196   6.510   0.221   4.883
 8766SOL    HW127197   6.422   0.184   4.854
 8766SOL    HW227198   6.502   0.319   4.897
 8767SOL     OW27199   2.116   1.110   4.845
 8767SOL    HW127200   2.147   1.018   4.866
 8767SOL    HW227201   2.125   1.168   4.926
 8768SOL     OW27202   6.832   2.312   0.952
 8768SOL    HW127203   6.848   2.394   0.897
 8768SOL    HW227204   6.870   2.232   0.905
 8769SOL     OW27205   6.931   0.154   0.400
 8769SOL    HW127206   7.007   0.209   0.435
 8769SOL    HW227207   6.949   0.131   0.304
 8770SOL     OW27208   4.605   1.923   0.737
 8770SOL    HW127209   4.634   1.846   0.795
 8770SOL    HW227210   4.660   1.925   0.654
 8771SOL     OW27211   1.060   2.295   6.652
 8771SOL    HW127212   1.061   2.391   6.682
 8771SOL    HW227213   1.132   2.245   6.699
 8772SOL     OW27214   0.488   6.792   3.800
 8772SOL    HW127215   0.417   6.832   3.741
 8772SOL    HW227216   0.549   6.736   3.745
 8773SOL     OW27217   6.569   1.720   4.069
 8773SOL    HW127218   6.581   1.690   4.163
 8773SOL    HW227219   6.537   1.814   4.067
 8774SOL     OW27220   0.634   1.995   6.719
 8774SOL    HW127221   0.579   2.069   6.680
 8774SOL    HW227222   0.722   1.990   6.672
 8775SOL     OW27223   4.314   1.704   2.366
 8775SOL    HW127224   4.298   1.698   2.267
 8775SOL    HW227225   4.412   1.705   2.384
 8776SOL     OW27226   5.942   3.261   1.398
 8776SOL    HW127227   5.859   3.288   1.447
 8776SOL    HW227228   5.938   3.296   1.304
 8777SOL     OW27229   6.562   2.212   4.041
 8777SOL    HW127230   6.479   2.266   4.025
 8777SOL    HW227231   6.624   2.263   4.100
 8778SOL     OW27232   1.982   4.622   5.849
 8778SOL    HW127233   1.940   4.702   5.893
 8778SOL    HW227234   2.015   4.559   5.920
 8779SOL     OW27235   3.370   6.731   3.407
 8779SOL    HW127236   3.433   6.781   3.466
 8779SOL    HW227237   3.286   6.709   3.457
 8780SOL     OW27238   1.013   3.234   4.296
 8780SOL    HW127239   0.986   3.151   4.345
 8780SOL    HW227240   0.980   3.229   4.202
 8781SOL     OW27241   3.712   1.135   2.410
 8781SOL    HW127242   3.761   1.073   2.350
 8781SOL    HW227243   3.749   1.129   2.503
 8782SOL     OW27244   0.138   2.651   0.142
 8782SOL    HW127245   0.149   2.551   0.141
 8782SOL    HW227246   0.223   2.694   0.114
 8783SOL     OW27247   3.496   4.224   6.296
 8783SOL    HW127248   3.584   4.209   6.342
 8783SOL    HW227249   3.478   4.322   6.289
 8784SOL     OW27250   4.273   1.848   5.964
 8784SOL    HW127251   4.176   1.859   5.985
 8784SOL    HW227252   4.299   1.752   5.973
 8785SOL     OW27253   6.328   0.196   5.745
 8785SOL    HW127254   6.427   0.205   5.741
 8785SOL    HW227255   6.300   0.176   5.839
 8786SOL     OW27256   5.099   2.242   2.863
 8786SOL    HW127257   5.000   2.248   2.878
 8786SOL    HW227258   5.133   2.330   2.830
 8787SOL     OW27259   2.953   5.496   2.521
 8787SOL    HW127260   2.974   5.438   2.600
 8787SOL    HW227261   3.021   5.569   2.515
 8788SOL     OW27262   0.198   0.020   3.904
 8788SOL    HW127263   0.116   6.985   3.923
 8788SOL    HW227264   0.240   7.006   3.819
 8789SOL     OW27265   2.620   3.772   0.266
 8789SOL    HW127266   2.697   3.836   0.262
 8789SOL    HW227267   2.580   3.774   0.358
 8790SOL     OW27268   5.076   3.183   5.260
 8790SOL    HW127269   5.016   3.261   5.274
 8790SOL    HW227270   5.171   3.214   5.256
 8791SOL     OW27271   3.907   7.014   5.665
 8791SOL    HW127272   3.828   6.957   5.688
 8791SOL    HW227273   3.950   6.980   5.582
 8792SOL     OW27274   5.221   4.512   0.853
 8792SOL    HW127275   5.281   4.568   0.910
 8792SOL    HW227276   5.194   4.565   0.772
 8793SOL     OW27277   5.946   0.813   5.296
 8793SOL    HW127278   6.023   0.847   5.242
 8793SOL    HW227279   5.928   0.718   5.272
 8794SOL     OW27280   0.990   2.990   2.817
 8794SOL    HW127281   0.907   3.007   2.870
 8794SOL    HW227282   0.965   2.955   2.726
 8795SOL     OW27283   1.926   0.362   6.623
 8795SOL    HW127284   1.956   0.382   6.530
 8795SOL    HW227285   1.980   0.417   6.688
 8796SOL     OW27286   5.935   5.102   3.983
 8796SOL    HW127287   5.989   5.180   3.950
 8796SOL    HW227288   5.995   5.023   3.995
 8797SOL     OW27289   5.743   5.679   5.458
 8797SOL    HW127290   5.729   5.643   5.550
 8797SOL    HW227291   5.686   5.629   5.393
 8798SOL     OW27292   1.960   5.375   6.991
 8798SOL    HW127293   1.910   5.446   0.023
 8798SOL    HW227294   2.052   5.365   0.011
 8799SOL     OW27295   1.569   6.119   2.002
 8799SOL    HW127296   1.668   6.117   2.014
 8799SOL    HW227297   1.544   6.058   1.926
 8800SOL     OW27298   6.812   6.313   4.929
 8800SOL    HW127299   6.790   6.239   4.993
 8800SOL    HW227300   6.851   6.274   4.845
 8801SOL     OW27301   5.531   2.961   6.527
 8801SOL    HW127302   5.604   3.012   6.481
 8801SOL    HW227303   5.446   3.014   6.524
 8802SOL     OW27304   1.087   0.060   0.157
 8802SOL    HW127305   0.997   0.016   0.158
 8802SOL    HW227306   1.086   0.137   0.094
 8803SOL     OW27307   4.391   5.174   5.233
 8803SOL    HW127308   4.490   5.186   5.225
 8803SOL    HW227309   4.360   5.213   5.320
 8804SOL     OW27310   2.259   6.296   1.395
 8804SOL    HW127311   2.346   6.249   1.411
 8804SOL    HW227312   2.236   6.352   1.474
 8805SOL     OW27313   5.378   5.240   0.783
 8805SOL    HW127314   5.410   5.328   0.818
 8805SOL    HW227315   5.362   5.247   0.684
 8806SOL     OW27316   1.706   1.400   2.075
 8806SOL    HW127317   1.667   1.312   2.102
 8806SOL    HW227318   1.777   1.426   2.140
 8807SOL     OW27319   5.223   1.574   1.746
 8807SOL    HW127320   5.289   1.620   1.805
 8807SOL    HW227321   5.133   1.573   1.790
 8808SOL     OW27322   1.873   1.409   1.184
 8808SOL    HW127323   1.886   1.486   1.120
 8808SOL    HW227324   1.777   1.406   1.212
 8809SOL     OW27325   0.954   3.261   3.042
 8809SOL    HW127326   1.042   3.214   3.032
 8809SOL    HW227327   0.966   3.342   3.099
 8810SOL     OW27328   6.328   2.654   3.583
 8810SOL    HW127329   6.260   2.700   3.640
 8810SOL    HW227330   6.297   2.653   3.488
 8811SOL     OW27331   3.620   5.796   2.718
 8811SOL    HW127332   3.609   5.764   2.624
 8811SOL    HW227333   3.694   5.864   2.721
 8812SOL     OW27334   5.455   0.764   0.449
 8812SOL    HW127335   5.536   0.740   0.396
 8812SOL    HW227336   5.395   0.821   0.394
 8813SOL     OW27337   1.786   2.807   0.903
 8813SOL    HW127338   1.864   2.811   0.839
 8813SOL    HW227339   1.743   2.897   0.906
 8814SOL     OW27340   5.941   6.610   4.901
 8814SOL    HW127341   5.905   6.525   4.863
 8814SOL    HW227342   5.884   6.686   4.872
 8815SOL     OW27343   4.555   0.354   1.104
 8815SOL    HW127344   4.570   0.440   1.055
 8815SOL    HW227345   4.459   0.348   1.131
 8816SOL     OW27346   0.473   0.991   2.500
 8816SOL    HW127347   0.572   0.981   2.496
 8816SOL    HW227348   0.429   0.903   2.481
 8817SOL     OW27349   1.014   2.508   4.287
 8817SOL    HW127350   0.967   2.571   4.226
 8817SOL    HW227351   1.016   2.417   4.246
 8818SOL     OW27352   1.418   5.482   6.380
 8818SOL    HW127353   1.456   5.390   6.392
 8818SOL    HW227354   1.384   5.493   6.287
 8819SOL     OW27355   6.010   6.696   6.971
 8819SOL    HW127356   6.017   6.784   6.925
 8819SOL    HW227357   5.919   6.685   7.010
 8820SOL     OW27358   3.315   6.659   5.665
 8820SOL    HW127359   3.280   6.620   5.750
 8820SOL    HW227360   3.406   6.698   5.681
 8821SOL     OW27361   1.698   5.126   5.350
 8821SOL    HW127362   1.598   5.118   5.352
 8821SOL    HW227363   1.734   5.079   5.270
 8822SOL     OW27364   0.353   0.791   5.355
 8822SOL    HW127365   0.406   0.758   5.434
 8822SOL    HW227366   0.397   0.761   5.271
 8823SOL     OW27367   4.536   2.282   3.017
 8823SOL    HW127368   4.634   2.271   3.032
 8823SOL    HW227369   4.519   2.366   2.965
 8824SOL     OW27370   1.277   6.998   4.081
 8824SOL    HW127371   1.344   0.052   4.065
 8824SOL    HW227372   1.232   6.975   3.995
 8825SOL     OW27373   1.528   6.773   0.372
 8825SOL    HW127374   1.583   6.690   0.375
 8825SOL    HW227375   1.448   6.758   0.313
 8826SOL     OW27376   0.696   3.103   0.010
 8826SOL    HW127377   0.790   3.067   0.009
 8826SOL    HW227378   0.650   3.071   0.093
 8827SOL     OW27379   5.468   6.051   4.012
 8827SOL    HW127380   5.484   6.146   4.036
 8827SOL    HW227381   5.378   6.022   4.046
 8828SOL     OW27382   5.056   2.506   5.664
 8828SOL    HW127383   5.056   2.409   5.688
 8828SOL    HW227384   4.977   2.551   5.707
 8829SOL     OW27385   6.530   1.029   3.058
 8829SOL    HW127386   6.494   0.977   3.135
 8829SOL    HW227387   6.486   1.119   3.055
 8830SOL     OW27388   2.305   1.901   2.624
 8830SOL    HW127389   2.383   1.913   2.685
 8830SOL    HW227390   2.312   1.812   2.578
 8831SOL     OW27391   0.876   2.335   2.162
 8831SOL    HW127392   0.886   2.395   2.082
 8831SOL    HW227393   0.890   2.240   2.133
 8832SOL     OW27394   6.222   6.970   4.722
 8832SOL    HW127395   6.175   6.996   4.637
 8832SOL    HW227396   6.178   6.889   4.761
 8833SOL     OW27397   4.832   2.871   1.177
 8833SOL    HW127398   4.777   2.941   1.130
 8833SOL    HW227399   4.929   2.887   1.158
 8834SOL     OW27400   6.324   4.330   5.564
 8834SOL    HW127401   6.346   4.411   5.617
 8834SOL    HW227402   6.279   4.357   5.479
 8835SOL     OW27403   6.163   0.947   5.145
 8835SOL    HW127404   6.224   0.974   5.219
 8835SOL    HW227405   6.215   0.897   5.076
 8836SOL     OW27406   4.802   1.563   0.038
 8836SOL    HW127407   4.739   1.638   0.017
 8836SOL    HW227408   4.819   1.510   6.974
 8837SOL     OW27409   5.966   5.036   0.450
 8837SOL    HW127410   6.057   5.076   0.441
 8837SOL    HW227411   5.941   4.989   0.366
 8838SOL     OW27412   0.980   3.178   1.571
 8838SOL    HW127413   1.042   3.119   1.623
 8838SOL    HW227414   0.913   3.121   1.523
 8839SOL     OW27415   4.682   4.657   1.674
 8839SOL    HW127416   4.666   4.609   1.760
 8839SOL    HW227417   4.609   4.723   1.658
 8840SOL     OW27418   0.203   0.039   1.510
 8840SOL    HW127419   0.237   7.012   1.428
 8840SOL    HW227420   0.108   0.013   1.526
 8841SOL     OW27421   4.981   1.890   0.093
 8841SOL    HW127422   4.893   1.906   0.049
 8841SOL    HW227423   4.968   1.835   0.176
 8842SOL     OW27424   3.797   2.976   3.706
 8842SOL    HW127425   3.774   2.889   3.663
 8842SOL    HW227426   3.729   2.998   3.775
 8843SOL     OW27427   2.313   6.285   5.002
 8843SOL    HW127428   2.252   6.229   5.058
 8843SOL    HW227429   2.266   6.369   4.975
 8844SOL     OW27430   3.954   2.753   5.300
 8844SOL    HW127431   4.003   2.667   5.285
 8844SOL    HW227432   3.920   2.788   5.213
 8845SOL     OW27433   0.547   3.602   2.570
 8845SOL    HW127434   0.577   3.522   2.517
 8845SOL    HW227435   0.590   3.684   2.531
 8846SOL     OW27436   5.811   5.162   4.221
 8846SOL    HW127437   5.717   5.131   4.210
 8846SOL    HW227438   5.861   5.151   4.135
 8847SOL     OW27439   1.348   3.025   3.553
 8847SOL    HW127440   1.421   3.082   3.589
 8847SOL    HW227441   1.335   3.046   3.456
 8848SOL     OW27442   5.887   2.600   1.377
 8848SOL    HW127443   5.873   2.502   1.376
 8848SOL    HW227444   5.799   2.647   1.374
 8849SOL     OW27445   3.525   5.348   4.715
 8849SOL    HW127446   3.618   5.325   4.743
 8849SOL    HW227447   3.460   5.303   4.776
 8850SOL     OW27448   4.808   1.767   1.410
 8850SOL    HW127449   4.794   1.750   1.313
 8850SOL    HW227450   4.778   1.860   1.432
 8851SOL     OW27451   6.490   5.136   3.045
 8851SOL    HW127452   6.575   5.121   3.096
 8851SOL    HW227453   6.412   5.109   3.102
 8852SOL     OW27454   5.724   4.252   4.754
 8852SOL    HW127455   5.781   4.170   4.755
 8852SOL    HW227456   5.771   4.327   4.800
 8853SOL     OW27457   4.518   1.614   4.171
 8853SOL    HW127458   4.496   1.675   4.247
 8853SOL    HW227459   4.485   1.655   4.085
 8854SOL     OW27460   2.824   0.522   6.712
 8854SOL    HW127461   2.865   0.434   6.736
 8854SOL    HW227462   2.737   0.506   6.664
 8855SOL     OW27463   6.939   4.575   5.724
 8855SOL    HW127464   6.916   4.574   5.627
 8855SOL    HW227465   6.856   4.567   5.779
 8856SOL     OW27466   5.242   1.940   5.732
 8856SOL    HW127467   5.308   1.879   5.775
 8856SOL    HW227468   5.201   1.895   5.653
 8857SOL     OW27469   1.542   2.758   4.775
 8857SOL    HW127470   1.531   2.851   4.808
 8857SOL    HW227471   1.458   2.729   4.728
 8858SOL     OW27472   0.927   3.432   5.680
 8858SOL    HW127473   0.993   3.357   5.688
 8858SOL    HW227474   0.974   3.516   5.652
 8859SOL     OW27475   2.834   5.381   4.885
 8859SOL    HW127476   2.802   5.405   4.977
 8859SOL    HW227477   2.826   5.461   4.825
 8860SOL     OW27478   2.225   0.956   1.772
 8860SOL    HW127479   2.127   0.953   1.789
 8860SOL    HW227480   2.274   0.969   1.858
 8861SOL     OW27481   2.248   1.035   6.761
 8861SOL    HW127482   2.179   1.014   6.829
 8861SOL    HW227483   2.326   1.080   6.805
 8862SOL     OW27484   0.464   3.277   3.521
 8862SOL    HW127485   0.506   3.189   3.503
 8862SOL    HW227486   0.377   3.264   3.569
 8863SOL     OW27487   1.599   5.521   5.073
 8863SOL    HW127488   1.532   5.577   5.122
 8863SOL    HW227489   1.558   5.485   4.990
 8864SOL     OW27490   2.080   4.029   5.107
 8864SOL    HW127491   2.081   3.966   5.184
 8864SOL    HW227492   2.173   4.039   5.070
 8865SOL     OW27493   2.919   1.976   5.873
 8865SOL    HW127494   2.921   1.886   5.829
 8865SOL    HW227495   3.003   2.025   5.853
 8866SOL     OW27496   5.256   0.495   5.758
 8866SOL    HW127497   5.172   0.506   5.705
 8866SOL    HW227498   5.238   0.517   5.854
 8867SOL     OW27499   5.521   0.761   2.747
 8867SOL    HW127500   5.584   0.797   2.815
 8867SOL    HW227501   5.568   0.691   2.692
 8868SOL     OW27502   6.035   3.180   0.166
 8868SOL    HW127503   5.975   3.253   0.133
 8868SOL    HW227504   5.980   3.101   0.191
 8869SOL     OW27505   1.790   1.882   4.028
 8869SOL    HW127506   1.878   1.840   4.005
 8869SOL    HW227507   1.741   1.904   3.944
 8870SOL     OW27508   3.786   6.418   1.792
 8870SOL    HW127509   3.855   6.479   1.830
 8870SOL    HW227510   3.829   6.332   1.763
 8871SOL     OW27511   1.085   2.276   4.148
 8871SOL    HW127512   1.141   2.254   4.227
 8871SOL    HW227513   1.142   2.279   4.066
 8872SOL     OW27514   1.278   1.386   2.488
 8872SOL    HW127515   1.288   1.412   2.584
 8872SOL    HW227516   1.263   1.287   2.482
 8873SOL     OW27517   0.179   5.586   4.809
 8873SOL    HW127518   0.178   5.613   4.713
 8873SOL    HW227519   0.125   5.652   4.863
 8874SOL     OW27520   1.392   1.048   5.523
 8874SOL    HW127521   1.422   1.081   5.434
 8874SOL    HW227522   1.468   1.053   5.588
 8875SOL     OW27523   1.480   1.044   4.096
 8875SOL    HW127524   1.509   1.134   4.065
 8875SOL    HW227525   1.449   0.991   4.017
 8876SOL     OW27526   2.846   1.267   4.515
 8876SOL    HW127527   2.935   1.296   4.552
 8876SOL    HW227528   2.814   1.187   4.565
 8877SOL     OW27529   2.426   6.768   5.223
 8877SOL    HW127530   2.462   6.685   5.266
 8877SOL    HW227531   2.374   6.820   5.291
 8878SOL     OW27532   4.966   4.309   5.712
 8878SOL    HW127533   4.866   4.309   5.722
 8878SOL    HW227534   4.996   4.400   5.682
 8879SOL     OW27535   6.166   5.849   4.658
 8879SOL    HW127536   6.090   5.787   4.642
 8879SOL    HW227537   6.235   5.804   4.715
 8880SOL     OW27538   1.218   7.011   5.050
 8880SOL    HW127539   1.224   0.054   4.971
 8880SOL    HW227540   1.233   0.045   5.134
 8881SOL     OW27541   6.775   1.841   2.499
 8881SOL    HW127542   6.856   1.807   2.452
 8881SOL    HW227543   6.724   1.902   2.438
 8882SOL     OW27544   5.512   1.631   0.480
 8882SOL    HW127545   5.609   1.640   0.460
 8882SOL    HW227546   5.496   1.652   0.577
 8883SOL     OW27547   6.224   1.152   5.729
 8883SOL    HW127548   6.141   1.207   5.727
 8883SOL    HW227549   6.301   1.209   5.756
 8884SOL     OW27550   0.287   1.322   6.683
 8884SOL    HW127551   0.286   1.297   6.586
 8884SOL    HW227552   0.337   1.253   6.735
 8885SOL     OW27553   6.075   3.816   1.742
 8885SOL    HW127554   6.075   3.863   1.830
 8885SOL    HW227555   6.149   3.748   1.741
 8886SOL     OW27556   3.117   5.964   5.997
 8886SOL    HW127557   3.031   6.012   6.013
 8886SOL    HW227558   3.098   5.874   5.958
 8887SOL     OW27559   1.645   0.884   0.630
 8887SOL    HW127560   1.646   0.983   0.644
 8887SOL    HW227561   1.726   0.856   0.579
 8888SOL     OW27562   1.818   2.149   3.197
 8888SOL    HW127563   1.812   2.097   3.111
 8888SOL    HW227564   1.875   2.230   3.183
 8889SOL     OW27565   3.402   1.047   5.204
 8889SOL    HW127566   3.415   0.958   5.161
 8889SOL    HW227567   3.468   1.059   5.279
 8890SOL     OW27568   6.551   5.412   3.797
 8890SOL    HW127569   6.563   5.319   3.762
 8890SOL    HW227570   6.463   5.449   3.766
 8891SOL     OW27571   3.295   2.136   6.084
 8891SOL    HW127572   3.258   2.224   6.115
 8891SOL    HW227573   3.381   2.151   6.035
 8892SOL     OW27574   0.735   0.341   2.885
 8892SOL    HW127575   0.829   0.330   2.917
 8892SOL    HW227576   0.734   0.350   2.786
 8893SOL     OW27577   0.167   0.581   0.415
 8893SOL    HW127578   0.077   0.611   0.447
 8893SOL    HW227579   0.235   0.653   0.434
 8894SOL     OW27580   5.060   2.555   5.414
 8894SOL    HW127581   5.045   2.552   5.512
 8894SOL    HW227582   4.977   2.525   5.366
 8895SOL     OW27583   1.205   1.286   3.612
 8895SOL    HW127584   1.156   1.214   3.661
 8895SOL    HW227585   1.290   1.249   3.575
 8896SOL     OW27586   1.297   4.070   4.806
 8896SOL    HW127587   1.295   4.170   4.810
 8896SOL    HW227588   1.271   4.040   4.714
 8897SOL     OW27589   1.059   2.057   1.635
 8897SOL    HW127590   1.147   2.102   1.651
 8897SOL    HW227591   1.025   2.081   1.544
 8898SOL     OW27592   0.451   2.377   5.441
 8898SOL    HW127593   0.438   2.474   5.423
 8898SOL    HW227594   0.362   2.333   5.453
 8899SOL     OW27595   3.906   6.323   2.904
 8899SOL    HW127596   3.906   6.335   3.004
 8899SOL    HW227597   3.896   6.412   2.861
 8900SOL     OW27598   6.589   1.930   3.551
 8900SOL    HW127599   6.545   1.914   3.639
 8900SOL    HW227600   6.677   1.883   3.549
 8901SOL     OW27601   1.419   0.100   2.459
 8901SOL    HW127602   1.490   0.165   2.485
 8901SOL    HW227603   1.362   0.078   2.539
 8902SOL     OW27604   3.967   6.413   6.082
 8902SOL    HW127605   4.030   6.371   6.017
 8902SOL    HW227606   3.913   6.482   6.035
 8903SOL     OW27607   6.848   1.179   2.986
 8903SOL    HW127608   6.895   1.153   3.070
 8903SOL    HW227609   6.760   1.222   3.008
 8904SOL     OW27610   2.152   3.801   3.787
 8904SOL    HW127611   2.240   3.832   3.824
 8904SOL    HW227612   2.094   3.880   3.768
 8905SOL     OW27613   2.194   4.527   4.817
 8905SOL    HW127614   2.284   4.487   4.799
 8905SOL    HW227615   2.130   4.454   4.841
 8906SOL     OW27616   1.754   4.779   4.144
 8906SOL    HW127617   1.807   4.738   4.218
 8906SOL    HW227618   1.660   4.794   4.175
 8907SOL     OW27619   3.830   3.039   6.542
 8907SOL    HW127620   3.752   3.074   6.491
 8907SOL    HW227621   3.797   2.981   6.617
 8908SOL     OW27622   0.281   3.459   2.683
 8908SOL    HW127623   0.341   3.472   2.762
 8908SOL    HW227624   0.321   3.503   2.603
 8909SOL     OW27625   3.551   6.673   4.998
 8909SOL    HW127626   3.528   6.584   4.958
 8909SOL    HW227627   3.468   6.728   5.007
 8910SOL     OW27628   4.689   2.494   0.151
 8910SOL    HW127629   4.667   2.404   0.113
 8910SOL    HW227630   4.612   2.555   0.138
 8911SOL     OW27631   5.303   3.463   4.428
 8911SOL    HW127632   5.399   3.442   4.445
 8911SOL    HW227633   5.270   3.527   4.497
 8912SOL     OW27634   3.787   0.786   0.307
 8912SOL    HW127635   3.752   0.735   0.229
 8912SOL    HW227636   3.726   0.774   0.385
 8913SOL     OW27637   4.058   3.960   1.226
 8913SOL    HW127638   4.155   3.979   1.211
 8913SOL    HW227639   4.045   3.928   1.320
 8914SOL     OW27640   5.626   3.531   3.531
 8914SOL    HW127641   5.634   3.447   3.477
 8914SOL    HW227642   5.534   3.568   3.522
 8915SOL     OW27643   1.027   5.619   1.800
 8915SOL    HW127644   1.028   5.695   1.865
 8915SOL    HW227645   0.985   5.539   1.844
 8916SOL     OW27646   5.643   3.130   1.460
 8916SOL    HW127647   5.592   3.078   1.529
 8916SOL    HW227648   5.671   3.069   1.386
 8917SOL     OW27649   6.051   4.061   5.869
 8917SOL    HW127650   5.956   4.040   5.848
 8917SOL    HW227651   6.058   4.095   5.962
 8918SOL     OW27652   4.707   4.341   5.761
 8918SOL    HW127653   4.673   4.289   5.683
 8918SOL    HW227654   4.632   4.395   5.800
 8919SOL     OW27655   1.687   3.199   1.246
 8919SOL    HW127656   1.627   3.276   1.262
 8919SOL    HW227657   1.644   3.115   1.281
 8920SOL     OW27658   5.925   5.998   5.837
 8920SOL    HW127659   5.971   5.934   5.775
 8920SOL    HW227660   5.984   6.078   5.852
 8921SOL     OW27661   0.788   5.458   3.357
 8921SOL    HW127662   0.856   5.503   3.299
 8921SOL    HW227663   0.834   5.419   3.437
 8922SOL     OW27664   0.539   2.663   0.175
 8922SOL    HW127665   0.608   2.669   0.103
 8922SOL    HW227666   0.526   2.567   0.202
 8923SOL     OW27667   2.097   4.679   3.736
 8923SOL    HW127668   2.033   4.701   3.810
 8923SOL    HW227669   2.190   4.699   3.764
 8924SOL     OW27670   2.337   6.479   4.547
 8924SOL    HW127671   2.431   6.485   4.514
 8924SOL    HW227672   2.323   6.388   4.588
 8925SOL     OW27673   4.711   5.559   1.043
 8925SOL    HW127674   4.726   5.481   0.981
 8925SOL    HW227675   4.664   5.632   0.994
 8926SOL     OW27676   5.577   6.665   0.593
 8926SOL    HW127677   5.595   6.740   0.529
 8926SOL    HW227678   5.483   6.632   0.581
 8927SOL     OW27679   3.159   1.872   4.905
 8927SOL    HW127680   3.141   1.950   4.845
 8927SOL    HW227681   3.073   1.842   4.947
 8928SOL     OW27682   1.963   0.454   5.300
 8928SOL    HW127683   1.920   0.434   5.388
 8928SOL    HW227684   2.059   0.427   5.303
 8929SOL     OW27685   5.097   4.780   2.957
 8929SOL    HW127686   5.115   4.691   2.916
 8929SOL    HW227687   5.069   4.845   2.885
 8930SOL     OW27688   0.167   5.588   5.411
 8930SOL    HW127689   0.241   5.644   5.372
 8930SOL    HW227690   0.185   5.491   5.389
 8931SOL     OW27691   5.199   0.985   1.815
 8931SOL    HW127692   5.151   1.068   1.841
 8931SOL    HW227693   5.135   0.922   1.771
 8932SOL     OW27694   4.107   0.856   6.690
 8932SOL    HW127695   4.080   0.952   6.684
 8932SOL    HW227696   4.027   0.798   6.676
 8933SOL     OW27697   1.779   6.837   6.062
 8933SOL    HW127698   1.825   6.864   5.978
 8933SOL    HW227699   1.774   6.915   6.124
 8934SOL     OW27700   3.015   6.522   3.762
 8934SOL    HW127701   2.924   6.498   3.729
 8934SOL    HW227702   3.081   6.454   3.731
 8935SOL     OW27703   5.779   1.980   2.165
 8935SOL    HW127704   5.860   2.036   2.151
 8935SOL    HW227705   5.750   1.987   2.261
 8936SOL     OW27706   0.834   3.914   2.265
 8936SOL    HW127707   0.759   3.879   2.209
 8936SOL    HW227708   0.920   3.905   2.214
 8937SOL     OW27709   3.510   6.053   5.347
 8937SOL    HW127710   3.442   6.125   5.337
 8937SOL    HW227711   3.478   5.970   5.302
 8938SOL     OW27712   4.629   6.535   2.477
 8938SOL    HW127713   4.626   6.619   2.422
 8938SOL    HW227714   4.714   6.534   2.530
 8939SOL     OW27715   6.569   2.708   5.634
 8939SOL    HW127716   6.539   2.780   5.571
 8939SOL    HW227717   6.663   2.681   5.612
 8940SOL     OW27718   6.245   3.680   2.871
 8940SOL    HW127719   6.185   3.737   2.926
 8940SOL    HW227720   6.261   3.723   2.782
 8941SOL     OW27721   5.624   2.346   3.529
 8941SOL    HW127722   5.623   2.446   3.541
 8941SOL    HW227723   5.556   2.320   3.461
 8942SOL     OW27724   5.213   6.024   4.759
 8942SOL    HW127725   5.185   6.046   4.853
 8942SOL    HW227726   5.191   6.101   4.699
 8943SOL     OW27727   4.594   3.475   0.410
 8943SOL    HW127728   4.539   3.558   0.410
 8943SOL    HW227729   4.657   3.477   0.487
 8944SOL     OW27730   4.621   5.947   5.527
 8944SOL    HW127731   4.678   6.021   5.493
 8944SOL    HW227732   4.677   5.865   5.541
 8945SOL     OW27733   6.578   4.310   2.107
 8945SOL    HW127734   6.594   4.226   2.055
 8945SOL    HW227735   6.557   4.287   2.202
 8946SOL     OW27736   3.877   2.130   3.681
 8946SOL    HW127737   3.901   2.195   3.609
 8946SOL    HW227738   3.789   2.088   3.660
 8947SOL     OW27739   2.994   5.381   0.751
 8947SOL    HW127740   2.973   5.309   0.686
 8947SOL    HW227741   3.081   5.361   0.796
 8948SOL     OW27742   5.998   0.116   2.884
 8948SOL    HW127743   6.086   0.129   2.929
 8948SOL    HW227744   5.929   0.093   2.953
 8949SOL     OW27745   4.024   6.349   1.193
 8949SOL    HW127746   4.078   6.266   1.177
 8949SOL    HW227747   4.047   6.417   1.124
 8950SOL     OW27748   3.249   3.643   3.708
 8950SOL    HW127749   3.185   3.719   3.709
 8950SOL    HW227750   3.338   3.675   3.674
 8951SOL     OW27751   0.925   1.047   3.727
 8951SOL    HW127752   0.990   1.074   3.798
 8951SOL    HW227753   0.835   1.086   3.747
 8952SOL     OW27754   1.536   3.809   4.271
 8952SOL    HW127755   1.622   3.848   4.302
 8952SOL    HW227756   1.476   3.882   4.239
 8953SOL     OW27757   1.736   5.785   0.466
 8953SOL    HW127758   1.666   5.807   0.535
 8953SOL    HW227759   1.692   5.758   0.381
 8954SOL     OW27760   2.264   4.075   5.520
 8954SOL    HW127761   2.229   4.168   5.516
 8954SOL    HW227762   2.349   4.068   5.467
 8955SOL     OW27763   6.046   2.351   6.100
 8955SOL    HW127764   5.996   2.277   6.054
 8955SOL    HW227765   6.101   2.313   6.174
 8956SOL     OW27766   0.778   6.608   0.915
 8956SOL    HW127767   0.693   6.636   0.871
 8956SOL    HW227768   0.855   6.656   0.873
 8957SOL     OW27769   0.504   0.338   4.149
 8957SOL    HW127770   0.477   0.275   4.076
 8957SOL    HW227771   0.485   0.296   4.238
 8958SOL     OW27772   6.770   2.919   4.499
 8958SOL    HW127773   6.821   2.859   4.561
 8958SOL    HW227774   6.680   2.938   4.539
 8959SOL     OW27775   5.456   1.418   3.799
 8959SOL    HW127776   5.436   1.390   3.893
 8959SOL    HW227777   5.380   1.393   3.740
 8960SOL     OW27778   3.819   6.141   1.817
 8960SOL    HW127779   3.890   6.155   1.748
 8960SOL    HW227780   3.729   6.142   1.772
 8961SOL     OW27781   2.423   2.365   5.466
 8961SOL    HW127782   2.396   2.331   5.557
 8961SOL    HW227783   2.342   2.401   5.419
 8962SOL     OW27784   6.543   6.104   1.100
 8962SOL    HW127785   6.586   6.124   1.188
 8962SOL    HW227786   6.609   6.061   1.039
 8963SOL     OW27787   2.270   5.055   6.056
 8963SOL    HW127788   2.320   5.050   5.970
 8963SOL    HW227789   2.335   5.061   6.132
 8964SOL     OW27790   0.984   3.487   3.881
 8964SOL    HW127791   1.076   3.485   3.842
 8964SOL    HW227792   0.991   3.485   3.981
 8965SOL     OW27793   3.349   6.143   6.541
 8965SOL    HW127794   3.370   6.133   6.639
 8965SOL    HW227795   3.290   6.223   6.528
 8966SOL     OW27796   5.044   6.571   5.422
 8966SOL    HW127797   5.003   6.659   5.399
 8966SOL    HW227798   5.068   6.569   5.519
 8967SOL     OW27799   1.755   0.279   3.056
 8967SOL    HW127800   1.787   0.241   3.143
 8967SOL    HW227801   1.788   0.221   2.981
 8968SOL     OW27802   2.780   5.611   2.351
 8968SOL    HW127803   2.844   5.664   2.295
 8968SOL    HW227804   2.831   5.562   2.421
 8969SOL     OW27805   6.823   1.042   1.438
 8969SOL    HW127806   6.773   1.101   1.501
 8969SOL    HW227807   6.759   1.002   1.371
 8970SOL     OW27808   2.700   2.373   4.621
 8970SOL    HW127809   2.725   2.470   4.620
 8970SOL    HW227810   2.601   2.364   4.612
 8971SOL     OW27811   3.096   5.817   1.207
 8971SOL    HW127812   3.060   5.855   1.122
 8971SOL    HW227813   3.110   5.719   1.196
 8972SOL     OW27814   6.588   3.525   6.199
 8972SOL    HW127815   6.596   3.571   6.287
 8972SOL    HW227816   6.622   3.432   6.207
 8973SOL     OW27817   2.758   1.804   3.496
 8973SOL    HW127818   2.803   1.717   3.518
 8973SOL    HW227819   2.667   1.786   3.459
 8974SOL     OW27820   0.897   4.838   5.750
 8974SOL    HW127821   0.974   4.890   5.714
 8974SOL    HW227822   0.868   4.877   5.838
 8975SOL     OW27823   0.879   3.893   6.156
 8975SOL    HW127824   0.888   3.992   6.167
 8975SOL    HW227825   0.930   3.863   6.075
 8976SOL     OW27826   5.618   6.882   1.750
 8976SOL    HW127827   5.524   6.910   1.734
 8976SOL    HW227828   5.631   6.866   1.848
 8977SOL     OW27829   0.462   5.451   5.991
 8977SOL    HW127830   0.382   5.499   6.026
 8977SOL    HW227831   0.534   5.517   5.969
 8978SOL     OW27832   6.753   4.944   4.831
 8978SOL    HW127833   6.757   4.877   4.756
 8978SOL    HW227834   6.841   4.949   4.876
 8979SOL     OW27835   1.721   4.328   2.870
 8979SOL    HW127836   1.805   4.320   2.817
 8979SOL    HW227837   1.724   4.266   2.948
 8980SOL     OW27838   4.760   0.762   0.491
 8980SOL    HW127839   4.820   0.831   0.451
 8980SOL    HW227840   4.815   0.687   0.528
 8981SOL     OW27841   4.066   2.227   6.970
 8981SOL    HW127842   4.023   2.165   6.905
 8981SOL    HW227843   4.163   2.204   6.979
 8982SOL     OW27844   0.664   0.466   3.484
 8982SOL    HW127845   0.570   0.442   3.507
 8982SOL    HW227846   0.722   0.452   3.564
 8983SOL     OW27847   1.491   6.335   2.145
 8983SOL    HW127848   1.503   6.423   2.099
 8983SOL    HW227849   1.542   6.264   2.095
 8984SOL     OW27850   5.990   1.039   3.756
 8984SOL    HW127851   6.041   1.069   3.837
 8984SOL    HW227852   6.000   0.940   3.746
 8985SOL     OW27853   4.878   0.983   0.728
 8985SOL    HW127854   4.855   1.066   0.676
 8985SOL    HW227855   4.969   0.951   0.701
 8986SOL     OW27856   1.111   0.035   6.490
 8986SOL    HW127857   1.065   6.975   6.448
 8986SOL    HW227858   1.201   0.047   6.449
 8987SOL     OW27859   2.993   6.577   2.672
 8987SOL    HW127860   3.034   6.489   2.693
 8987SOL    HW227861   3.062   6.638   2.633
 8988SOL     OW27862   2.136   6.835   0.888
 8988SOL    HW127863   2.215   6.880   0.930
 8988SOL    HW227864   2.068   6.903   0.862
 8989SOL     OW27865   6.607   1.609   2.564
 8989SOL    HW127866   6.601   1.539   2.493
 8989SOL    HW227867   6.645   1.693   2.525
 8990SOL     OW27868   3.847   1.712   3.220
 8990SOL    HW127869   3.760   1.759   3.204
 8990SOL    HW227870   3.918   1.753   3.163
 8991SOL     OW27871   1.745   1.766   0.978
 8991SOL    HW127872   1.659   1.753   0.928
 8991SOL    HW227873   1.787   1.853   0.952
 8992SOL     OW27874   1.057   5.588   5.419
 8992SOL    HW127875   1.073   5.680   5.384
 8992SOL    HW227876   1.021   5.593   5.512
 8993SOL     OW27877   5.296   4.479   3.518
 8993SOL    HW127878   5.295   4.553   3.585
 8993SOL    HW227879   5.353   4.505   3.441
 8994SOL     OW27880   1.149   6.516   2.413
 8994SOL    HW127881   1.056   6.553   2.407
 8994SOL    HW227882   1.215   6.591   2.416
 8995SOL     OW27883   1.637   4.384   3.681
 8995SOL    HW127884   1.716   4.340   3.637
 8995SOL    HW227885   1.652   4.388   3.779
 8996SOL     OW27886   2.832   3.667   1.635
 8996SOL    HW127887   2.889   3.728   1.690
 8996SOL    HW227888   2.799   3.592   1.692
 8997SOL     OW27889   3.970   1.313   4.432
 8997SOL    HW127890   3.969   1.371   4.350
 8997SOL    HW227891   3.917   1.358   4.504
 8998SOL     OW27892   1.334   1.321   6.529
 8998SOL    HW127893   1.270   1.254   6.566
 8998SOL    HW227894   1.338   1.313   6.429
 8999SOL     OW27895   6.350   2.815   5.411
 8999SOL    HW127896   6.399   2.730   5.395
 8999SOL    HW227897   6.415   2.889   5.427
 9000SOL     OW27898   4.300   5.208   1.197
 9000SOL    HW127899   4.341   5.117   1.196
 9000SOL    HW227900   4.312   5.248   1.288
 9001SOL     OW27901   0.671   3.144   4.280
 9001SOL    HW127902   0.747   3.081   4.264
 9001SOL    HW227903   0.672   3.217   4.212
 9002SOL     OW27904   4.645   3.041   6.203
 9002SOL    HW127905   4.553   3.070   6.176
 9002SOL    HW227906   4.676   2.968   6.142
 9003SOL     OW27907   0.552   3.941   0.277
 9003SOL    HW127908   0.503   3.868   0.229
 9003SOL    HW227909   0.627   3.901   0.330
 9004SOL     OW27910   5.207   5.467   0.027
 9004SOL    HW127911   5.251   5.462   6.956
 9004SOL    HW227912   5.135   5.538   0.025
 9005SOL     OW27913   4.754   4.099   3.991
 9005SOL    HW127914   4.670   4.073   4.040
 9005SOL    HW227915   4.833   4.081   4.049
 9006SOL     OW27916   3.384   6.178   2.492
 9006SOL    HW127917   3.387   6.105   2.561
 9006SOL    HW227918   3.455   6.245   2.511
 9007SOL     OW27919   1.962   6.870   5.797
 9007SOL    HW127920   1.870   6.869   5.758
 9007SOL    HW227921   1.989   6.964   5.816
 9008SOL     OW27922   0.458   4.736   1.434
 9008SOL    HW127923   0.375   4.687   1.462
 9008SOL    HW227924   0.519   4.744   1.512
 9009SOL     OW27925   3.833   6.952   0.141
 9009SOL    HW127926   3.883   6.868   0.118
 9009SOL    HW227927   3.736   6.931   0.147
 9010SOL     OW27928   0.019   6.351   5.203
 9010SOL    HW127929   6.985   6.272   5.170
 9010SOL    HW227930   6.974   6.425   5.227
 9011SOL     OW27931   4.664   2.604   2.529
 9011SOL    HW127932   4.596   2.583   2.459
 9011SOL    HW227933   4.752   2.624   2.485
 9012SOL     OW27934   3.893   4.812   2.313
 9012SOL    HW127935   3.870   4.716   2.332
 9012SOL    HW227936   3.816   4.870   2.337
 9013SOL     OW27937   3.374   6.487   1.249
 9013SOL    HW127938   3.366   6.420   1.176
 9013SOL    HW227939   3.441   6.557   1.224
 9014SOL     OW27940   2.118   1.415   1.891
 9014SOL    HW127941   2.092   1.450   1.981
 9014SOL    HW227942   2.155   1.489   1.836
 9015SOL     OW27943   6.008   2.256   4.438
 9015SOL    HW127944   6.030   2.334   4.496
 9015SOL    HW227945   6.077   2.248   4.366
 9016SOL     OW27946   0.368   4.642   6.508
 9016SOL    HW127947   0.357   4.700   6.588
 9016SOL    HW227948   0.403   4.696   6.432
 9017SOL     OW27949   5.960   2.604   2.613
 9017SOL    HW127950   5.909   2.674   2.662
 9017SOL    HW227951   6.037   2.573   2.670
 9018SOL     OW27952   5.358   1.922   6.929
 9018SOL    HW127953   5.297   1.857   6.975
 9018SOL    HW227954   5.305   1.976   6.864
 9019SOL     OW27955   1.912   6.072   0.293
 9019SOL    HW127956   2.010   6.096   0.297
 9019SOL    HW227957   1.890   6.010   0.369
 9020SOL     OW27958   0.658   5.110   4.793
 9020SOL    HW127959   0.562   5.136   4.782
 9020SOL    HW227960   0.695   5.152   4.876
 9021SOL     OW27961   6.630   5.225   4.783
 9021SOL    HW127962   6.615   5.131   4.752
 9021SOL    HW227963   6.623   5.287   4.704
 9022SOL     OW27964   0.906   6.953   6.011
 9022SOL    HW127965   0.868   7.004   6.088
 9022SOL    HW227966   0.902   6.855   6.030
 9023SOL     OW27967   3.629   4.173   4.130
 9023SOL    HW127968   3.674   4.232   4.198
 9023SOL    HW227969   3.699   4.123   4.079
 9024SOL     OW27970   1.592   0.025   0.485
 9024SOL    HW127971   1.531   0.090   0.440
 9024SOL    HW227972   1.562   6.950   0.465
 9025SOL     OW27973   0.436   2.565   0.828
 9025SOL    HW127974   0.464   2.489   0.886
 9025SOL    HW227975   0.413   2.644   0.885
 9026SOL     OW27976   2.676   4.258   5.692
 9026SOL    HW127977   2.617   4.266   5.773
 9026SOL    HW227978   2.623   4.223   5.615
 9027SOL     OW27979   0.789   3.159   2.001
 9027SOL    HW127980   0.741   3.084   1.957
 9027SOL    HW227981   0.801   3.234   1.936
 9028SOL     OW27982   1.527   4.334   4.921
 9028SOL    HW127983   1.445   4.361   4.871
 9028SOL    HW227984   1.550   4.406   4.987
 9029SOL     OW27985   5.450   5.335   3.055
 9029SOL    HW127986   5.491   5.370   3.139
 9029SOL    HW227987   5.407   5.247   3.073
 9030SOL     OW27988   4.963   2.660   2.798
 9030SOL    HW127989   4.934   2.668   2.893
 9030SOL    HW227990   4.937   2.743   2.748
 9031SOL     OW27991   2.898   0.813   2.379
 9031SOL    HW127992   2.883   0.890   2.440
 9031SOL    HW227993   2.933   0.735   2.431
 9032SOL     OW27994   0.059   3.762   2.698
 9032SOL    HW127995   0.157   3.754   2.681
 9032SOL    HW227996   0.009   3.745   2.614
 9033SOL     OW27997   0.837   2.883   2.147
 9033SOL    HW127998   0.807   2.979   2.139
 9033SOL    HW227999   0.764   2.829   2.190
 9034SOL     OW28000   0.784   6.672   0.260
 9034SOL    HW128001   0.755   6.582   0.290
 9034SOL    HW228002   0.884   6.676   0.253
 9035SOL     OW28003   6.025   1.476   4.551
 9035SOL    HW128004   5.971   1.406   4.600
 9035SOL    HW228005   5.972   1.509   4.473
 9036SOL     OW28006   0.430   1.300   4.566
 9036SOL    HW128007   0.498   1.363   4.530
 9036SOL    HW228008   0.355   1.352   4.608
 9037SOL     OW28009   2.518   4.403   6.460
 9037SOL    HW128010   2.567   4.316   6.462
 9037SOL    HW228011   2.435   4.397   6.515
 9038SOL     OW28012   3.987   6.008   5.663
 9038SOL    HW128013   3.944   5.918   5.654
 9038SOL    HW228014   3.969   6.063   5.582
 9039SOL     OW28015   2.657   4.891   0.206
 9039SOL    HW128016   2.657   4.833   0.288
 9039SOL    HW228017   2.631   4.837   0.126
 9040SOL     OW28018   3.448   1.507   2.490
 9040SOL    HW128019   3.544   1.532   2.476
 9040SOL    HW228020   3.398   1.585   2.528
 9041SOL     OW28021   2.426   2.560   5.105
 9041SOL    HW128022   2.430   2.610   5.018
 9041SOL    HW228023   2.357   2.488   5.098
 9042SOL     OW28024   1.654   5.147   2.399
 9042SOL    HW128025   1.625   5.241   2.380
 9042SOL    HW228026   1.750   5.146   2.426
 9043SOL     OW28027   0.100   1.673   0.095
 9043SOL    HW128028   0.165   1.619   0.041
 9043SOL    HW228029   0.140   1.693   0.185
 9044SOL     OW28030   0.947   3.870   0.592
 9044SOL    HW128031   0.916   3.848   0.685
 9044SOL    HW228032   0.920   3.964   0.569
 9045SOL     OW28033   2.088   4.623   5.073
 9045SOL    HW128034   2.142   4.581   5.146
 9045SOL    HW228035   2.137   4.615   4.987
 9046SOL     OW28036   3.694   4.212   6.017
 9046SOL    HW128037   3.689   4.287   6.083
 9046SOL    HW228038   3.790   4.186   6.003
 9047SOL     OW28039   0.956   4.777   4.288
 9047SOL    HW128040   0.972   4.846   4.218
 9047SOL    HW228041   0.859   4.752   4.289
 9048SOL     OW28042   1.418   2.536   5.322
 9048SOL    HW128043   1.427   2.522   5.223
 9048SOL    HW228044   1.377   2.626   5.339
 9049SOL     OW28045   4.332   6.072   5.373
 9049SOL    HW128046   4.405   6.029   5.426
 9049SOL    HW228047   4.368   6.101   5.284
 9050SOL     OW28048   0.212   3.766   6.828
 9050SOL    HW128049   0.261   3.729   6.749
 9050SOL    HW228050   0.259   3.848   6.861
 9051SOL     OW28051   0.137   5.816   6.256
 9051SOL    HW128052   0.054   5.817   6.200
 9051SOL    HW228053   0.199   5.888   6.225
 9052SOL     OW28054   2.375   4.751   4.601
 9052SOL    HW128055   2.423   4.773   4.685
 9052SOL    HW228056   2.387   4.824   4.534
 9053SOL     OW28057   1.658   6.967   2.396
 9053SOL    HW128058   1.572   7.014   2.419
 9053SOL    HW228059   1.650   6.870   2.419
 9054SOL     OW28060   1.261   0.036   2.266
 9054SOL    HW128061   1.284   0.079   2.178
 9054SOL    HW228062   1.338   0.047   2.329
 9055SOL     OW28063   1.425   2.778   5.059
 9055SOL    HW128064   1.426   2.869   5.017
 9055SOL    HW228065   1.468   2.782   5.149
 9056SOL     OW28066   5.251   2.230   1.453
 9056SOL    HW128067   5.179   2.283   1.498
 9056SOL    HW228068   5.215   2.190   1.369
 9057SOL     OW28069   3.573   6.445   5.930
 9057SOL    HW128070   3.488   6.409   5.893
 9057SOL    HW228071   3.556   6.482   6.022
 9058SOL     OW28072   2.106   3.120   4.155
 9058SOL    HW128073   2.109   3.100   4.057
 9058SOL    HW228074   2.139   3.041   4.206
 9059SOL     OW28075   0.454   0.565   2.741
 9059SOL    HW128076   0.551   0.590   2.748
 9059SOL    HW228077   0.398   0.639   2.779
 9060SOL     OW28078   0.421   5.168   6.842
 9060SOL    HW128079   0.438   5.196   6.936
 9060SOL    HW228080   0.339   5.111   6.838
 9061SOL     OW28081   3.678   4.953   2.390
 9061SOL    HW128082   3.612   4.957   2.465
 9061SOL    HW228083   3.630   4.947   2.303
 9062SOL     OW28084   0.140   6.154   3.003
 9062SOL    HW128085   0.217   6.217   3.014
 9062SOL    HW228086   0.113   6.151   2.907
 9063SOL     OW28087   6.387   6.615   1.216
 9063SOL    HW128088   6.296   6.579   1.236
 9063SOL    HW228089   6.380   6.709   1.184
 9064SOL     OW28090   1.106   5.683   2.834
 9064SOL    HW128091   1.014   5.722   2.828
 9064SOL    HW228092   1.173   5.757   2.830
 9065SOL     OW28093   3.172   4.118   6.856
 9065SOL    HW128094   3.121   4.203   6.869
 9065SOL    HW228095   3.264   4.139   6.823
 9066SOL     OW28096   5.783   5.079   3.304
 9066SOL    HW128097   5.766   5.165   3.255
 9066SOL    HW228098   5.746   5.003   3.252
 9067SOL     OW28099   1.910   0.175   4.010
 9067SOL    HW128100   1.990   0.122   4.035
 9067SOL    HW228101   1.926   0.223   3.924
 9068SOL     OW28102   4.995   0.504   5.558
 9068SOL    HW128103   4.999   0.603   5.569
 9068SOL    HW228104   4.937   0.482   5.479
 9069SOL     OW28105   4.723   2.256   1.795
 9069SOL    HW128106   4.639   2.214   1.761
 9069SOL    HW228107   4.740   2.342   1.747
 9070SOL     OW28108   1.006   0.734   6.981
 9070SOL    HW128109   1.024   0.735   0.061
 9070SOL    HW228110   0.909   0.711   6.966
 9071SOL     OW28111   5.903   2.963   0.210
 9071SOL    HW128112   5.866   2.960   0.117
 9071SOL    HW228113   5.828   2.961   0.276
 9072SOL     OW28114   6.209   0.956   1.684
 9072SOL    HW128115   6.173   0.979   1.594
 9072SOL    HW228116   6.284   0.890   1.674
 9073SOL     OW28117   4.950   2.548   6.267
 9073SOL    HW128118   4.938   2.487   6.188
 9073SOL    HW228119   4.866   2.600   6.281
 9074SOL     OW28120   1.826   0.566   3.502
 9074SOL    HW128121   1.786   0.485   3.458
 9074SOL    HW228122   1.926   0.558   3.500
 9075SOL     OW28123   5.145   5.610   1.096
 9075SOL    HW128124   5.059   5.657   1.076
 9075SOL    HW228125   5.152   5.594   1.194
 9076SOL     OW28126   0.955   6.575   2.708
 9076SOL    HW128127   0.871   6.584   2.654
 9076SOL    HW228128   0.992   6.482   2.697
 9077SOL     OW28129   6.470   0.956   6.533
 9077SOL    HW128130   6.536   0.980   6.462
 9077SOL    HW228131   6.487   1.012   6.614
 9078SOL     OW28132   5.181   6.838   6.400
 9078SOL    HW128133   5.279   6.849   6.416
 9078SOL    HW228134   5.160   6.863   6.306
 9079SOL     OW28135   2.366   1.982   6.270
 9079SOL    HW128136   2.344   1.907   6.208
 9079SOL    HW228137   2.444   1.956   6.327
 9080SOL     OW28138   6.672   4.970   0.718
 9080SOL    HW128139   6.591   4.977   0.660
 9080SOL    HW228140   6.735   4.903   0.680
 9081SOL     OW28141   4.622   1.098   6.713
 9081SOL    HW128142   4.702   1.112   6.655
 9081SOL    HW228143   4.614   1.175   6.776
 9082SOL     OW28144   3.120   4.526   6.651
 9082SOL    HW128145   3.091   4.618   6.623
 9082SOL    HW228146   3.198   4.497   6.595
 9083SOL     OW28147   3.800   0.441   1.152
 9083SOL    HW128148   3.861   0.379   1.203
 9083SOL    HW228149   3.781   0.403   1.062
 9084SOL     OW28150   6.801   4.709   4.692
 9084SOL    HW128151   6.742   4.670   4.622
 9084SOL    HW228152   6.832   4.636   4.754
 9085SOL     OW28153   3.091   4.691   1.732
 9085SOL    HW128154   3.165   4.625   1.729
 9085SOL    HW228155   3.022   4.667   1.662
 9086SOL     OW28156   6.946   1.494   0.341
 9086SOL    HW128157   6.934   1.519   0.437
 9086SOL    HW228158   6.972   1.576   0.289
 9087SOL     OW28159   4.793   1.319   0.539
 9087SOL    HW128160   4.717   1.298   0.601
 9087SOL    HW228161   4.757   1.356   0.454
 9088SOL     OW28162   5.198   6.641   0.639
 9088SOL    HW128163   5.266   6.569   0.655
 9088SOL    HW228164   5.201   6.707   0.714
 9089SOL     OW28165   5.231   5.989   2.970
 9089SOL    HW128166   5.274   5.952   2.887
 9089SOL    HW228167   5.299   5.992   3.044
 9090SOL     OW28168   6.288   5.033   5.027
 9090SOL    HW128169   6.386   5.015   5.039
 9090SOL    HW228170   6.257   5.095   5.099
 9091SOL     OW28171   2.077   2.227   1.568
 9091SOL    HW128172   2.172   2.247   1.547
 9091SOL    HW228173   2.029   2.313   1.589
 9092SOL     OW28174   3.198   1.872   5.430
 9092SOL    HW128175   3.137   1.833   5.361
 9092SOL    HW228176   3.155   1.865   5.520
 9093SOL     OW28177   1.900   3.713   0.579
 9093SOL    HW128178   1.946   3.626   0.558
 9093SOL    HW228179   1.801   3.699   0.581
 9094SOL     OW28180   0.102   2.261   6.860
 9094SOL    HW128181   0.136   2.215   6.778
 9094SOL    HW228182   0.173   2.323   6.895
 9095SOL     OW28183   2.516   2.417   0.327
 9095SOL    HW128184   2.451   2.342   0.313
 9095SOL    HW228185   2.466   2.501   0.347
 9096SOL     OW28186   6.833   4.322   2.674
 9096SOL    HW128187   6.736   4.346   2.661
 9096SOL    HW228188   6.877   4.313   2.585
 9097SOL     OW28189   6.681   5.889   5.897
 9097SOL    HW128190   6.677   5.862   5.801
 9097SOL    HW228191   6.775   5.881   5.930
 9098SOL     OW28192   3.604   3.467   5.512
 9098SOL    HW128193   3.602   3.376   5.555
 9098SOL    HW228194   3.606   3.537   5.584
 9099SOL     OW28195   1.997   2.672   6.755
 9099SOL    HW128196   1.992   2.744   6.687
 9099SOL    HW228197   1.933   2.692   6.829
 9100SOL     OW28198   1.708   2.479   0.558
 9100SOL    HW128199   1.693   2.568   0.515
 9100SOL    HW228200   1.785   2.433   0.513
 9101SOL     OW28201   2.515   1.939   0.458
 9101SOL    HW128202   2.561   2.023   0.428
 9101SOL    HW228203   2.475   1.892   0.380
 9102SOL     OW28204   4.490   6.044   2.387
 9102SOL    HW128205   4.583   6.035   2.422
 9102SOL    HW228206   4.467   6.140   2.378
 9103SOL     OW28207   1.480   4.145   6.361
 9103SOL    HW128208   1.401   4.083   6.357
 9103SOL    HW228209   1.520   4.153   6.269
 9104SOL     OW28210   4.363   6.852   3.002
 9104SOL    HW128211   4.358   6.752   3.002
 9104SOL    HW228212   4.284   6.888   3.051
 9105SOL     OW28213   3.414   2.576   6.150
 9105SOL    HW128214   3.349   2.652   6.156
 9105SOL    HW228215   3.451   2.571   6.058
 9106SOL     OW28216   6.345   5.498   0.952
 9106SOL    HW128217   6.333   5.570   0.883
 9106SOL    HW228218   6.404   5.531   1.025
 9107SOL     OW28219   4.470   6.573   6.608
 9107SOL    HW128220   4.513   6.588   6.519
 9107SOL    HW228221   4.503   6.641   6.673
 9108SOL     OW28222   3.664   5.771   1.005
 9108SOL    HW128223   3.682   5.699   0.938
 9108SOL    HW228224   3.585   5.746   1.061
 9109SOL     OW28225   3.245   1.847   4.441
 9109SOL    HW128226   3.185   1.899   4.379
 9109SOL    HW228227   3.292   1.910   4.502
 9110SOL     OW28228   0.228   4.065   3.755
 9110SOL    HW128229   0.194   4.053   3.848
 9110SOL    HW228230   0.172   4.133   3.707
 9111SOL     OW28231   3.522   4.370   1.725
 9111SOL    HW128232   3.553   4.297   1.786
 9111SOL    HW228233   3.554   4.458   1.758
 9112SOL     OW28234   0.925   6.660   2.333
 9112SOL    HW128235   0.881   6.750   2.343
 9112SOL    HW228236   0.981   6.659   2.251
 9113SOL     OW28237   2.298   5.893   0.182
 9113SOL    HW128238   2.394   5.910   0.158
 9113SOL    HW228239   2.253   5.979   0.204
 9114SOL     OW28240   2.710   3.471   1.779
 9114SOL    HW128241   2.781   3.415   1.822
 9114SOL    HW228242   2.623   3.457   1.828
 9115SOL     OW28243   1.393   4.376   4.145
 9115SOL    HW128244   1.489   4.357   4.124
 9115SOL    HW228245   1.363   4.457   4.095
 9116SOL     OW28246   3.709   2.133   6.774
 9116SOL    HW128247   3.653   2.112   6.695
 9116SOL    HW228248   3.666   2.098   6.857
 9117SOL     OW28249   1.025   2.553   6.739
 9117SOL    HW128250   0.974   2.560   6.653
 9117SOL    HW228251   1.053   2.644   6.770
 9118SOL     OW28252   0.695   6.688   1.191
 9118SOL    HW128253   0.622   6.656   1.251
 9118SOL    HW228254   0.735   6.610   1.143
 9119SOL     OW28255   5.865   6.837   1.108
 9119SOL    HW128256   5.845   6.846   1.205
 9119SOL    HW228257   5.786   6.799   1.060
 9120SOL     OW28258   5.897   0.096   0.215
 9120SOL    HW128259   5.884   0.191   0.189
 9120SOL    HW228260   5.833   0.072   0.289
 9121SOL     OW28261   1.627   0.884   6.481
 9121SOL    HW128262   1.603   0.968   6.529
 9121SOL    HW228263   1.598   0.805   6.535
 9122SOL     OW28264   0.608   3.228   1.057
 9122SOL    HW128265   0.625   3.220   1.156
 9122SOL    HW228266   0.605   3.137   1.017
 9123SOL     OW28267   1.455   6.714   6.165
 9123SOL    HW128268   1.490   6.647   6.230
 9123SOL    HW228269   1.356   6.724   6.176
 9124SOL     OW28270   0.127   4.065   4.542
 9124SOL    HW128271   0.060   4.085   4.614
 9124SOL    HW228272   0.088   3.998   4.478
 9125SOL     OW28273   4.958   6.059   1.330
 9125SOL    HW128274   4.996   6.127   1.267
 9125SOL    HW228275   5.031   6.023   1.388
 9126SOL     OW28276   5.762   0.665   3.334
 9126SOL    HW128277   5.682   0.615   3.368
 9126SOL    HW228278   5.845   0.618   3.363
 9127SOL     OW28279   5.948   5.299   5.832
 9127SOL    HW128280   5.944   5.224   5.766
 9127SOL    HW228281   6.021   5.362   5.807
 9128SOL     OW28282   5.129   2.969   5.091
 9128SOL    HW128283   5.087   3.045   5.142
 9128SOL    HW228284   5.211   2.938   5.140
 9129SOL     OW28285   2.907   1.113   0.341
 9129SOL    HW128286   2.955   1.200   0.341
 9129SOL    HW228287   2.813   1.126   0.311
 9130SOL     OW28288   5.705   5.387   0.590
 9130SOL    HW128289   5.632   5.453   0.606
 9130SOL    HW228290   5.778   5.429   0.536
 9131SOL     OW28291   0.682   4.964   3.646
 9131SOL    HW128292   0.744   4.954   3.568
 9131SOL    HW228293   0.722   4.921   3.726
 9132SOL     OW28294   1.457   2.873   4.183
 9132SOL    HW128295   1.397   2.894   4.261
 9132SOL    HW228296   1.445   2.778   4.156
 9133SOL     OW28297   1.304   5.125   0.809
 9133SOL    HW128298   1.316   5.035   0.851
 9133SOL    HW228299   1.280   5.192   0.880
 9134SOL     OW28300   2.975   4.863   6.150
 9134SOL    HW128301   2.969   4.961   6.170
 9134SOL    HW228302   2.891   4.818   6.178
 9135SOL     OW28303   0.900   6.693   3.200
 9135SOL    HW128304   0.923   6.615   3.142
 9135SOL    HW228305   0.978   6.716   3.258
 9136SOL     OW28306   3.723   5.105   5.213
 9136SOL    HW128307   3.822   5.101   5.198
 9136SOL    HW228308   3.696   5.033   5.277
 9137SOL     OW28309   3.691   0.289   2.685
 9137SOL    HW128310   3.629   0.219   2.721
 9137SOL    HW228311   3.744   0.328   2.760
 9138SOL     OW28312   3.370   4.671   1.026
 9138SOL    HW128313   3.331   4.743   0.968
 9138SOL    HW228314   3.297   4.629   1.080
 9139SOL     OW28315   3.741   0.400   5.449
 9139SOL    HW128316   3.668   0.393   5.381
 9139SOL    HW228317   3.820   0.447   5.409
 9140SOL     OW28318   6.378   2.349   3.534
 9140SOL    HW128319   6.432   2.388   3.608
 9140SOL    HW228320   6.325   2.422   3.490
 9141SOL     OW28321   5.300   1.163   5.655
 9141SOL    HW128322   5.328   1.099   5.583
 9141SOL    HW228323   5.378   1.182   5.714
 9142SOL     OW28324   1.834   3.420   0.021
 9142SOL    HW128325   1.752   3.437   0.076
 9142SOL    HW228326   1.807   3.382   6.951
 9143SOL     OW28327   6.182   4.409   0.352
 9143SOL    HW128328   6.147   4.465   0.427
 9143SOL    HW228329   6.164   4.454   0.265
 9144SOL     OW28330   1.199   5.611   4.262
 9144SOL    HW128331   1.129   5.543   4.241
 9144SOL    HW228332   1.181   5.696   4.213
 9145SOL     OW28333   1.796   3.279   6.838
 9145SOL    HW128334   1.871   3.272   6.772
 9145SOL    HW228335   1.771   3.187   6.868
 9146SOL     OW28336   1.051   1.824   1.434
 9146SOL    HW128337   1.028   1.889   1.506
 9146SOL    HW228338   1.055   1.731   1.472
 9147SOL     OW28339   3.793   5.295   6.325
 9147SOL    HW128340   3.857   5.231   6.369
 9147SOL    HW228341   3.703   5.285   6.366
 9148SOL     OW28342   3.540   4.998   2.862
 9148SOL    HW128343   3.638   4.977   2.856
 9148SOL    HW228344   3.497   4.983   2.773
 9149SOL     OW28345   6.054   3.122   5.248
 9149SOL    HW128346   6.128   3.130   5.315
 9149SOL    HW228347   6.072   3.045   5.188
 9150SOL     OW28348   3.973   1.463   2.894
 9150SOL    HW128349   3.983   1.433   2.989
 9150SOL    HW228350   4.030   1.544   2.879
 9151SOL     OW28351   6.150   3.003   2.275
 9151SOL    HW128352   6.089   3.057   2.217
 9151SOL    HW228353   6.115   2.910   2.283
 9152SOL     OW28354   2.186   4.938   2.741
 9152SOL    HW128355   2.088   4.920   2.745
 9152SOL    HW228356   2.202   5.029   2.702
 9153SOL     OW28357   2.214   2.857   0.247
 9153SOL    HW128358   2.269   2.932   0.285
 9153SOL    HW228359   2.118   2.883   0.249
 9154SOL     OW28360   1.049   5.380   0.542
 9154SOL    HW128361   0.949   5.379   0.540
 9154SOL    HW228362   1.084   5.435   0.467
 9155SOL     OW28363   1.741   4.971   0.151
 9155SOL    HW128364   1.819   5.027   0.176
 9155SOL    HW228365   1.770   4.877   0.135
 9156SOL     OW28366   4.864   2.733   1.523
 9156SOL    HW128367   4.963   2.740   1.535
 9156SOL    HW228368   4.826   2.825   1.516
 9157SOL     OW28369   5.816   3.826   5.233
 9157SOL    HW128370   5.911   3.855   5.228
 9157SOL    HW228371   5.758   3.905   5.254
 9158SOL     OW28372   0.984   4.291   3.434
 9158SOL    HW128373   0.953   4.241   3.353
 9158SOL    HW228374   1.053   4.238   3.482
 9159SOL     OW28375   0.250   5.572   1.770
 9159SOL    HW128376   0.283   5.556   1.677
 9159SOL    HW228377   0.320   5.543   1.836
 9160SOL     OW28378   0.744   6.918   0.898
 9160SOL    HW128379   0.747   6.951   0.992
 9160SOL    HW228380   0.829   6.868   0.878
 9161SOL     OW28381   5.477   3.473   2.086
 9161SOL    HW128382   5.520   3.431   2.005
 9161SOL    HW228383   5.418   3.548   2.057
 9162SOL     OW28384   4.913   2.690   3.607
 9162SOL    HW128385   4.911   2.601   3.651
 9162SOL    HW228386   4.840   2.696   3.539
 9163SOL     OW28387   3.632   0.719   4.787
 9163SOL    HW128388   3.607   0.736   4.692
 9163SOL    HW228389   3.708   0.779   4.813
 9164SOL     OW28390   2.798   0.652   0.869
 9164SOL    HW128391   2.760   0.716   0.936
 9164SOL    HW228392   2.758   0.671   0.779
 9165SOL     OW28393   5.055   6.016   0.973
 9165SOL    HW128394   5.146   6.024   0.931
 9165SOL    HW228395   4.988   6.060   0.914
 9166SOL     OW28396   2.961   5.247   1.167
 9166SOL    HW128397   2.877   5.239   1.220
 9166SOL    HW228398   2.938   5.267   1.071
 9167SOL     OW28399   0.325   3.654   4.561
 9167SOL    HW128400   0.345   3.576   4.501
 9167SOL    HW228401   0.404   3.714   4.566
 9168SOL     OW28402   4.030   0.612   0.585
 9168SOL    HW128403   3.995   0.571   0.669
 9168SOL    HW228404   4.130   0.608   0.585
 9169SOL     OW28405   0.495   6.584   4.029
 9169SOL    HW128406   0.439   6.607   4.109
 9169SOL    HW228407   0.472   6.644   3.953
 9170SOL     OW28408   6.521   5.649   6.955
 9170SOL    HW128409   6.598   5.618   7.009
 9170SOL    HW228410   6.524   5.749   6.946
 9171SOL     OW28411   3.565   5.647   4.600
 9171SOL    HW128412   3.632   5.698   4.547
 9171SOL    HW228413   3.594   5.552   4.607
 9172SOL     OW28414   2.314   2.280   4.071
 9172SOL    HW128415   2.291   2.356   4.011
 9172SOL    HW228416   2.231   2.231   4.098
 9173SOL     OW28417   6.827   5.071   5.167
 9173SOL    HW128418   6.772   5.068   5.250
 9173SOL    HW228419   6.898   5.140   5.176
 9174SOL     OW28420   0.279   5.659   5.982
 9174SOL    HW128421   0.202   5.721   5.997
 9174SOL    HW228422   0.285   5.637   5.885
 9175SOL     OW28423   2.425   6.257   6.009
 9175SOL    HW128424   2.368   6.191   5.961
 9175SOL    HW228425   2.367   6.312   6.070
 9176SOL     OW28426   1.416   2.790   5.856
 9176SOL    HW128427   1.472   2.707   5.850
 9176SOL    HW228428   1.442   2.853   5.782
 9177SOL     OW28429   1.687   3.965   2.818
 9177SOL    HW128430   1.785   3.958   2.801
 9177SOL    HW228431   1.641   3.885   2.781
 9178SOL     OW28432   1.945   4.035   0.291
 9178SOL    HW128433   1.870   4.099   0.309
 9178SOL    HW228434   2.014   4.080   0.234
 9179SOL     OW28435   2.998   4.367   5.300
 9179SOL    HW128436   2.968   4.352   5.394
 9179SOL    HW228437   2.953   4.447   5.262
 9180SOL     OW28438   5.002   1.535   1.922
 9180SOL    HW128439   4.922   1.487   1.887
 9180SOL    HW228440   5.019   1.507   2.016
 9181SOL     OW28441   4.047   1.121   2.546
 9181SOL    HW128442   3.973   1.068   2.588
 9181SOL    HW228443   4.035   1.123   2.447
 9182SOL     OW28444   2.536   6.867   1.572
 9182SOL    HW128445   2.607   6.936   1.560
 9182SOL    HW228446   2.575   6.776   1.555
 9183SOL     OW28447   5.175   5.119   5.645
 9183SOL    HW128448   5.177   5.209   5.601
 9183SOL    HW228449   5.163   5.048   5.576
 9184SOL     OW28450   4.766   0.060   0.153
 9184SOL    HW128451   4.805   0.054   0.061
 9184SOL    HW228452   4.672   0.027   0.152
 9185SOL     OW28453   4.958   1.175   4.847
 9185SOL    HW128454   4.873   1.227   4.856
 9185SOL    HW228455   5.036   1.236   4.859
 9186SOL     OW28456   5.321   0.883   5.886
 9186SOL    HW128457   5.283   0.831   5.809
 9186SOL    HW228458   5.261   0.961   5.906
 9187SOL     OW28459   2.427   6.015   3.162
 9187SOL    HW128460   2.433   6.095   3.221
 9187SOL    HW228461   2.421   6.044   3.066
 9188SOL     OW28462   3.032   5.156   0.572
 9188SOL    HW128463   2.940   5.134   0.538
 9188SOL    HW228464   3.054   5.095   0.649
 9189SOL     OW28465   5.667   4.570   1.953
 9189SOL    HW128466   5.570   4.548   1.942
 9189SOL    HW228467   5.718   4.539   1.873
 9190SOL     OW28468   1.431   6.052   6.622
 9190SOL    HW128469   1.491   6.090   6.551
 9190SOL    HW228470   1.487   6.003   6.689
 9191SOL     OW28471   6.827   0.687   6.137
 9191SOL    HW128472   6.878   0.619   6.085
 9191SOL    HW228473   6.870   0.777   6.126
 9192SOL     OW28474   1.118   3.271   5.157
 9192SOL    HW128475   1.096   3.348   5.096
 9192SOL    HW228476   1.049   3.199   5.146
 9193SOL     OW28477   3.797   4.164   0.729
 9193SOL    HW128478   3.797   4.145   0.631
 9193SOL    HW228479   3.880   4.124   0.770
 9194SOL     OW28480   3.030   0.677   4.055
 9194SOL    HW128481   3.114   0.626   4.041
 9194SOL    HW228482   2.951   0.620   4.034
 9195SOL     OW28483   1.910   1.095   3.562
 9195SOL    HW128484   1.929   0.997   3.553
 9195SOL    HW228485   1.958   1.130   3.643
 9196SOL     OW28486   4.813   1.403   6.062
 9196SOL    HW128487   4.794   1.338   6.135
 9196SOL    HW228488   4.911   1.407   6.045
 9197SOL     OW28489   2.689   3.561   0.566
 9197SOL    HW128490   2.741   3.565   0.481
 9197SOL    HW228491   2.626   3.638   0.570
 9198SOL     OW28492   1.124   4.544   5.003
 9198SOL    HW128493   1.066   4.615   4.962
 9198SOL    HW228494   1.067   4.469   5.036
 9199SOL     OW28495   5.805   4.893   4.981
 9199SOL    HW128496   5.720   4.937   5.012
 9199SOL    HW228497   5.864   4.960   4.936
 9200SOL     OW28498   2.955   6.928   0.422
 9200SOL    HW128499   3.041   6.973   0.400
 9200SOL    HW228500   2.898   6.923   0.339
 9201SOL     OW28501   2.176   4.385   0.735
 9201SOL    HW128502   2.260   4.389   0.789
 9201SOL    HW228503   2.112   4.321   0.776
 9202SOL     OW28504   2.816   1.009   3.394
 9202SOL    HW128505   2.824   1.056   3.482
 9202SOL    HW228506   2.720   1.010   3.365
 9203SOL     OW28507   6.856   6.402   1.021
 9203SOL    HW128508   6.905   6.436   0.941
 9203SOL    HW228509   6.764   6.441   1.024
 9204SOL     OW28510   5.608   0.843   5.513
 9204SOL    HW128511   5.628   0.810   5.420
 9204SOL    HW228512   5.644   0.778   5.580
 9205SOL     OW28513   0.255   5.345   2.509
 9205SOL    HW128514   0.325   5.316   2.443
 9205SOL    HW228515   0.168   5.360   2.462
 9206SOL     OW28516   3.845   0.141   0.560
 9206SOL    HW128517   3.915   0.120   0.491
 9206SOL    HW228518   3.821   0.238   0.555
 9207SOL     OW28519   5.582   5.676   5.948
 9207SOL    HW128520   5.530   5.646   6.028
 9207SOL    HW228521   5.547   5.765   5.917
 9208SOL     OW28522   1.145   3.443   2.335
 9208SOL    HW128523   1.226   3.436   2.277
 9208SOL    HW228524   1.133   3.357   2.385
 9209SOL     OW28525   2.584   5.857   6.439
 9209SOL    HW128526   2.561   5.881   6.345
 9209SOL    HW228527   2.634   5.933   6.481
 9210SOL     OW28528   6.405   0.541   4.258
 9210SOL    HW128529   6.460   0.498   4.187
 9210SOL    HW228530   6.389   0.636   4.235
 9211SOL     OW28531   0.753   1.516   3.138
 9211SOL    HW128532   0.793   1.524   3.229
 9211SOL    HW228533   0.789   1.588   3.078
 9212SOL     OW28534   4.124   5.101   4.654
 9212SOL    HW128535   4.104   5.174   4.588
 9212SOL    HW228536   4.223   5.097   4.670
 9213SOL     OW28537   6.227   3.499   0.084
 9213SOL    HW128538   6.303   3.556   0.117
 9213SOL    HW228539   6.168   3.553   0.025
 9214SOL     OW28540   0.165   5.280   0.157
 9214SOL    HW128541   0.083   5.279   0.100
 9214SOL    HW228542   0.228   5.208   0.127
 9215SOL     OW28543   1.012   1.355   1.103
 9215SOL    HW128544   1.098   1.369   1.151
 9215SOL    HW228545   1.002   1.258   1.079
 9216SOL     OW28546   2.139   6.909   3.773
 9216SOL    HW128547   2.180   6.818   3.775
 9216SOL    HW228548   2.041   6.902   3.790
 9217SOL     OW28549   0.613   2.152   0.718
 9217SOL    HW128550   0.664   2.169   0.634
 9217SOL    HW228551   0.648   2.070   0.763
 9218SOL     OW28552   2.733   1.184   1.210
 9218SOL    HW128553   2.700   1.147   1.123
 9218SOL    HW228554   2.742   1.284   1.203
 9219SOL     OW28555   6.220   1.271   0.528
 9219SOL    HW128556   6.205   1.327   0.609
 9219SOL    HW228557   6.199   1.325   0.446
 9220SOL     OW28558   3.217   6.256   0.481
 9220SOL    HW128559   3.157   6.249   0.561
 9220SOL    HW228560   3.299   6.307   0.505
 9221SOL     OW28561   2.932   4.813   4.790
 9221SOL    HW128562   2.941   4.723   4.835
 9221SOL    HW228563   2.894   4.879   4.855
 9222SOL     OW28564   3.092   2.373   0.042
 9222SOL    HW128565   3.166   2.422   7.015
 9222SOL    HW228566   3.019   2.437   0.065
 9223SOL     OW28567   2.803   3.024   5.258
 9223SOL    HW128568   2.822   2.929   5.283
 9223SOL    HW228569   2.706   3.032   5.235
 9224SOL     OW28570   2.447   4.453   5.132
 9224SOL    HW128571   2.359   4.410   5.115
 9224SOL    HW228572   2.470   4.514   5.057
 9225SOL     OW28573   1.602   6.264   6.858
 9225SOL    HW128574   1.621   6.177   6.903
 9225SOL    HW228575   1.506   6.288   6.871
 9226SOL     OW28576   4.779   6.248   0.975
 9226SOL    HW128577   4.809   6.189   0.901
 9226SOL    HW228578   4.743   6.193   1.050
 9227SOL     OW28579   1.153   6.319   1.473
 9227SOL    HW128580   1.247   6.354   1.473
 9227SOL    HW228581   1.140   6.260   1.394
 9228SOL     OW28582   0.464   6.122   5.961
 9228SOL    HW128583   0.477   6.200   5.900
 9228SOL    HW228584   0.370   6.122   5.995
 9229SOL     OW28585   0.816   6.017   5.363
 9229SOL    HW128586   0.818   6.005   5.264
 9229SOL    HW228587   0.724   5.997   5.397
 9230SOL     OW28588   4.848   1.579   3.409
 9230SOL    HW128589   4.809   1.544   3.324
 9230SOL    HW228590   4.948   1.569   3.406
 9231SOL     OW28591   2.166   3.513   3.533
 9231SOL    HW128592   2.247   3.455   3.530
 9231SOL    HW228593   2.126   3.510   3.624
 9232SOL     OW28594   4.181   5.372   1.027
 9232SOL    HW128595   4.228   5.297   1.073
 9232SOL    HW228596   4.224   5.459   1.052
 9233SOL     OW28597   5.900   4.534   0.300
 9233SOL    HW128598   5.865   4.551   0.208
 9233SOL    HW228599   5.875   4.611   0.359
 9234SOL     OW28600   1.952   5.949   3.952
 9234SOL    HW128601   1.940   6.000   3.868
 9234SOL    HW228602   2.050   5.933   3.969
 9235SOL     OW28603   0.896   2.684   3.125
 9235SOL    HW128604   0.828   2.710   3.056
 9235SOL    HW228605   0.968   2.631   3.081
 9236SOL     OW28606   3.556   2.573   6.496
 9236SOL    HW128607   3.543   2.641   6.423
 9236SOL    HW228608   3.537   2.615   6.584
 9237SOL     OW28609   1.357   3.491   3.021
 9237SOL    HW128610   1.331   3.587   3.016
 9237SOL    HW228611   1.294   3.436   2.967
 9238SOL     OW28612   4.197   3.674   6.783
 9238SOL    HW128613   4.218   3.655   6.687
 9238SOL    HW228614   4.282   3.684   6.834
 9239SOL     OW28615   2.160   3.021   6.343
 9239SOL    HW128616   2.111   3.107   6.340
 9239SOL    HW228617   2.163   2.987   6.437
 9240SOL     OW28618   4.591   0.742   2.417
 9240SOL    HW128619   4.576   0.824   2.472
 9240SOL    HW228620   4.632   0.767   2.330
 9241SOL     OW28621   0.389   5.737   5.336
 9241SOL    HW128622   0.466   5.723   5.399
 9241SOL    HW228623   0.424   5.754   5.244
 9242SOL     OW28624   4.889   7.010   2.013
 9242SOL    HW128625   4.893   6.948   1.935
 9242SOL    HW228626   4.794   7.015   2.046
 9243SOL     OW28627   5.672   0.068   4.690
 9243SOL    HW128628   5.576   0.040   4.699
 9243SOL    HW228629   5.731   7.008   4.707
 9244SOL     OW28630   3.864   6.397   0.869
 9244SOL    HW128631   3.800   6.402   0.945
 9244SOL    HW228632   3.920   6.314   0.877
 9245SOL     OW28633   0.529   6.855   1.499
 9245SOL    HW128634   0.506   6.854   1.401
 9245SOL    HW228635   0.462   6.910   1.548
 9246SOL     OW28636   6.542   5.073   3.840
 9246SOL    HW128637   6.624   5.129   3.851
 9246SOL    HW228638   6.511   5.041   3.930
 9247SOL     OW28639   1.156   0.594   2.764
 9247SOL    HW128640   1.121   0.525   2.701
 9247SOL    HW228641   1.161   0.683   2.717
 9248SOL     OW28642   4.449   1.909   6.313
 9248SOL    HW128643   4.480   1.952   6.398
 9248SOL    HW228644   4.352   1.888   6.320
 9249SOL     OW28645   4.050   6.430   3.896
 9249SOL    HW128646   4.086   6.415   3.804
 9249SOL    HW228647   3.950   6.425   3.893
 9250SOL     OW28648   4.967   3.691   3.134
 9250SOL    HW128649   4.925   3.605   3.105
 9250SOL    HW228650   4.923   3.724   3.218
 9251SOL     OW28651   3.753   1.817   2.182
 9251SOL    HW128652   3.708   1.730   2.161
 9251SOL    HW228653   3.683   1.887   2.198
 9252SOL     OW28654   1.613   6.679   4.799
 9252SOL    HW128655   1.618   6.598   4.742
 9252SOL    HW228656   1.690   6.680   4.863
 9253SOL     OW28657   1.258   6.683   6.431
 9253SOL    HW128658   1.338   6.744   6.432
 9253SOL    HW228659   1.177   6.737   6.408
 9254SOL     OW28660   4.701   2.155   0.985
 9254SOL    HW128661   4.795   2.125   0.970
 9254SOL    HW228662   4.639   2.098   0.929
 9255SOL     OW28663   6.982   5.169   0.005
 9255SOL    HW128664   6.931   5.102   6.968
 9255SOL    HW228665   6.957   5.158   0.101
 9256SOL     OW28666   4.155   5.310   2.647
 9256SOL    HW128667   4.074   5.360   2.676
 9256SOL    HW228668   4.143   5.212   2.667
 9257SOL     OW28669   0.551   3.421   0.862
 9257SOL    HW128670   0.459   3.453   0.883
 9257SOL    HW228671   0.586   3.367   0.940
 9258SOL     OW28672   3.494   2.931   4.611
 9258SOL    HW128673   3.577   2.888   4.647
 9258SOL    HW228674   3.424   2.933   4.683
 9259SOL     OW28675   1.558   2.437   0.205
 9259SOL    HW128676   1.496   2.362   0.228
 9259SOL    HW228677   1.508   2.523   0.207
 9260SOL     OW28678   6.790   3.784   0.221
 9260SOL    HW128679   6.760   3.689   0.212
 9260SOL    HW228680   6.888   3.786   0.241
 9261SOL     OW28681   2.512   6.917   6.001
 9261SOL    HW128682   2.416   6.906   5.975
 9261SOL    HW228683   2.563   6.835   5.978
 9262SOL     OW28684   6.097   0.267   6.408
 9262SOL    HW128685   6.130   0.271   6.314
 9262SOL    HW228686   6.022   0.201   6.415
 9263SOL     OW28687   5.935   3.753   2.695
 9263SOL    HW128688   5.863   3.747   2.625
 9263SOL    HW228689   5.892   3.758   2.785
 9264SOL     OW28690   5.680   2.270   0.326
 9264SOL    HW128691   5.754   2.301   0.385
 9264SOL    HW228692   5.688   2.171   0.312
 9265SOL     OW28693   1.812   2.293   5.233
 9265SOL    HW128694   1.735   2.235   5.208
 9265SOL    HW228695   1.889   2.274   5.172
 9266SOL     OW28696   2.861   6.604   2.403
 9266SOL    HW128697   2.886   6.600   2.307
 9266SOL    HW228698   2.855   6.511   2.441
 9267SOL     OW28699   2.609   5.188   5.960
 9267SOL    HW128700   2.542   5.137   5.906
 9267SOL    HW228701   2.611   5.152   6.054
 9268SOL     OW28702   1.193   1.016   3.091
 9268SOL    HW128703   1.145   0.956   3.026
 9268SOL    HW228704   1.131   1.085   3.125
 9269SOL     OW28705   4.208   1.280   5.261
 9269SOL    HW128706   4.308   1.275   5.252
 9269SOL    HW228707   4.184   1.302   5.355
 9270SOL     OW28708   1.814   0.353   5.517
 9270SOL    HW128709   1.894   0.301   5.546
 9270SOL    HW228710   1.731   0.305   5.545
 9271SOL     OW28711   0.446   5.347   5.525
 9271SOL    HW128712   0.469   5.253   5.554
 9271SOL    HW228713   0.502   5.412   5.577
 9272SOL     OW28714   2.395   5.052   6.301
 9272SOL    HW128715   2.349   4.990   6.365
 9272SOL    HW228716   2.459   5.110   6.350
 9273SOL     OW28717   3.661   5.467   6.601
 9273SOL    HW128718   3.650   5.547   6.542
 9273SOL    HW228719   3.648   5.495   6.697
 9274SOL     OW28720   5.033   1.881   1.970
 9274SOL    HW128721   4.964   1.953   1.978
 9274SOL    HW228722   5.003   1.801   2.021
 9275SOL     OW28723   6.624   0.211   5.808
 9275SOL    HW128724   6.575   0.239   5.891
 9275SOL    HW228725   6.722   0.208   5.826
 9276SOL     OW28726   4.703   0.150   4.261
 9276SOL    HW128727   4.676   0.117   4.351
 9276SOL    HW228728   4.762   0.230   4.271
 9277SOL     OW28729   4.889   2.618   6.977
 9277SOL    HW128730   4.963   2.556   6.951
 9277SOL    HW228731   4.807   2.564   6.998
 9278SOL     OW28732   1.457   2.525   1.322
 9278SOL    HW128733   1.401   2.444   1.337
 9278SOL    HW228734   1.398   2.605   1.308
 9279SOL     OW28735   2.272   6.871   0.458
 9279SOL    HW128736   2.193   6.844   0.403
 9279SOL    HW228737   2.261   6.837   0.551
 9280SOL     OW28738   1.716   0.642   2.347
 9280SOL    HW128739   1.632   0.659   2.295
 9280SOL    HW228740   1.779   0.718   2.335
 9281SOL     OW28741   2.006   2.624   0.204
 9281SOL    HW128742   2.087   2.658   0.251
 9281SOL    HW228743   2.022   2.530   0.174
 9282SOL     OW28744   3.827   1.220   6.315
 9282SOL    HW128745   3.758   1.149   6.300
 9282SOL    HW228746   3.879   1.235   6.230
 9283SOL     OW28747   5.349   2.654   3.080
 9283SOL    HW128748   5.309   2.707   3.005
 9283SOL    HW228749   5.410   2.585   3.042
 9284SOL     OW28750   4.149   3.971   1.738
 9284SOL    HW128751   4.098   3.918   1.806
 9284SOL    HW228752   4.226   4.017   1.783
 9285SOL     OW28753   6.483   2.756   6.448
 9285SOL    HW128754   6.530   2.797   6.526
 9285SOL    HW228755   6.477   2.657   6.461
 9286SOL     OW28756   5.436   5.447   3.922
 9286SOL    HW128757   5.383   5.491   3.849
 9286SOL    HW228758   5.375   5.387   3.974
 9287SOL     OW28759   3.269   6.990   2.719
 9287SOL    HW128760   3.223   0.029   2.652
 9287SOL    HW228761   3.257   0.012   2.810
 9288SOL     OW28762   4.383   2.227   6.613
 9288SOL    HW128763   4.452   2.196   6.548
 9288SOL    HW228764   4.297   2.243   6.565
 9289SOL     OW28765   5.471   3.859   2.879
 9289SOL    HW128766   5.464   3.852   2.979
 9289SOL    HW228767   5.512   3.947   2.855
 9290SOL     OW28768   4.082   2.221   4.382
 9290SOL    HW128769   4.003   2.176   4.425
 9290SOL    HW228770   4.135   2.270   4.451
 9291SOL     OW28771   1.187   2.801   5.187
 9291SOL    HW128772   1.254   2.768   5.120
 9291SOL    HW228773   1.208   2.897   5.210
 9292SOL     OW28774   0.753   3.798   0.397
 9292SOL    HW128775   0.809   3.808   0.315
 9292SOL    HW228776   0.811   3.807   0.478
 9293SOL     OW28777   5.768   4.021   6.328
 9293SOL    HW128778   5.693   3.955   6.329
 9293SOL    HW228779   5.855   3.972   6.342
 9294SOL     OW28780   5.499   5.895   6.397
 9294SOL    HW128781   5.503   5.795   6.399
 9294SOL    HW228782   5.549   5.933   6.475
 9295SOL     OW28783   4.746   2.813   3.247
 9295SOL    HW128784   4.743   2.838   3.150
 9295SOL    HW228785   4.769   2.894   3.302
 9296SOL     OW28786   5.985   0.544   5.152
 9296SOL    HW128787   6.029   0.467   5.198
 9296SOL    HW228788   5.942   0.511   5.067
 9297SOL     OW28789   0.391   0.439   1.809
 9297SOL    HW128790   0.384   0.344   1.777
 9297SOL    HW228791   0.430   0.439   1.901
 9298SOL     OW28792   0.467   6.576   4.775
 9298SOL    HW128793   0.447   6.551   4.870
 9298SOL    HW228794   0.444   6.499   4.716
 9299SOL     OW28795   1.856   2.616   4.611
 9299SOL    HW128796   1.783   2.643   4.549
 9299SOL    HW228797   1.827   2.630   4.705
 9300SOL     OW28798   5.759   4.680   3.422
 9300SOL    HW128799   5.809   4.762   3.449
 9300SOL    HW228800   5.800   4.641   3.340
 9301SOL     OW28801   7.005   5.140   1.339
 9301SOL    HW128802   6.961   5.225   1.311
 9301SOL    HW228803   6.973   5.115   1.431
 9302SOL     OW28804   1.694   2.335   2.031
 9302SOL    HW128805   1.776   2.286   2.059
 9302SOL    HW228806   1.623   2.270   2.005
 9303SOL     OW28807   4.689   4.200   0.563
 9303SOL    HW128808   4.728   4.115   0.599
 9303SOL    HW228809   4.761   4.269   0.556
 9304SOL     OW28810   4.851   4.025   0.699
 9304SOL    HW128811   4.928   4.052   0.756
 9304SOL    HW228812   4.797   3.955   0.746
 9305SOL     OW28813   4.592   4.326   1.658
 9305SOL    HW128814   4.685   4.358   1.679
 9305SOL    HW228815   4.552   4.285   1.741
 9306SOL     OW28816   6.949   5.861   3.307
 9306SOL    HW128817   6.965   5.883   3.210
 9306SOL    HW228818   7.018   5.795   3.337
 9307SOL     OW28819   2.257   0.604   5.999
 9307SOL    HW128820   2.219   0.638   5.913
 9307SOL    HW228821   2.219   0.514   6.019
 9308SOL     OW28822   0.102   2.526   0.522
 9308SOL    HW128823   0.038   2.449   0.525
 9308SOL    HW228824   0.052   2.609   0.497
 9309SOL     OW28825   5.244   2.980   6.635
 9309SOL    HW128826   5.158   2.931   6.649
 9309SOL    HW228827   5.231   3.077   6.654
 9310SOL     OW28828   3.769   6.607   1.509
 9310SOL    HW128829   3.840   6.536   1.509
 9310SOL    HW228830   3.683   6.568   1.540
 9311SOL     OW28831   6.991   3.727   1.557
 9311SOL    HW128832   6.896   3.717   1.529
 9311SOL    HW228833   0.029   3.659   1.509
 9312SOL     OW28834   1.898   3.908   4.649
 9312SOL    HW128835   1.847   3.829   4.684
 9312SOL    HW228836   1.913   3.974   4.722
 9313SOL     OW28837   6.314   0.090   2.636
 9313SOL    HW128838   6.241   0.030   2.668
 9313SOL    HW228839   6.328   0.076   2.538
 9314SOL     OW28840   6.795   4.071   0.133
 9314SOL    HW128841   6.800   3.985   0.183
 9314SOL    HW228842   6.700   4.102   0.130
 9315SOL     OW28843   0.544   5.746   6.216
 9315SOL    HW128844   0.618   5.718   6.277
 9315SOL    HW228845   0.465   5.686   6.231
 9316SOL     OW28846   2.920   5.114   4.600
 9316SOL    HW128847   2.978   5.039   4.633
 9316SOL    HW228848   2.826   5.081   4.592
 9317SOL     OW28849   4.197   3.885   5.899
 9317SOL    HW128850   4.132   3.838   5.958
 9317SOL    HW228851   4.248   3.817   5.845
 9318SOL     OW28852   6.435   6.755   6.080
 9318SOL    HW128853   6.437   6.705   6.166
 9318SOL    HW228854   6.483   6.703   6.009
 9319SOL     OW28855   5.924   4.052   4.702
 9319SOL    HW128856   5.931   3.985   4.628
 9319SOL    HW228857   5.925   4.005   4.790
 9320SOL     OW28858   4.031   2.944   5.713
 9320SOL    HW128859   4.074   2.878   5.651
 9320SOL    HW228860   4.007   2.897   5.798
 9321SOL     OW28861   5.612   6.894   4.287
 9321SOL    HW128862   5.658   6.980   4.262
 9321SOL    HW228863   5.648   6.820   4.231
 9322SOL     OW28864   1.231   6.230   0.814
 9322SOL    HW128865   1.323   6.235   0.852
 9322SOL    HW228866   1.229   6.162   0.741
 9323SOL     OW28867   0.857   1.224   6.202
 9323SOL    HW128868   0.797   1.178   6.268
 9323SOL    HW228869   0.926   1.159   6.170
 9324SOL     OW28870   1.304   5.416   6.774
 9324SOL    HW128871   1.336   5.459   6.689
 9324SOL    HW228872   1.304   5.484   6.847
 9325SOL     OW28873   0.774   2.585   6.610
 9325SOL    HW128874   0.765   2.506   6.671
 9325SOL    HW228875   0.688   2.598   6.560
 9326SOL     OW28876   1.983   5.994   1.513
 9326SOL    HW128877   1.908   6.040   1.467
 9326SOL    HW228878   1.957   5.899   1.534
 9327SOL     OW28879   2.131   2.010   4.341
 9327SOL    HW128880   2.104   2.061   4.260
 9327SOL    HW228881   2.208   2.055   4.385
 9328SOL     OW28882   2.440   1.320   2.399
 9328SOL    HW128883   2.475   1.408   2.432
 9328SOL    HW228884   2.413   1.328   2.303
 9329SOL     OW28885   0.531   3.772   1.570
 9329SOL    HW128886   0.581   3.745   1.652
 9329SOL    HW228887   0.560   3.863   1.541
 9330SOL     OW28888   5.337   6.319   6.740
 9330SOL    HW128889   5.275   6.312   6.662
 9330SOL    HW228890   5.364   6.414   6.753
 9331SOL     OW28891   1.254   1.326   0.449
 9331SOL    HW128892   1.278   1.368   0.537
 9331SOL    HW228893   1.163   1.355   0.421
 9332SOL     OW28894   3.703   4.103   5.342
 9332SOL    HW128895   3.797   4.110   5.309
 9332SOL    HW228896   3.703   4.104   5.442
 9333SOL     OW28897   5.160   6.294   1.234
 9333SOL    HW128898   5.087   6.344   1.188
 9333SOL    HW228899   5.228   6.266   1.167
 9334SOL     OW28900   2.228   6.853   4.718
 9334SOL    HW128901   2.137   6.867   4.758
 9334SOL    HW228902   2.281   6.937   4.727
 9335SOL     OW28903   0.358   1.912   2.168
 9335SOL    HW128904   0.380   1.827   2.216
 9335SOL    HW228905   0.271   1.948   2.202
 9336SOL     OW28906   2.774   6.862   5.225
 9336SOL    HW128907   2.839   6.789   5.244
 9336SOL    HW228908   2.713   6.874   5.302
 9337SOL     OW28909   4.503   6.656   3.332
 9337SOL    HW128910   4.500   6.753   3.355
 9337SOL    HW228911   4.420   6.611   3.364
 9338SOL     OW28912   2.073   6.634   2.460
 9338SOL    HW128913   2.077   6.696   2.381
 9338SOL    HW228914   2.097   6.684   2.543
 9339SOL     OW28915   3.570   5.393   1.701
 9339SOL    HW128916   3.498   5.336   1.662
 9339SOL    HW228917   3.530   5.468   1.754
 9340SOL     OW28918   6.632   2.936   0.257
 9340SOL    HW128919   6.638   2.852   0.311
 9340SOL    HW228920   6.658   2.916   0.162
 9341SOL     OW28921   0.840   4.082   5.822
 9341SOL    HW128922   0.905   4.099   5.895
 9341SOL    HW228923   0.749   4.068   5.861
 9342SOL     OW28924   1.490   0.660   0.578
 9342SOL    HW128925   1.535   0.748   0.590
 9342SOL    HW228926   1.547   0.588   0.616
 9343SOL     OW28927   6.202   6.383   3.509
 9343SOL    HW128928   6.294   6.382   3.471
 9343SOL    HW228929   6.202   6.337   3.598
 9344SOL     OW28930   5.371   6.455   0.690
 9344SOL    HW128931   5.418   6.410   0.766
 9344SOL    HW228932   5.375   6.396   0.609
 9345SOL     OW28933   0.844   2.188   0.570
 9345SOL    HW128934   0.918   2.181   0.638
 9345SOL    HW228935   0.881   2.227   0.485
 9346SOL     OW28936   5.944   0.396   1.110
 9346SOL    HW128937   5.889   0.331   1.162
 9346SOL    HW228938   6.041   0.383   1.132
 9347SOL     OW28939   1.948   6.113   2.267
 9347SOL    HW128940   1.954   6.158   2.355
 9347SOL    HW228941   1.927   6.016   2.281
 9348SOL     OW28942   2.801   4.949   6.937
 9348SOL    HW128943   2.721   4.891   6.952
 9348SOL    HW228944   2.884   4.896   6.953
 9349SOL     OW28945   1.014   6.297   2.735
 9349SOL    HW128946   1.065   6.243   2.802
 9349SOL    HW228947   0.935   6.244   2.703
 9350SOL     OW28948   0.201   3.083   5.469
 9350SOL    HW128949   0.284   3.028   5.485
 9350SOL    HW228950   0.141   3.076   5.549
 9351SOL     OW28951   3.061   6.811   6.837
 9351SOL    HW128952   3.041   6.713   6.831
 9351SOL    HW228953   3.078   6.847   6.745
 9352SOL     OW28954   2.734   5.147   5.473
 9352SOL    HW128955   2.674   5.075   5.437
 9352SOL    HW228956   2.811   5.104   5.520
 9353SOL     OW28957   6.331   0.831   0.965
 9353SOL    HW128958   6.275   0.752   0.940
 9353SOL    HW228959   6.410   0.800   1.019
 9354SOL     OW28960   1.303   1.134   5.764
 9354SOL    HW128961   1.324   1.097   5.673
 9354SOL    HW228962   1.297   1.234   5.758
 9355SOL     OW28963   1.318   1.608   5.557
 9355SOL    HW128964   1.286   1.661   5.478
 9355SOL    HW228965   1.377   1.666   5.614
 9356SOL     OW28966   3.412   0.211   3.867
 9356SOL    HW128967   3.465   0.296   3.869
 9356SOL    HW228968   3.315   0.232   3.882
 9357SOL     OW28969   2.217   2.445   0.415
 9357SOL    HW128970   2.245   2.384   0.341
 9357SOL    HW228971   2.276   2.525   0.417
 9358SOL     OW28972   1.315   2.214   0.762
 9358SOL    HW128973   1.400   2.193   0.714
 9358SOL    HW228974   1.330   2.291   0.825
 9359SOL     OW28975   0.937   0.719   5.701
 9359SOL    HW128976   0.991   0.670   5.633
 9359SOL    HW228977   0.840   0.706   5.682
 9360SOL     OW28978   6.689   0.160   5.310
 9360SOL    HW128979   6.676   0.115   5.398
 9360SOL    HW228980   6.605   0.156   5.256
 9361SOL     OW28981   2.288   5.568   4.063
 9361SOL    HW128982   2.249   5.638   4.122
 9361SOL    HW228983   2.384   5.591   4.043
 9362SOL     OW28984   1.864   0.195   2.305
 9362SOL    HW128985   1.775   0.197   2.349
 9362SOL    HW228986   1.866   0.123   2.236
 9363SOL     OW28987   1.960   2.806   2.274
 9363SOL    HW128988   1.947   2.834   2.179
 9363SOL    HW228989   1.981   2.709   2.278
 9364SOL     OW28990   0.307   1.878   6.805
 9364SOL    HW128991   0.342   1.869   6.712
 9364SOL    HW228992   0.313   1.790   6.852
 9365SOL     OW28993   2.767   1.512   5.265
 9365SOL    HW128994   2.672   1.493   5.240
 9365SOL    HW228995   2.823   1.516   5.182
 9366SOL     OW28996   3.268   6.587   2.243
 9366SOL    HW128997   3.294   6.492   2.224
 9366SOL    HW228998   3.198   6.616   2.178
 9367SOL     OW28999   6.833   0.257   1.695
 9367SOL    HW129000   6.842   0.176   1.753
 9367SOL    HW229001   6.915   0.267   1.639
 9368SOL     OW29002   2.159   0.638   3.232
 9368SOL    HW129003   2.093   0.713   3.228
 9368SOL    HW229004   2.177   0.604   3.139
 9369SOL     OW29005   3.979   5.047   0.921
 9369SOL    HW129006   3.944   5.093   0.840
 9369SOL    HW229007   3.947   5.095   1.003
 9370SOL     OW29008   4.568   2.570   5.253
 9370SOL    HW129009   4.599   2.664   5.244
 9370SOL    HW229010   4.583   2.522   5.167
 9371SOL     OW29011   4.281   4.945   0.650
 9371SOL    HW129012   4.256   5.042   0.641
 9371SOL    HW229013   4.360   4.926   0.592
 9372SOL     OW29014   4.909   6.710   1.070
 9372SOL    HW129015   4.838   6.779   1.081
 9372SOL    HW229016   4.989   6.736   1.123
 9373SOL     OW29017   0.399   1.977   1.475
 9373SOL    HW129018   0.420   2.010   1.567
 9373SOL    HW229019   0.301   1.962   1.466
 9374SOL     OW29020   6.846   5.093   6.131
 9374SOL    HW129021   6.929   5.147   6.113
 9374SOL    HW229022   6.828   5.093   6.230
 9375SOL     OW29023   1.781   1.435   6.660
 9375SOL    HW129024   1.755   1.529   6.683
 9375SOL    HW229025   1.876   1.419   6.686
 9376SOL     OW29026   3.496   4.099   0.387
 9376SOL    HW129027   3.476   4.013   0.340
 9376SOL    HW229028   3.419   4.123   0.447
 9377SOL     OW29029   0.972   1.011   3.285
 9377SOL    HW129030   0.943   0.987   3.378
 9377SOL    HW229031   1.066   0.981   3.271
 9378SOL     OW29032   3.920   0.886   5.293
 9378SOL    HW129033   3.980   0.828   5.348
 9378SOL    HW229034   3.902   0.972   5.342
 9379SOL     OW29035   3.934   6.956   4.814
 9379SOL    HW129036   3.962   6.863   4.839
 9379SOL    HW229037   3.839   6.956   4.785
 9380SOL     OW29038   5.267   6.450   1.405
 9380SOL    HW129039   5.264   6.539   1.358
 9380SOL    HW229040   5.228   6.380   1.346
 9381SOL     OW29041   4.737   0.947   4.930
 9381SOL    HW129042   4.821   0.918   4.883
 9381SOL    HW229043   4.720   1.044   4.910
 9382SOL     OW29044   3.000   5.403   6.445
 9382SOL    HW129045   3.075   5.406   6.379
 9382SOL    HW229046   2.989   5.309   6.479
 9383SOL     OW29047   5.885   4.229   1.560
 9383SOL    HW129048   5.895   4.129   1.557
 9383SOL    HW229049   5.951   4.271   1.498
 9384SOL     OW29050   4.171   0.254   0.923
 9384SOL    HW129051   4.109   0.193   0.874
 9384SOL    HW229052   4.212   0.319   0.859
 9385SOL     OW29053   4.070   2.235   4.106
 9385SOL    HW129054   4.076   2.272   4.199
 9385SOL    HW229055   4.134   2.284   4.046
 9386SOL     OW29056   5.675   6.960   1.350
 9386SOL    HW129057   5.763   6.993   1.384
 9386SOL    HW229058   5.641   0.004   1.279
 9387SOL     OW29059   2.772   2.188   6.770
 9387SOL    HW129060   2.711   2.167   6.694
 9387SOL    HW229061   2.725   2.167   6.856
 9388SOL     OW29062   2.215   6.665   5.089
 9388SOL    HW129063   2.240   6.619   5.004
 9388SOL    HW229064   2.296   6.704   5.131
 9389SOL     OW29065   2.176   3.760   1.822
 9389SOL    HW129066   2.201   3.664   1.835
 9389SOL    HW229067   2.092   3.765   1.767
 9390SOL     OW29068   5.991   5.612   4.157
 9390SOL    HW129069   5.896   5.642   4.159
 9390SOL    HW229070   6.038   5.642   4.240
 9391SOL     OW29071   0.279   4.848   3.944
 9391SOL    HW129072   0.285   4.930   3.886
 9391SOL    HW229073   0.370   4.825   3.979
 9392SOL     OW29074   3.360   5.225   2.125
 9392SOL    HW129075   3.412   5.189   2.048
 9392SOL    HW229076   3.308   5.306   2.096
 9393SOL     OW29077   2.136   5.027   7.000
 9393SOL    HW129078   2.077   5.041   6.921
 9393SOL    HW229079   2.155   5.115   0.026
 9394SOL     OW29080   4.744   0.462   6.849
 9394SOL    HW129081   4.656   0.441   6.805
 9394SOL    HW229082   4.727   0.517   6.931
 9395SOL     OW29083   0.826   1.170   1.376
 9395SOL    HW129084   0.787   1.155   1.285
 9395SOL    HW229085   0.803   1.093   1.436
 9396SOL     OW29086   1.120   1.130   6.592
 9396SOL    HW129087   1.116   1.031   6.590
 9396SOL    HW229088   1.082   1.164   6.678
 9397SOL     OW29089   3.383   1.286   5.664
 9397SOL    HW129090   3.289   1.310   5.689
 9397SOL    HW229091   3.422   1.227   5.734
 9398SOL     OW29092   6.957   2.437   6.997
 9398SOL    HW129093   7.010   2.374   6.939
 9398SOL    HW229094   6.946   2.524   6.949
 9399SOL     OW29095   1.378   2.359   4.800
 9399SOL    HW129096   1.316   2.281   4.809
 9399SOL    HW229097   1.433   2.349   4.717
 9400SOL     OW29098   5.932   1.419   1.143
 9400SOL    HW129099   5.905   1.355   1.072
 9400SOL    HW229100   6.020   1.392   1.182
 9401SOL     OW29101   6.868   2.056   3.567
 9401SOL    HW129102   6.807   2.081   3.491
 9401SOL    HW229103   6.961   2.085   3.545
 9402SOL     OW29104   3.770   5.913   5.491
 9402SOL    HW129105   3.725   5.860   5.419
 9402SOL    HW229106   3.707   5.928   5.566
 9403SOL     OW29107   5.739   2.112   0.850
 9403SOL    HW129108   5.716   2.147   0.940
 9403SOL    HW229109   5.656   2.079   0.805
 9404SOL     OW29110   2.728   2.624   0.598
 9404SOL    HW129111   2.821   2.614   0.634
 9404SOL    HW229112   2.729   2.688   0.520
 9405SOL     OW29113   5.930   5.502   5.022
 9405SOL    HW129114   5.972   5.498   5.113
 9405SOL    HW229115   6.002   5.506   4.953
 9406SOL     OW29116   1.613   1.146   0.619
 9406SOL    HW129117   1.655   1.228   0.660
 9406SOL    HW229118   1.564   1.172   0.536
 9407SOL     OW29119   2.000   4.729   4.729
 9407SOL    HW129120   2.014   4.687   4.819
 9407SOL    HW229121   2.044   4.674   4.658
 9408SOL     OW29122   6.062   5.268   3.420
 9408SOL    HW129123   6.020   5.201   3.482
 9408SOL    HW229124   6.054   5.235   3.326
 9409SOL     OW29125   5.905   4.808   1.314
 9409SOL    HW129126   5.905   4.895   1.265
 9409SOL    HW229127   5.812   4.784   1.341
 9410SOL     OW29128   4.482   0.050   0.249
 9410SOL    HW129129   4.475   0.030   0.347
 9410SOL    HW229130   4.495   0.148   0.235
 9411SOL     OW29131   3.661   3.871   4.944
 9411SOL    HW129132   3.638   3.968   4.936
 9411SOL    HW229133   3.670   3.832   4.852
 9412SOL     OW29134   3.931   6.617   1.899
 9412SOL    HW129135   3.885   6.636   1.985
 9412SOL    HW229136   3.928   6.699   1.841
 9413SOL     OW29137   4.260   5.046   2.924
 9413SOL    HW129138   4.181   5.099   2.955
 9413SOL    HW229139   4.243   5.014   2.831
 9414SOL     OW29140   1.933   0.861   2.342
 9414SOL    HW129141   1.918   0.947   2.294
 9414SOL    HW229142   1.949   0.879   2.439
 9415SOL     OW29143   5.151   0.768   0.831
 9415SOL    HW129144   5.121   0.820   0.752
 9415SOL    HW229145   5.072   0.722   0.873
 9416SOL     OW29146   6.567   4.476   5.625
 9416SOL    HW129147   6.607   4.524   5.703
 9416SOL    HW229148   6.621   4.394   5.605
 9417SOL     OW29149   4.177   6.043   3.193
 9417SOL    HW129150   4.085   6.019   3.163
 9417SOL    HW229151   4.208   5.977   3.261
 9418SOL     OW29152   2.778   2.217   4.855
 9418SOL    HW129153   2.740   2.271   4.930
 9418SOL    HW229154   2.756   2.261   4.768
 9419SOL     OW29155   2.772   2.808   6.155
 9419SOL    HW129156   2.786   2.718   6.196
 9419SOL    HW229157   2.743   2.872   6.226
 9420SOL     OW29158   5.267   3.576   5.927
 9420SOL    HW129159   5.298   3.575   6.021
 9420SOL    HW229160   5.338   3.539   5.867
 9421SOL     OW29161   3.812   6.643   0.230
 9421SOL    HW129162   3.823   6.544   0.224
 9421SOL    HW229163   3.901   6.686   0.248
 9422SOL     OW29164   2.100   6.389   5.886
 9422SOL    HW129165   2.135   6.361   5.797
 9422SOL    HW229166   2.064   6.309   5.934
 9423SOL     OW29167   5.069   5.158   0.760
 9423SOL    HW129168   5.135   5.202   0.822
 9423SOL    HW229169   5.073   5.059   0.773
 9424SOL     OW29170   6.399   6.863   3.772
 9424SOL    HW129171   6.472   6.870   3.704
 9424SOL    HW229172   6.426   6.911   3.856
 9425SOL     OW29173   0.002   5.720   1.362
 9425SOL    HW129174   0.079   5.662   1.391
 9425SOL    HW229175   0.037   5.809   1.334
 9426SOL     OW29176   4.543   1.481   6.153
 9426SOL    HW129177   4.550   1.549   6.226
 9426SOL    HW229178   4.622   1.419   6.158
 9427SOL     OW29179   3.320   5.594   2.148
 9427SOL    HW129180   3.261   5.523   2.110
 9427SOL    HW229181   3.268   5.678   2.162
 9428SOL     OW29182   0.218   6.472   5.051
 9428SOL    HW129183   0.150   6.436   5.115
 9428SOL    HW229184   0.299   6.414   5.052
 9429SOL     OW29185   2.933   2.145   4.097
 9429SOL    HW129186   2.960   2.137   4.001
 9429SOL    HW229187   2.865   2.218   4.106
 9430SOL     OW29188   1.169   6.972   3.834
 9430SOL    HW129189   1.212   6.903   3.775
 9430SOL    HW229190   1.193   0.045   3.800
 9431SOL     OW29191   1.444   5.007   5.457
 9431SOL    HW129192   1.358   4.960   5.474
 9431SOL    HW229193   1.520   4.947   5.483
 9432SOL     OW29194   6.803   1.714   2.851
 9432SOL    HW129195   6.771   1.774   2.777
 9432SOL    HW229196   6.883   1.756   2.895
 9433SOL     OW29197   4.051   5.485   1.686
 9433SOL    HW129198   3.991   5.511   1.762
 9433SOL    HW229199   4.116   5.416   1.717
 9434SOL     OW29200   4.977   5.792   5.005
 9434SOL    HW129201   4.998   5.729   4.930
 9434SOL    HW229202   4.960   5.883   4.968
 9435SOL     OW29203   6.664   3.577   6.554
 9435SOL    HW129204   6.611   3.499   6.588
 9435SOL    HW229205   6.727   3.608   6.625
 9436SOL     OW29206   2.898   1.723   2.702
 9436SOL    HW129207   2.965   1.781   2.655
 9436SOL    HW229208   2.866   1.769   2.784
 9437SOL     OW29209   4.437   1.298   3.947
 9437SOL    HW129210   4.362   1.357   3.917
 9437SOL    HW229211   4.406   1.203   3.946
 9438SOL     OW29212   4.961   0.309   3.125
 9438SOL    HW129213   4.995   0.299   3.218
 9438SOL    HW229214   5.031   0.280   3.060
 9439SOL     OW29215   1.582   4.777   1.333
 9439SOL    HW129216   1.511   4.759   1.265
 9439SOL    HW229217   1.612   4.872   1.325
 9440SOL     OW29218   1.899   5.248   4.167
 9440SOL    HW129219   1.878   5.226   4.262
 9440SOL    HW229220   1.995   5.274   4.159
 9441SOL     OW29221   6.643   6.290   4.576
 9441SOL    HW129222   6.728   6.240   4.563
 9441SOL    HW229223   6.586   6.242   4.642
 9442SOL     OW29224   6.707   2.864   0.941
 9442SOL    HW129225   6.697   2.877   0.843
 9442SOL    HW229226   6.689   2.950   0.989
 9443SOL     OW29227   1.644   4.768   1.607
 9443SOL    HW129228   1.626   4.757   1.509
 9443SOL    HW229229   1.570   4.726   1.659
 9444SOL     OW29230   2.146   5.725   5.343
 9444SOL    HW129231   2.088   5.728   5.262
 9444SOL    HW229232   2.096   5.680   5.418
 9445SOL     OW29233   0.998   1.391   3.934
 9445SOL    HW129234   1.028   1.296   3.941
 9445SOL    HW229235   1.066   1.451   3.978
 9446SOL     OW29236   5.707   5.501   3.588
 9446SOL    HW129237   5.701   5.403   3.572
 9446SOL    HW229238   5.763   5.517   3.670
 9447SOL     OW29239   5.705   5.301   2.298
 9447SOL    HW129240   5.643   5.260   2.365
 9447SOL    HW229241   5.659   5.378   2.253
 9448SOL     OW29242   5.046   2.856   6.985
 9448SOL    HW129243   5.000   2.944   6.992
 9448SOL    HW229244   4.980   2.783   7.003
 9449SOL     OW29245   4.413   6.912   3.574
 9449SOL    HW129246   4.462   6.947   3.654
 9449SOL    HW229247   4.466   6.933   3.491
 9450SOL     OW29248   0.511   0.103   2.216
 9450SOL    HW129249   0.597   0.151   2.197
 9450SOL    HW229250   0.524   0.005   2.203
 9451SOL     OW29251   4.364   5.588   0.625
 9451SOL    HW129252   4.383   5.549   0.534
 9451SOL    HW229253   4.413   5.535   0.694
 9452SOL     OW29254   6.207   2.565   6.185
 9452SOL    HW129255   6.126   2.517   6.153
 9452SOL    HW229256   6.258   2.602   6.108
 9453SOL     OW29257   6.663   4.564   2.862
 9453SOL    HW129258   6.641   4.488   2.924
 9453SOL    HW229259   6.694   4.643   2.915
 9454SOL     OW29260   5.631   5.077   0.163
 9454SOL    HW129261   5.635   5.055   0.260
 9454SOL    HW229262   5.724   5.094   0.129
 9455SOL     OW29263   4.414   1.075   1.547
 9455SOL    HW129264   4.445   1.160   1.590
 9455SOL    HW229265   4.391   1.008   1.617
 9456SOL     OW29266   6.513   3.015   2.227
 9456SOL    HW129267   6.453   2.963   2.166
 9456SOL    HW229268   6.461   3.042   2.308
 9457SOL     OW29269   6.565   6.295   4.307
 9457SOL    HW129270   6.467   6.303   4.322
 9457SOL    HW229271   6.615   6.325   4.388
 9458SOL     OW29272   6.874   4.487   6.969
 9458SOL    HW129273   6.868   4.542   6.886
 9458SOL    HW229274   6.897   4.393   6.945
 9459SOL     OW29275   5.536   4.751   5.070
 9459SOL    HW129276   5.480   4.756   5.153
 9459SOL    HW229277   5.592   4.668   5.072
 9460SOL     OW29278   2.103   3.410   3.179
 9460SOL    HW129279   2.178   3.364   3.132
 9460SOL    HW229280   2.101   3.383   3.275
 9461SOL     OW29281   1.767   1.894   1.351
 9461SOL    HW129282   1.692   1.830   1.334
 9461SOL    HW229283   1.844   1.872   1.292
 9462SOL     OW29284   6.797   1.133   5.362
 9462SOL    HW129285   6.739   1.056   5.388
 9462SOL    HW229286   6.888   1.100   5.336
 9463SOL     OW29287   0.223   5.056   0.485
 9463SOL    HW129288   0.189   5.144   0.452
 9463SOL    HW229289   0.323   5.053   0.476
 9464SOL     OW29290   1.077   0.508   2.018
 9464SOL    HW129291   1.011   0.578   1.990
 9464SOL    HW229292   1.165   0.552   2.037
 9465SOL     OW29293   0.574   5.802   0.249
 9465SOL    HW129294   0.508   5.752   0.304
 9465SOL    HW229295   0.580   5.896   0.281
 9466SOL     OW29296   3.703   4.144   5.649
 9466SOL    HW129297   3.721   4.238   5.677
 9466SOL    HW229298   3.635   4.103   5.710
 9467SOL     OW29299   1.504   3.810   1.374
 9467SOL    HW129300   1.453   3.864   1.308
 9467SOL    HW229301   1.596   3.793   1.339
 9468SOL     OW29302   6.343   1.940   1.280
 9468SOL    HW129303   6.420   1.958   1.219
 9468SOL    HW229304   6.280   2.017   1.279
 9469SOL     OW29305   6.190   6.437   2.263
 9469SOL    HW129306   6.244   6.466   2.183
 9469SOL    HW229307   6.247   6.442   2.345
 9470SOL     OW29308   3.605   3.812   0.724
 9470SOL    HW129309   3.585   3.906   0.750
 9470SOL    HW229310   3.527   3.774   0.674
 9471SOL     OW29311   6.638   2.958   4.821
 9471SOL    HW129312   6.736   2.964   4.843
 9471SOL    HW229313   6.591   2.906   4.893
 9472SOL     OW29314   1.908   4.261   5.651
 9472SOL    HW129315   1.978   4.327   5.624
 9472SOL    HW229316   1.818   4.294   5.621
 9473SOL     OW29317   2.642   3.453   1.382
 9473SOL    HW129318   2.590   3.445   1.466
 9473SOL    HW229319   2.661   3.550   1.364
 9474SOL     OW29320   6.106   4.284   0.752
 9474SOL    HW129321   6.064   4.195   0.768
 9474SOL    HW229322   6.048   4.338   0.691
 9475SOL     OW29323   6.123   3.311   6.733
 9475SOL    HW129324   6.166   3.262   6.809
 9475SOL    HW229325   6.038   3.265   6.709
 9476SOL     OW29326   3.824   3.944   1.120
 9476SOL    HW129327   3.897   3.965   1.185
 9476SOL    HW229328   3.745   3.909   1.170
 9477SOL     OW29329   1.217   5.301   1.014
 9477SOL    HW129330   1.139   5.355   1.046
 9477SOL    HW229331   1.253   5.247   1.091
 9478SOL     OW29332   6.938   3.116   5.527
 9478SOL    HW129333   6.888   3.186   5.476
 9478SOL    HW229334   6.887   3.092   5.610
 9479SOL     OW29335   4.375   0.801   2.007
 9479SOL    HW129336   4.371   0.871   2.078
 9479SOL    HW229337   4.466   0.760   2.006
 9480SOL     OW29338   5.504   0.383   0.733
 9480SOL    HW129339   5.551   0.341   0.656
 9480SOL    HW229340   5.506   0.483   0.723
 9481SOL     OW29341   4.751   0.352   3.989
 9481SOL    HW129342   4.848   0.360   4.014
 9481SOL    HW229343   4.727   0.255   3.981
 9482SOL     OW29344   5.804   4.358   6.094
 9482SOL    HW129345   5.761   4.446   6.072
 9482SOL    HW229346   5.903   4.370   6.099
 9483SOL     OW29347   5.896   5.145   0.067
 9483SOL    HW129348   5.995   5.134   0.058
 9483SOL    HW229349   5.854   5.146   6.994
 9484SOL     OW29350   1.878   5.501   3.805
 9484SOL    HW129351   1.978   5.495   3.808
 9484SOL    HW229352   1.847   5.566   3.875
 9485SOL     OW29353   0.034   1.352   5.631
 9485SOL    HW129354   0.058   1.263   5.669
 9485SOL    HW229355   0.099   1.421   5.664
 9486SOL     OW29356   6.630   5.542   6.072
 9486SOL    HW129357   6.630   5.508   6.166
 9486SOL    HW229358   6.661   5.637   6.071
 9487SOL     OW29359   3.063   3.209   3.906
 9487SOL    HW129360   3.146   3.264   3.913
 9487SOL    HW229361   2.992   3.248   3.965
 9488SOL     OW29362   1.304   0.777   2.460
 9488SOL    HW129363   1.232   0.822   2.513
 9488SOL    HW229364   1.265   0.698   2.412
 9489SOL     OW29365   6.834   3.908   6.901
 9489SOL    HW129366   6.853   3.916   6.999
 9489SOL    HW229367   6.915   3.938   6.849
 9490SOL     OW29368   5.804   3.897   4.920
 9490SOL    HW129369   5.818   3.816   4.977
 9490SOL    HW229370   5.708   3.901   4.892
 9491SOL     OW29371   4.677   0.194   2.301
 9491SOL    HW129372   4.642   0.140   2.377
 9491SOL    HW229373   4.648   0.153   2.215
 9492SOL     OW29374   4.877   3.123   3.851
 9492SOL    HW129375   4.849   3.035   3.811
 9492SOL    HW229376   4.977   3.126   3.857
 9493SOL     OW29377   2.698   6.397   2.766
 9493SOL    HW129378   2.720   6.448   2.683
 9493SOL    HW229379   2.712   6.299   2.751
 9494SOL     OW29380   5.120   2.451   2.665
 9494SOL    HW129381   5.062   2.415   2.592
 9494SOL    HW229382   5.067   2.517   2.719
 9495SOL     OW29383   5.992   2.397   1.122
 9495SOL    HW129384   5.950   2.366   1.207
 9495SOL    HW229385   5.974   2.330   1.050
 9496SOL     OW29386   6.487   3.318   0.322
 9496SOL    HW129387   6.392   3.288   0.325
 9496SOL    HW229388   6.509   3.370   0.404
 9497SOL     OW29389   5.467   4.561   4.800
 9497SOL    HW129390   5.404   4.615   4.855
 9497SOL    HW229391   5.476   4.470   4.839
 9498SOL     OW29392   0.834   6.330   5.647
 9498SOL    HW129393   0.902   6.272   5.601
 9498SOL    HW229394   0.847   6.324   5.746
 9499SOL     OW29395   5.927   6.645   3.560
 9499SOL    HW129396   5.904   6.666   3.655
 9499SOL    HW229397   5.847   6.660   3.502
 9500SOL     OW29398   2.892   1.872   0.749
 9500SOL    HW129399   2.854   1.834   0.665
 9500SOL    HW229400   2.897   1.801   0.819
 9501SOL     OW29401   1.379   3.574   5.124
 9501SOL    HW129402   1.384   3.673   5.140
 9501SOL    HW229403   1.349   3.528   5.208
 9502SOL     OW29404   5.662   4.504   3.608
 9502SOL    HW129405   5.673   4.576   3.540
 9502SOL    HW229406   5.690   4.416   3.569
 9503SOL     OW29407   6.342   0.496   0.134
 9503SOL    HW129408   6.268   0.474   0.197
 9503SOL    HW229409   6.313   0.572   0.075
 9504SOL     OW29410   6.504   4.821   2.949
 9504SOL    HW129411   6.542   4.882   2.880
 9504SOL    HW229412   6.563   4.821   3.030
 9505SOL     OW29413   4.936   2.910   0.609
 9505SOL    HW129414   4.927   2.928   0.512
 9505SOL    HW229415   5.025   2.941   0.641
 9506SOL     OW29416   3.909   1.302   1.299
 9506SOL    HW129417   3.927   1.317   1.396
 9506SOL    HW229418   3.816   1.331   1.278
 9507SOL     OW29419   6.864   5.820   1.613
 9507SOL    HW129420   6.821   5.908   1.632
 9507SOL    HW229421   6.911   5.823   1.525
 9508SOL     OW29422   5.214   1.259   2.401
 9508SOL    HW129423   5.309   1.291   2.405
 9508SOL    HW229424   5.207   1.185   2.334
 9509SOL     OW29425   5.828   1.441   4.003
 9509SOL    HW129426   5.865   1.416   4.093
 9509SOL    HW229427   5.888   1.508   3.959
 9510SOL     OW29428   1.395   3.441   2.155
 9510SOL    HW129429   1.399   3.408   2.060
 9510SOL    HW229430   1.453   3.521   2.165
 9511SOL     OW29431   1.012   1.447   0.777
 9511SOL    HW129432   1.004   1.350   0.796
 9511SOL    HW229433   0.983   1.500   0.857
 9512SOL     OW29434   6.162   2.589   1.301
 9512SOL    HW129435   6.065   2.600   1.282
 9512SOL    HW229436   6.200   2.677   1.332
 9513SOL     OW29437   4.950   3.730   4.629
 9513SOL    HW129438   4.934   3.736   4.728
 9513SOL    HW229439   4.907   3.647   4.593
 9514SOL     OW29440   3.855   2.763   1.129
 9514SOL    HW129441   3.788   2.832   1.159
 9514SOL    HW229442   3.809   2.675   1.120
 9515SOL     OW29443   0.020   6.215   3.271
 9515SOL    HW129444   0.078   6.194   3.192
 9515SOL    HW229445   6.947   6.178   3.256
 9516SOL     OW29446   1.243   2.958   6.934
 9516SOL    HW129447   1.311   3.026   6.906
 9516SOL    HW229448   1.263   2.927   0.008
 9517SOL     OW29449   0.500   6.857   2.154
 9517SOL    HW129450   0.410   6.815   2.141
 9517SOL    HW229451   0.569   6.803   2.106
 9518SOL     OW29452   6.735   7.012   1.383
 9518SOL    HW129453   6.818   6.957   1.391
 9518SOL    HW229454   6.760   0.090   1.376
 9519SOL     OW29455   1.422   2.894   5.465
 9519SOL    HW129456   1.449   2.983   5.500
 9519SOL    HW229457   1.467   2.877   5.378
 9520SOL     OW29458   4.255   6.518   2.141
 9520SOL    HW129459   4.206   6.450   2.087
 9520SOL    HW229460   4.199   6.545   2.219
 9521SOL     OW29461   5.954   4.891   3.119
 9521SOL    HW129462   5.980   4.850   3.031
 9521SOL    HW229463   5.872   4.847   3.154
 9522SOL     OW29464   3.465   5.132   5.441
 9522SOL    HW129465   3.475   5.188   5.359
 9522SOL    HW229466   3.525   5.052   5.434
 9523SOL     OW29467   1.339   0.096   4.671
 9523SOL    HW129468   1.388   0.010   4.659
 9523SOL    HW229469   1.361   0.134   4.761
 9524SOL     OW29470   6.445   3.593   0.277
 9524SOL    HW129471   6.486   3.505   0.253
 9524SOL    HW229472   6.515   3.654   0.314
 9525SOL     OW29473   4.174   0.158   4.569
 9525SOL    HW129474   4.177   0.086   4.638
 9525SOL    HW229475   4.108   0.133   4.498
 9526SOL     OW29476   4.768   5.295   0.349
 9526SOL    HW129477   4.670   5.296   0.368
 9526SOL    HW229478   4.785   5.336   0.260
 9527SOL     OW29479   6.978   1.052   0.268
 9527SOL    HW129480   6.947   0.968   0.312
 9527SOL    HW229481   0.059   1.060   0.275
 9528SOL     OW29482   5.444   1.074   1.784
 9528SOL    HW129483   5.348   1.047   1.784
 9528SOL    HW229484   5.484   1.057   1.874
 9529SOL     OW29485   1.761   2.828   5.581
 9529SOL    HW129486   1.708   2.907   5.613
 9529SOL    HW229487   1.764   2.828   5.481
 9530SOL     OW29488   2.376   1.544   3.752
 9530SOL    HW129489   2.311   1.493   3.695
 9530SOL    HW229490   2.469   1.527   3.718
 9531SOL     OW29491   2.595   6.072   3.496
 9531SOL    HW129492   2.603   6.113   3.586
 9531SOL    HW229493   2.665   6.109   3.435
 9532SOL     OW29494   3.358   1.025   0.986
 9532SOL    HW129495   3.264   1.024   0.953
 9532SOL    HW229496   3.359   1.026   1.086
 9533SOL     OW29497   0.233   1.889   4.161
 9533SOL    HW129498   0.205   1.878   4.257
 9533SOL    HW229499   0.300   1.818   4.138
 9534SOL     OW29500   5.071   1.052   4.202
 9534SOL    HW129501   5.081   1.028   4.105
 9534SOL    HW229502   5.072   1.152   4.212
 9535SOL     OW29503   2.939   1.409   4.790
 9535SOL    HW129504   3.014   1.350   4.761
 9535SOL    HW229505   2.914   1.470   4.715
 9536SOL     OW29506   2.038   5.392   6.724
 9536SOL    HW129507   2.104   5.414   6.795
 9536SOL    HW229508   1.989   5.308   6.749
 9537SOL     OW29509   2.250   0.622   0.542
 9537SOL    HW129510   2.179   0.644   0.609
 9537SOL    HW229511   2.312   0.554   0.581
 9538SOL     OW29512   5.751   4.176   3.000
 9538SOL    HW129513   5.850   4.162   2.993
 9538SOL    HW229514   5.732   4.245   3.070
 9539SOL     OW29515   1.001   3.209   0.112
 9539SOL    HW129516   0.968   3.116   0.096
 9539SOL    HW229517   1.092   3.204   0.154
 9540SOL     OW29518   5.820   3.256   5.293
 9540SOL    HW129519   5.912   3.215   5.292
 9540SOL    HW229520   5.804   3.299   5.382
 9541SOL     OW29521   6.158   1.956   3.037
 9541SOL    HW129522   6.166   2.022   2.962
 9541SOL    HW229523   6.136   2.004   3.122
 9542SOL     OW29524   4.898   3.513   4.464
 9542SOL    HW129525   4.845   3.453   4.404
 9542SOL    HW229526   4.953   3.458   4.526
 9543SOL     OW29527   4.237   2.279   0.465
 9543SOL    HW129528   4.170   2.343   0.427
 9543SOL    HW229529   4.208   2.249   0.556
 9544SOL     OW29530   4.823   0.127   1.634
 9544SOL    HW129531   4.877   0.096   1.713
 9544SOL    HW229532   4.872   0.104   1.550
 9545SOL     OW29533   1.353   0.108   4.382
 9545SOL    HW129534   1.318   0.127   4.474
 9545SOL    HW229535   1.287   0.139   4.314
 9546SOL     OW29536   3.021   3.831   1.816
 9546SOL    HW129537   3.063   3.917   1.788
 9546SOL    HW229538   3.018   3.826   1.916
 9547SOL     OW29539   5.623   6.344   2.522
 9547SOL    HW129540   5.701   6.407   2.521
 9547SOL    HW229541   5.540   6.394   2.545
 9548SOL     OW29542   6.288   6.563   1.995
 9548SOL    HW129543   6.385   6.575   1.978
 9548SOL    HW229544   6.247   6.508   1.922
 9549SOL     OW29545   1.959   6.071   7.017
 9549SOL    HW129546   1.954   6.166   6.986
 9549SOL    HW229547   1.976   6.068   0.097
 9550SOL     OW29548   1.893   0.561   0.568
 9550SOL    HW129549   1.794   0.575   0.568
 9550SOL    HW229550   1.919   0.502   0.492
 9551SOL     OW29551   1.509   5.837   4.568
 9551SOL    HW129552   1.446   5.761   4.577
 9551SOL    HW229553   1.590   5.821   4.625
 9552SOL     OW29554   6.794   5.422   2.833
 9552SOL    HW129555   6.844   5.495   2.786
 9552SOL    HW229556   6.751   5.459   2.916
 9553SOL     OW29557   5.319   4.620   6.673
 9553SOL    HW129558   5.290   4.694   6.734
 9553SOL    HW229559   5.282   4.637   6.581
 9554SOL     OW29560   1.618   2.642   1.602
 9554SOL    HW129561   1.604   2.546   1.625
 9554SOL    HW229562   1.566   2.664   1.519
 9555SOL     OW29563   0.435   2.179   6.650
 9555SOL    HW129564   0.353   2.132   6.618
 9555SOL    HW229565   0.433   2.274   6.619
 9556SOL     OW29566   5.934   0.448   1.912
 9556SOL    HW129567   5.921   0.432   1.814
 9556SOL    HW229568   6.000   0.522   1.925
 9557SOL     OW29569   4.826   1.658   1.687
 9557SOL    HW129570   4.809   1.677   1.590
 9557SOL    HW229571   4.918   1.690   1.711
 9558SOL     OW29572   0.256   4.257   1.396
 9558SOL    HW129573   0.257   4.302   1.306
 9558SOL    HW229574   0.235   4.160   1.384
 9559SOL     OW29575   0.421   4.719   3.500
 9559SOL    HW129576   0.388   4.630   3.468
 9559SOL    HW229577   0.491   4.705   3.570
 9560SOL     OW29578   3.516   2.158   5.752
 9560SOL    HW129579   3.461   2.228   5.708
 9560SOL    HW229580   3.495   2.069   5.712
 9561SOL     OW29581   3.277   5.267   6.505
 9561SOL    HW129582   3.199   5.219   6.545
 9561SOL    HW229583   3.272   5.364   6.528
 9562SOL     OW29584   6.346   5.428   4.201
 9562SOL    HW129585   6.397   5.343   4.210
 9562SOL    HW229586   6.400   5.494   4.149
 9563SOL     OW29587   0.697   1.076   6.009
 9563SOL    HW129588   0.597   1.072   6.000
 9563SOL    HW229589   0.725   1.170   6.028
 9564SOL     OW29590   0.282   0.463   5.976
 9564SOL    HW129591   0.351   0.408   5.928
 9564SOL    HW229592   0.236   0.407   6.045
 9565SOL     OW29593   2.530   5.216   4.968
 9565SOL    HW129594   2.484   5.137   5.008
 9565SOL    HW229595   2.603   5.246   5.029
 9566SOL     OW29596   1.980   5.539   4.940
 9566SOL    HW129597   1.944   5.493   4.858
 9566SOL    HW229598   1.961   5.482   5.021
 9567SOL     OW29599   6.112   5.851   3.765
 9567SOL    HW129600   6.045   5.924   3.776
 9567SOL    HW229601   6.126   5.804   3.852
 9568SOL     OW29602   6.045   3.249   4.980
 9568SOL    HW129603   5.951   3.278   4.962
 9568SOL    HW229604   6.058   3.235   5.078
 9569SOL     OW29605   5.223   0.274   1.318
 9569SOL    HW129606   5.275   0.354   1.349
 9569SOL    HW229607   5.227   0.203   1.388
 9570SOL     OW29608   0.306   3.238   6.304
 9570SOL    HW129609   0.377   3.190   6.252
 9570SOL    HW229610   0.267   3.176   6.372
 9571SOL     OW29611   3.149   1.776   0.658
 9571SOL    HW129612   3.212   1.769   0.736
 9571SOL    HW229613   3.073   1.836   0.683
 9572SOL     OW29614   0.541   3.025   0.874
 9572SOL    HW129615   0.475   2.952   0.889
 9572SOL    HW229616   0.517   3.075   0.790
 9573SOL     OW29617   4.570   1.831   2.105
 9573SOL    HW129618   4.546   1.925   2.078
 9573SOL    HW229619   4.502   1.768   2.067
 9574SOL     OW29620   2.030   1.488   3.937
 9574SOL    HW129621   2.053   1.583   3.958
 9574SOL    HW229622   1.977   1.485   3.852
 9575SOL     OW29623   3.310   1.718   2.612
 9575SOL    HW129624   3.231   1.730   2.550
 9575SOL    HW229625   3.376   1.791   2.594
 9576SOL     OW29626   4.206   3.531   5.829
 9576SOL    HW129627   4.177   3.519   5.924
 9576SOL    HW229628   4.230   3.442   5.790
 9577SOL     OW29629   0.361   5.367   3.432
 9577SOL    HW129630   0.303   5.351   3.352
 9577SOL    HW229631   0.419   5.447   3.415
 9578SOL     OW29632   6.762   4.532   1.196
 9578SOL    HW129633   6.785   4.523   1.293
 9578SOL    HW229634   6.668   4.566   1.187
 9579SOL     OW29635   1.208   4.908   2.446
 9579SOL    HW129636   1.176   4.819   2.413
 9579SOL    HW229637   1.227   4.903   2.544
 9580SOL     OW29638   3.916   3.932   5.070
 9580SOL    HW129639   3.828   3.885   5.063
 9580SOL    HW229640   3.925   3.998   4.995
 9581SOL     OW29641   0.752   0.114   6.958
 9581SOL    HW129642   0.708   0.154   6.878
 9581SOL    HW229643   0.740   0.015   6.956
 9582SOL     OW29644   4.345   5.756   3.196
 9582SOL    HW129645   4.327   5.742   3.099
 9582SOL    HW229646   4.413   5.690   3.227
 9583SOL     OW29647   1.524   4.816   2.969
 9583SOL    HW129648   1.502   4.722   2.946
 9583SOL    HW229649   1.443   4.861   3.008
 9584SOL     OW29650   4.948   4.795   0.027
 9584SOL    HW129651   4.946   4.710   6.993
 9584SOL    HW229652   5.017   4.856   7.008
 9585SOL     OW29653   6.061   0.885   2.558
 9585SOL    HW129654   5.968   0.848   2.557
 9585SOL    HW229655   6.057   0.985   2.545
 9586SOL     OW29656   4.072   4.765   2.564
 9586SOL    HW129657   4.132   4.690   2.593
 9586SOL    HW229658   4.105   4.802   2.477
 9587SOL     OW29659   4.424   6.667   1.539
 9587SOL    HW129660   4.380   6.751   1.571
 9587SOL    HW229661   4.521   6.669   1.562
 9588SOL     OW29662   6.331   1.494   3.473
 9588SOL    HW129663   6.250   1.516   3.418
 9588SOL    HW229664   6.373   1.411   3.437
 9589SOL     OW29665   3.837   1.756   5.318
 9589SOL    HW129666   3.881   1.681   5.268
 9589SOL    HW229667   3.739   1.737   5.326
 9590SOL     OW29668   0.216   4.983   5.153
 9590SOL    HW129669   0.305   4.948   5.125
 9590SOL    HW229670   0.186   4.934   5.235
 9591SOL     OW29671   7.017   5.001   2.074
 9591SOL    HW129672   6.993   5.044   1.987
 9591SOL    HW229673   6.978   4.909   2.078
 9592SOL     OW29674   4.068   5.291   0.777
 9592SOL    HW129675   4.083   5.299   0.876
 9592SOL    HW229676   3.972   5.310   0.757
 9593SOL     OW29677   2.104   2.640   3.626
 9593SOL    HW129678   2.022   2.663   3.574
 9593SOL    HW229679   2.136   2.549   3.600
 9594SOL     OW29680   5.555   0.143   0.817
 9594SOL    HW129681   5.647   0.142   0.855
 9594SOL    HW229682   5.523   0.237   0.807
 9595SOL     OW29683   2.266   4.565   5.309
 9595SOL    HW129684   2.237   4.514   5.389
 9595SOL    HW229685   2.350   4.524   5.272
 9596SOL     OW29686   5.450   4.929   2.498
 9596SOL    HW129687   5.358   4.901   2.472
 9596SOL    HW229688   5.457   4.932   2.597
 9597SOL     OW29689   1.482   3.934   1.952
 9597SOL    HW129690   1.443   4.015   1.909
 9597SOL    HW229691   1.443   3.923   2.044
 9598SOL     OW29692   0.199   6.089   5.122
 9598SOL    HW129693   0.277   6.121   5.069
 9598SOL    HW229694   0.144   6.168   5.149
 9599SOL     OW29695   3.969   1.975   5.776
 9599SOL    HW129696   3.884   1.953   5.728
 9599SOL    HW229697   4.043   1.984   5.709
 9600SOL     OW29698   1.562   5.602   6.826
 9600SOL    HW129699   1.661   5.603   6.811
 9600SOL    HW229700   1.515   5.604   6.738
 9601SOL     OW29701   1.019   0.351   4.873
 9601SOL    HW129702   0.983   0.389   4.787
 9601SOL    HW229703   1.059   0.425   4.928
 9602SOL     OW29704   0.879   5.748   6.024
 9602SOL    HW129705   0.868   5.764   6.123
 9602SOL    HW229706   0.965   5.789   5.994
 9603SOL     OW29707   1.702   5.122   2.035
 9603SOL    HW129708   1.722   5.026   2.057
 9603SOL    HW229709   1.740   5.181   2.107
 9604SOL     OW29710   6.010   0.317   6.105
 9604SOL    HW129711   5.946   0.372   6.159
 9604SOL    HW229712   6.017   0.356   6.013
 9605SOL     OW29713   3.619   4.658   0.487
 9605SOL    HW129714   3.697   4.624   0.433
 9605SOL    HW229715   3.601   4.595   0.562
 9606SOL     OW29716   6.774   1.932   4.336
 9606SOL    HW129717   6.794   1.978   4.249
 9606SOL    HW229718   6.816   1.842   4.336
 9607SOL     OW29719   6.659   2.957   3.399
 9607SOL    HW129720   6.593   3.012   3.450
 9607SOL    HW229721   6.610   2.892   3.340
 9608SOL     OW29722   5.824   0.917   1.393
 9608SOL    HW129723   5.782   0.985   1.333
 9608SOL    HW229724   5.753   0.856   1.428
 9609SOL     OW29725   0.708   2.284   3.835
 9609SOL    HW129726   0.637   2.347   3.867
 9609SOL    HW229727   0.665   2.203   3.795
 9610SOL     OW29728   4.973   1.522   6.298
 9610SOL    HW129729   4.886   1.484   6.266
 9610SOL    HW229730   5.033   1.447   6.326
 9611SOL     OW29731   5.193   5.542   1.387
 9611SOL    HW129732   5.235   5.471   1.443
 9611SOL    HW229733   5.215   5.632   1.426
 9612SOL     OW29734   4.835   3.764   3.353
 9612SOL    HW129735   4.906   3.811   3.404
 9612SOL    HW229736   4.753   3.754   3.410
 9613SOL     OW29737   4.719   1.304   4.812
 9613SOL    HW129738   4.655   1.279   4.739
 9613SOL    HW229739   4.669   1.310   4.899
 9614SOL     OW29740   3.746   2.655   0.086
 9614SOL    HW129741   3.794   2.727   0.036
 9614SOL    HW229742   3.790   2.567   0.068
 9615SOL     OW29743   6.595   6.004   3.900
 9615SOL    HW129744   6.529   6.079   3.895
 9615SOL    HW229745   6.687   6.039   3.885
 9616SOL     OW29746   0.252   2.124   1.093
 9616SOL    HW129747   0.162   2.167   1.097
 9616SOL    HW229748   0.316   2.184   1.045
 9617SOL     OW29749   0.875   3.802   3.668
 9617SOL    HW129750   0.818   3.878   3.701
 9617SOL    HW229751   0.835   3.764   3.585
 9618SOL     OW29752   5.642   4.069   1.780
 9618SOL    HW129753   5.570   4.030   1.837
 9618SOL    HW229754   5.649   4.017   1.695
 9619SOL     OW29755   1.594   1.409   1.266
 9619SOL    HW129756   1.561   1.355   1.189
 9619SOL    HW229757   1.541   1.494   1.273
 9620SOL     OW29758   3.206   1.413   5.985
 9620SOL    HW129759   3.200   1.439   5.888
 9620SOL    HW229760   3.114   1.417   6.025
 9621SOL     OW29761   6.745   0.602   0.520
 9621SOL    HW129762   6.751   0.552   0.607
 9621SOL    HW229763   6.675   0.561   0.463
 9622SOL     OW29764   6.778   0.365   4.702
 9622SOL    HW129765   6.794   0.334   4.609
 9622SOL    HW229766   6.704   0.311   4.744
 9623SOL     OW29767   2.142   5.876   6.164
 9623SOL    HW129768   2.112   5.819   6.240
 9623SOL    HW229769   2.185   5.818   6.094
 9624SOL     OW29770   3.682   4.955   6.391
 9624SOL    HW129771   3.629   5.029   6.432
 9624SOL    HW229772   3.739   4.913   6.461
 9625SOL     OW29773   5.082   4.170   6.165
 9625SOL    HW129774   5.011   4.201   6.229
 9625SOL    HW229775   5.172   4.179   6.209
 9626SOL     OW29776   2.914   2.828   6.810
 9626SOL    HW129777   2.888   2.733   6.824
 9626SOL    HW229778   2.841   2.888   6.844
 9627SOL     OW29779   6.781   5.554   0.109
 9627SOL    HW129780   6.793   5.646   0.147
 9627SOL    HW229781   6.788   5.487   0.183
 9628SOL     OW29782   5.996   1.659   5.128
 9628SOL    HW129783   5.995   1.576   5.072
 9628SOL    HW229784   6.091   1.691   5.138
 9629SOL     OW29785   0.633   5.735   4.171
 9629SOL    HW129786   0.682   5.712   4.255
 9629SOL    HW229787   0.676   5.687   4.094
 9630SOL     OW29788   6.036   0.528   5.533
 9630SOL    HW129789   6.112   0.590   5.514
 9630SOL    HW229790   5.971   0.574   5.594
 9631SOL     OW29791   4.389   6.197   0.175
 9631SOL    HW129792   4.348   6.227   0.089
 9631SOL    HW229793   4.360   6.103   0.195
 9632SOL     OW29794   3.032   5.344   2.729
 9632SOL    HW129795   3.091   5.277   2.684
 9632SOL    HW229796   3.080   5.383   2.808
 9633SOL     OW29797   2.621   2.926   5.612
 9633SOL    HW129798   2.555   2.978   5.558
 9633SOL    HW229799   2.573   2.856   5.665
 9634SOL     OW29800   5.997   4.886   3.469
 9634SOL    HW129801   6.007   4.939   3.554
 9634SOL    HW229802   5.975   4.948   3.394
 9635SOL     OW29803   0.937   5.499   4.205
 9635SOL    HW129804   0.840   5.525   4.199
 9635SOL    HW229805   0.979   5.508   4.114
 9636SOL     OW29806   4.922   3.692   3.738
 9636SOL    HW129807   4.904   3.614   3.798
 9636SOL    HW229808   4.967   3.765   3.790
 9637SOL     OW29809   3.291   2.501   6.925
 9637SOL    HW129810   3.369   2.530   6.980
 9637SOL    HW229811   3.234   2.580   6.902
 9638SOL     OW29812   0.959   4.391   6.398
 9638SOL    HW129813   0.872   4.355   6.430
 9638SOL    HW229814   0.997   4.454   6.466
 9639SOL     OW29815   5.618   2.685   1.670
 9639SOL    HW129816   5.693   2.631   1.707
 9639SOL    HW229817   5.543   2.624   1.644
 9640SOL     OW29818   3.111   6.720   3.519
 9640SOL    HW129819   3.099   6.621   3.511
 9640SOL    HW229820   3.127   6.744   3.614
 9641SOL     OW29821   0.999   2.534   4.569
 9641SOL    HW129822   0.914   2.582   4.588
 9641SOL    HW229823   1.010   2.523   4.470
 9642SOL     OW29824   0.711   2.979   4.645
 9642SOL    HW129825   0.713   3.074   4.617
 9642SOL    HW229826   0.668   2.924   4.574
 9643SOL     OW29827   6.614   5.598   4.548
 9643SOL    HW129828   6.523   5.640   4.547
 9643SOL    HW229829   6.677   5.655   4.601
 9644SOL     OW29830   0.835   4.571   3.490
 9644SOL    HW129831   0.751   4.549   3.539
 9644SOL    HW229832   0.896   4.492   3.491
 9645SOL     OW29833   0.328   5.062   0.076
 9645SOL    HW129834   0.261   4.996   0.044
 9645SOL    HW229835   0.419   5.036   0.045
 9646SOL     OW29836   2.459   4.887   0.634
 9646SOL    HW129837   2.403   4.850   0.709
 9646SOL    HW229838   2.400   4.934   0.569
 9647SOL     OW29839   5.358   6.928   2.941
 9647SOL    HW129840   5.335   6.889   2.852
 9647SOL    HW229841   5.451   6.964   2.938
 9648SOL     OW29842   3.711   2.241   0.690
 9648SOL    HW129843   3.746   2.315   0.632
 9648SOL    HW229844   3.787   2.196   0.737
 9649SOL     OW29845   0.154   5.825   0.395
 9649SOL    HW129846   0.118   5.750   0.451
 9649SOL    HW229847   0.206   5.788   0.319
 9650SOL     OW29848   6.953   5.387   5.266
 9650SOL    HW129849   6.936   5.482   5.239
 9650SOL    HW229850   0.030   5.364   5.250
 9651SOL     OW29851   3.622   1.121   0.380
 9651SOL    HW129852   3.714   1.090   0.355
 9651SOL    HW229853   3.628   1.212   0.421
 9652SOL     OW29854   0.292   4.011   6.922
 9652SOL    HW129855   0.322   4.060   7.004
 9652SOL    HW229856   0.329   4.056   6.841
 9653SOL     OW29857   5.957   3.628   4.701
 9653SOL    HW129858   5.996   3.674   4.781
 9653SOL    HW229859   5.997   3.536   4.693
 9654SOL     OW29860   4.014   3.182   4.558
 9654SOL    HW129861   4.064   3.208   4.475
 9654SOL    HW229862   3.956   3.103   4.539
 9655SOL     OW29863   4.698   0.730   0.827
 9655SOL    HW129864   4.785   0.705   0.785
 9655SOL    HW229865   4.707   0.816   0.877
 9656SOL     OW29866   5.217   4.459   5.096
 9656SOL    HW129867   5.137   4.400   5.090
 9656SOL    HW229868   5.236   4.481   5.192
 9657SOL     OW29869   5.190   5.197   2.373
 9657SOL    HW129870   5.197   5.165   2.468
 9657SOL    HW229871   5.147   5.287   2.373
 9658SOL     OW29872   5.258   1.228   2.685
 9658SOL    HW129873   5.235   1.206   2.590
 9658SOL    HW229874   5.193   1.294   2.721
 9659SOL     OW29875   4.087   3.475   0.510
 9659SOL    HW129876   3.988   3.486   0.505
 9659SOL    HW229877   4.131   3.551   0.461
 9660SOL     OW29878   2.812   0.182   1.942
 9660SOL    HW129879   2.888   0.246   1.955
 9660SOL    HW229880   2.763   0.205   1.858
 9661SOL     OW29881   3.501   4.121   2.299
 9661SOL    HW129882   3.466   4.184   2.368
 9661SOL    HW229883   3.548   4.045   2.344
 9662SOL     OW29884   4.119   0.679   4.996
 9662SOL    HW129885   4.137   0.590   4.954
 9662SOL    HW229886   4.206   0.724   5.018
 9663SOL     OW29887   1.194   5.764   2.386
 9663SOL    HW129888   1.169   5.860   2.401
 9663SOL    HW229889   1.288   5.758   2.355
 9664SOL     OW29890   1.604   4.549   2.774
 9664SOL    HW129891   1.655   4.466   2.799
 9664SOL    HW229892   1.668   4.623   2.754
 9665SOL     OW29893   5.755   3.799   6.624
 9665SOL    HW129894   5.765   3.882   6.679
 9665SOL    HW229895   5.841   3.748   6.625
 9666SOL     OW29896   5.329   4.079   1.154
 9666SOL    HW129897   5.252   4.140   1.133
 9666SOL    HW229898   5.392   4.077   1.076
 9667SOL     OW29899   6.028   6.384   0.234
 9667SOL    HW129900   5.933   6.408   0.256
 9667SOL    HW229901   6.078   6.366   0.319
 9668SOL     OW29902   2.009   0.320   0.671
 9668SOL    HW129903   2.072   0.277   0.607
 9668SOL    HW229904   1.980   0.409   0.634
 9669SOL     OW29905   3.645   0.513   0.832
 9669SOL    HW129906   3.591   0.577   0.886
 9669SOL    HW229907   3.591   0.481   0.754
 9670SOL     OW29908   0.404   0.274   2.740
 9670SOL    HW129909   0.460   0.357   2.750
 9670SOL    HW229910   0.349   0.262   2.823
 9671SOL     OW29911   0.760   6.058   6.385
 9671SOL    HW129912   0.703   6.137   6.363
 9671SOL    HW229913   0.827   6.083   6.455
 9672SOL     OW29914   0.098   4.325   4.385
 9672SOL    HW129915   0.088   4.229   4.360
 9672SOL    HW229916   0.147   4.331   4.472
 9673SOL     OW29917   2.073   3.043   5.815
 9673SOL    HW129918   2.066   2.962   5.756
 9673SOL    HW229919   2.088   3.124   5.758
 9674SOL     OW29920   1.861   6.965   3.823
 9674SOL    HW129921   1.860   6.869   3.854
 9674SOL    HW229922   1.838   0.006   3.899
 9675SOL     OW29923   6.473   4.084   6.168
 9675SOL    HW129924   6.560   4.114   6.207
 9675SOL    HW229925   6.435   4.010   6.224
 9676SOL     OW29926   0.824   2.821   6.426
 9676SOL    HW129927   0.805   2.795   6.520
 9676SOL    HW229928   0.920   2.848   6.418
 9677SOL     OW29929   0.635   4.597   2.971
 9677SOL    HW129930   0.688   4.680   2.989
 9677SOL    HW229931   0.631   4.542   3.054
 9678SOL     OW29932   4.964   3.611   6.723
 9678SOL    HW129933   4.900   3.598   6.799
 9678SOL    HW229934   5.027   3.534   6.720
 9679SOL     OW29935   1.824   1.165   4.518
 9679SOL    HW129936   1.725   1.172   4.506
 9679SOL    HW229937   1.863   1.107   4.446
 9680SOL     OW29938   4.510   6.304   2.158
 9680SOL    HW129939   4.507   6.402   2.141
 9680SOL    HW229940   4.529   6.287   2.254
 9681SOL     OW29941   0.851   2.488   1.216
 9681SOL    HW129942   0.866   2.478   1.314
 9681SOL    HW229943   0.809   2.576   1.197
 9682SOL     OW29944   3.878   6.640   5.454
 9682SOL    HW129945   3.820   6.704   5.503
 9682SOL    HW229946   3.829   6.554   5.440
 9683SOL     OW29947   3.246   5.551   3.645
 9683SOL    HW129948   3.161   5.604   3.646
 9683SOL    HW229949   3.278   5.538   3.739
 9684SOL     OW29950   1.452   2.463   6.058
 9684SOL    HW129951   1.365   2.451   6.011
 9684SOL    HW229952   1.526   2.470   5.991
 9685SOL     OW29953   3.793   4.670   1.703
 9685SOL    HW129954   3.699   4.643   1.722
 9685SOL    HW229955   3.822   4.740   1.769
 9686SOL     OW29956   0.723   1.676   5.957
 9686SOL    HW129957   0.689   1.768   5.975
 9686SOL    HW229958   0.730   1.626   6.044
 9687SOL     OW29959   5.748   0.484   4.421
 9687SOL    HW129960   5.843   0.454   4.413
 9687SOL    HW229961   5.687   0.405   4.408
 9688SOL     OW29962   0.399   5.169   2.327
 9688SOL    HW129963   0.442   5.215   2.250
 9688SOL    HW229964   0.403   5.070   2.314
 9689SOL     OW29965   1.782   5.912   1.058
 9689SOL    HW129966   1.790   5.815   1.035
 9689SOL    HW229967   1.845   5.934   1.132
 9690SOL     OW29968   5.900   4.698   3.849
 9690SOL    HW129969   5.992   4.711   3.812
 9690SOL    HW229970   5.887   4.602   3.873
 9691SOL     OW29971   4.098   3.831   1.993
 9691SOL    HW129972   4.094   3.800   2.088
 9691SOL    HW229973   4.173   3.783   1.946
 9692SOL     OW29974   6.323   5.552   0.099
 9692SOL    HW129975   6.410   5.566   0.052
 9692SOL    HW229976   6.324   5.463   0.144
 9693SOL     OW29977   4.716   3.175   6.819
 9693SOL    HW129978   4.625   3.139   6.796
 9693SOL    HW229979   4.716   3.274   6.809
 9694SOL     OW29980   2.708   6.420   1.090
 9694SOL    HW129981   2.807   6.414   1.078
 9694SOL    HW229982   2.668   6.329   1.087
 9695SOL     OW29983   1.884   2.727   3.449
 9695SOL    HW129984   1.941   2.809   3.454
 9695SOL    HW229985   1.788   2.753   3.434
 9696SOL     OW29986   4.796   4.165   3.296
 9696SOL    HW129987   4.842   4.078   3.281
 9696SOL    HW229988   4.741   4.160   3.380
 9697SOL     OW29989   6.649   0.079   2.512
 9697SOL    HW129990   6.639   0.066   2.611
 9697SOL    HW229991   6.705   0.005   2.474
 9698SOL     OW29992   0.002   2.949   1.136
 9698SOL    HW129993   0.002   2.862   1.086
 9698SOL    HW229994   0.028   2.933   1.231
 9699SOL     OW29995   1.552   0.001   2.045
 9699SOL    HW129996   1.568   6.983   1.953
 9699SOL    HW229997   1.519   6.946   2.104
 9700SOL     OW29998   5.824   1.130   5.975
 9700SOL    HW129999   5.765   1.050   5.983
 9700SOL    HW230000   5.901   1.121   6.037
 9701SOL     OW30001   5.950   4.115   6.650
 9701SOL    HW130002   5.994   4.107   6.561
 9701SOL    HW230003   5.854   4.092   6.642
 9702SOL     OW30004   2.889   3.373   1.950
 9702SOL    HW130005   2.972   3.374   1.894
 9702SOL    HW230006   2.913   3.387   2.046
 9703SOL     OW30007   6.834   4.347   3.110
 9703SOL    HW130008   6.870   4.255   3.124
 9703SOL    HW230009   6.900   4.401   3.059
 9704SOL     OW30010   0.991   5.135   2.151
 9704SOL    HW130011   0.998   5.235   2.162
 9704SOL    HW230012   1.080   5.098   2.123
 9705SOL     OW30013   6.979   3.788   5.478
 9705SOL    HW130014   6.966   3.777   5.379
 9705SOL    HW230015   0.053   3.819   5.496
 9706SOL     OW30016   0.145   0.175   2.718
 9706SOL    HW130017   0.131   0.124   2.803
 9706SOL    HW230018   0.239   0.161   2.686
 9707SOL     OW30019   0.975   4.939   1.569
 9707SOL    HW130020   0.947   4.855   1.522
 9707SOL    HW230021   0.976   5.015   1.504
 9708SOL     OW30022   2.871   1.062   2.064
 9708SOL    HW130023   2.963   1.044   2.029
 9708SOL    HW230024   2.826   0.975   2.084
 9709SOL     OW30025   3.707   1.583   2.470
 9709SOL    HW130026   3.768   1.534   2.408
 9709SOL    HW230027   3.747   1.671   2.495
 9710SOL     OW30028   5.066   4.459   4.365
 9710SOL    HW130029   5.003   4.465   4.287
 9710SOL    HW230030   5.121   4.542   4.370
 9711SOL     OW30031   3.523   0.375   6.661
 9711SOL    HW130032   3.608   0.356   6.610
 9711SOL    HW230033   3.445   0.365   6.600
 9712SOL     OW30034   4.500   6.800   5.419
 9712SOL    HW130035   4.575   6.799   5.485
 9712SOL    HW230036   4.461   6.708   5.411
 9713SOL     OW30037   0.593   0.681   3.289
 9713SOL    HW130038   0.671   0.670   3.226
 9713SOL    HW230039   0.605   0.619   3.366
 9714SOL     OW30040   2.212   2.886   4.257
 9714SOL    HW130041   2.263   2.890   4.342
 9714SOL    HW230042   2.163   2.799   4.251
 9715SOL     OW30043   0.237   1.604   6.690
 9715SOL    HW130044   0.289   1.650   6.617
 9715SOL    HW230045   0.235   1.506   6.672
 9716SOL     OW30046   1.536   6.318   0.693
 9716SOL    HW130047   1.609   6.383   0.675
 9716SOL    HW230048   1.506   6.275   0.607
 9717SOL     OW30049   4.641   1.958   6.124
 9717SOL    HW130050   4.578   1.931   6.197
 9717SOL    HW230051   4.719   1.896   6.122
 9718SOL     OW30052   2.807   2.558   6.282
 9718SOL    HW130053   2.722   2.505   6.287
 9718SOL    HW230054   2.853   2.555   6.370
 9719SOL     OW30055   4.237   0.178   5.687
 9719SOL    HW130056   4.179   0.218   5.616
 9719SOL    HW230057   4.322   0.144   5.645
 9720SOL     OW30058   2.298   2.371   1.869
 9720SOL    HW130059   2.208   2.356   1.909
 9720SOL    HW230060   2.294   2.447   1.804
 9721SOL     OW30061   0.505   2.079   1.233
 9721SOL    HW130062   0.492   2.066   1.331
 9721SOL    HW230063   0.417   2.067   1.186
 9722SOL     OW30064   3.289   2.723   5.680
 9722SOL    HW130065   3.345   2.761   5.754
 9722SOL    HW230066   3.195   2.712   5.711
 9723SOL     OW30067   5.902   1.257   4.692
 9723SOL    HW130068   5.932   1.166   4.663
 9723SOL    HW230069   5.923   1.269   4.789
 9724SOL     OW30070   1.429   5.084   1.768
 9724SOL    HW130071   1.406   4.995   1.805
 9724SOL    HW230072   1.413   5.155   1.837
 9725SOL     OW30073   5.390   5.629   4.603
 9725SOL    HW130074   5.426   5.721   4.617
 9725SOL    HW230075   5.390   5.580   4.691
 9726SOL     OW30076   0.003   0.046   3.387
 9726SOL    HW130077   6.975   0.015   3.469
 9726SOL    HW230078   0.022   6.986   3.328
 9727SOL     OW30079   6.213   2.976   0.942
 9727SOL    HW130080   6.284   2.952   0.875
 9727SOL    HW230081   6.149   2.900   0.951
 9728SOL     OW30082   5.075   1.911   5.470
 9728SOL    HW130083   4.997   1.961   5.508
 9728SOL    HW230084   5.150   1.975   5.453
 9729SOL     OW30085   6.772   3.845   2.725
 9729SOL    HW130086   6.715   3.791   2.663
 9729SOL    HW230087   6.820   3.784   2.788
 9730SOL     OW30088   0.801   5.801   3.558
 9730SOL    HW130089   0.771   5.882   3.507
 9730SOL    HW230090   0.725   5.736   3.562
 9731SOL     OW30091   6.223   1.581   1.435
 9731SOL    HW130092   6.280   1.616   1.509
 9731SOL    HW230093   6.134   1.553   1.471
 9732SOL     OW30094   6.805   2.490   2.819
 9732SOL    HW130095   6.712   2.503   2.786
 9732SOL    HW230096   6.805   2.427   2.896
 9733SOL     OW30097   5.292   5.918   7.003
 9733SOL    HW130098   5.317   6.014   6.989
 9733SOL    HW230099   5.375   5.863   7.011
 9734SOL     OW30100   3.921   3.599   0.270
 9734SOL    HW130101   3.945   3.504   0.251
 9734SOL    HW230102   4.002   3.648   0.302
 9735SOL     OW30103   1.017   1.720   0.218
 9735SOL    HW130104   1.062   1.791   0.271
 9735SOL    HW230105   1.071   1.701   0.136
 9736SOL     OW30106   5.404   2.682   6.392
 9736SOL    HW130107   5.404   2.766   6.446
 9736SOL    HW230108   5.428   2.605   6.450
 9737SOL     OW30109   5.170   3.597   5.259
 9737SOL    HW130110   5.189   3.682   5.308
 9737SOL    HW230111   5.252   3.540   5.258
 9738SOL     OW30112   2.290   5.921   1.662
 9738SOL    HW130113   2.263   6.014   1.635
 9738SOL    HW230114   2.383   5.903   1.629
 9739SOL     OW30115   5.353   6.211   1.031
 9739SOL    HW130116   5.433   6.168   1.073
 9739SOL    HW230117   5.303   6.144   0.977
 9740SOL     OW30118   6.803   0.390   0.726
 9740SOL    HW130119   6.854   0.304   0.733
 9740SOL    HW230120   6.706   0.370   0.713
 9741SOL     OW30121   2.437   2.457   2.959
 9741SOL    HW130122   2.500   2.388   2.996
 9741SOL    HW230123   2.476   2.497   2.877
 9742SOL     OW30124   4.801   0.241   6.594
 9742SOL    HW130125   4.873   0.225   6.662
 9742SOL    HW230126   4.784   0.157   6.543
 9743SOL     OW30127   5.798   3.762   4.331
 9743SOL    HW130128   5.771   3.667   4.315
 9743SOL    HW230129   5.827   3.804   4.245
 9744SOL     OW30130   1.520   2.940   1.556
 9744SOL    HW130131   1.520   2.947   1.656
 9744SOL    HW230132   1.426   2.943   1.523
 9745SOL     OW30133   1.232   6.964   5.941
 9745SOL    HW130134   1.331   6.956   5.930
 9745SOL    HW230135   1.201   0.032   5.903
 9746SOL     OW30136   3.231   6.042   5.752
 9746SOL    HW130137   3.290   5.962   5.749
 9746SOL    HW230138   3.263   6.105   5.822
 9747SOL     OW30139   4.465   1.433   3.401
 9747SOL    HW130140   4.498   1.449   3.494
 9747SOL    HW230141   4.369   1.459   3.395
 9748SOL     OW30142   0.461   2.221   1.830
 9748SOL    HW130143   0.399   2.209   1.907
 9748SOL    HW230144   0.448   2.147   1.764
 9749SOL     OW30145   6.515   6.933   1.831
 9749SOL    HW130146   6.548   6.960   1.921
 9749SOL    HW230147   6.421   6.963   1.818
 9750SOL     OW30148   5.606   2.358   4.589
 9750SOL    HW130149   5.543   2.395   4.658
 9750SOL    HW230150   5.678   2.306   4.634
 9751SOL     OW30151   3.024   5.012   0.830
 9751SOL    HW130152   3.117   4.987   0.859
 9751SOL    HW230153   2.962   4.937   0.852
 9752SOL     OW30154   4.315   3.998   0.825
 9752SOL    HW130155   4.303   4.075   0.762
 9752SOL    HW230156   4.225   3.966   0.855
 9753SOL     OW30157   6.451   6.359   3.127
 9753SOL    HW130158   6.527   6.305   3.090
 9753SOL    HW230159   6.463   6.369   3.226
 9754SOL     OW30160   3.670   0.435   1.890
 9754SOL    HW130161   3.615   0.514   1.863
 9754SOL    HW230162   3.767   0.460   1.891
 9755SOL     OW30163   3.029   4.434   1.211
 9755SOL    HW130164   2.972   4.429   1.129
 9755SOL    HW230165   2.980   4.394   1.288
 9756SOL     OW30166   4.495   6.849   0.081
 9756SOL    HW130167   4.523   6.904   0.003
 9756SOL    HW230168   4.443   6.906   0.145
 9757SOL     OW30169   5.095   4.189   3.871
 9757SOL    HW130170   5.125   4.195   3.966
 9757SOL    HW230171   5.174   4.183   3.810
 9758SOL     OW30172   3.275   1.014   1.255
 9758SOL    HW130173   3.310   0.923   1.276
 9758SOL    HW230174   3.260   1.065   1.340
 9759SOL     OW30175   6.627   1.560   0.723
 9759SOL    HW130176   6.648   1.463   0.723
 9759SOL    HW230177   6.561   1.579   0.650
 9760SOL     OW30178   5.181   1.135   6.010
 9760SOL    HW130179   5.131   1.222   6.004
 9760SOL    HW230180   5.202   1.115   6.105
 9761SOL     OW30181   0.741   2.694   1.745
 9761SOL    HW130182   0.800   2.702   1.665
 9761SOL    HW230183   0.698   2.603   1.746
 9762SOL     OW30184   3.325   1.030   5.539
 9762SOL    HW130185   3.334   1.122   5.577
 9762SOL    HW230186   3.408   0.978   5.558
 9763SOL     OW30187   5.999   2.242   0.820
 9763SOL    HW130188   5.911   2.196   0.829
 9763SOL    HW230189   6.067   2.195   0.876
 9764SOL     OW30190   0.371   2.601   3.647
 9764SOL    HW130191   0.326   2.656   3.576
 9764SOL    HW230192   0.455   2.647   3.677
 9765SOL     OW30193   6.586   2.258   0.760
 9765SOL    HW130194   6.653   2.196   0.721
 9765SOL    HW230195   6.618   2.291   0.849
 9766SOL     OW30196   0.557   3.236   2.872
 9766SOL    HW130197   0.504   3.155   2.897
 9766SOL    HW230198   0.499   3.317   2.880
 9767SOL     OW30199   3.830   1.692   4.803
 9767SOL    HW130200   3.918   1.737   4.789
 9767SOL    HW230201   3.761   1.761   4.826
 9768SOL     OW30202   4.892   3.035   6.682
 9768SOL    HW130203   4.823   3.080   6.739
 9768SOL    HW230204   4.886   2.936   6.695
 9769SOL     OW30205   3.075   0.939   5.552
 9769SOL    HW130206   3.169   0.972   5.545
 9769SOL    HW230207   3.076   0.843   5.581
 9770SOL     OW30208   1.721   3.526   5.289
 9770SOL    HW130209   1.816   3.494   5.285
 9770SOL    HW230210   1.719   3.624   5.269
 9771SOL     OW30211   3.402   0.709   1.751
 9771SOL    HW130212   3.316   0.749   1.720
 9771SOL    HW230213   3.429   0.750   1.838
 9772SOL     OW30214   0.535   1.159   1.764
 9772SOL    HW130215   0.435   1.163   1.763
 9772SOL    HW230216   0.573   1.251   1.770
 9773SOL     OW30217   4.729   6.135   2.060
 9773SOL    HW130218   4.754   6.146   1.964
 9773SOL    HW230219   4.641   6.180   2.077
 9774SOL     OW30220   1.355   5.166   5.273
 9774SOL    HW130221   1.393   5.099   5.336
 9774SOL    HW230222   1.349   5.255   5.318
 9775SOL     OW30223   1.602   1.197   3.207
 9775SOL    HW130224   1.517   1.150   3.229
 9775SOL    HW230225   1.631   1.251   3.286
 9776SOL     OW30226   1.132   5.708   1.538
 9776SOL    HW130227   1.097   5.680   1.628
 9776SOL    HW230228   1.180   5.632   1.496
 9777SOL     OW30229   4.542   2.096   5.073
 9777SOL    HW130230   4.599   2.014   5.077
 9777SOL    HW230231   4.445   2.070   5.068
 9778SOL     OW30232   1.586   3.094   2.883
 9778SOL    HW130233   1.620   3.015   2.833
 9778SOL    HW230234   1.532   3.064   2.961
 9779SOL     OW30235   2.033   0.931   2.780
 9779SOL    HW130236   2.094   0.906   2.705
 9779SOL    HW230237   2.017   1.029   2.779
 9780SOL     OW30238   1.810   2.057   1.051
 9780SOL    HW130239   1.758   2.138   1.079
 9780SOL    HW230240   1.823   1.998   1.131
 9781SOL     OW30241   1.423   1.170   2.107
 9781SOL    HW130242   1.356   1.107   2.069
 9781SOL    HW230243   1.388   1.264   2.099
 9782SOL     OW30244   0.309   2.424   6.921
 9782SOL    HW130245   0.388   2.365   6.907
 9782SOL    HW230246   0.286   2.427   0.000
 9783SOL     OW30247   4.810   1.247   1.996
 9783SOL    HW130248   4.773   1.321   1.942
 9783SOL    HW230249   4.737   1.201   2.046
 9784SOL     OW30250   2.332   1.355   0.520
 9784SOL    HW130251   2.286   1.426   0.467
 9784SOL    HW230252   2.429   1.354   0.497
 9785SOL     OW30253   1.481   3.729   4.691
 9785SOL    HW130254   1.494   3.827   4.673
 9785SOL    HW230255   1.437   3.686   4.612
 9786SOL     OW30256   3.349   4.119   0.088
 9786SOL    HW130257   3.251   4.097   0.089
 9786SOL    HW230258   3.399   4.053   0.144
 9787SOL     OW30259   2.688   3.302   1.123
 9787SOL    HW130260   2.738   3.368   1.067
 9787SOL    HW230261   2.638   3.349   1.194
 9788SOL     OW30262   2.630   0.062   3.316
 9788SOL    HW130263   2.716   0.039   3.272
 9788SOL    HW230264   2.562   0.087   3.247
 9789SOL     OW30265   4.309   1.855   6.816
 9789SOL    HW130266   4.209   1.853   6.818
 9789SOL    HW230267   4.342   1.798   6.740
 9790SOL     OW30268   4.366   5.843   4.881
 9790SOL    HW130269   4.313   5.763   4.852
 9790SOL    HW230270   4.324   5.884   4.962
 9791SOL     OW30271   0.440   1.025   1.256
 9791SOL    HW130272   0.522   1.070   1.223
 9791SOL    HW230273   0.363   1.044   1.195
 9792SOL     OW30274   3.190   3.533   0.525
 9792SOL    HW130275   3.175   3.477   0.606
 9792SOL    HW230276   3.272   3.501   0.476
 9793SOL     OW30277   5.607   0.727   1.671
 9793SOL    HW130278   5.627   0.673   1.590
 9793SOL    HW230279   5.519   0.773   1.661
 9794SOL     OW30280   4.229   5.992   5.065
 9794SOL    HW130281   4.221   6.079   5.018
 9794SOL    HW230282   4.179   5.997   5.152
 9795SOL     OW30283   1.798   3.918   3.221
 9795SOL    HW130284   1.709   3.875   3.240
 9795SOL    HW230285   1.827   3.894   3.128
 9796SOL     OW30286   4.048   3.545   5.068
 9796SOL    HW130287   4.078   3.631   5.110
 9796SOL    HW230288   4.091   3.536   4.978
 9797SOL     OW30289   3.774   5.351   0.249
 9797SOL    HW130290   3.731   5.425   0.300
 9797SOL    HW230291   3.856   5.386   0.203
 9798SOL     OW30292   0.509   3.821   6.317
 9798SOL    HW130293   0.474   3.746   6.261
 9798SOL    HW230294   0.475   3.908   6.281
 9799SOL     OW30295   3.161   6.893   6.323
 9799SOL    HW130296   3.128   6.981   6.287
 9799SOL    HW230297   3.242   6.909   6.379
 9800SOL     OW30298   6.874   4.367   4.522
 9800SOL    HW130299   6.889   4.362   4.621
 9800SOL    HW230300   6.962   4.376   4.476
 9801SOL     OW30301   3.994   6.698   0.888
 9801SOL    HW130302   3.958   6.636   0.818
 9801SOL    HW230303   4.046   6.771   0.845
 9802SOL     OW30304   4.060   2.711   0.508
 9802SOL    HW130305   4.131   2.749   0.567
 9802SOL    HW230306   3.985   2.777   0.498
 9803SOL     OW30307   2.827   3.935   0.297
 9803SOL    HW130308   2.811   4.004   0.227
 9803SOL    HW230309   2.923   3.938   0.325
 9804SOL     OW30310   1.030   3.762   2.818
 9804SOL    HW130311   1.022   3.738   2.721
 9804SOL    HW230312   0.965   3.708   2.871
 9805SOL     OW30313   6.971   4.584   4.930
 9805SOL    HW130314   0.047   4.609   4.907
 9805SOL    HW230315   6.932   4.653   4.991
 9806SOL     OW30316   3.431   1.437   0.180
 9806SOL    HW130317   3.427   1.357   0.240
 9806SOL    HW230318   3.457   1.408   0.088
 9807SOL     OW30319   3.599   3.347   4.703
 9807SOL    HW130320   3.512   3.373   4.661
 9807SOL    HW230321   3.581   3.289   4.782
 9808SOL     OW30322   2.514   6.075   2.551
 9808SOL    HW130323   2.525   5.986   2.507
 9808SOL    HW230324   2.434   6.122   2.514
 9809SOL     OW30325   6.716   3.128   1.047
 9809SOL    HW130326   6.682   3.210   1.093
 9809SOL    HW230327   6.791   3.153   0.986
 9810SOL     OW30328   3.953   2.793   0.875
 9810SOL    HW130329   3.903   2.771   0.959
 9810SOL    HW230330   3.901   2.759   0.796
 9811SOL     OW30331   5.127   3.604   4.033
 9811SOL    HW130332   5.097   3.694   4.000
 9811SOL    HW230333   5.051   3.539   4.028
 9812SOL     OW30334   3.005   5.157   6.545
 9812SOL    HW130335   2.956   5.128   6.463
 9812SOL    HW230336   3.018   5.079   6.606
 9813SOL     OW30337   4.568   0.512   1.798
 9813SOL    HW130338   4.476   0.546   1.780
 9813SOL    HW230339   4.582   0.425   1.751
 9814SOL     OW30340   6.680   1.371   6.353
 9814SOL    HW130341   6.693   1.470   6.351
 9814SOL    HW230342   6.600   1.348   6.297
 9815SOL     OW30343   5.403   2.370   4.794
 9815SOL    HW130344   5.390   2.275   4.823
 9815SOL    HW230345   5.315   2.417   4.792
 9816SOL     OW30346   3.460   0.824   0.082
 9816SOL    HW130347   3.445   0.905   0.139
 9816SOL    HW230348   3.548   0.783   0.106
 9817SOL     OW30349   6.446   0.022   1.337
 9817SOL    HW130350   6.544   0.004   1.336
 9817SOL    HW230351   6.398   6.965   1.382
 9818SOL     OW30352   3.822   2.411   5.322
 9818SOL    HW130353   3.789   2.322   5.291
 9818SOL    HW230354   3.831   2.410   5.422
 9819SOL     OW30355   2.583   0.590   1.964
 9819SOL    HW130356   2.523   0.644   2.023
 9819SOL    HW230357   2.677   0.624   1.973
 9820SOL     OW30358   4.091   2.709   6.964
 9820SOL    HW130359   4.056   2.803   6.963
 9820SOL    HW230360   4.021   2.647   6.929
 9821SOL     OW30361   0.624   6.296   6.390
 9821SOL    HW130362   0.682   6.342   6.323
 9821SOL    HW230363   0.638   6.337   6.480
 9822SOL     OW30364   0.176   1.176   2.406
 9822SOL    HW130365   0.253   1.204   2.463
 9822SOL    HW230366   0.098   1.153   2.464
 9823SOL     OW30367   3.363   6.564   2.513
 9823SOL    HW130368   3.305   6.635   2.553
 9823SOL    HW230369   3.345   6.558   2.415
 9824SOL     OW30370   2.299   3.856   5.366
 9824SOL    HW130371   2.254   3.920   5.428
 9824SOL    HW230372   2.334   3.906   5.286
 9825SOL     OW30373   4.159   4.567   5.378
 9825SOL    HW130374   4.132   4.648   5.326
 9825SOL    HW230375   4.102   4.489   5.352
 9826SOL     OW30376   5.656   0.192   5.475
 9826SOL    HW130377   5.734   0.191   5.413
 9826SOL    HW230378   5.571   0.180   5.423
 9827SOL     OW30379   1.301   5.351   4.564
 9827SOL    HW130380   1.204   5.367   4.584
 9827SOL    HW230381   1.346   5.438   4.544
 9828SOL     OW30382   2.753   1.626   0.323
 9828SOL    HW130383   2.709   1.666   0.242
 9828SOL    HW230384   2.840   1.584   0.296
 9829SOL     OW30385   3.047   4.129   1.668
 9829SOL    HW130386   3.146   4.119   1.662
 9829SOL    HW230387   3.004   4.088   1.588
 9830SOL     OW30388   5.716   1.334   1.337
 9830SOL    HW130389   5.774   1.377   1.267
 9830SOL    HW230390   5.734   1.377   1.426
 9831SOL     OW30391   6.794   6.295   1.569
 9831SOL    HW130392   6.816   6.305   1.472
 9831SOL    HW230393   6.709   6.344   1.589
 9832SOL     OW30394   3.182   3.705   0.863
 9832SOL    HW130395   3.147   3.774   0.926
 9832SOL    HW230396   3.108   3.672   0.805
 9833SOL     OW30397   4.636   4.666   0.157
 9833SOL    HW130398   4.633   4.629   0.064
 9833SOL    HW230399   4.604   4.596   0.221
 9834SOL     OW30400   1.839   2.996   4.015
 9834SOL    HW130401   1.803   3.007   4.107
 9834SOL    HW230402   1.907   3.067   3.997
 9835SOL     OW30403   5.005   1.935   4.341
 9835SOL    HW130404   5.059   1.924   4.425
 9835SOL    HW230405   4.918   1.886   4.351
 9836SOL     OW30406   5.777   5.157   1.594
 9836SOL    HW130407   5.731   5.109   1.520
 9836SOL    HW230408   5.774   5.255   1.578
 9837SOL     OW30409   2.758   5.610   5.581
 9837SOL    HW130410   2.818   5.687   5.601
 9837SOL    HW230411   2.663   5.643   5.575
 9838SOL     OW30412   6.964   6.687   5.062
 9838SOL    HW130413   0.022   6.673   5.125
 9838SOL    HW230414   6.966   6.780   5.026
 9839SOL     OW30415   5.829   3.105   3.280
 9839SOL    HW130416   5.863   3.190   3.321
 9839SOL    HW230417   5.907   3.052   3.246
 9840SOL     OW30418   5.669   0.097   0.448
 9840SOL    HW130419   5.573   0.122   0.456
 9840SOL    HW230420   5.686   0.010   0.494
 9841SOL     OW30421   2.122   2.881   4.570
 9841SOL    HW130422   2.214   2.899   4.537
 9841SOL    HW230423   2.060   2.953   4.539
 9842SOL     OW30424   3.187   3.119   4.266
 9842SOL    HW130425   3.087   3.127   4.270
 9842SOL    HW230426   3.225   3.132   4.357
 9843SOL     OW30427   5.934   4.429   2.970
 9843SOL    HW130428   5.963   4.524   2.956
 9843SOL    HW230429   6.011   4.368   2.950
 9844SOL     OW30430   4.524   0.226   1.983
 9844SOL    HW130431   4.573   0.313   1.980
 9844SOL    HW230432   4.470   0.214   1.899
 9845SOL     OW30433   1.482   1.722   4.025
 9845SOL    HW130434   1.567   1.708   4.077
 9845SOL    HW230435   1.484   1.814   3.985
 9846SOL     OW30436   2.900   3.383   4.058
 9846SOL    HW130437   2.984   3.417   4.100
 9846SOL    HW230438   2.821   3.417   4.108
 9847SOL     OW30439   2.498   4.467   3.823
 9847SOL    HW130440   2.419   4.469   3.886
 9847SOL    HW230441   2.466   4.447   3.731
 9848SOL     OW30442   6.853   4.221   6.909
 9848SOL    HW130443   6.938   4.187   6.870
 9848SOL    HW230444   6.827   4.166   6.987
 9849SOL     OW30445   6.734   6.279   5.335
 9849SOL    HW130446   6.718   6.237   5.424
 9849SOL    HW230447   6.779   6.367   5.347
 9850SOL     OW30448   5.381   0.420   3.856
 9850SOL    HW130449   5.426   0.412   3.767
 9850SOL    HW230450   5.297   0.473   3.847
 9851SOL     OW30451   5.284   2.361   5.366
 9851SOL    HW130452   5.308   2.349   5.269
 9851SOL    HW230453   5.209   2.427   5.373
 9852SOL     OW30454   5.256   1.714   4.121
 9852SOL    HW130455   5.188   1.787   4.114
 9852SOL    HW230456   5.298   1.698   4.031
 9853SOL     OW30457   0.689   5.235   1.020
 9853SOL    HW130458   0.631   5.173   0.968
 9853SOL    HW230459   0.708   5.195   1.110
 9854SOL     OW30460   3.470   6.620   3.992
 9854SOL    HW130461   3.507   6.708   4.021
 9854SOL    HW230462   3.453   6.621   3.894
 9855SOL     OW30463   2.389   4.133   0.822
 9855SOL    HW130464   2.397   4.222   0.866
 9855SOL    HW230465   2.293   4.112   0.807
 9856SOL     OW30466   3.737   3.732   0.976
 9856SOL    HW130467   3.718   3.767   0.884
 9856SOL    HW230468   3.781   3.803   1.031
 9857SOL     OW30469   6.352   4.455   3.116
 9857SOL    HW130470   6.264   4.413   3.135
 9857SOL    HW230471   6.417   4.385   3.085
 9858SOL     OW30472   3.110   1.263   1.705
 9858SOL    HW130473   3.095   1.211   1.788
 9858SOL    HW230474   3.102   1.360   1.724
 9859SOL     OW30475   0.290   6.423   1.216
 9859SOL    HW130476   0.250   6.501   1.264
 9859SOL    HW230477   0.377   6.398   1.259
 9860SOL     OW30478   1.162   0.859   2.676
 9860SOL    HW130479   1.227   0.930   2.702
 9860SOL    HW230480   1.073   0.878   2.717
 9861SOL     OW30481   2.623   6.195   3.744
 9861SOL    HW130482   2.578   6.283   3.730
 9861SOL    HW230483   2.686   6.202   3.822
 9862SOL     OW30484   0.142   1.848   1.036
 9862SOL    HW130485   0.180   1.939   1.048
 9862SOL    HW230486   0.214   1.779   1.051
 9863SOL     OW30487   4.511   0.477   0.625
 9863SOL    HW130488   4.567   0.550   0.664
 9863SOL    HW230489   4.486   0.500   0.531
 9864SOL     OW30490   3.908   5.800   3.626
 9864SOL    HW130491   3.996   5.759   3.646
 9864SOL    HW230492   3.900   5.888   3.673
 9865SOL     OW30493   1.791   3.436   4.082
 9865SOL    HW130494   1.891   3.434   4.088
 9865SOL    HW230495   1.753   3.389   4.162
 9866SOL     OW30496   3.018   4.830   3.419
 9866SOL    HW130497   3.022   4.824   3.319
 9866SOL    HW230498   3.034   4.739   3.458
 9867SOL     OW30499   3.458   6.293   6.193
 9867SOL    HW130500   3.503   6.381   6.180
 9867SOL    HW230501   3.521   6.230   6.238
 9868SOL     OW30502   1.415   5.038   6.020
 9868SOL    HW130503   1.442   4.986   6.101
 9868SOL    HW230504   1.475   5.117   6.010
 9869SOL     OW30505   1.222   4.819   2.754
 9869SOL    HW130506   1.274   4.889   2.803
 9869SOL    HW230507   1.235   4.730   2.800
 9870SOL     OW30508   4.337   5.748   1.417
 9870SOL    HW130509   4.342   5.653   1.450
 9870SOL    HW230510   4.429   5.788   1.416
 9871SOL     OW30511   2.022   2.716   5.865
 9871SOL    HW130512   2.032   2.618   5.882
 9871SOL    HW230513   2.020   2.733   5.766
 9872SOL     OW30514   1.303   3.751   2.906
 9872SOL    HW130515   1.358   3.742   2.823
 9872SOL    HW230516   1.208   3.765   2.882
 9873SOL     OW30517   1.959   1.856   1.179
 9873SOL    HW130518   1.945   1.766   1.137
 9873SOL    HW230519   2.040   1.854   1.238
 9874SOL     OW30520   1.177   3.996   4.559
 9874SOL    HW130521   1.200   3.974   4.464
 9874SOL    HW230522   1.082   4.027   4.564
 9875SOL     OW30523   1.109   1.379   3.366
 9875SOL    HW130524   1.159   1.343   3.287
 9875SOL    HW230525   1.155   1.350   3.450
 9876SOL     OW30526   6.822   5.907   2.069
 9876SOL    HW130527   6.768   5.894   2.152
 9876SOL    HW230528   6.766   5.885   1.989
 9877SOL     OW30529   4.101   0.418   1.384
 9877SOL    HW130530   4.051   0.336   1.357
 9877SOL    HW230531   4.067   0.450   1.472
 9878SOL     OW30532   6.577   1.319   5.134
 9878SOL    HW130533   6.546   1.230   5.168
 9878SOL    HW230534   6.520   1.392   5.173
 9879SOL     OW30535   4.911   5.412   5.244
 9879SOL    HW130536   4.845   5.343   5.215
 9879SOL    HW230537   4.868   5.502   5.241
 9880SOL     OW30538   1.242   2.404   3.948
 9880SOL    HW130539   1.161   2.450   3.912
 9880SOL    HW230540   1.273   2.335   3.883
 9881SOL     OW30541   0.544   1.466   5.829
 9881SOL    HW130542   0.502   1.388   5.876
 9881SOL    HW230543   0.593   1.522   5.896
 9882SOL     OW30544   1.778   2.461   3.367
 9882SOL    HW130545   1.805   2.524   3.439
 9882SOL    HW230546   1.857   2.438   3.310
 9883SOL     OW30547   2.833   1.593   2.471
 9883SOL    HW130548   2.848   1.633   2.561
 9883SOL    HW230549   2.914   1.543   2.443
 9884SOL     OW30550   3.426   0.673   3.792
 9884SOL    HW130551   3.383   0.725   3.718
 9884SOL    HW230552   3.469   0.591   3.755
 9885SOL     OW30553   6.257   3.004   4.839
 9885SOL    HW130554   6.295   2.938   4.774
 9885SOL    HW230555   6.175   3.045   4.799
 9886SOL     OW30556   0.066   3.159   1.375
 9886SOL    HW130557   6.990   3.159   1.341
 9886SOL    HW230558   0.067   3.186   1.471
 9887SOL     OW30559   4.731   6.263   5.930
 9887SOL    HW130560   4.782   6.322   5.993
 9887SOL    HW230561   4.683   6.320   5.863
 9888SOL     OW30562   6.176   4.702   5.537
 9888SOL    HW130563   6.260   4.756   5.533
 9888SOL    HW230564   6.097   4.763   5.528
 9889SOL     OW30565   0.646   5.732   0.781
 9889SOL    HW130566   0.736   5.776   0.786
 9889SOL    HW230567   0.622   5.695   0.871
 9890SOL     OW30568   0.715   2.587   0.873
 9890SOL    HW130569   0.735   2.684   0.890
 9890SOL    HW230570   0.618   2.576   0.853
 9891SOL     OW30571   5.082   1.217   1.949
 9891SOL    HW130572   4.999   1.244   1.997
 9891SOL    HW230573   5.158   1.275   1.979
 9892SOL     OW30574   0.990   0.014   6.820
 9892SOL    HW130575   0.939   0.075   6.881
 9892SOL    HW230576   1.062   0.065   6.774
 9893SOL     OW30577   2.349   1.091   0.487
 9893SOL    HW130578   2.340   1.190   0.498
 9893SOL    HW230579   2.324   1.065   0.394
 9894SOL     OW30580   1.923   0.839   1.468
 9894SOL    HW130581   1.845   0.899   1.449
 9894SOL    HW230582   2.005   0.894   1.482
 9895SOL     OW30583   4.416   2.804   5.606
 9895SOL    HW130584   4.373   2.782   5.519
 9895SOL    HW230585   4.364   2.762   5.680
 9896SOL     OW30586   6.309   6.720   5.686
 9896SOL    HW130587   6.251   6.655   5.638
 9896SOL    HW230588   6.380   6.754   5.625
 9897SOL     OW30589   5.241   5.018   4.821
 9897SOL    HW130590   5.189   5.001   4.738
 9897SOL    HW230591   5.243   5.117   4.839
 9898SOL     OW30592   2.300   0.089   6.978
 9898SOL    HW130593   2.261   0.087   6.886
 9898SOL    HW230594   2.360   0.010   6.991
 9899SOL     OW30595   6.828   4.945   6.941
 9899SOL    HW130596   6.767   4.876   6.980
 9899SOL    HW230597   6.872   4.907   6.859
 9900SOL     OW30598   2.311   4.344   3.079
 9900SOL    HW130599   2.315   4.246   3.059
 9900SOL    HW230600   2.260   4.359   3.163
 9901SOL     OW30601   1.978   3.443   5.304
 9901SOL    HW130602   2.022   3.533   5.314
 9901SOL    HW230603   2.036   3.374   5.348
 9902SOL     OW30604   2.681   4.528   0.790
 9902SOL    HW130605   2.629   4.599   0.838
 9902SOL    HW230606   2.639   4.511   0.701
 9903SOL     OW30607   5.550   1.421   5.239
 9903SOL    HW130608   5.625   1.360   5.268
 9903SOL    HW230609   5.529   1.406   5.143
 9904SOL     OW30610   6.164   1.959   0.315
 9904SOL    HW130611   6.230   2.034   0.319
 9904SOL    HW230612   6.201   1.880   0.364
 9905SOL     OW30613   4.715   0.284   0.316
 9905SOL    HW130614   4.755   0.218   0.253
 9905SOL    HW230615   4.702   0.241   0.406
 9906SOL     OW30616   3.076   3.470   4.992
 9906SOL    HW130617   3.046   3.556   5.033
 9906SOL    HW230618   3.010   3.398   5.013
 9907SOL     OW30619   1.540   6.642   1.782
 9907SOL    HW130620   1.443   6.617   1.779
 9907SOL    HW230621   1.588   6.598   1.706
 9908SOL     OW30622   5.317   3.905   1.748
 9908SOL    HW130623   5.264   3.981   1.784
 9908SOL    HW230624   5.265   3.820   1.758
 9909SOL     OW30625   1.893   0.264   4.778
 9909SOL    HW130626   1.873   0.237   4.684
 9909SOL    HW230627   1.892   0.184   4.837
 9910SOL     OW30628   6.946   4.514   3.920
 9910SOL    HW130629   6.996   4.510   4.007
 9910SOL    HW230630   6.865   4.573   3.931
 9911SOL     OW30631   2.488   6.415   2.210
 9911SOL    HW130632   2.436   6.399   2.294
 9911SOL    HW230633   2.570   6.358   2.210
 9912SOL     OW30634   4.624   1.138   6.027
 9912SOL    HW130635   4.578   1.212   5.978
 9912SOL    HW230636   4.559   1.063   6.043
 9913SOL     OW30637   5.164   3.104   0.605
 9913SOL    HW130638   5.196   3.087   0.512
 9913SOL    HW230639   5.189   3.196   0.633
 9914SOL     OW30640   6.841   3.201   4.509
 9914SOL    HW130641   6.940   3.216   4.519
 9914SOL    HW230642   6.826   3.117   4.457
 9915SOL     OW30643   4.719   1.187   3.618
 9915SOL    HW130644   4.737   1.142   3.705
 9915SOL    HW230645   4.624   1.215   3.614
 9916SOL     OW30646   1.397   2.943   1.172
 9916SOL    HW130647   1.349   2.875   1.228
 9916SOL    HW230648   1.488   2.957   1.209
 9917SOL     OW30649   6.136   4.455   5.398
 9917SOL    HW130650   6.157   4.537   5.452
 9917SOL    HW230651   6.084   4.391   5.454
 9918SOL     OW30652   4.859   3.205   2.366
 9918SOL    HW130653   4.779   3.251   2.327
 9918SOL    HW230654   4.919   3.272   2.409
 9919SOL     OW30655   5.331   5.657   0.280
 9919SOL    HW130656   5.264   5.730   0.286
 9919SOL    HW230657   5.336   5.609   0.368
 9920SOL     OW30658   4.591   1.341   2.501
 9920SOL    HW130659   4.506   1.300   2.469
 9920SOL    HW230660   4.669   1.293   2.459
 9921SOL     OW30661   4.094   5.032   6.101
 9921SOL    HW130662   4.148   4.992   6.026
 9921SOL    HW230663   4.007   4.984   6.108
 9922SOL     OW30664   6.914   6.049   1.303
 9922SOL    HW130665   6.928   6.145   1.330
 9922SOL    HW230666   6.923   6.041   1.204
 9923SOL     OW30667   5.589   4.365   0.548
 9923SOL    HW130668   5.500   4.358   0.592
 9923SOL    HW230669   5.600   4.455   0.507
 9924SOL     OW30670   1.564   4.544   4.503
 9924SOL    HW130671   1.587   4.633   4.543
 9924SOL    HW230672   1.472   4.518   4.530
 9925SOL     OW30673   4.742   2.421   4.416
 9925SOL    HW130674   4.757   2.399   4.512
 9925SOL    HW230675   4.811   2.376   4.360
 9926SOL     OW30676   3.546   5.152   1.236
 9926SOL    HW130677   3.507   5.163   1.327
 9926SOL    HW230678   3.565   5.243   1.197
 9927SOL     OW30679   5.206   0.019   4.218
 9927SOL    HW130680   5.157   0.047   4.136
 9927SOL    HW230681   5.253   0.098   4.258
 9928SOL     OW30682   5.059   4.169   2.355
 9928SOL    HW130683   5.130   4.240   2.358
 9928SOL    HW230684   5.103   4.079   2.350
 9929SOL     OW30685   0.795   4.176   3.227
 9929SOL    HW130686   0.696   4.167   3.213
 9929SOL    HW230687   0.835   4.087   3.247
 9930SOL     OW30688   5.821   1.158   2.986
 9930SOL    HW130689   5.782   1.240   2.944
 9930SOL    HW230690   5.843   1.177   3.082
 9931SOL     OW30691   1.115   5.400   5.842
 9931SOL    HW130692   1.199   5.446   5.814
 9931SOL    HW230693   1.094   5.423   5.937
 9932SOL     OW30694   0.617   5.967   4.513
 9932SOL    HW130695   0.548   5.954   4.441
 9932SOL    HW230696   0.704   5.994   4.471
 9933SOL     OW30697   7.003   6.603   2.944
 9933SOL    HW130698   0.023   6.558   2.864
 9933SOL    HW230699   0.032   6.572   3.026
 9934SOL     OW30700   0.147   2.443   4.792
 9934SOL    HW130701   0.114   2.363   4.843
 9934SOL    HW230702   0.189   2.508   4.856
 9935SOL     OW30703   2.191   0.358   6.070
 9935SOL    HW130704   2.262   0.288   6.079
 9935SOL    HW230705   2.107   0.326   6.114
 9936SOL     OW30706   1.949   4.067   3.727
 9936SOL    HW130707   1.991   4.119   3.801
 9936SOL    HW230708   1.903   4.130   3.664
 9937SOL     OW30709   6.231   2.134   5.938
 9937SOL    HW130710   6.136   2.164   5.949
 9937SOL    HW230711   6.236   2.035   5.954
 9938SOL     OW30712   6.805   6.300   2.883
 9938SOL    HW130713   6.888   6.322   2.833
 9938SOL    HW230714   6.819   6.317   2.981
 9939SOL     OW30715   3.634   3.053   3.888
 9939SOL    HW130716   3.548   3.075   3.843
 9939SOL    HW230717   3.628   2.961   3.928
 9940SOL     OW30718   0.525   1.341   0.786
 9940SOL    HW130719   0.574   1.257   0.805
 9940SOL    HW230720   0.510   1.349   0.687
 9941SOL     OW30721   3.345   5.940   4.557
 9941SOL    HW130722   3.305   5.967   4.645
 9941SOL    HW230723   3.416   5.872   4.573
 9942SOL     OW30724   2.810   5.829   4.013
 9942SOL    HW130725   2.810   5.742   4.062
 9942SOL    HW230726   2.816   5.905   4.078
 9943SOL     OW30727   0.704   6.736   4.782
 9943SOL    HW130728   0.670   6.785   4.700
 9943SOL    HW230729   0.638   6.665   4.807
 9944SOL     OW30730   2.022   4.578   6.321
 9944SOL    HW130731   1.923   4.573   6.306
 9944SOL    HW230732   2.065   4.621   6.242
 9945SOL     OW30733   0.140   5.887   6.536
 9945SOL    HW130734   0.144   5.856   6.441
 9945SOL    HW230735   0.191   5.972   6.547
 9946SOL     OW30736   5.560   0.219   3.991
 9946SOL    HW130737   5.591   0.235   4.085
 9946SOL    HW230738   5.536   0.306   3.948
 9947SOL     OW30739   5.930   4.473   4.029
 9947SOL    HW130740   5.861   4.466   4.101
 9947SOL    HW230741   5.983   4.557   4.041
 9948SOL     OW30742   5.396   4.108   3.526
 9948SOL    HW130743   5.395   4.204   3.553
 9948SOL    HW230744   5.443   4.054   3.595
 9949SOL     OW30745   6.470   4.872   2.059
 9949SOL    HW130746   6.439   4.781   2.030
 9949SOL    HW230747   6.391   4.931   2.074
 9950SOL     OW30748   3.872   6.108   0.289
 9950SOL    HW130749   3.943   6.086   0.356
 9950SOL    HW230750   3.842   6.202   0.303
 9951SOL     OW30751   6.138   2.976   2.881
 9951SOL    HW130752   6.201   3.039   2.835
 9951SOL    HW230753   6.065   3.028   2.925
 9952SOL     OW30754   0.403   4.347   6.248
 9952SOL    HW130755   0.500   4.366   6.263
 9952SOL    HW230756   0.369   4.404   6.174
 9953SOL     OW30757   5.441   3.298   3.883
 9953SOL    HW130758   5.429   3.238   3.963
 9953SOL    HW230759   5.366   3.363   3.878
 9954SOL     OW30760   4.741   0.636   5.440
 9954SOL    HW130761   4.732   0.609   5.344
 9954SOL    HW230762   4.700   0.566   5.498
 9955SOL     OW30763   0.401   4.859   4.390
 9955SOL    HW130764   0.379   4.762   4.381
 9955SOL    HW230765   0.490   4.870   4.433
 9956SOL     OW30766   0.972   6.313   0.562
 9956SOL    HW130767   0.975   6.336   0.659
 9956SOL    HW230768   0.932   6.222   0.551
 9957SOL     OW30769   5.782   5.502   2.487
 9957SOL    HW130770   5.848   5.548   2.548
 9957SOL    HW230771   5.815   5.410   2.466
 9958SOL     OW30772   3.088   4.414   0.624
 9958SOL    HW130773   3.116   4.510   0.625
 9958SOL    HW230774   3.019   4.400   0.553
 9959SOL     OW30775   3.303   4.435   1.177
 9959SOL    HW130776   3.333   4.346   1.143
 9959SOL    HW230777   3.205   4.433   1.193
 9960SOL     OW30778   0.610   1.210   2.352
 9960SOL    HW130779   0.557   1.156   2.286
 9960SOL    HW230780   0.646   1.151   2.423
 9961SOL     OW30781   2.158   3.900   4.563
 9961SOL    HW130782   2.166   3.822   4.500
 9961SOL    HW230783   2.066   3.903   4.601
 9962SOL     OW30784   5.775   6.453   4.259
 9962SOL    HW130785   5.785   6.495   4.349
 9962SOL    HW230786   5.866   6.439   4.219
 9963SOL     OW30787   3.058   2.305   0.309
 9963SOL    HW130788   3.078   2.219   0.356
 9963SOL    HW230789   3.073   2.294   0.211
 9964SOL     OW30790   5.829   6.570   4.525
 9964SOL    HW130791   5.919   6.608   4.543
 9964SOL    HW230792   5.794   6.526   4.608
 9965SOL     OW30793   5.177   6.720   1.769
 9965SOL    HW130794   5.211   6.809   1.798
 9965SOL    HW230795   5.194   6.652   1.840
 9966SOL     OW30796   6.691   1.169   2.696
 9966SOL    HW130797   6.717   1.242   2.759
 9966SOL    HW230798   6.663   1.208   2.609
 9967SOL     OW30799   0.861   5.491   0.259
 9967SOL    HW130800   0.762   5.481   0.265
 9967SOL    HW230801   0.895   5.438   0.181
 9968SOL     OW30802   3.923   3.051   3.403
 9968SOL    HW130803   3.831   3.014   3.388
 9968SOL    HW230804   3.927   3.093   3.494
 9969SOL     OW30805   1.782   3.265   0.977
 9969SOL    HW130806   1.790   3.364   0.966
 9969SOL    HW230807   1.732   3.245   1.061
 9970SOL     OW30808   6.481   4.179   2.333
 9970SOL    HW130809   6.389   4.201   2.367
 9970SOL    HW230810   6.546   4.182   2.409
 9971SOL     OW30811   2.706   6.734   6.872
 9971SOL    HW130812   2.711   6.770   6.778
 9971SOL    HW230813   2.673   6.640   6.870
 9972SOL     OW30814   0.011   4.925   1.671
 9972SOL    HW130815   6.996   4.995   1.734
 9972SOL    HW230816   0.088   4.877   1.712
 9973SOL     OW30817   5.190   6.010   3.866
 9973SOL    HW130818   5.202   6.105   3.894
 9973SOL    HW230819   5.279   5.964   3.867
 9974SOL     OW30820   2.468   0.955   4.029
 9974SOL    HW130821   2.391   1.005   3.991
 9974SOL    HW230822   2.454   0.857   4.017
 9975SOL     OW30823   6.938   4.146   0.854
 9975SOL    HW130824   6.985   4.059   0.847
 9975SOL    HW230825   6.980   4.201   0.927
 9976SOL     OW30826   2.926   6.328   4.290
 9976SOL    HW130827   2.846   6.272   4.313
 9976SOL    HW230828   2.912   6.372   4.202
 9977SOL     OW30829   6.482   4.979   4.096
 9977SOL    HW130830   6.423   4.904   4.124
 9977SOL    HW230831   6.573   4.967   4.136
 9978SOL     OW30832   6.869   3.140   4.203
 9978SOL    HW130833   6.905   3.166   4.114
 9978SOL    HW230834   6.943   3.140   4.270
 9979SOL     OW30835   0.924   3.568   5.083
 9979SOL    HW130836   0.867   3.493   5.050
 9979SOL    HW230837   0.993   3.533   5.146
 9980SOL     OW30838   2.537   6.545   5.369
 9980SOL    HW130839   2.552   6.610   5.443
 9980SOL    HW230840   2.625   6.513   5.333
 9981SOL     OW30841   3.638   1.875   3.194
 9981SOL    HW130842   3.583   1.911   3.119
 9981SOL    HW230843   3.581   1.813   3.249
 9982SOL     OW30844   6.355   6.886   2.917
 9982SOL    HW130845   6.355   6.979   2.955
 9982SOL    HW230846   6.302   6.886   2.832
 9983SOL     OW30847   6.758   0.705   1.278
 9983SOL    HW130848   6.852   0.694   1.248
 9983SOL    HW230849   6.698   0.718   1.199
 9984SOL     OW30850   3.282   0.467   6.548
 9984SOL    HW130851   3.303   0.504   6.458
 9984SOL    HW230852   3.278   0.541   6.615
 9985SOL     OW30853   1.636   1.709   1.214
 9985SOL    HW130854   1.558   1.766   1.187
 9985SOL    HW230855   1.709   1.717   1.146
 9986SOL     OW30856   5.158   4.199   4.377
 9986SOL    HW130857   5.116   4.158   4.458
 9986SOL    HW230858   5.114   4.287   4.358
 9987SOL     OW30859   0.057   4.083   5.025
 9987SOL    HW130860   0.106   3.999   5.047
 9987SOL    HW230861   0.017   4.121   5.108
 9988SOL     OW30862   6.576   1.141   4.069
 9988SOL    HW130863   6.503   1.073   4.061
 9988SOL    HW230864   6.592   1.184   3.981
 9989SOL     OW30865   1.705   2.547   4.925
 9989SOL    HW130866   1.717   2.451   4.902
 9989SOL    HW230867   1.632   2.586   4.868
 9990SOL     OW30868   1.273   4.648   1.395
 9990SOL    HW130869   1.290   4.711   1.319
 9990SOL    HW230870   1.344   4.578   1.396
 9991SOL     OW30871   3.944   2.212   3.430
 9991SOL    HW130872   3.990   2.248   3.349
 9991SOL    HW230873   3.893   2.129   3.405
 9992SOL     OW30874   6.448   5.130   6.166
 9992SOL    HW130875   6.451   5.086   6.076
 9992SOL    HW230876   6.384   5.207   6.163
 9993SOL     OW30877   1.279   0.727   1.969
 9993SOL    HW130878   1.376   0.704   1.960
 9993SOL    HW230879   1.269   0.801   2.036
 9994SOL     OW30880   6.066   4.059   3.339
 9994SOL    HW130881   6.000   3.993   3.302
 9994SOL    HW230882   6.121   4.014   3.410
 9995SOL     OW30883   5.364   1.923   4.338
 9995SOL    HW130884   5.369   1.887   4.245
 9995SOL    HW230885   5.442   1.983   4.355
 9996SOL     OW30886   3.193   2.936   0.809
 9996SOL    HW130887   3.185   2.846   0.853
 9996SOL    HW230888   3.283   2.944   0.767
 9997SOL     OW30889   2.514   0.784   4.330
 9997SOL    HW130890   2.473   0.785   4.239
 9997SOL    HW230891   2.571   0.866   4.342
 9998SOL     OW30892   6.224   6.212   4.928
 9998SOL    HW130893   6.164   6.195   4.849
 9998SOL    HW230894   6.223   6.131   4.988
 9999SOL     OW30895   0.294   0.792   4.893
 9999SOL    HW130896   0.371   0.803   4.830
 9999SOL    HW230897   0.329   0.763   4.982
10000SOL     OW30898   6.776   4.920   0.968
10000SOL    HW130899   6.711   4.959   1.034
10000SOL    HW230900   6.734   4.920   0.877
10001SOL     OW30901   3.561   0.558   3.474
10001SOL    HW130902   3.477   0.611   3.467
10001SOL    HW230903   3.548   0.484   3.541
10002SOL     OW30904   1.078   1.924   1.872
10002SOL    HW130905   1.066   1.969   1.783
10002SOL    HW230906   1.139   1.845   1.861
10003SOL     OW30907   5.350   4.221   1.384
10003SOL    HW130908   5.449   4.223   1.369
10003SOL    HW230909   5.305   4.178   1.305
10004SOL     OW30910   6.231   3.864   4.152
10004SOL    HW130911   6.260   3.863   4.247
10004SOL    HW230912   6.172   3.785   4.133
10005SOL     OW30913   4.839   0.036   3.531
10005SOL    HW130914   4.881   0.006   3.617
10005SOL    HW230915   4.902   0.017   3.455
10006SOL     OW30916   5.103   2.510   4.430
10006SOL    HW130917   5.121   2.428   4.375
10006SOL    HW230918   5.037   2.488   4.501
10007SOL     OW30919   4.973   5.382   3.867
10007SOL    HW130920   5.011   5.340   3.950
10007SOL    HW230921   4.971   5.481   3.877
10008SOL     OW30922   2.396   6.813   3.993
10008SOL    HW130923   2.430   6.900   3.958
10008SOL    HW230924   2.359   6.827   4.085
10009SOL     OW30925   2.083   4.175   1.949
10009SOL    HW130926   2.163   4.118   1.937
10009SOL    HW230927   2.110   4.265   1.984
10010SOL     OW30928   5.427   0.731   6.090
10010SOL    HW130929   5.415   0.785   6.007
10010SOL    HW230930   5.408   0.789   6.170
10011SOL     OW30931   6.770   6.821   3.873
10011SOL    HW130932   6.753   6.781   3.783
10011SOL    HW230933   6.697   6.793   3.936
10012SOL     OW30934   4.901   1.488   5.144
10012SOL    HW130935   4.843   1.442   5.212
10012SOL    HW230936   4.997   1.467   5.162
10013SOL     OW30937   1.322   0.410   1.264
10013SOL    HW130938   1.289   0.444   1.177
10013SOL    HW230939   1.262   0.337   1.297
10014SOL     OW30940   1.480   4.728   5.912
10014SOL    HW130941   1.575   4.718   5.941
10014SOL    HW230942   1.442   4.813   5.950
10015SOL     OW30943   2.829   5.761   6.007
10015SOL    HW130944   2.905   5.776   5.944
10015SOL    HW230945   2.764   5.696   5.967
10016SOL     OW30946   2.534   1.418   5.173
10016SOL    HW130947   2.550   1.344   5.108
10016SOL    HW230948   2.497   1.497   5.124
10017SOL     OW30949   6.457   1.934   3.085
10017SOL    HW130950   6.367   1.900   3.054
10017SOL    HW230951   6.516   1.856   3.106
10018SOL     OW30952   4.364   6.547   6.210
10018SOL    HW130953   4.386   6.488   6.288
10018SOL    HW230954   4.357   6.491   6.127
10019SOL     OW30955   1.039   0.791   3.685
10019SOL    HW130956   1.060   0.783   3.782
10019SOL    HW230957   1.005   0.883   3.666
10020SOL     OW30958   1.205   3.935   0.528
10020SOL    HW130959   1.107   3.926   0.544
10020SOL    HW230960   1.223   4.012   0.467
10021SOL     OW30961   4.866   3.224   1.316
10021SOL    HW130962   4.915   3.255   1.235
10021SOL    HW230963   4.931   3.188   1.383
10022SOL     OW30964   2.080   0.929   5.980
10022SOL    HW130965   2.145   0.989   6.026
10022SOL    HW230966   2.129   0.854   5.936
10023SOL     OW30967   0.514   3.062   0.226
10023SOL    HW130968   0.492   2.993   0.296
10023SOL    HW230969   0.554   3.142   0.271
10024SOL     OW30970   0.755   3.591   2.810
10024SOL    HW130971   0.768   3.496   2.782
10024SOL    HW230972   0.722   3.644   2.732
10025SOL     OW30973   1.292   1.766   0.939
10025SOL    HW130974   1.370   1.713   0.906
10025SOL    HW230975   1.211   1.741   0.887
10026SOL     OW30976   6.168   0.807   4.672
10026SOL    HW130977   6.246   0.832   4.730
10026SOL    HW230978   6.195   0.817   4.576
10027SOL     OW30979   5.908   2.675   5.832
10027SOL    HW130980   5.932   2.703   5.925
10027SOL    HW230981   5.816   2.634   5.833
10028SOL     OW30982   1.671   1.781   1.831
10028SOL    HW130983   1.660   1.796   1.733
10028SOL    HW230984   1.611   1.843   1.881
10029SOL     OW30985   3.815   1.210   4.095
10029SOL    HW130986   3.717   1.195   4.108
10029SOL    HW230987   3.856   1.236   4.182
10030SOL     OW30988   0.671   1.394   1.795
10030SOL    HW130989   0.623   1.482   1.786
10030SOL    HW230990   0.659   1.359   1.888
10031SOL     OW30991   0.195   5.278   2.935
10031SOL    HW130992   0.200   5.378   2.930
10031SOL    HW230993   0.137   5.251   3.012
10032SOL     OW30994   3.768   2.095   5.310
10032SOL    HW130995   3.774   2.054   5.401
10032SOL    HW230996   3.689   2.057   5.261
10033SOL     OW30997   5.983   2.773   3.947
10033SOL    HW130998   6.039   2.760   4.029
10033SOL    HW230999   5.907   2.834   3.967
10034SOL     OW31000   4.073   6.346   6.327
10034SOL    HW131001   4.010   6.380   6.257
10034SOL    HW231002   4.109   6.423   6.379
10035SOL     OW31003   0.578   6.360   4.289
10035SOL    HW131004   0.501   6.356   4.225
10035SOL    HW231005   0.663   6.369   4.238
10036SOL     OW31006   6.162   0.043   0.323
10036SOL    HW131007   6.078   0.092   0.298
10036SOL    HW231008   6.154   6.966   0.294
10037SOL     OW31009   6.989   6.891   1.446
10037SOL    HW131010   6.974   6.859   1.540
10037SOL    HW231011   7.002   6.812   1.386
10038SOL     OW31012   5.913   6.800   1.513
10038SOL    HW131013   5.974   6.760   1.581
10038SOL    HW231014   5.894   6.734   1.441
10039SOL     OW31015   3.935   0.940   2.914
10039SOL    HW131016   3.964   0.931   3.009
10039SOL    HW231017   4.002   0.995   2.864
10040SOL     OW31018   1.039   1.499   0.381
10040SOL    HW131019   1.029   1.587   0.334
10040SOL    HW231020   1.007   1.508   0.475
10041SOL     OW31021   0.655   6.799   0.029
10041SOL    HW131022   0.668   6.741   0.110
10041SOL    HW231023   0.559   6.824   0.021
10042SOL     OW31024   6.542   1.915   3.819
10042SOL    HW131025   6.642   1.914   3.830
10042SOL    HW231026   6.499   1.918   3.909
10043SOL     OW31027   2.510   3.227   5.360
10043SOL    HW131028   2.466   3.178   5.435
10043SOL    HW231029   2.527   3.164   5.285
10044SOL     OW31030   3.977   1.029   6.445
10044SOL    HW131031   3.947   1.115   6.404
10044SOL    HW231032   3.917   1.007   6.522
10045SOL     OW31033   2.441   0.388   1.391
10045SOL    HW131034   2.497   0.307   1.373
10045SOL    HW231035   2.379   0.369   1.468
10046SOL     OW31036   0.698   6.385   6.627
10046SOL    HW131037   0.778   6.444   6.632
10046SOL    HW231038   0.641   6.398   6.708
10047SOL     OW31039   1.604   4.117   1.171
10047SOL    HW131040   1.634   4.024   1.149
10047SOL    HW231041   1.673   4.161   1.229
10048SOL     OW31042   6.506   3.535   1.002
10048SOL    HW131043   6.443   3.482   1.058
10048SOL    HW231044   6.478   3.530   0.906
10049SOL     OW31045   6.803   2.038   4.613
10049SOL    HW131046   6.818   2.007   4.520
10049SOL    HW231047   6.756   1.967   4.665
10050SOL     OW31048   0.227   1.963   5.971
10050SOL    HW131049   0.216   1.933   5.876
10050SOL    HW231050   0.305   2.025   5.977
10051SOL     OW31051   1.582   0.718   2.743
10051SOL    HW131052   1.512   0.682   2.804
10051SOL    HW231053   1.652   0.648   2.727
10052SOL     OW31054   0.876   0.212   4.644
10052SOL    HW131055   0.947   0.150   4.611
10052SOL    HW231056   0.861   0.285   4.577
10053SOL     OW31057   5.926   5.253   2.156
10053SOL    HW131058   5.845   5.279   2.209
10053SOL    HW231059   6.007   5.258   2.214
10054SOL     OW31060   4.966   4.404   3.260
10054SOL    HW131061   4.920   4.325   3.220
10054SOL    HW231062   4.980   4.389   3.358
10055SOL     OW31063   1.894   1.725   7.005
10055SOL    HW131064   1.924   1.678   6.922
10055SOL    HW231065   1.933   1.817   7.007
10056SOL     OW31066   5.170   2.494   4.786
10056SOL    HW131067   5.105   2.476   4.713
10056SOL    HW231068   5.151   2.583   4.827
10057SOL     OW31069   5.619   4.410   4.546
10057SOL    HW131070   5.630   4.345   4.622
10057SOL    HW231071   5.708   4.445   4.519
10058SOL     OW31072   6.129   4.125   4.196
10058SOL    HW131073   6.106   4.136   4.293
10058SOL    HW231074   6.159   4.031   4.180
10059SOL     OW31075   5.532   5.951   5.912
10059SOL    HW131076   5.487   5.963   6.000
10059SOL    HW231077   5.611   6.011   5.905
10060SOL     OW31078   3.012   1.677   1.669
10060SOL    HW131079   2.919   1.714   1.660
10060SOL    HW231080   3.070   1.714   1.596
10061SOL     OW31081   4.168   0.116   3.326
10061SOL    HW131082   4.230   0.190   3.353
10061SOL    HW231083   4.173   0.103   3.227
10062SOL     OW31084   6.610   0.084   4.446
10062SOL    HW131085   6.517   0.097   4.413
10062SOL    HW231086   6.609   0.067   4.544
10063SOL     OW31087   4.246   2.255   3.093
10063SOL    HW131088   4.304   2.335   3.108
10063SOL    HW231089   4.278   2.206   3.012
10064SOL     OW31090   2.279   6.178   2.475
10064SOL    HW131091   2.278   6.266   2.426
10064SOL    HW231092   2.217   6.182   2.553
10065SOL     OW31093   6.456   1.861   1.525
10065SOL    HW131094   6.541   1.909   1.546
10065SOL    HW231095   6.422   1.891   1.436
10066SOL     OW31096   6.036   4.331   3.374
10066SOL    HW131097   6.040   4.239   3.336
10066SOL    HW231098   6.111   4.344   3.438
10067SOL     OW31099   5.451   3.456   5.250
10067SOL    HW131100   5.459   3.357   5.242
10067SOL    HW231101   5.419   3.493   5.163
10068SOL     OW31102   2.113   3.826   2.875
10068SOL    HW131103   2.128   3.892   2.801
10068SOL    HW231104   2.174   3.748   2.863
10069SOL     OW31105   2.866   5.428   1.432
10069SOL    HW131106   2.868   5.496   1.506
10069SOL    HW231107   2.824   5.344   1.465
10070SOL     OW31108   5.027   0.439   6.896
10070SOL    HW131109   4.995   0.475   6.808
10070SOL    HW231110   4.964   0.468   6.968
10071SOL     OW31111   5.260   1.268   4.847
10071SOL    HW131112   5.279   1.362   4.819
10071SOL    HW231113   5.275   1.206   4.769
10072SOL     OW31114   5.646   3.056   2.246
10072SOL    HW131115   5.631   2.961   2.276
10072SOL    HW231116   5.576   3.115   2.287
10073SOL     OW31117   5.575   5.537   5.287
10073SOL    HW131118   5.659   5.493   5.255
10073SOL    HW231119   5.510   5.468   5.317
10074SOL     OW31120   2.235   4.345   1.124
10074SOL    HW131121   2.208   4.431   1.082
10074SOL    HW231122   2.156   4.304   1.170
10075SOL     OW31123   0.743   3.557   1.386
10075SOL    HW131124   0.752   3.483   1.453
10075SOL    HW231125   0.675   3.623   1.418
10076SOL     OW31126   6.187   4.751   3.811
10076SOL    HW131127   6.213   4.834   3.762
10076SOL    HW231128   6.169   4.772   3.907
10077SOL     OW31129   4.162   3.577   0.063
10077SOL    HW131130   4.159   3.589   6.982
10077SOL    HW231131   4.156   3.667   0.107
10078SOL     OW31132   5.998   6.403   3.745
10078SOL    HW131133   5.919   6.379   3.801
10078SOL    HW231134   5.970   6.470   3.676
10079SOL     OW31135   6.240   4.906   2.975
10079SOL    HW131136   6.222   4.935   3.069
10079SOL    HW231137   6.334   4.872   2.969
10080SOL     OW31138   5.179   2.742   4.944
10080SOL    HW131139   5.178   2.682   5.024
10080SOL    HW231140   5.158   2.835   4.971
10081SOL     OW31141   1.620   5.191   0.712
10081SOL    HW131142   1.546   5.143   0.760
10081SOL    HW231143   1.608   5.290   0.723
10082SOL     OW31144   6.938   4.646   1.955
10082SOL    HW131145   6.951   4.635   1.857
10082SOL    HW231146   6.872   4.578   1.987
10083SOL     OW31147   3.375   5.987   3.047
10083SOL    HW131148   3.288   5.983   2.999
10083SOL    HW231149   3.401   5.896   3.077
10084SOL     OW31150   1.728   3.715   4.840
10084SOL    HW131151   1.732   3.633   4.897
10084SOL    HW231152   1.653   3.705   4.774
10085SOL     OW31153   3.431   6.660   1.972
10085SOL    HW131154   3.486   6.658   2.056
10085SOL    HW231155   3.491   6.651   1.893
10086SOL     OW31156   2.544   0.672   2.949
10086SOL    HW131157   2.447   0.663   2.970
10086SOL    HW231158   2.597   0.669   3.033
10087SOL     OW31159   1.402   5.626   6.607
10087SOL    HW131160   1.405   5.573   6.523
10087SOL    HW231161   1.317   5.679   6.610
10088SOL     OW31162   5.481   1.731   0.764
10088SOL    HW131163   5.445   1.761   0.853
10088SOL    HW231164   5.494   1.631   0.766
10089SOL     OW31165   3.679   6.751   3.231
10089SOL    HW131166   3.590   6.711   3.255
10089SOL    HW231167   3.694   6.742   3.133
10090SOL     OW31168   3.793   5.990   2.587
10090SOL    HW131169   3.838   6.024   2.670
10090SOL    HW231170   3.832   5.901   2.563
10091SOL     OW31171   4.685   6.285   3.171
10091SOL    HW131172   4.777   6.313   3.142
10091SOL    HW231173   4.617   6.342   3.126
10092SOL     OW31174   6.849   1.395   2.525
10092SOL    HW131175   6.826   1.448   2.444
10092SOL    HW231176   6.893   1.309   2.497
10093SOL     OW31177   4.617   4.221   6.324
10093SOL    HW131178   4.612   4.149   6.255
10093SOL    HW231179   4.538   4.282   6.314
10094SOL     OW31180   4.449   2.966   0.400
10094SOL    HW131181   4.513   2.929   0.333
10094SOL    HW231182   4.465   3.064   0.411
10095SOL     OW31183   4.338   2.682   5.347
10095SOL    HW131184   4.263   2.642   5.296
10095SOL    HW231185   4.425   2.647   5.312
10096SOL     OW31186   6.481   4.734   1.617
10096SOL    HW131187   6.414   4.660   1.629
10096SOL    HW231188   6.464   4.780   1.530
10097SOL     OW31189   0.579   0.753   1.321
10097SOL    HW131190   0.525   0.822   1.369
10097SOL    HW231191   0.598   0.785   1.228
10098SOL     OW31192   4.022   4.790   0.563
10098SOL    HW131193   3.939   4.795   0.619
10098SOL    HW231194   4.098   4.829   0.614
10099SOL     OW31195   6.936   6.263   3.513
10099SOL    HW131196   6.971   6.236   3.423
10099SOL    HW231197   6.945   6.186   3.576
10100SOL     OW31198   5.397   5.678   4.085
10100SOL    HW131199   5.417   5.581   4.068
10100SOL    HW231200   5.449   5.734   4.020
10101SOL     OW31201   6.720   1.960   6.130
10101SOL    HW131202   6.717   1.954   6.030
10101SOL    HW231203   6.806   1.922   6.163
10102SOL     OW31204   0.170   5.029   3.198
10102SOL    HW131205   0.265   5.054   3.219
10102SOL    HW231206   0.164   4.999   3.102
10103SOL     OW31207   0.346   0.741   6.828
10103SOL    HW131208   0.278   0.699   6.768
10103SOL    HW231209   0.436   0.702   6.808
10104SOL     OW31210   2.935   1.619   4.292
10104SOL    HW131211   2.942   1.718   4.308
10104SOL    HW231212   2.930   1.572   4.380
10105SOL     OW31213   3.468   1.717   4.338
10105SOL    HW131214   3.527   1.793   4.312
10105SOL    HW231215   3.382   1.753   4.375
10106SOL     OW31216   6.777   3.772   1.102
10106SOL    HW131217   6.749   3.865   1.077
10106SOL    HW231218   6.710   3.732   1.164
10107SOL     OW31219   4.555   5.538   5.489
10107SOL    HW131220   4.486   5.607   5.467
10107SOL    HW231221   4.642   5.584   5.509
10108SOL     OW31222   3.302   1.640   4.822
10108SOL    HW131223   3.311   1.576   4.898
10108SOL    HW231224   3.269   1.728   4.856
10109SOL     OW31225   1.402   3.117   0.451
10109SOL    HW131226   1.391   3.170   0.535
10109SOL    HW231227   1.431   3.024   0.474
10110SOL     OW31228   6.465   5.940   1.814
10110SOL    HW131229   6.401   5.973   1.745
10110SOL    HW231230   6.556   5.978   1.797
10111SOL     OW31231   6.222   2.410   1.677
10111SOL    HW131232   6.264   2.329   1.637
10111SOL    HW231233   6.124   2.410   1.658
10112SOL     OW31234   0.557   2.989   3.740
10112SOL    HW131235   0.632   3.049   3.767
10112SOL    HW231236   0.480   3.002   3.802
10113SOL     OW31237   6.954   6.862   6.167
10113SOL    HW131238   6.908   6.834   6.252
10113SOL    HW231239   6.903   6.936   6.125
10114SOL     OW31240   6.459   4.398   1.260
10114SOL    HW131241   6.470   4.363   1.167
10114SOL    HW231242   6.454   4.498   1.258
10115SOL     OW31243   2.648   1.894   6.464
10115SOL    HW131244   2.735   1.943   6.460
10115SOL    HW231245   2.656   1.809   6.412
10116SOL     OW31246   1.045   6.824   6.338
10116SOL    HW131247   0.978   6.751   6.332
10116SOL    HW231248   1.110   6.816   6.263
10117SOL     OW31249   1.015   4.450   1.077
10117SOL    HW131250   0.985   4.545   1.088
10117SOL    HW231251   1.097   4.447   1.019
10118SOL     OW31252   4.065   5.301   3.401
10118SOL    HW131253   4.137   5.335   3.340
10118SOL    HW231254   3.983   5.356   3.389
10119SOL     OW31255   5.760   5.839   6.800
10119SOL    HW131256   5.685   5.777   6.819
10119SOL    HW231257   5.780   5.894   6.881
10120SOL     OW31258   2.507   2.498   2.705
10120SOL    HW131259   2.480   2.402   2.702
10120SOL    HW231260   2.544   2.525   2.616
10121SOL     OW31261   6.554   5.683   1.892
10121SOL    HW131262   6.503   5.761   1.855
10121SOL    HW231263   6.539   5.676   1.990
10122SOL     OW31264   2.007   6.836   3.389
10122SOL    HW131265   1.929   6.896   3.400
10122SOL    HW231266   2.037   6.838   3.294
10123SOL     OW31267   6.096   6.739   6.598
10123SOL    HW131268   6.107   6.653   6.547
10123SOL    HW231269   6.183   6.762   6.643
10124SOL     OW31270   0.086   4.662   3.162
10124SOL    HW131271   0.035   4.718   3.228
10124SOL    HW231272   0.162   4.617   3.208
10125SOL     OW31273   2.106   2.593   4.213
10125SOL    HW131274   2.043   2.549   4.277
10125SOL    HW231275   2.054   2.649   4.148
10126SOL     OW31276   0.324   5.961   4.825
10126SOL    HW131277   0.244   5.978   4.766
10126SOL    HW231278   0.384   6.041   4.824
10127SOL     OW31279   2.955   0.523   4.868
10127SOL    HW131280   2.878   0.583   4.890
10127SOL    HW231281   2.934   0.471   4.785
10128SOL     OW31282   2.843   0.969   0.616
10128SOL    HW131283   2.917   0.947   0.680
10128SOL    HW231284   2.882   0.981   0.524
10129SOL     OW31285   6.747   2.009   5.830
10129SOL    HW131286   6.836   1.996   5.786
10129SOL    HW231287   6.677   2.025   5.760
10130SOL     OW31288   1.021   2.791   3.372
10130SOL    HW131289   0.996   2.770   3.278
10130SOL    HW231290   1.009   2.709   3.429
10131SOL     OW31291   2.738   0.681   4.931
10131SOL    HW131292   2.782   0.765   4.961
10131SOL    HW231293   2.658   0.703   4.876
10132SOL     OW31294   5.793   0.671   2.075
10132SOL    HW131295   5.731   0.686   2.152
10132SOL    HW231296   5.789   0.575   2.048
10133SOL     OW31297   4.921   5.481   1.317
10133SOL    HW131298   4.880   5.572   1.312
10133SOL    HW231299   5.006   5.484   1.370
10134SOL     OW31300   6.297   1.378   2.651
10134SOL    HW131301   6.298   1.337   2.742
10134SOL    HW231302   6.271   1.474   2.658
10135SOL     OW31303   6.590   6.822   3.291
10135SOL    HW131304   6.596   6.741   3.233
10135SOL    HW231305   6.583   6.903   3.233
10136SOL     OW31306   5.370   0.467   3.263
10136SOL    HW131307   5.450   0.486   3.320
10136SOL    HW231308   5.383   0.507   3.173
10137SOL     OW31309   5.998   5.892   2.536
10137SOL    HW131310   5.988   5.839   2.452
10137SOL    HW231311   6.056   5.972   2.518
10138SOL     OW31312   0.251   1.744   1.637
10138SOL    HW131313   0.263   1.668   1.701
10138SOL    HW231314   0.225   1.708   1.548
10139SOL     OW31315   4.133   2.597   0.933
10139SOL    HW131316   4.211   2.604   0.995
10139SOL    HW231317   4.073   2.676   0.946
10140SOL     OW31318   5.921   6.070   3.776
10140SOL    HW131319   5.823   6.061   3.794
10140SOL    HW231320   5.936   6.079   3.677
10141SOL     OW31321   1.243   2.031   5.322
10141SOL    HW131322   1.296   2.115   5.334
10141SOL    HW231323   1.146   2.054   5.311
10142SOL     OW31324   4.097   6.354   1.928
10142SOL    HW131325   4.108   6.397   1.839
10142SOL    HW231326   4.172   6.290   1.945
10143SOL     OW31327   0.531   3.004   6.809
10143SOL    HW131328   0.580   3.047   6.885
10143SOL    HW231329   0.536   3.063   6.729
10144SOL     OW31330   4.823   0.383   2.782
10144SOL    HW131331   4.859   0.348   2.695
10144SOL    HW231332   4.891   0.371   2.854
10145SOL     OW31333   6.428   0.763   5.200
10145SOL    HW131334   6.500   0.709   5.244
10145SOL    HW231335   6.399   0.837   5.261
10146SOL     OW31336   1.888   1.526   5.467
10146SOL    HW131337   1.932   1.533   5.377
10146SOL    HW231338   1.792   1.552   5.459
10147SOL     OW31339   4.278   4.543   0.201
10147SOL    HW131340   4.270   4.637   0.234
10147SOL    HW231341   4.283   4.480   0.279
10148SOL     OW31342   6.544   5.952   6.417
10148SOL    HW131343   6.523   5.936   6.320
10148SOL    HW231344   6.459   5.948   6.469
10149SOL     OW31345   3.693   2.849   4.268
10149SOL    HW131346   3.746   2.792   4.330
10149SOL    HW231347   3.596   2.842   4.290
10150SOL     OW31348   6.631   3.806   6.383
10150SOL    HW131349   6.694   3.879   6.408
10150SOL    HW231350   6.626   3.740   6.458
10151SOL     OW31351   0.110   0.282   0.028
10151SOL    HW131352   0.190   0.259   6.991
10151SOL    HW231353   0.113   0.379   0.052
10152SOL     OW31354   3.580   6.863   4.039
10152SOL    HW131355   3.650   6.845   4.108
10152SOL    HW231356   3.525   6.941   4.068
10153SOL     OW31357   4.414   4.586   0.743
10153SOL    HW131358   4.343   4.618   0.806
10153SOL    HW231359   4.441   4.493   0.767
10154SOL     OW31360   4.905   5.051   6.327
10154SOL    HW131361   4.948   4.981   6.385
10154SOL    HW231362   4.837   5.007   6.268
10155SOL     OW31363   4.733   2.598   5.018
10155SOL    HW131364   4.648   2.599   4.966
10155SOL    HW231365   4.768   2.691   5.025
10156SOL     OW31366   2.901   2.000   6.507
10156SOL    HW131367   2.983   2.052   6.482
10156SOL    HW231368   2.926   1.925   6.569
10157SOL     OW31369   0.437   5.879   2.446
10157SOL    HW131370   0.388   5.833   2.372
10157SOL    HW231371   0.531   5.846   2.451
10158SOL     OW31372   0.304   4.514   6.049
10158SOL    HW131373   0.232   4.582   6.037
10158SOL    HW231374   0.316   4.462   5.964
10159SOL     OW31375   3.992   3.007   1.753
10159SOL    HW131376   4.066   2.941   1.758
10159SOL    HW231377   3.956   3.024   1.845
10160SOL     OW31378   6.881   4.698   2.636
10160SOL    HW131379   6.813   4.727   2.569
10160SOL    HW231380   6.837   4.645   2.708
10161SOL     OW31381   6.726   2.475   0.271
10161SOL    HW131382   6.801   2.409   0.262
10161SOL    HW231383   6.643   2.437   0.229
10162SOL     OW31384   1.896   2.173   2.138
10162SOL    HW131385   1.962   2.157   2.211
10162SOL    HW231386   1.887   2.091   2.082
10163SOL     OW31387   3.826   5.407   4.582
10163SOL    HW131388   3.747   5.409   4.521
10163SOL    HW231389   3.816   5.331   4.647
10164SOL     OW31390   0.257   1.873   3.430
10164SOL    HW131391   0.292   1.804   3.493
10164SOL    HW231392   0.162   1.852   3.407
10165SOL     OW31393   2.103   3.082   3.894
10165SOL    HW131394   2.102   2.999   3.838
10165SOL    HW231395   2.030   3.143   3.864
10166SOL     OW31396   3.435   6.262   3.723
10166SOL    HW131397   3.443   6.165   3.702
10166SOL    HW231398   3.339   6.289   3.721
10167SOL     OW31399   4.081   1.652   0.280
10167SOL    HW131400   4.077   1.723   0.351
10167SOL    HW231401   4.073   1.562   0.323
10168SOL     OW31402   0.172   1.002   6.873
10168SOL    HW131403   0.214   0.917   6.843
10168SOL    HW231404   0.085   1.015   6.825
10169SOL     OW31405   4.738   4.900   2.736
10169SOL    HW131406   4.668   4.838   2.771
10169SOL    HW231407   4.714   4.927   2.642
10170SOL     OW31408   4.386   0.009   6.491
10170SOL    HW131409   4.316   6.968   6.531
10170SOL    HW231410   4.368   0.104   6.518
10171SOL     OW31411   1.391   4.376   3.108
10171SOL    HW131412   1.354   4.426   3.186
10171SOL    HW231413   1.489   4.358   3.123
10172SOL     OW31414   0.232   0.512   3.484
10172SOL    HW131415   0.137   0.486   3.471
10172SOL    HW231416   0.248   0.536   3.580
10173SOL     OW31417   4.373   2.314   4.222
10173SOL    HW131418   4.375   2.405   4.264
10173SOL    HW231419   4.381   2.245   4.293
10174SOL     OW31420   4.295   5.617   1.056
10174SOL    HW131421   4.337   5.662   1.135
10174SOL    HW231422   4.252   5.685   0.997
10175SOL     OW31423   6.997   6.757   4.460
10175SOL    HW131424   0.012   6.839   4.507
10175SOL    HW231425   0.054   6.692   4.449
10176SOL     OW31426   0.236   1.711   4.809
10176SOL    HW131427   0.259   1.765   4.727
10176SOL    HW231428   0.152   1.747   4.850
10177SOL     OW31429   3.028   0.518   5.243
10177SOL    HW131430   2.969   0.549   5.318
10177SOL    HW231431   3.018   0.419   5.232
10178SOL     OW31432   6.140   1.506   1.751
10178SOL    HW131433   6.222   1.556   1.721
10178SOL    HW231434   6.162   1.409   1.762
10179SOL     OW31435   6.792   5.728   0.988
10179SOL    HW131436   6.850   5.681   0.922
10179SOL    HW231437   6.807   5.690   1.079
10180SOL     OW31438   1.945   0.291   6.139
10180SOL    HW131439   1.909   0.378   6.171
10180SOL    HW231440   1.881   0.217   6.160
10181SOL     OW31441   0.463   3.980   2.387
10181SOL    HW131442   0.493   3.891   2.420
10181SOL    HW231443   0.525   4.051   2.421
10182SOL     OW31444   2.429   0.141   6.623
10182SOL    HW131445   2.352   0.103   6.675
10182SOL    HW231446   2.396   0.213   6.563
10183SOL     OW31447   3.642   6.022   6.747
10183SOL    HW131448   3.692   5.965   6.812
10183SOL    HW231449   3.554   6.049   6.787
10184SOL     OW31450   4.910   3.132   4.120
10184SOL    HW131451   5.008   3.150   4.120
10184SOL    HW231452   4.876   3.133   4.026
10185SOL     OW31453   2.805   4.709   1.652
10185SOL    HW131454   2.799   4.649   1.732
10185SOL    HW231455   2.856   4.662   1.580
10186SOL     OW31456   3.342   3.124   1.745
10186SOL    HW131457   3.357   3.207   1.799
10186SOL    HW231458   3.338   3.148   1.648
10187SOL     OW31459   1.188   3.469   4.952
10187SOL    HW131460   1.254   3.508   5.017
10187SOL    HW231461   1.116   3.535   4.934
10188SOL     OW31462   2.561   6.506   6.818
10188SOL    HW131463   2.606   6.449   6.888
10188SOL    HW231464   2.469   6.470   6.801
10189SOL     OW31465   2.004   1.840   5.281
10189SOL    HW131466   2.001   1.916   5.346
10189SOL    HW231467   1.918   1.789   5.285
10190SOL     OW31468   2.782   3.892   0.940
10190SOL    HW131469   2.726   3.964   0.982
10190SOL    HW231470   2.814   3.924   0.851
10191SOL     OW31471   6.371   0.341   6.884
10191SOL    HW131472   6.295   0.281   6.856
10191SOL    HW231473   6.344   0.391   6.967
10192SOL     OW31474   3.067   0.831   3.799
10192SOL    HW131475   3.068   0.824   3.898
10192SOL    HW231476   2.993   0.773   3.762
10193SOL     OW31477   3.985   3.832   3.864
10193SOL    HW131478   3.990   3.744   3.909
10193SOL    HW231479   4.035   3.828   3.777
10194SOL     OW31480   3.378   5.711   3.204
10194SOL    HW131481   3.288   5.730   3.242
10194SOL    HW231482   3.429   5.651   3.266
10195SOL     OW31483   5.575   6.931   2.608
10195SOL    HW131484   5.482   6.901   2.585
10195SOL    HW231485   5.602   7.005   2.546
10196SOL     OW31486   4.696   4.336   3.882
10196SOL    HW131487   4.775   4.394   3.901
10196SOL    HW231488   4.707   4.249   3.929
10197SOL     OW31489   6.026   1.666   2.387
10197SOL    HW131490   5.961   1.642   2.314
10197SOL    HW231491   6.008   1.609   2.467
10198SOL     OW31492   3.673   1.306   2.088
10198SOL    HW131493   3.706   1.289   1.995
10198SOL    HW231494   3.613   1.230   2.116
10199SOL     OW31495   1.661   2.052   6.970
10199SOL    HW131496   1.692   2.138   7.011
10199SOL    HW231497   1.712   2.036   6.885
10200SOL     OW31498   4.335   6.966   4.165
10200SOL    HW131499   4.374   6.878   4.136
10200SOL    HW231500   4.356   6.981   4.262
10201SOL     OW31501   0.517   5.177   2.870
10201SOL    HW131502   0.419   5.180   2.888
10201SOL    HW231503   0.533   5.158   2.773
10202SOL     OW31504   1.431   2.780   3.820
10202SOL    HW131505   1.466   2.861   3.866
10202SOL    HW231506   1.343   2.801   3.777
10203SOL     OW31507   6.375   2.443   1.368
10203SOL    HW131508   6.438   2.519   1.387
10203SOL    HW231509   6.282   2.478   1.360
10204SOL     OW31510   1.545   5.841   3.889
10204SOL    HW131511   1.517   5.905   3.817
10204SOL    HW231512   1.515   5.749   3.865
10205SOL     OW31513   3.924   6.849   1.487
10205SOL    HW131514   3.889   6.940   1.506
10205SOL    HW231515   3.847   6.785   1.478
10206SOL     OW31516   6.285   5.841   6.792
10206SOL    HW131517   6.302   5.748   6.761
10206SOL    HW231518   6.218   5.840   6.867
10207SOL     OW31519   3.656   1.580   2.102
10207SOL    HW131520   3.658   1.481   2.092
10207SOL    HW231521   3.664   1.622   2.011
10208SOL     OW31522   0.945   2.165   6.041
10208SOL    HW131523   1.009   2.242   6.045
10208SOL    HW231524   0.851   2.199   6.043
10209SOL     OW31525   4.046   6.093   0.515
10209SOL    HW131526   4.010   6.178   0.554
10209SOL    HW231527   4.146   6.092   0.526
10210SOL     OW31528   4.310   6.360   6.515
10210SOL    HW131529   4.240   6.353   6.586
10210SOL    HW231530   4.377   6.430   6.541
10211SOL     OW31531   4.056   4.905   4.460
10211SOL    HW131532   4.089   4.983   4.513
10211SOL    HW231533   4.104   4.822   4.490
10212SOL     OW31534   6.784   5.869   5.625
10212SOL    HW131535   6.851   5.810   5.581
10212SOL    HW231536   6.702   5.875   5.567
10213SOL     OW31537   3.320   0.010   4.807
10213SOL    HW131538   3.418   0.031   4.814
10213SOL    HW231539   3.269   0.066   4.873
10214SOL     OW31540   6.695   0.091   0.035
10214SOL    HW131541   6.602   0.055   0.044
10214SOL    HW231542   6.698   0.185   0.066
10215SOL     OW31543   4.945   2.513   0.328
10215SOL    HW131544   4.879   2.509   0.252
10215SOL    HW231545   4.899   2.485   0.413
10216SOL     OW31546   5.102   0.433   2.851
10216SOL    HW131547   5.112   0.475   2.941
10216SOL    HW231548   5.071   0.502   2.785
10217SOL     OW31549   2.529   1.770   6.062
10217SOL    HW131550   2.627   1.756   6.075
10217SOL    HW231551   2.513   1.812   5.972
10218SOL     OW31552   3.699   0.674   5.930
10218SOL    HW131553   3.789   0.632   5.920
10218SOL    HW231554   3.672   0.672   6.026
10219SOL     OW31555   6.957   5.372   0.991
10219SOL    HW131556   6.916   5.285   0.964
10219SOL    HW231557   6.909   5.446   0.944
10220SOL     OW31558   4.728   2.765   6.356
10220SOL    HW131559   4.712   2.863   6.366
10220SOL    HW231560   4.665   2.714   6.415
10221SOL     OW31561   1.875   0.089   5.024
10221SOL    HW131562   1.909   0.006   4.981
10221SOL    HW231563   1.775   0.084   5.034
10222SOL     OW31564   2.713   5.020   5.159
10222SOL    HW131565   2.760   5.087   5.215
10222SOL    HW231566   2.649   4.968   5.215
10223SOL     OW31567   2.494   5.958   5.887
10223SOL    HW131568   2.400   5.984   5.862
10223SOL    HW231569   2.499   5.858   5.897
10224SOL     OW31570   3.977   6.188   5.461
10224SOL    HW131571   4.004   6.274   5.505
10224SOL    HW231572   3.916   6.207   5.384
10225SOL     OW31573   4.660   0.878   5.183
10225SOL    HW131574   4.741   0.896   5.239
10225SOL    HW231575   4.682   0.892   5.086
10226SOL     OW31576   6.719   2.142   6.329
10226SOL    HW131577   6.718   2.091   6.243
10226SOL    HW231578   6.773   2.225   6.317
10227SOL     OW31579   4.363   4.835   5.229
10227SOL    HW131580   4.350   4.926   5.191
10227SOL    HW231581   4.366   4.841   5.329
10228SOL     OW31582   0.911   2.701   1.520
10228SOL    HW131583   0.993   2.644   1.519
10228SOL    HW231584   0.913   2.764   1.442
10229SOL     OW31585   2.894   0.619   1.953
10229SOL    HW131586   2.852   0.644   1.866
10229SOL    HW231587   2.855   0.673   2.027
10230SOL     OW31588   5.250   0.058   3.287
10230SOL    HW131589   5.212   6.995   3.242
10230SOL    HW231590   5.237   0.050   3.385
10231SOL     OW31591   5.002   0.221   4.932
10231SOL    HW131592   5.073   0.221   4.862
10231SOL    HW231593   5.008   0.136   4.985
10232SOL     OW31594   3.989   2.116   2.799
10232SOL    HW131595   4.051   2.192   2.816
10232SOL    HW231596   4.012   2.072   2.712
10233SOL     OW31597   5.276   6.807   5.164
10233SOL    HW131598   5.223   6.732   5.124
10233SOL    HW231599   5.275   6.799   5.263
10234SOL     OW31600   4.199   4.415   1.170
10234SOL    HW131601   4.293   4.394   1.145
10234SOL    HW231602   4.197   4.455   1.261
10235SOL     OW31603   5.002   6.856   6.660
10235SOL    HW131604   4.914   6.846   6.707
10235SOL    HW231605   4.989   6.842   6.562
10236SOL     OW31606   0.913   5.148   1.345
10236SOL    HW131607   0.818   5.127   1.372
10236SOL    HW231608   0.935   5.242   1.372
10237SOL     OW31609   5.612   2.155   2.398
10237SOL    HW131610   5.599   2.233   2.337
10237SOL    HW231611   5.523   2.122   2.430
10238SOL     OW31612   5.000   4.775   5.900
10238SOL    HW131613   5.093   4.740   5.910
10238SOL    HW231614   4.935   4.708   5.935
10239SOL     OW31615   5.576   4.146   3.872
10239SOL    HW131616   5.663   4.167   3.917
10239SOL    HW231617   5.541   4.227   3.826
10240SOL     OW31618   5.069   3.430   2.250
10240SOL    HW131619   4.989   3.490   2.258
10240SOL    HW231620   5.091   3.417   2.153
10241SOL     OW31621   0.881   2.610   2.350
10241SOL    HW131622   0.907   2.524   2.308
10241SOL    HW231623   0.963   2.658   2.382
10242SOL     OW31624   0.930   5.574   6.552
10242SOL    HW131625   0.899   5.615   6.638
10242SOL    HW231626   0.990   5.637   6.503
10243SOL     OW31627   6.836   5.763   3.771
10243SOL    HW131628   6.823   5.675   3.817
10243SOL    HW231629   6.769   5.773   3.698
10244SOL     OW31630   2.622   5.969   6.958
10244SOL    HW131631   2.607   5.952   0.037
10244SOL    HW231632   2.720   5.961   6.938
10245SOL     OW31633   4.097   3.821   0.959
10245SOL    HW131634   4.187   3.782   0.978
10245SOL    HW231635   4.052   3.843   1.046
10246SOL     OW31636   3.429   3.620   4.646
10246SOL    HW131637   3.422   3.683   4.724
10246SOL    HW231638   3.505   3.648   4.588
10247SOL     OW31639   1.083   5.353   6.628
10247SOL    HW131640   1.160   5.385   6.683
10247SOL    HW231641   1.016   5.426   6.619
10248SOL     OW31642   6.311   6.638   3.884
10248SOL    HW131643   6.339   6.729   3.855
10248SOL    HW231644   6.254   6.596   3.813
10249SOL     OW31645   4.228   1.498   5.766
10249SOL    HW131646   4.207   1.591   5.735
10249SOL    HW231647   4.245   1.499   5.865
10250SOL     OW31648   4.701   5.406   0.770
10250SOL    HW131649   4.610   5.407   0.812
10250SOL    HW231650   4.753   5.328   0.804
10251SOL     OW31651   3.914   4.594   1.235
10251SOL    HW131652   4.003   4.551   1.217
10251SOL    HW231653   3.912   4.684   1.193
10252SOL     OW31654   0.074   4.775   0.287
10252SOL    HW131655   7.011   4.717   0.280
10252SOL    HW231656   0.082   4.810   0.380
10253SOL     OW31657   5.234   4.236   0.263
10253SOL    HW131658   5.318   4.194   0.228
10253SOL    HW231659   5.258   4.317   0.317
10254SOL     OW31660   3.584   1.856   5.669
10254SOL    HW131661   3.544   1.916   5.600
10254SOL    HW231662   3.549   1.764   5.658
10255SOL     OW31663   2.950   4.779   4.085
10255SOL    HW131664   2.977   4.787   4.180
10255SOL    HW231665   2.894   4.697   4.073
10256SOL     OW31666   5.401   5.138   0.019
10256SOL    HW131667   5.487   5.128   0.069
10256SOL    HW231668   5.329   5.168   0.081
10257SOL     OW31669   1.809   4.449   4.611
10257SOL    HW131670   1.784   4.514   4.683
10257SOL    HW231671   1.744   4.458   4.535
10258SOL     OW31672   4.198   1.339   2.289
10258SOL    HW131673   4.122   1.278   2.269
10258SOL    HW231674   4.166   1.414   2.347
10259SOL     OW31675   5.584   3.250   3.677
10259SOL    HW131676   5.559   3.283   3.586
10259SOL    HW231677   5.539   3.306   3.747
10260SOL     OW31678   6.781   5.797   2.341
10260SOL    HW131679   6.851   5.746   2.392
10260SOL    HW231680   6.766   5.885   2.385
10261SOL     OW31681   1.826   6.987   2.159
10261SOL    HW131682   1.862   6.894   2.154
10261SOL    HW231683   1.732   6.985   2.194
10262SOL     OW31684   6.818   6.178   3.884
10262SOL    HW131685   6.910   6.185   3.923
10262SOL    HW231686   6.792   6.266   3.843
10263SOL     OW31687   6.672   4.036   4.980
10263SOL    HW131688   6.748   4.074   5.033
10263SOL    HW231689   6.589   4.088   5.000
10264SOL     OW31690   0.404   0.740   0.980
10264SOL    HW131691   0.343   0.712   0.906
10264SOL    HW231692   0.352   0.747   1.065
10265SOL     OW31693   5.255   2.106   4.809
10265SOL    HW131694   5.184   2.092   4.878
10265SOL    HW231695   5.333   2.047   4.830
10266SOL     OW31696   3.313   3.721   0.001
10266SOL    HW131697   3.294   3.753   6.926
10266SOL    HW231698   3.266   3.779   0.067
10267SOL     OW31699   0.024   0.872   6.158
10267SOL    HW131700   0.118   0.839   6.153
10267SOL    HW231701   7.016   0.884   6.254
10268SOL     OW31702   6.742   4.838   0.338
10268SOL    HW131703   6.720   4.741   0.344
10268SOL    HW231704   6.806   4.862   0.411
10269SOL     OW31705   4.251   1.753   5.658
10269SOL    HW131706   4.296   1.773   5.744
10269SOL    HW231707   4.227   1.838   5.612
10270SOL     OW31708   3.470   6.040   3.314
10270SOL    HW131709   3.427   6.106   3.376
10270SOL    HW231710   3.406   5.966   3.293
10271SOL     OW31711   1.388   4.763   1.168
10271SOL    HW131712   1.315   4.815   1.124
10271SOL    HW231713   1.406   4.679   1.116
10272SOL     OW31714   1.395   3.618   4.462
10272SOL    HW131715   1.363   3.549   4.399
10272SOL    HW231716   1.427   3.698   4.411
10273SOL     OW31717   4.552   0.113   4.041
10273SOL    HW131718   4.471   0.063   4.072
10273SOL    HW231719   4.599   0.154   4.120
10274SOL     OW31720   1.624   4.476   7.002
10274SOL    HW131721   1.536   4.500   6.962
10274SOL    HW231722   1.695   4.476   6.931
10275SOL     OW31723   0.109   5.818   1.718
10275SOL    HW131724   0.143   5.724   1.726
10275SOL    HW231725   0.015   5.816   1.684
10276SOL     OW31726   2.768   6.904   0.638
10276SOL    HW131727   2.706   6.855   0.576
10276SOL    HW231728   2.852   6.927   0.589
10277SOL     OW31729   6.271   5.334   2.106
10277SOL    HW131730   6.220   5.411   2.142
10277SOL    HW231731   6.301   5.355   2.013
10278SOL     OW31732   6.379   1.172   4.927
10278SOL    HW131733   6.409   1.159   4.832
10278SOL    HW231734   6.424   1.253   4.966
10279SOL     OW31735   3.866   6.611   4.153
10279SOL    HW131736   3.822   6.546   4.215
10279SOL    HW231737   3.855   6.580   4.059
10280SOL     OW31738   2.906   2.502   6.802
10280SOL    HW131739   2.841   2.467   6.869
10280SOL    HW231740   2.974   2.431   6.780
10281SOL     OW31741   4.408   1.042   4.168
10281SOL    HW131742   4.361   1.003   4.247
10281SOL    HW231743   4.465   1.119   4.197
10282SOL     OW31744   1.424   3.192   4.178
10282SOL    HW131745   1.418   3.093   4.165
10282SOL    HW231746   1.428   3.237   4.089
10283SOL     OW31747   1.867   5.274   6.487
10283SOL    HW131748   1.851   5.189   6.538
10283SOL    HW231749   1.931   5.331   6.538
10284SOL     OW31750   5.598   2.756   0.387
10284SOL    HW131751   5.504   2.755   0.353
10284SOL    HW231752   5.625   2.851   0.406
10285SOL     OW31753   5.043   1.198   0.555
10285SOL    HW131754   4.957   1.249   0.555
10285SOL    HW231755   5.103   1.234   0.483
10286SOL     OW31756   3.131   6.748   3.816
10286SOL    HW131757   3.079   6.662   3.819
10286SOL    HW231758   3.099   6.809   3.889
10287SOL     OW31759   2.083   3.678   2.488
10287SOL    HW131760   2.056   3.603   2.548
10287SOL    HW231761   2.079   3.647   2.393
10288SOL     OW31762   4.772   0.088   4.540
10288SOL    HW131763   4.871   0.073   4.540
10288SOL    HW231764   4.753   0.186   4.531
10289SOL     OW31765   2.314   1.645   2.505
10289SOL    HW131766   2.404   1.600   2.502
10289SOL    HW231767   2.300   1.698   2.422
10290SOL     OW31768   2.894   3.427   2.994
10290SOL    HW131769   2.891   3.413   3.093
10290SOL    HW231770   2.907   3.338   2.949
10291SOL     OW31771   4.049   0.337   3.526
10291SOL    HW131772   3.983   0.333   3.451
10291SOL    HW231773   4.142   0.329   3.490
10292SOL     OW31774   6.373   3.125   4.316
10292SOL    HW131775   6.459   3.074   4.308
10292SOL    HW231776   6.341   3.121   4.411
10293SOL     OW31777   1.728   4.888   3.288
10293SOL    HW131778   1.647   4.829   3.297
10293SOL    HW231779   1.810   4.835   3.310
10294SOL     OW31780   6.483   0.532   2.930
10294SOL    HW131781   6.444   0.453   2.883
10294SOL    HW231782   6.418   0.567   2.997
10295SOL     OW31783   1.633   4.291   3.213
10295SOL    HW131784   1.612   4.221   3.281
10295SOL    HW231785   1.656   4.376   3.261
10296SOL     OW31786   6.670   3.375   1.572
10296SOL    HW131787   6.666   3.471   1.544
10296SOL    HW231788   6.689   3.369   1.670
10297SOL     OW31789   3.767   4.366   5.756
10297SOL    HW131790   3.775   4.366   5.856
10297SOL    HW231791   3.691   4.425   5.728
10298SOL     OW31792   5.922   3.125   2.957
10298SOL    HW131793   5.849   3.165   2.901
10298SOL    HW231794   5.967   3.198   3.008
10299SOL     OW31795   4.346   4.937   2.396
10299SOL    HW131796   4.304   5.027   2.390
10299SOL    HW231797   4.364   4.902   2.304
10300SOL     OW31798   0.333   5.877   2.678
10300SOL    HW131799   0.359   5.887   2.582
10300SOL    HW231800   0.310   5.782   2.696
10301SOL     OW31801   4.495   1.146   1.905
10301SOL    HW131802   4.431   1.214   1.867
10301SOL    HW231803   4.484   1.142   2.004
10302SOL     OW31804   0.036   3.958   3.377
10302SOL    HW131805   0.086   3.917   3.301
10302SOL    HW231806   0.019   4.055   3.358
10303SOL     OW31807   4.778   3.617   0.982
10303SOL    HW131808   4.746   3.665   1.064
10303SOL    HW231809   4.871   3.584   0.997
10304SOL     OW31810   5.827   6.131   4.064
10304SOL    HW131811   5.887   6.062   4.023
10304SOL    HW231812   5.820   6.210   4.003
10305SOL     OW31813   1.368   5.224   1.222
10305SOL    HW131814   1.375   5.128   1.251
10305SOL    HW231815   1.460   5.263   1.216
10306SOL     OW31816   4.972   3.864   6.678
10306SOL    HW131817   5.044   3.911   6.729
10306SOL    HW231818   4.981   3.765   6.691
10307SOL     OW31819   2.958   2.444   6.074
10307SOL    HW131820   3.049   2.433   6.114
10307SOL    HW231821   2.896   2.484   6.143
10308SOL     OW31822   3.237   4.915   3.960
10308SOL    HW131823   3.191   4.891   3.875
10308SOL    HW231824   3.182   4.981   4.011
10309SOL     OW31825   0.148   6.603   4.122
10309SOL    HW131826   0.168   6.694   4.158
10309SOL    HW231827   0.129   6.610   4.024
10310SOL     OW31828   3.624   4.160   4.493
10310SOL    HW131829   3.646   4.257   4.505
10310SOL    HW231830   3.545   4.136   4.550
10311SOL     OW31831   1.737   0.234   0.668
10311SOL    HW131832   1.831   0.262   0.686
10311SOL    HW231833   1.737   0.148   0.616
10312SOL     OW31834   3.347   4.421   0.451
10312SOL    HW131835   3.424   4.408   0.514
10312SOL    HW231836   3.303   4.510   0.470
10313SOL     OW31837   6.537   5.616   3.335
10313SOL    HW131838   6.594   5.655   3.407
10313SOL    HW231839   6.496   5.530   3.368
10314SOL     OW31840   6.639   5.262   5.079
10314SOL    HW131841   6.710   5.196   5.104
10314SOL    HW231842   6.619   5.253   4.981
10315SOL     OW31843   4.300   5.510   5.236
10315SOL    HW131844   4.328   5.591   5.288
10315SOL    HW231845   4.309   5.429   5.294
10316SOL     OW31846   6.918   2.929   3.899
10316SOL    HW131847   6.982   2.897   3.969
10316SOL    HW231848   6.947   2.897   3.809
10317SOL     OW31849   6.127   3.986   6.180
10317SOL    HW131850   6.189   3.923   6.133
10317SOL    HW231851   6.069   3.934   6.243
10318SOL     OW31852   5.218   4.840   2.415
10318SOL    HW131853   5.131   4.883   2.390
10318SOL    HW231854   5.222   4.748   2.377
10319SOL     OW31855   6.220   6.653   3.552
10319SOL    HW131856   6.211   6.554   3.545
10319SOL    HW231857   6.138   6.697   3.515
10320SOL     OW31858   3.369   6.373   2.052
10320SOL    HW131859   3.459   6.329   2.052
10320SOL    HW231860   3.379   6.469   2.025
10321SOL     OW31861   4.752   6.516   5.368
10321SOL    HW131862   4.680   6.472   5.422
10321SOL    HW231863   4.830   6.453   5.359
10322SOL     OW31864   0.119   1.596   6.333
10322SOL    HW131865   0.186   1.655   6.287
10322SOL    HW231866   0.060   1.554   6.264
10323SOL     OW31867   0.174   2.193   5.179
10323SOL    HW131868   0.151   2.126   5.249
10323SOL    HW231869   0.263   2.170   5.138
10324SOL     OW31870   3.206   3.678   4.873
10324SOL    HW131871   3.235   3.696   4.967
10324SOL    HW231872   3.136   3.607   4.873
10325SOL     OW31873   0.675   3.203   3.853
10325SOL    HW131874   0.603   3.181   3.919
10325SOL    HW231875   0.682   3.303   3.845
10326SOL     OW31876   6.203   1.132   0.879
10326SOL    HW131877   6.285   1.129   0.821
10326SOL    HW231878   6.155   1.045   0.872
10327SOL     OW31879   6.212   2.063   3.775
10327SOL    HW131880   6.311   2.046   3.779
10327SOL    HW231881   6.189   2.104   3.687
10328SOL     OW31882   0.011   3.365   1.575
10328SOL    HW131883   0.066   3.435   1.528
10328SOL    HW231884   6.933   3.377   1.551
10329SOL     OW31885   2.408   5.732   2.576
10329SOL    HW131886   2.436   5.639   2.603
10329SOL    HW231887   2.426   5.795   2.651
10330SOL     OW31888   3.962   3.379   0.971
10330SOL    HW131889   4.025   3.345   1.041
10330SOL    HW231890   3.924   3.467   1.000
10331SOL     OW31891   4.938   2.238   4.352
10331SOL    HW131892   4.948   2.148   4.312
10331SOL    HW231893   5.010   2.253   4.420
10332SOL     OW31894   1.815   2.751   6.520
10332SOL    HW131895   1.735   2.807   6.497
10332SOL    HW231896   1.892   2.778   6.462
10333SOL     OW31897   6.947   4.427   5.170
10333SOL    HW131898   6.858   4.470   5.180
10333SOL    HW231899   6.992   4.461   5.088
10334SOL     OW31900   0.633   4.873   5.955
10334SOL    HW131901   0.705   4.924   6.002
10334SOL    HW231902   0.591   4.808   6.018
10335SOL     OW31903   2.761   5.188   2.708
10335SOL    HW131904   2.689   5.188   2.778
10335SOL    HW231905   2.838   5.242   2.740
10336SOL     OW31906   4.370   0.379   3.069
10336SOL    HW131907   4.333   0.311   3.005
10336SOL    HW231908   4.463   0.404   3.040
10337SOL     OW31909   1.346   3.248   5.763
10337SOL    HW131910   1.425   3.255   5.702
10337SOL    HW231911   1.377   3.262   5.858
10338SOL     OW31912   1.891   3.801   3.012
10338SOL    HW131913   1.875   3.702   3.016
10338SOL    HW231914   1.979   3.819   2.966
10339SOL     OW31915   3.516   6.455   6.614
10339SOL    HW131916   3.494   6.462   6.711
10339SOL    HW231917   3.588   6.521   6.592
10340SOL     OW31918   2.180   5.930   0.945
10340SOL    HW131919   2.142   5.976   1.025
10340SOL    HW231920   2.225   5.846   0.973
10341SOL     OW31921   6.966   2.792   1.550
10341SOL    HW131922   6.866   2.801   1.540
10341SOL    HW231923   6.994   2.832   1.637
10342SOL     OW31924   3.401   5.226   3.742
10342SOL    HW131925   3.436   5.135   3.768
10342SOL    HW231926   3.306   5.218   3.713
10343SOL     OW31927   2.924   2.276   4.452
10343SOL    HW131928   3.005   2.260   4.508
10343SOL    HW231929   2.853   2.321   4.507
10344SOL     OW31930   5.102   4.266   1.129
10344SOL    HW131931   5.063   4.356   1.109
10344SOL    HW231932   5.057   4.227   1.209
10345SOL     OW31933   2.696   2.197   6.245
10345SOL    HW131934   2.777   2.170   6.193
10345SOL    HW231935   2.707   2.169   6.340
10346SOL     OW31936   6.598   5.093   6.608
10346SOL    HW131937   6.574   5.152   6.684
10346SOL    HW231938   6.633   5.006   6.643
10347SOL     OW31939   3.898   6.336   2.453
10347SOL    HW131940   3.965   6.290   2.512
10347SOL    HW231941   3.940   6.359   2.366
10348SOL     OW31942   0.579   2.910   4.384
10348SOL    HW131943   0.549   2.845   4.314
10348SOL    HW231944   0.611   2.993   4.340
10349SOL     OW31945   6.055   1.747   0.186
10349SOL    HW131946   6.095   1.746   0.094
10349SOL    HW231947   6.088   1.828   0.235
10350SOL     OW31948   2.141   5.316   4.166
10350SOL    HW131949   2.176   5.291   4.256
10350SOL    HW231950   2.200   5.385   4.124
10351SOL     OW31951   4.082   5.978   5.290
10351SOL    HW131952   3.998   5.994   5.343
10351SOL    HW231953   4.159   6.024   5.335
10352SOL     OW31954   0.873   1.781   1.673
10352SOL    HW131955   0.873   1.859   1.735
10352SOL    HW231956   0.871   1.696   1.726
10353SOL     OW31957   5.269   2.759   3.543
10353SOL    HW131958   5.190   2.815   3.565
10353SOL    HW231959   5.238   2.666   3.520
10354SOL     OW31960   6.757   2.548   1.862
10354SOL    HW131961   6.828   2.479   1.875
10354SOL    HW231962   6.699   2.523   1.785
10355SOL     OW31963   6.495   1.761   0.584
10355SOL    HW131964   6.477   1.838   0.522
10355SOL    HW231965   6.531   1.796   0.670
10356SOL     OW31966   6.489   2.310   6.189
10356SOL    HW131967   6.537   2.238   6.239
10356SOL    HW231968   6.403   2.331   6.235
10357SOL     OW31969   0.349   6.501   6.434
10357SOL    HW131970   0.329   6.427   6.498
10357SOL    HW231971   0.379   6.462   6.347
10358SOL     OW31972   0.251   3.643   4.106
10358SOL    HW131973   0.323   3.574   4.111
10358SOL    HW231974   0.162   3.599   4.122
10359SOL     OW31975   0.895   2.530   1.978
10359SOL    HW131976   0.849   2.618   1.960
10359SOL    HW231977   0.968   2.517   1.911
10360SOL     OW31978   5.640   4.728   1.376
10360SOL    HW131979   5.643   4.701   1.472
10360SOL    HW231980   5.635   4.645   1.319
10361SOL     OW31981   5.804   1.933   3.748
10361SOL    HW131982   5.746   1.878   3.807
10361SOL    HW231983   5.759   2.019   3.727
10362SOL     OW31984   0.078   6.556   2.516
10362SOL    HW131985   0.004   6.587   2.455
10362SOL    HW231986   0.095   6.625   2.585
10363SOL     OW31987   5.015   5.293   6.359
10363SOL    HW131988   4.962   5.239   6.294
10363SOL    HW231989   5.047   5.234   6.433
10364SOL     OW31990   6.028   5.275   1.293
10364SOL    HW131991   6.047   5.177   1.301
10364SOL    HW231992   6.022   5.315   1.385
10365SOL     OW31993   6.131   6.223   6.524
10365SOL    HW131994   6.074   6.221   6.607
10365SOL    HW231995   6.201   6.152   6.531
10366SOL     OW31996   2.269   0.293   3.294
10366SOL    HW131997   2.351   0.314   3.241
10366SOL    HW231998   2.212   0.375   3.301
10367SOL     OW31999   4.122   5.720   2.489
10367SOL    HW132000   4.193   5.789   2.500
10367SOL    HW232001   4.049   5.756   2.430
10368SOL     OW32002   1.305   5.452   2.173
10368SOL    HW132003   1.268   5.452   2.266
10368SOL    HW232004   1.368   5.529   2.163
10369SOL     OW32005   2.614   0.849   5.659
10369SOL    HW132006   2.589   0.940   5.626
10369SOL    HW232007   2.600   0.845   5.758
10370SOL     OW32008   2.368   1.998   6.776
10370SOL    HW132009   2.273   1.983   6.748
10370SOL    HW232010   2.400   2.085   6.739
10371SOL     OW32011   3.836   5.486   2.513
10371SOL    HW132012   3.883   5.505   2.598
10371SOL    HW232013   3.878   5.408   2.467
10372SOL     OW32014   1.115   6.375   1.124
10372SOL    HW132015   1.168   6.429   1.058
10372SOL    HW232016   1.176   6.308   1.168
10373SOL     OW32017   6.496   1.074   5.200
10373SOL    HW132018   6.505   1.015   5.280
10373SOL    HW232019   6.517   1.022   5.118
10374SOL     OW32020   2.101   5.335   2.202
10374SOL    HW132021   2.109   5.342   2.301
10374SOL    HW232022   2.143   5.414   2.159
10375SOL     OW32023   2.557   5.603   6.200
10375SOL    HW132024   2.493   5.585   6.274
10375SOL    HW232025   2.651   5.584   6.231
10376SOL     OW32026   2.198   4.615   3.468
10376SOL    HW132027   2.294   4.593   3.447
10376SOL    HW232028   2.174   4.579   3.558
10377SOL     OW32029   3.162   1.067   3.730
10377SOL    HW132030   3.126   0.982   3.769
10377SOL    HW232031   3.098   1.141   3.746
10378SOL     OW32032   6.789   0.028   5.105
10378SOL    HW132033   6.706   6.995   5.082
10378SOL    HW232034   6.775   0.077   5.191
10379SOL     OW32035   0.665   5.223   3.300
10379SOL    HW132036   0.691   5.318   3.321
10379SOL    HW232037   0.616   5.221   3.213
10380SOL     OW32038   3.123   1.376   3.875
10380SOL    HW132039   3.053   1.327   3.823
10380SOL    HW232040   3.121   1.346   3.971
10381SOL     OW32041   2.275   6.667   3.757
10381SOL    HW132042   2.315   6.698   3.843
10381SOL    HW232043   2.308   6.723   3.681
10382SOL     OW32044   3.950   5.787   2.693
10382SOL    HW132045   4.020   5.749   2.634
10382SOL    HW232046   3.985   5.797   2.786
10383SOL     OW32047   0.377   6.829   0.051
10383SOL    HW132048   0.373   6.901   7.000
10383SOL    HW232049   0.328   6.859   0.133
10384SOL     OW32050   5.662   5.324   1.270
10384SOL    HW132051   5.661   5.231   1.307
10384SOL    HW232052   5.668   5.320   1.170
10385SOL     OW32053   3.745   4.234   6.418
10385SOL    HW132054   3.800   4.248   6.500
10385SOL    HW232055   3.803   4.243   6.337
10386SOL     OW32056   0.204   0.596   2.010
10386SOL    HW132057   0.118   0.557   1.977
10386SOL    HW232058   0.281   0.557   1.960
10387SOL     OW32059   5.515   0.884   2.064
10387SOL    HW132060   5.576   0.871   1.985
10387SOL    HW232061   5.557   0.948   2.128
10388SOL     OW32062   0.951   7.011   5.147
10388SOL    HW132063   1.028   6.979   5.093
10388SOL    HW232064   0.875   6.947   5.138
10389SOL     OW32065   0.719   4.105   0.852
10389SOL    HW132066   0.767   4.183   0.893
10389SOL    HW232067   0.751   4.020   0.895
10390SOL     OW32068   1.710   2.567   2.185
10390SOL    HW132069   1.727   2.496   2.116
10390SOL    HW232070   1.758   2.543   2.270
10391SOL     OW32071   6.361   0.065   3.395
10391SOL    HW132072   6.359   0.157   3.434
10391SOL    HW232073   6.437   0.058   3.330
10392SOL     OW32074   5.575   3.444   4.092
10392SOL    HW132075   5.624   3.485   4.015
10392SOL    HW232076   5.489   3.404   4.060
10393SOL     OW32077   1.762   2.521   1.238
10393SOL    HW132078   1.663   2.530   1.252
10393SOL    HW232079   1.793   2.435   1.277
10394SOL     OW32080   2.867   5.546   3.816
10394SOL    HW132081   2.842   5.554   3.913
10394SOL    HW232082   2.920   5.625   3.788
10395SOL     OW32083   0.886   1.351   1.577
10395SOL    HW132084   0.851   1.277   1.520
10395SOL    HW232085   0.814   1.383   1.638
10396SOL     OW32086   3.428   1.764   5.207
10396SOL    HW132087   3.473   1.846   5.171
10396SOL    HW232088   3.363   1.789   5.278
10397SOL     OW32089   4.783   1.108   3.867
10397SOL    HW132090   4.743   1.019   3.891
10397SOL    HW232091   4.748   1.178   3.929
10398SOL     OW32092   4.698   2.783   2.742
10398SOL    HW132093   4.688   2.690   2.706
10398SOL    HW232094   4.719   2.846   2.667
10399SOL     OW32095   1.052   3.207   2.145
10399SOL    HW132096   0.956   3.227   2.161
10399SOL    HW232097   1.093   3.280   2.091
10400SOL     OW32098   2.041   6.605   0.548
10400SOL    HW132099   2.033   6.619   0.449
10400SOL    HW232100   2.136   6.581   0.570
10401SOL     OW32101   6.361   0.940   5.439
10401SOL    HW132102   6.417   0.938   5.522
10401SOL    HW232103   6.326   1.032   5.424
10402SOL     OW32104   6.559   4.435   5.355
10402SOL    HW132105   6.480   4.430   5.295
10402SOL    HW232106   6.531   4.463   5.446
10403SOL     OW32107   3.721   0.154   1.427
10403SOL    HW132108   3.668   0.164   1.343
10403SOL    HW232109   3.661   0.128   1.502
10404SOL     OW32110   0.729   5.217   5.660
10404SOL    HW132111   0.666   5.147   5.694
10404SOL    HW232112   0.761   5.191   5.568
10405SOL     OW32113   0.128   1.269   6.975
10405SOL    HW132114   0.139   1.170   6.963
10405SOL    HW232115   0.055   1.286   0.023
10406SOL     OW32116   1.655   5.279   1.144
10406SOL    HW132117   1.745   5.287   1.101
10406SOL    HW232118   1.589   5.334   1.093
10407SOL     OW32119   2.159   5.737   0.372
10407SOL    HW132120   2.205   5.785   0.447
10407SOL    HW232121   2.183   5.781   0.286
10408SOL     OW32122   4.659   0.648   0.031
10408SOL    HW132123   4.619   0.714   6.986
10408SOL    HW232124   4.617   0.659   0.121
10409SOL     OW32125   6.581   3.785   0.409
10409SOL    HW132126   6.593   3.814   0.503
10409SOL    HW232127   6.667   3.796   0.359
10410SOL     OW32128   4.042   6.200   0.833
10410SOL    HW132129   4.140   6.204   0.853
10410SOL    HW232130   4.012   6.105   0.831
10411SOL     OW32131   1.301   5.244   3.999
10411SOL    HW132132   1.286   5.162   3.944
10411SOL    HW232133   1.399   5.260   4.008
10412SOL     OW32134   4.933   0.420   2.150
10412SOL    HW132135   4.842   0.407   2.189
10412SOL    HW232136   4.967   0.511   2.174
10413SOL     OW32137   6.300   3.493   1.296
10413SOL    HW132138   6.272   3.579   1.339
10413SOL    HW232139   6.265   3.489   1.202
10414SOL     OW32140   5.063   3.857   3.938
10414SOL    HW132141   5.142   3.905   3.900
10414SOL    HW232142   5.008   3.921   3.992
10415SOL     OW32143   0.732   0.674   6.984
10415SOL    HW132144   0.671   0.752   6.996
10415SOL    HW232145   0.758   0.638   0.055
10416SOL     OW32146   5.045   2.880   3.221
10416SOL    HW132147   5.002   2.917   3.304
10416SOL    HW232148   5.118   2.941   3.192
10417SOL     OW32149   1.773   3.769   2.260
10417SOL    HW132150   1.720   3.839   2.308
10417SOL    HW232151   1.853   3.811   2.217
10418SOL     OW32152   1.716   5.606   6.102
10418SOL    HW132153   1.787   5.612   6.032
10418SOL    HW232154   1.756   5.571   6.187
10419SOL     OW32155   1.225   0.989   6.347
10419SOL    HW132156   1.223   1.089   6.349
10419SOL    HW232157   1.182   0.957   6.262
10420SOL     OW32158   0.495   3.102   2.094
10420SOL    HW132159   0.508   3.080   1.997
10420SOL    HW232160   0.585   3.116   2.136
10421SOL     OW32161   0.880   2.040   3.038
10421SOL    HW132162   0.893   2.122   3.094
10421SOL    HW232163   0.818   2.061   2.963
10422SOL     OW32164   5.797   1.864   0.349
10422SOL    HW132165   5.803   1.920   0.432
10422SOL    HW232166   5.732   1.907   0.285
10423SOL     OW32167   4.639   5.423   2.653
10423SOL    HW132168   4.569   5.375   2.601
10423SOL    HW232169   4.612   5.427   2.749
10424SOL     OW32170   4.372   1.394   6.387
10424SOL    HW132171   4.446   1.340   6.347
10424SOL    HW232172   4.382   1.394   6.486
10425SOL     OW32173   2.028   6.764   1.811
10425SOL    HW132174   1.964   6.818   1.755
10425SOL    HW232175   2.064   6.689   1.756
10426SOL     OW32176   6.372   3.819   6.324
10426SOL    HW132177   6.467   3.797   6.345
10426SOL    HW232178   6.349   3.783   6.234
10427SOL     OW32179   4.783   0.926   0.987
10427SOL    HW132180   4.842   0.941   0.908
10427SOL    HW232181   4.745   1.013   1.017
10428SOL     OW32182   4.692   2.129   3.361
10428SOL    HW132183   4.675   2.226   3.380
10428SOL    HW232184   4.611   2.089   3.319
10429SOL     OW32185   5.509   5.494   2.469
10429SOL    HW132186   5.607   5.485   2.488
10429SOL    HW232187   5.482   5.590   2.480
10430SOL     OW32188   4.230   5.883   2.891
10430SOL    HW132189   4.218   5.952   2.819
10430SOL    HW232190   4.231   5.928   2.980
10431SOL     OW32191   2.980   1.699   5.834
10431SOL    HW132192   3.078   1.680   5.843
10431SOL    HW232193   2.930   1.613   5.820
10432SOL     OW32194   4.126   0.429   4.835
10432SOL    HW132195   4.190   0.467   4.768
10432SOL    HW232196   4.125   0.330   4.829
10433SOL     OW32197   2.273   5.802   1.952
10433SOL    HW132198   2.234   5.713   1.973
10433SOL    HW232199   2.274   5.817   1.853
10434SOL     OW32200   3.460   2.262   5.403
10434SOL    HW132201   3.529   2.201   5.365
10434SOL    HW232202   3.371   2.239   5.366
10435SOL     OW32203   5.751   5.325   6.588
10435SOL    HW132204   5.809   5.376   6.524
10435SOL    HW232205   5.706   5.250   6.541
10436SOL     OW32206   0.302   1.541   2.535
10436SOL    HW132207   0.209   1.546   2.572
10436SOL    HW232208   0.368   1.544   2.610
10437SOL     OW32209   1.264   2.944   0.195
10437SOL    HW132210   1.229   3.036   0.212
10437SOL    HW232211   1.243   2.885   0.272
10438SOL     OW32212   3.134   6.826   5.934
10438SOL    HW132213   3.061   6.758   5.942
10438SOL    HW232214   3.154   6.842   5.838
10439SOL     OW32215   3.061   0.230   5.724
10439SOL    HW132216   3.027   0.217   5.631
10439SOL    HW232217   3.056   0.143   5.774
10440SOL     OW32218   1.130   5.812   0.479
10440SOL    HW132219   1.059   5.864   0.431
10440SOL    HW232220   1.124   5.716   0.454
10441SOL     OW32221   4.659   6.573   1.254
10441SOL    HW132222   4.630   6.478   1.240
10441SOL    HW232223   4.748   6.587   1.212
10442SOL     OW32224   4.024   6.140   6.508
10442SOL    HW132225   4.055   6.196   6.432
10442SOL    HW232226   3.969   6.196   6.571
10443SOL     OW32227   6.923   2.812   5.020
10443SOL    HW132228   7.007   2.778   5.062
10443SOL    HW232229   6.935   2.907   4.992
10444SOL     OW32230   4.022   4.767   5.252
10444SOL    HW132231   4.054   4.770   5.157
10444SOL    HW232232   4.020   4.859   5.290
10445SOL     OW32233   6.595   6.393   2.120
10445SOL    HW132234   6.531   6.351   2.183
10445SOL    HW232235   6.688   6.366   2.144
10446SOL     OW32236   1.169   6.753   6.103
10446SOL    HW132237   1.178   6.829   6.039
10446SOL    HW232238   1.114   6.680   6.061
10447SOL     OW32239   5.253   2.127   6.784
10447SOL    HW132240   5.171   2.177   6.812
10447SOL    HW232241   5.238   2.086   6.694
10448SOL     OW32242   3.489   3.547   2.394
10448SOL    HW132243   3.496   3.524   2.298
10448SOL    HW232244   3.529   3.638   2.410
10449SOL     OW32245   1.361   5.212   5.010
10449SOL    HW132246   1.406   5.295   4.978
10449SOL    HW232247   1.371   5.205   5.109
10450SOL     OW32248   0.493   3.351   0.330
10450SOL    HW132249   0.394   3.353   0.345
10450SOL    HW232250   0.523   3.439   0.294
10451SOL     OW32251   2.019   4.240   2.396
10451SOL    HW132252   2.019   4.338   2.378
10451SOL    HW232253   2.113   4.205   2.391
10452SOL     OW32254   1.978   3.474   6.046
10452SOL    HW132255   1.965   3.537   6.122
10452SOL    HW232256   2.055   3.505   5.989
10453SOL     OW32257   5.061   0.678   2.167
10453SOL    HW132258   5.081   0.727   2.252
10453SOL    HW232259   5.115   0.717   2.092
10454SOL     OW32260   3.699   5.268   2.253
10454SOL    HW132261   3.770   5.250   2.322
10454SOL    HW232262   3.609   5.248   2.291
10455SOL     OW32263   1.192   4.698   3.659
10455SOL    HW132264   1.199   4.640   3.578
10455SOL    HW232265   1.103   4.685   3.701
10456SOL     OW32266   3.504   6.725   1.130
10456SOL    HW132267   3.489   6.824   1.123
10456SOL    HW232268   3.599   6.704   1.109
10457SOL     OW32269   3.982   3.110   3.864
10457SOL    HW132270   3.928   3.109   3.949
10457SOL    HW232271   3.944   3.044   3.800
10458SOL     OW32272   6.546   6.294   2.357
10458SOL    HW132273   6.501   6.207   2.377
10458SOL    HW232274   6.606   6.318   2.433
10459SOL     OW32275   0.054   5.372   1.782
10459SOL    HW132276   0.124   5.443   1.771
10459SOL    HW232277   0.007   5.384   1.869
10460SOL     OW32278   0.967   4.175   1.379
10460SOL    HW132279   1.020   4.256   1.406
10460SOL    HW232280   0.891   4.203   1.320
10461SOL     OW32281   3.759   0.313   6.484
10461SOL    HW132282   3.830   0.287   6.550
10461SOL    HW232283   3.736   0.234   6.427
10462SOL     OW32284   5.138   6.740   1.204
10462SOL    HW132285   5.123   6.750   1.303
10462SOL    HW232286   5.232   6.708   1.188
10463SOL     OW32287   4.377   3.331   0.710
10463SOL    HW132288   4.318   3.275   0.652
10463SOL    HW232289   4.351   3.427   0.699
10464SOL     OW32290   5.891   6.416   1.998
10464SOL    HW132291   5.813   6.465   1.959
10464SOL    HW232292   5.908   6.449   2.091
10465SOL     OW32293   0.262   4.674   5.294
10465SOL    HW132294   0.326   4.619   5.347
10465SOL    HW232295   0.239   4.757   5.346
10466SOL     OW32296   4.354   5.732   5.433
10466SOL    HW132297   4.405   5.818   5.441
10466SOL    HW232298   4.257   5.752   5.416
10467SOL     OW32299   4.400   1.721   3.940
10467SOL    HW132300   4.309   1.764   3.945
10467SOL    HW232301   4.468   1.792   3.922
10468SOL     OW32302   2.788   5.221   3.251
10468SOL    HW132303   2.869   5.195   3.303
10468SOL    HW232304   2.716   5.152   3.264
10469SOL     OW32305   1.303   4.591   6.195
10469SOL    HW132306   1.205   4.608   6.181
10469SOL    HW232307   1.316   4.501   6.236
10470SOL     OW32308   2.688   1.845   4.629
10470SOL    HW132309   2.601   1.826   4.674
10470SOL    HW232310   2.672   1.900   4.547
10471SOL     OW32311   4.962   4.396   6.696
10471SOL    HW132312   4.875   4.393   6.647
10471SOL    HW232313   5.038   4.404   6.632
10472SOL     OW32314   4.107   1.728   3.554
10472SOL    HW132315   4.031   1.792   3.550
10472SOL    HW232316   4.092   1.663   3.628
10473SOL     OW32317   4.737   4.780   6.647
10473SOL    HW132318   4.668   4.821   6.587
10473SOL    HW232319   4.729   4.820   6.739
10474SOL     OW32320   4.641   0.829   4.314
10474SOL    HW132321   4.608   0.768   4.242
10474SOL    HW232322   4.686   0.908   4.273
10475SOL     OW32323   3.990   6.414   1.456
10475SOL    HW132324   4.005   6.408   1.357
10475SOL    HW232325   4.060   6.472   1.497
10476SOL     OW32326   0.346   4.784   6.725
10476SOL    HW132327   0.382   4.751   6.812
10476SOL    HW232328   0.281   4.859   6.742
10477SOL     OW32329   4.662   4.960   4.709
10477SOL    HW132330   4.758   4.932   4.708
10477SOL    HW232331   4.605   4.886   4.673
10478SOL     OW32332   0.904   0.037   2.760
10478SOL    HW132333   0.931   6.981   2.698
10478SOL    HW232334   0.961   0.117   2.743
10479SOL     OW32335   0.726   3.962   2.707
10479SOL    HW132336   0.777   4.032   2.657
10479SOL    HW232337   0.762   3.955   2.800
10480SOL     OW32338   4.562   1.233   0.169
10480SOL    HW132339   4.524   1.164   0.231
10480SOL    HW232340   4.489   1.268   0.110
10481SOL     OW32341   3.793   1.497   3.547
10481SOL    HW132342   3.693   1.502   3.541
10481SOL    HW232343   3.827   1.428   3.483
10482SOL     OW32344   0.808   6.649   6.318
10482SOL    HW132345   0.767   6.657   6.409
10482SOL    HW232346   0.809   6.553   6.290
10483SOL     OW32347   0.979   6.364   0.828
10483SOL    HW132348   1.056   6.314   0.867
10483SOL    HW232349   0.966   6.450   0.877
10484SOL     OW32350   6.552   1.424   1.650
10484SOL    HW132351   6.595   1.459   1.733
10484SOL    HW232352   6.580   1.329   1.635
10485SOL     OW32353   3.632   4.136   4.852
10485SOL    HW132354   3.574   4.184   4.786
10485SOL    HW232355   3.613   4.170   4.944
10486SOL     OW32356   5.664   4.860   5.409
10486SOL    HW132357   5.686   4.775   5.458
10486SOL    HW232358   5.564   4.869   5.403
10487SOL     OW32359   5.474   3.622   2.731
10487SOL    HW132360   5.470   3.541   2.790
10487SOL    HW232361   5.496   3.702   2.786
10488SOL     OW32362   0.735   2.324   5.424
10488SOL    HW132363   0.782   2.335   5.512
10488SOL    HW232364   0.636   2.327   5.439
10489SOL     OW32365   6.027   4.695   2.917
10489SOL    HW132366   6.008   4.696   2.819
10489SOL    HW232367   6.120   4.730   2.933
10490SOL     OW32368   5.097   6.459   6.267
10490SOL    HW132369   5.152   6.376   6.272
10490SOL    HW232370   5.102   6.508   6.354
10491SOL     OW32371   2.230   1.849   5.610
10491SOL    HW132372   2.324   1.830   5.638
10491SOL    HW232373   2.200   1.936   5.649
10492SOL     OW32374   3.435   6.515   6.866
10492SOL    HW132375   3.494   6.571   6.924
10492SOL    HW232376   3.356   6.483   6.919
10493SOL     OW32377   3.489   6.349   0.516
10493SOL    HW132378   3.534   6.294   0.586
10493SOL    HW232379   3.472   6.441   0.552
10494SOL     OW32380   0.007   5.497   3.643
10494SOL    HW132381   6.961   5.530   3.712
10494SOL    HW232382   0.060   5.421   3.681
10495SOL     OW32383   6.453   6.372   0.070
10495SOL    HW132384   6.503   6.397   0.152
10495SOL    HW232385   6.432   6.454   0.017
10496SOL     OW32386   0.757   4.156   6.166
10496SOL    HW132387   0.770   4.189   6.259
10496SOL    HW232388   0.740   4.233   6.105
10497SOL     OW32389   4.086   6.434   0.100
10497SOL    HW132390   4.150   6.389   0.038
10497SOL    HW232391   4.100   6.400   0.193
10498SOL     OW32392   3.461   3.846   0.241
10498SOL    HW132393   3.368   3.812   0.235
10498SOL    HW232394   3.523   3.771   0.265
10499SOL     OW32395   4.244   4.766   3.462
10499SOL    HW132396   4.305   4.732   3.391
10499SOL    HW232397   4.274   4.733   3.552
10500SOL     OW32398   1.871   2.922   5.241
10500SOL    HW132399   1.931   2.902   5.318
10500SOL    HW232400   1.874   2.847   5.175
10501SOL     OW32401   3.959   4.837   3.091
10501SOL    HW132402   3.996   4.825   2.999
10501SOL    HW232403   3.860   4.846   3.086
10502SOL     OW32404   3.562   3.044   3.155
10502SOL    HW132405   3.521   2.959   3.119
10502SOL    HW232406   3.606   3.093   3.080
10503SOL     OW32407   6.602   6.398   0.961
10503SOL    HW132408   6.517   6.408   0.911
10503SOL    HW232409   6.583   6.374   1.056
10504SOL     OW32410   1.721   3.048   5.760
10504SOL    HW132411   1.737   2.954   5.789
10504SOL    HW232412   1.739   3.110   5.836
10505SOL     OW32413   5.384   6.473   2.309
10505SOL    HW132414   5.395   6.569   2.334
10505SOL    HW232415   5.474   6.430   2.303
10506SOL     OW32416   0.607   5.237   5.993
10506SOL    HW132417   0.564   5.328   5.995
10506SOL    HW232418   0.555   5.178   5.930
10507SOL     OW32419   1.742   6.395   6.159
10507SOL    HW132420   1.825   6.444   6.190
10507SOL    HW232421   1.768   6.310   6.115
10508SOL     OW32422   1.984   6.235   1.311
10508SOL    HW132423   1.959   6.330   1.293
10508SOL    HW232424   2.072   6.232   1.360
10509SOL     OW32425   4.832   3.754   1.972
10509SOL    HW132426   4.850   3.828   2.037
10509SOL    HW232427   4.833   3.791   1.879
10510SOL     OW32428   5.292   5.875   2.005
10510SOL    HW132429   5.214   5.888   2.067
10510SOL    HW232430   5.374   5.916   2.046
10511SOL     OW32431   3.836   1.636   0.738
10511SOL    HW132432   3.894   1.676   0.667
10511SOL    HW232433   3.760   1.698   0.757
10512SOL     OW32434   3.662   7.013   5.031
10512SOL    HW132435   3.635   0.061   5.101
10512SOL    HW232436   3.706   6.935   5.074
10513SOL     OW32437   3.837   3.432   0.657
10513SOL    HW132438   3.749   3.433   0.705
10513SOL    HW232439   3.912   3.434   0.723
10514SOL     OW32440   1.364   4.652   1.654
10514SOL    HW132441   1.282   4.655   1.711
10514SOL    HW232442   1.337   4.657   1.558
10515SOL     OW32443   2.190   3.624   5.095
10515SOL    HW132444   2.187   3.723   5.083
10515SOL    HW232445   2.124   3.580   5.034
10516SOL     OW32446   5.516   1.929   1.383
10516SOL    HW132447   5.560   1.840   1.383
10516SOL    HW232448   5.441   1.930   1.448
10517SOL     OW32449   0.107   1.897   2.262
10517SOL    HW132450   0.064   1.987   2.263
10517SOL    HW232451   0.061   1.837   2.327
10518SOL     OW32452   0.526   5.509   2.602
10518SOL    HW132453   0.443   5.459   2.577
10518SOL    HW232454   0.508   5.563   2.684
10519SOL     OW32455   1.830   6.408   0.621
10519SOL    HW132456   1.801   6.381   0.714
10519SOL    HW232457   1.923   6.444   0.624
10520SOL     OW32458   2.988   2.844   6.017
10520SOL    HW132459   3.012   2.941   6.018
10520SOL    HW232460   2.904   2.830   6.069
10521SOL     OW32461   6.078   1.944   2.443
10521SOL    HW132462   6.134   1.989   2.373
10521SOL    HW232463   6.062   1.849   2.417
10522SOL     OW32464   4.942   1.371   3.054
10522SOL    HW132465   4.892   1.444   3.102
10522SOL    HW232466   4.915   1.282   3.090
10523SOL     OW32467   0.626   3.972   1.282
10523SOL    HW132468   0.528   3.953   1.277
10523SOL    HW232469   0.658   3.959   1.376
10524SOL     OW32470   6.097   6.647   4.609
10524SOL    HW132471   6.164   6.581   4.575
10524SOL    HW232472   6.129   6.685   4.696
10525SOL     OW32473   5.357   2.212   3.395
10525SOL    HW132474   5.311   2.132   3.356
10525SOL    HW232475   5.381   2.276   3.322
10526SOL     OW32476   1.662   5.934   6.054
10526SOL    HW132477   1.657   5.914   6.152
10526SOL    HW232478   1.739   5.883   6.015
10527SOL     OW32479   0.638   6.566   5.820
10527SOL    HW132480   0.682   6.598   5.736
10527SOL    HW232481   0.700   6.580   5.897
10528SOL     OW32482   2.304   6.027   5.301
10528SOL    HW132483   2.319   6.124   5.282
10528SOL    HW232484   2.295   5.977   5.215
10529SOL     OW32485   6.777   5.062   6.391
10529SOL    HW132486   6.778   5.063   6.491
10529SOL    HW232487   6.706   5.000   6.359
10530SOL     OW32488   5.680   0.428   1.417
10530SOL    HW132489   5.714   0.344   1.374
10530SOL    HW232490   5.713   0.434   1.511
10531SOL     OW32491   3.218   1.214   6.472
10531SOL    HW132492   3.282   1.224   6.548
10531SOL    HW232493   3.269   1.190   6.389
10532SOL     OW32494   4.534   5.558   5.771
10532SOL    HW132495   4.439   5.591   5.765
10532SOL    HW232496   4.558   5.512   5.686
10533SOL     OW32497   4.502   6.380   3.882
10533SOL    HW132498   4.492   6.281   3.871
10533SOL    HW232499   4.503   6.424   3.793
10534SOL     OW32500   0.671   6.130   4.711
10534SOL    HW132501   0.674   6.056   4.779
10534SOL    HW232502   0.630   6.096   4.627
10535SOL     OW32503   3.994   1.632   2.232
10535SOL    HW132504   4.036   1.621   2.322
10535SOL    HW232505   3.948   1.721   2.227
10536SOL     OW32506   5.742   3.483   4.286
10536SOL    HW132507   5.831   3.441   4.267
10536SOL    HW232508   5.674   3.448   4.221
10537SOL     OW32509   2.637   1.376   2.725
10537SOL    HW132510   2.625   1.438   2.803
10537SOL    HW232511   2.558   1.315   2.719
10538SOL     OW32512   6.425   2.635   3.237
10538SOL    HW132513   6.483   2.554   3.249
10538SOL    HW232514   6.483   2.715   3.224
10539SOL     OW32515   6.783   0.291   2.016
10539SOL    HW132516   6.697   0.293   2.067
10539SOL    HW232517   6.786   0.367   1.951
10540SOL     OW32518   1.502   2.663   6.230
10540SOL    HW132519   1.581   2.719   6.203
10540SOL    HW232520   1.494   2.585   6.168
10541SOL     OW32521   3.834   2.583   6.511
10541SOL    HW132522   3.864   2.660   6.455
10541SOL    HW232523   3.752   2.542   6.471
10542SOL     OW32524   3.679   6.238   2.545
10542SOL    HW132525   3.760   6.284   2.510
10542SOL    HW232526   3.700   6.142   2.561
10543SOL     OW32527   1.285   3.004   4.370
10543SOL    HW132528   1.288   3.102   4.389
10543SOL    HW232529   1.273   2.954   4.456
10544SOL     OW32530   2.875   2.210   2.295
10544SOL    HW132531   2.923   2.226   2.209
10544SOL    HW232532   2.778   2.230   2.283
10545SOL     OW32533   1.176   3.300   0.965
10545SOL    HW132534   1.080   3.279   0.943
10545SOL    HW232535   1.188   3.399   0.972
10546SOL     OW32536   1.760   0.433   5.097
10546SOL    HW132537   1.677   0.422   5.152
10546SOL    HW232538   1.840   0.432   5.157
10547SOL     OW32539   3.245   5.606   6.249
10547SOL    HW132540   3.185   5.570   6.177
10547SOL    HW232541   3.244   5.706   6.246
10548SOL     OW32542   1.551   5.245   2.930
10548SOL    HW132543   1.535   5.333   2.887
10548SOL    HW232544   1.486   5.177   2.893
10549SOL     OW32545   0.041   1.467   2.933
10549SOL    HW132546   0.029   1.512   3.022
10549SOL    HW232547   6.969   1.448   2.893
10550SOL     OW32548   0.017   4.353   2.854
10550SOL    HW132549   6.948   4.353   2.806
10550SOL    HW232550   0.061   4.442   2.843
10551SOL     OW32551   4.790   0.363   4.532
10551SOL    HW132552   4.794   0.425   4.453
10551SOL    HW232553   4.852   0.397   4.603
10552SOL     OW32554   2.362   0.095   3.482
10552SOL    HW132555   2.433   0.029   3.458
10552SOL    HW232556   2.356   0.166   3.411
10553SOL     OW32557   5.755   5.440   1.501
10553SOL    HW132558   5.855   5.449   1.496
10553SOL    HW232559   5.720   5.414   1.411
10554SOL     OW32560   5.494   5.897   1.479
10554SOL    HW132561   5.410   5.846   1.461
10554SOL    HW232562   5.476   5.966   1.549
10555SOL     OW32563   3.241   3.089   2.055
10555SOL    HW132564   3.258   3.093   1.957
10555SOL    HW232565   3.200   3.175   2.086
10556SOL     OW32566   2.316   2.126   2.062
10556SOL    HW132567   2.356   2.207   2.018
10556SOL    HW232568   2.259   2.155   2.139
10557SOL     OW32569   0.828   4.154   2.899
10557SOL    HW132570   0.804   4.155   2.996
10557SOL    HW232571   0.783   4.231   2.853
10558SOL     OW32572   4.891   5.262   4.543
10558SOL    HW132573   4.912   5.327   4.470
10558SOL    HW232574   4.880   5.170   4.504
10559SOL     OW32575   3.736   5.654   1.611
10559SOL    HW132576   3.789   5.611   1.683
10559SOL    HW232577   3.713   5.748   1.638
10560SOL     OW32578   6.164   6.965   4.042
10560SOL    HW132579   6.075   6.925   4.065
10560SOL    HW232580   6.151   0.037   4.001
10561SOL     OW32581   0.807   5.817   5.631
10561SOL    HW132582   0.745   5.847   5.704
10561SOL    HW232583   0.777   5.855   5.544
10562SOL     OW32584   2.755   1.021   2.533
10562SOL    HW132585   2.838   1.072   2.554
10562SOL    HW232586   2.734   0.959   2.608
10563SOL     OW32587   1.555   5.407   2.338
10563SOL    HW132588   1.456   5.393   2.342
10563SOL    HW232589   1.575   5.502   2.315
10564SOL     OW32590   5.313   5.711   3.319
10564SOL    HW132591   5.225   5.680   3.284
10564SOL    HW232592   5.359   5.636   3.366
10565SOL     OW32593   6.894   1.016   4.465
10565SOL    HW132594   6.948   1.095   4.491
10565SOL    HW232595   6.865   1.025   4.370
10566SOL     OW32596   3.357   1.322   0.518
10566SOL    HW132597   3.351   1.339   0.617
10566SOL    HW232598   3.447   1.352   0.485
10567SOL     OW32599   3.309   1.636   6.388
10567SOL    HW132600   3.367   1.628   6.469
10567SOL    HW232601   3.367   1.641   6.307
10568SOL     OW32602   6.179   1.516   6.381
10568SOL    HW132603   6.174   1.492   6.478
10568SOL    HW232604   6.189   1.615   6.371
10569SOL     OW32605   3.790   0.486   1.597
10569SOL    HW132606   3.878   0.458   1.634
10569SOL    HW232607   3.788   0.586   1.589
10570SOL     OW32608   1.133   3.950   2.558
10570SOL    HW132609   1.177   3.891   2.491
10570SOL    HW232610   1.204   3.998   2.610
10571SOL     OW32611   0.637   4.034   4.675
10571SOL    HW132612   0.546   4.066   4.650
10571SOL    HW232613   0.662   4.071   4.764
10572SOL     OW32614   6.941   5.569   0.748
10572SOL    HW132615   0.010   5.536   0.711
10572SOL    HW232616   6.892   5.619   0.676
10573SOL     OW32617   6.054   2.093   3.243
10573SOL    HW132618   6.019   2.126   3.331
10573SOL    HW232619   6.077   2.171   3.185
10574SOL     OW32620   5.418   2.430   2.903
10574SOL    HW132621   5.506   2.396   2.936
10574SOL    HW232622   5.430   2.472   2.813
10575SOL     OW32623   4.943   6.971   3.298
10575SOL    HW132624   5.014   6.922   3.249
10575SOL    HW232625   4.891   0.010   3.234
10576SOL     OW32626   1.245   3.192   4.881
10576SOL    HW132627   1.172   3.139   4.925
10576SOL    HW232628   1.240   3.287   4.911
10577SOL     OW32629   4.386   4.862   6.224
10577SOL    HW132630   4.382   4.961   6.231
10577SOL    HW232631   4.316   4.821   6.282
10578SOL     OW32632   1.454   3.043   2.143
10578SOL    HW132633   1.476   2.949   2.171
10578SOL    HW232634   1.388   3.082   2.207
10579SOL     OW32635   0.202   3.257   0.302
10579SOL    HW132636   0.222   3.170   0.347
10579SOL    HW232637   0.247   3.260   0.213
10580SOL     OW32638   4.735   6.857   6.077
10580SOL    HW132639   4.775   6.902   5.997
10580SOL    HW232640   4.652   6.809   6.051
10581SOL     OW32641   3.972   0.399   2.595
10581SOL    HW132642   3.914   0.320   2.615
10581SOL    HW232643   4.046   0.404   2.662
10582SOL     OW32644   0.167   3.766   0.659
10582SOL    HW132645   0.233   3.827   0.615
10582SOL    HW232646   0.200   3.671   0.653
10583SOL     OW32647   3.689   1.962   6.066
10583SOL    HW132648   3.673   1.888   6.000
10583SOL    HW232649   3.734   1.925   6.147
10584SOL     OW32650   6.812   0.481   3.895
10584SOL    HW132651   6.893   0.536   3.918
10584SOL    HW232652   6.828   0.386   3.921
10585SOL     OW32653   1.728   0.922   4.931
10585SOL    HW132654   1.768   0.979   4.859
10585SOL    HW232655   1.659   0.861   4.891
10586SOL     OW32656   4.883   3.733   6.274
10586SOL    HW132657   4.955   3.788   6.232
10586SOL    HW232658   4.924   3.660   6.329
10587SOL     OW32659   2.077   5.254   5.682
10587SOL    HW132660   2.147   5.252   5.754
10587SOL    HW232661   1.991   5.288   5.720
10588SOL     OW32662   1.069   4.508   4.326
10588SOL    HW132663   1.017   4.593   4.336
10588SOL    HW232664   1.011   4.438   4.285
10589SOL     OW32665   6.280   0.712   3.323
10589SOL    HW132666   6.277   0.626   3.375
10589SOL    HW232667   6.187   0.746   3.309
10590SOL     OW32668   6.918   6.198   2.386
10590SOL    HW132669   6.876   6.125   2.440
10590SOL    HW232670   7.016   6.199   2.402
10591SOL     OW32671   6.772   4.466   2.328
10591SOL    HW132672   6.698   4.460   2.396
10591SOL    HW232673   6.859   4.446   2.372
10592SOL     OW32674   6.127   4.214   5.007
10592SOL    HW132675   6.180   4.203   4.923
10592SOL    HW232676   6.182   4.185   5.085
10593SOL     OW32677   4.013   5.602   2.983
10593SOL    HW132678   3.977   5.643   3.067
10593SOL    HW232679   4.085   5.536   3.006
10594SOL     OW32680   3.839   6.032   3.851
10594SOL    HW132681   3.787   6.117   3.861
10594SOL    HW232682   3.936   6.049   3.867
10595SOL     OW32683   6.134   5.630   0.391
10595SOL    HW132684   6.124   5.724   0.359
10595SOL    HW232685   6.098   5.567   0.322
10596SOL     OW32686   6.182   3.834   0.708
10596SOL    HW132687   6.251   3.886   0.658
10596SOL    HW232688   6.111   3.802   0.645
10597SOL     OW32689   1.049   6.631   5.334
10597SOL    HW132690   1.099   6.627   5.248
10597SOL    HW232691   1.063   6.720   5.378
10598SOL     OW32692   2.729   1.476   1.174
10598SOL    HW132693   2.636   1.514   1.185
10598SOL    HW232694   2.778   1.485   1.261
10599SOL     OW32695   0.904   1.756   0.849
10599SOL    HW132696   0.819   1.808   0.848
10599SOL    HW232697   0.960   1.786   0.926
10600SOL     OW32698   4.455   1.345   2.181
10600SOL    HW132699   4.505   1.258   2.192
10600SOL    HW232700   4.367   1.339   2.227
10601SOL     OW32701   1.848   2.099   5.637
10601SOL    HW132702   1.884   2.006   5.629
10601SOL    HW232703   1.761   2.106   5.589
10602SOL     OW32704   0.074   6.673   0.981
10602SOL    HW132705   0.039   6.632   0.897
10602SOL    HW232706   0.167   6.639   0.998
10603SOL     OW32707   5.454   0.207   2.871
10603SOL    HW132708   5.459   0.280   2.803
10603SOL    HW232709   5.365   0.211   2.916
10604SOL     OW32710   5.501   2.018   4.900
10604SOL    HW132711   5.469   1.934   4.945
10604SOL    HW232712   5.578   1.996   4.840
10605SOL     OW32713   4.798   1.708   1.143
10605SOL    HW132714   4.827   1.612   1.143
10605SOL    HW232715   4.846   1.757   1.070
10606SOL     OW32716   5.710   1.428   0.887
10606SOL    HW132717   5.758   1.343   0.909
10606SOL    HW232718   5.774   1.492   0.846
10607SOL     OW32719   1.931   5.253   1.097
10607SOL    HW132720   1.914   5.178   1.161
10607SOL    HW232721   2.024   5.286   1.108
10608SOL     OW32722   5.276   3.737   2.590
10608SOL    HW132723   5.352   3.697   2.641
10608SOL    HW232724   5.262   3.686   2.505
10609SOL     OW32725   5.778   6.488   6.765
10609SOL    HW132726   5.785   6.522   6.859
10609SOL    HW232727   5.748   6.563   6.705
10610SOL     OW32728   0.156   2.361   3.306
10610SOL    HW132729   0.083   2.371   3.238
10610SOL    HW232730   0.123   2.308   3.384
10611SOL     OW32731   4.251   5.418   6.191
10611SOL    HW132732   4.187   5.368   6.132
10611SOL    HW232733   4.204   5.447   6.274
10612SOL     OW32734   5.194   2.515   3.750
10612SOL    HW132735   5.207   2.614   3.760
10612SOL    HW232736   5.228   2.487   3.660
10613SOL     OW32737   5.240   4.708   5.977
10613SOL    HW132738   5.326   4.746   6.010
10613SOL    HW232739   5.224   4.620   6.022
10614SOL     OW32740   4.238   2.038   0.223
10614SOL    HW132741   4.257   2.133   0.197
10614SOL    HW232742   4.323   1.986   0.223
10615SOL     OW32743   3.466   2.549   5.879
10615SOL    HW132744   3.546   2.597   5.843
10615SOL    HW232745   3.408   2.518   5.803
10616SOL     OW32746   1.641   5.680   0.240
10616SOL    HW132747   1.728   5.631   0.245
10616SOL    HW232748   1.644   5.747   0.166
10617SOL     OW32749   2.407   3.592   6.926
10617SOL    HW132750   2.371   3.631   7.011
10617SOL    HW232751   2.376   3.497   6.917
10618SOL     OW32752   0.222   4.717   4.785
10618SOL    HW132753   0.298   4.671   4.831
10618SOL    HW232754   0.239   4.815   4.784
10619SOL     OW32755   1.385   2.420   0.935
10619SOL    HW132756   1.307   2.482   0.934
10619SOL    HW232757   1.470   2.472   0.926
10620SOL     OW32758   4.016   1.187   5.698
10620SOL    HW132759   3.943   1.118   5.697
10620SOL    HW232760   4.077   1.172   5.621
10621SOL     OW32761   1.020   5.189   4.624
10621SOL    HW132762   1.009   5.279   4.666
10621SOL    HW232763   0.968   5.121   4.677
10622SOL     OW32764   4.035   2.298   6.192
10622SOL    HW132765   3.977   2.264   6.117
10622SOL    HW232766   3.986   2.288   6.279
10623SOL     OW32767   5.251   4.683   4.932
10623SOL    HW132768   5.284   4.648   5.020
10623SOL    HW232769   5.151   4.691   4.934
10624SOL     OW32770   0.192   1.559   5.741
10624SOL    HW132771   0.223   1.616   5.817
10624SOL    HW232772   0.247   1.579   5.660
10625SOL     OW32773   6.325   5.175   6.715
10625SOL    HW132774   6.379   5.152   6.634
10625SOL    HW232775   6.384   5.220   6.783
10626SOL     OW32776   5.862   3.868   1.976
10626SOL    HW132777   5.931   3.802   2.007
10626SOL    HW232778   5.825   3.838   1.888
10627SOL     OW32779   5.172   5.378   5.280
10627SOL    HW132780   5.073   5.386   5.273
10627SOL    HW232781   5.215   5.428   5.203
10628SOL     OW32782   2.632   6.107   1.800
10628SOL    HW132783   2.606   6.079   1.893
10628SOL    HW232784   2.617   6.030   1.737
10629SOL     OW32785   4.254   5.824   4.280
10629SOL    HW132786   4.203   5.908   4.298
10629SOL    HW232787   4.351   5.845   4.268
10630SOL     OW32788   4.334   0.870   1.727
10630SOL    HW132789   4.390   0.821   1.660
10630SOL    HW232790   4.356   0.838   1.819
10631SOL     OW32791   3.707   6.215   2.241
10631SOL    HW132792   3.790   6.270   2.233
10631SOL    HW232793   3.681   6.208   2.338
10632SOL     OW32794   5.981   1.012   4.640
10632SOL    HW132795   6.064   0.957   4.646
10632SOL    HW232796   5.902   0.952   4.634
10633SOL     OW32797   3.126   3.396   0.102
10633SOL    HW132798   3.060   3.331   0.141
10633SOL    HW232799   3.080   3.482   0.081
10634SOL     OW32800   1.038   4.126   0.731
10634SOL    HW132801   0.978   4.091   0.658
10634SOL    HW232802   1.083   4.210   0.700
10635SOL     OW32803   3.250   4.457   0.110
10635SOL    HW132804   3.320   4.494   0.049
10635SOL    HW232805   3.188   4.398   0.058
10636SOL     OW32806   0.303   2.348   0.428
10636SOL    HW132807   0.273   2.254   0.414
10636SOL    HW232808   0.229   2.399   0.473
10637SOL     OW32809   1.678   6.998   5.720
10637SOL    HW132810   1.703   0.075   5.739
10637SOL    HW232811   1.600   6.972   5.778
10638SOL     OW32812   5.936   4.659   6.837
10638SOL    HW132813   5.901   4.571   6.870
10638SOL    HW232814   5.948   4.655   6.738
10639SOL     OW32815   6.649   5.219   6.851
10639SOL    HW132816   6.655   5.152   6.925
10639SOL    HW232817   6.730   5.277   6.853
10640SOL     OW32818   4.241   5.594   4.824
10640SOL    HW132819   4.163   5.532   4.817
10640SOL    HW232820   4.325   5.545   4.798
10641SOL     OW32821   1.387   1.492   3.744
10641SOL    HW132822   1.326   1.547   3.801
10641SOL    HW232823   1.334   1.421   3.698
10642SOL     OW32824   6.617   1.890   5.587
10642SOL    HW132825   6.693   1.926   5.532
10642SOL    HW232826   6.600   1.795   5.562
10643SOL     OW32827   3.002   5.528   4.690
10643SOL    HW132828   3.084   5.534   4.748
10643SOL    HW232829   2.998   5.438   4.647
10644SOL     OW32830   1.333   3.698   3.733
10644SOL    HW132831   1.378   3.779   3.771
10644SOL    HW232832   1.399   3.623   3.727
10645SOL     OW32833   1.918   3.253   3.820
10645SOL    HW132834   1.848   3.241   3.750
10645SOL    HW232835   1.935   3.350   3.834
10646SOL     OW32836   5.408   1.475   3.241
10646SOL    HW132837   5.476   1.529   3.192
10646SOL    HW232838   5.439   1.460   3.335
10647SOL     OW32839   4.493   6.029   4.701
10647SOL    HW132840   4.432   6.064   4.629
10647SOL    HW232841   4.438   5.989   4.774
10648SOL     OW32842   4.865   3.463   5.788
10648SOL    HW132843   4.800   3.429   5.856
10648SOL    HW232844   4.826   3.453   5.696
10649SOL     OW32845   6.092   3.318   3.086
10649SOL    HW132846   6.165   3.352   3.026
10649SOL    HW232847   6.132   3.259   3.156
10650SOL     OW32848   0.538   0.433   3.036
10650SOL    HW132849   0.553   0.474   3.126
10650SOL    HW232850   0.620   0.444   2.980
10651SOL     OW32851   2.229   5.651   4.965
10651SOL    HW132852   2.136   5.614   4.963
10651SOL    HW232853   2.290   5.585   5.009
10652SOL     OW32854   3.490   0.270   0.148
10652SOL    HW132855   3.407   0.315   0.179
10652SOL    HW232856   3.490   0.175   0.179
10653SOL     OW32857   5.806   6.056   4.873
10653SOL    HW132858   5.740   6.055   4.797
10653SOL    HW232859   5.802   5.969   4.921
10654SOL     OW32860   0.152   1.705   3.729
10654SOL    HW132861   0.171   1.800   3.752
10654SOL    HW232862   0.181   1.646   3.806
10655SOL     OW32863   6.148   4.833   0.223
10655SOL    HW132864   6.140   4.781   0.308
10655SOL    HW232865   6.064   4.886   0.209
10656SOL     OW32866   5.674   0.763   5.770
10656SOL    HW132867   5.617   0.680   5.764
10656SOL    HW232868   5.766   0.738   5.801
10657SOL     OW32869   4.432   0.048   5.447
10657SOL    HW132870   4.357   0.071   5.384
10657SOL    HW232871   4.449   6.968   5.443
10658SOL     OW32872   1.503   0.990   5.259
10658SOL    HW132873   1.489   1.034   5.170
10658SOL    HW232874   1.585   0.933   5.257
10659SOL     OW32875   1.020   5.616   6.869
10659SOL    HW132876   0.931   5.633   6.826
10659SOL    HW232877   1.087   5.682   6.834
10660SOL     OW32878   6.133   2.174   6.291
10660SOL    HW132879   6.075   2.100   6.256
10660SOL    HW232880   6.196   2.138   6.359
10661SOL     OW32881   3.614   5.450   5.620
10661SOL    HW132882   3.571   5.380   5.676
10661SOL    HW232883   3.544   5.503   5.572
10662SOL     OW32884   3.649   1.828   0.958
10662SOL    HW132885   3.592   1.902   0.923
10662SOL    HW232886   3.593   1.748   0.978
10663SOL     OW32887   6.392   3.052   3.821
10663SOL    HW132888   6.475   2.996   3.815
10663SOL    HW232889   6.418   3.147   3.837
10664SOL     OW32890   1.144   6.320   4.567
10664SOL    HW132891   1.103   6.239   4.608
10664SOL    HW232892   1.204   6.292   4.491
10665SOL     OW32893   4.456   3.726   0.639
10665SOL    HW132894   4.507   3.747   0.723
10665SOL    HW232895   4.363   3.700   0.662
10666SOL     OW32896   5.204   3.435   1.622
10666SOL    HW132897   5.150   3.361   1.664
10666SOL    HW232898   5.158   3.466   1.539
10667SOL     OW32899   5.282   2.766   4.130
10667SOL    HW132900   5.337   2.685   4.150
10667SOL    HW232901   5.219   2.782   4.206
10668SOL     OW32902   3.194   3.118   5.805
10668SOL    HW132903   3.121   3.131   5.873
10668SOL    HW232904   3.209   3.203   5.756
10669SOL     OW32905   6.381   2.930   1.992
10669SOL    HW132906   6.462   2.964   1.944
10669SOL    HW232907   6.307   2.916   1.926
10670SOL     OW32908   4.852   4.778   4.003
10670SOL    HW132909   4.903   4.803   4.086
10670SOL    HW232910   4.904   4.710   3.951
10671SOL     OW32911   1.991   3.201   4.765
10671SOL    HW132912   1.924   3.250   4.820
10671SOL    HW232913   2.060   3.159   4.824
10672SOL     OW32914   6.633   5.048   1.201
10672SOL    HW132915   6.679   5.038   1.289
10672SOL    HW232916   6.658   5.135   1.160
10673SOL     OW32917   3.169   0.979   1.740
10673SOL    HW132918   3.176   0.962   1.838
10673SOL    HW232919   3.257   1.014   1.706
10674SOL     OW32920   4.145   3.341   3.883
10674SOL    HW132921   4.196   3.363   3.799
10674SOL    HW232922   4.100   3.253   3.872
10675SOL     OW32923   3.710   6.219   5.840
10675SOL    HW132924   3.658   6.281   5.899
10675SOL    HW232925   3.807   6.225   5.863
10676SOL     OW32926   1.560   1.215   4.386
10676SOL    HW132927   1.506   1.147   4.434
10676SOL    HW232928   1.502   1.267   4.323
10677SOL     OW32929   0.255   1.512   6.955
10677SOL    HW132930   0.242   1.547   6.863
10677SOL    HW232931   0.196   1.432   6.969
10678SOL     OW32932   3.480   4.996   2.589
10678SOL    HW132933   3.417   4.919   2.574
10678SOL    HW232934   3.439   5.080   2.553
10679SOL     OW32935   5.301   3.901   0.379
10679SOL    HW132936   5.328   3.936   0.469
10679SOL    HW232937   5.330   3.965   0.308
10680SOL     OW32938   4.104   1.634   5.161
10680SOL    HW132939   4.126   1.567   5.090
10680SOL    HW232940   4.113   1.591   5.251
10681SOL     OW32941   2.919   3.257   5.350
10681SOL    HW132942   2.876   3.320   5.285
10681SOL    HW232943   2.904   3.163   5.320
10682SOL     OW32944   5.137   3.211   6.199
10682SOL    HW132945   5.037   3.221   6.196
10682SOL    HW232946   5.163   3.125   6.156
10683SOL     OW32947   1.412   0.351   3.293
10683SOL    HW132948   1.437   0.347   3.196
10683SOL    HW232949   1.435   0.440   3.330
10684SOL     OW32950   4.735   4.316   1.395
10684SOL    HW132951   4.753   4.411   1.371
10684SOL    HW232952   4.670   4.312   1.471
10685SOL     OW32953   0.819   0.688   2.662
10685SOL    HW132954   0.804   0.602   2.711
10685SOL    HW232955   0.785   0.679   2.568
10686SOL     OW32956   2.972   1.771   6.667
10686SOL    HW132957   2.948   1.800   6.759
10686SOL    HW232958   2.907   1.703   6.635
10687SOL     OW32959   0.741   3.125   3.110
10687SOL    HW132960   0.817   3.172   3.065
10687SOL    HW232961   0.662   3.187   3.115
10688SOL     OW32962   5.045   1.218   3.779
10688SOL    HW132963   5.052   1.190   3.683
10688SOL    HW232964   4.958   1.185   3.817
10689SOL     OW32965   1.470   1.244   2.911
10689SOL    HW132966   1.564   1.265   2.938
10689SOL    HW232967   1.410   1.254   2.990
10690SOL     OW32968   0.939   6.812   4.939
10690SOL    HW132969   0.963   6.892   4.884
10690SOL    HW232970   0.862   6.764   4.896
10691SOL     OW32971   3.571   6.593   1.748
10691SOL    HW132972   3.525   6.547   1.672
10691SOL    HW232973   3.651   6.539   1.775
10692SOL     OW32974   2.741   2.295   4.243
10692SOL    HW132975   2.666   2.252   4.294
10692SOL    HW232976   2.824   2.291   4.297
10693SOL     OW32977   1.567   4.329   0.209
10693SOL    HW132978   1.484   4.365   0.252
10693SOL    HW232979   1.606   4.399   0.149
10694SOL     OW32980   5.249   2.112   5.472
10694SOL    HW132981   5.278   2.204   5.447
10694SOL    HW232982   5.272   2.095   5.568
10695SOL     OW32983   4.732   5.056   1.505
10695SOL    HW132984   4.773   5.000   1.577
10695SOL    HW232985   4.743   5.153   1.528
10696SOL     OW32986   6.817   5.144   4.351
10696SOL    HW132987   6.837   5.142   4.253
10696SOL    HW232988   6.823   5.051   4.388
10697SOL     OW32989   2.671   5.021   4.610
10697SOL    HW132990   2.647   4.928   4.580
10697SOL    HW232991   2.689   5.021   4.708
10698SOL     OW32992   4.160   4.644   6.767
10698SOL    HW132993   4.113   4.625   6.853
10698SOL    HW232994   4.207   4.732   6.773
10699SOL     OW32995   4.367   4.253   1.434
10699SOL    HW132996   4.300   4.251   1.508
10699SOL    HW232997   4.386   4.348   1.409
10700SOL     OW32998   5.175   0.283   1.704
10700SOL    HW132999   5.093   0.337   1.685
10700SOL    HW233000   5.197   0.228   1.623
10701SOL     OW33001   3.200   6.315   6.320
10701SOL    HW133002   3.123   6.307   6.257
10701SOL    HW233003   3.285   6.294   6.272
10702SOL     OW33004   5.628   2.688   2.527
10702SOL    HW133005   5.673   2.775   2.546
10702SOL    HW233006   5.643   2.626   2.604
10703SOL     OW33007   1.071   1.889   5.694
10703SOL    HW133008   1.041   1.980   5.722
10703SOL    HW233009   1.033   1.821   5.757
10704SOL     OW33010   5.100   6.912   2.120
10704SOL    HW133011   5.167   6.906   2.046
10704SOL    HW233012   5.016   6.953   2.085
10705SOL     OW33013   4.695   3.879   1.460
10705SOL    HW133014   4.671   3.934   1.540
10705SOL    HW233015   4.787   3.842   1.471
10706SOL     OW33016   2.788   0.810   2.129
10706SOL    HW133017   2.689   0.805   2.119
10706SOL    HW233018   2.810   0.824   2.226
10707SOL     OW33019   3.935   0.001   3.762
10707SOL    HW133020   3.965   0.043   3.848
10707SOL    HW233021   4.015   7.004   3.703
10708SOL     OW33022   4.254   1.039   1.312
10708SOL    HW133023   4.210   0.950   1.323
10708SOL    HW233024   4.333   1.044   1.372
10709SOL     OW33025   5.623   4.170   2.776
10709SOL    HW133026   5.673   4.175   2.862
10709SOL    HW233027   5.543   4.230   2.780
10710SOL     OW33028   4.964   1.211   3.473
10710SOL    HW133029   4.878   1.220   3.524
10710SOL    HW233030   4.971   1.118   3.437
10711SOL     OW33031   2.501   6.281   3.304
10711SOL    HW133032   2.481   6.232   3.389
10711SOL    HW233033   2.593   6.319   3.308
10712SOL     OW33034   5.581   0.760   3.592
10712SOL    HW133035   5.632   0.847   3.587
10712SOL    HW233036   5.509   0.760   3.523
10713SOL     OW33037   1.089   3.697   1.081
10713SOL    HW133038   1.110   3.791   1.054
10713SOL    HW233039   1.109   3.635   1.005
10714SOL     OW33040   3.268   4.100   4.962
10714SOL    HW133041   3.196   4.096   5.031
10714SOL    HW233042   3.357   4.085   5.005
10715SOL     OW33043   6.198   0.896   1.946
10715SOL    HW133044   6.296   0.876   1.946
10715SOL    HW233045   6.173   0.932   1.856
10716SOL     OW33046   5.237   1.015   3.097
10716SOL    HW133047   5.155   0.978   3.141
10716SOL    HW233048   5.243   1.113   3.114
10717SOL     OW33049   3.640   2.645   0.445
10717SOL    HW133050   3.594   2.620   0.359
10717SOL    HW233051   3.574   2.687   0.507
10718SOL     OW33052   1.686   5.202   6.321
10718SOL    HW133053   1.739   5.253   6.389
10718SOL    HW233054   1.589   5.203   6.347
10719SOL     OW33055   0.227   4.503   5.086
10719SOL    HW133056   0.236   4.588   5.136
10719SOL    HW233057   0.276   4.430   5.135
10720SOL     OW33058   6.841   5.707   2.723
10720SOL    HW133059   6.829   5.761   2.806
10720SOL    HW233060   6.751   5.683   2.687
10721SOL     OW33061   5.029   2.724   5.996
10721SOL    HW133062   5.049   2.626   6.001
10721SOL    HW233063   5.114   2.775   6.004
10722SOL     OW33064   0.088   3.698   5.220
10722SOL    HW133065   0.059   3.624   5.159
10722SOL    HW233066   0.123   3.774   5.166
10723SOL     OW33067   5.833   5.951   0.738
10723SOL    HW133068   5.827   6.049   0.720
10723SOL    HW233069   5.779   5.901   0.671
10724SOL     OW33070   0.129   6.320   5.935
10724SOL    HW133071   0.108   6.276   5.848
10724SOL    HW233072   0.151   6.250   6.003
10725SOL     OW33073   2.662   6.660   6.247
10725SOL    HW133074   2.741   6.710   6.284
10725SOL    HW233075   2.693   6.572   6.210
10726SOL     OW33076   3.777   0.587   4.059
10726SOL    HW133077   3.793   0.642   4.141
10726SOL    HW233078   3.849   0.605   3.992
10727SOL     OW33079   2.400   6.053   6.725
10727SOL    HW133080   2.340   5.989   6.679
10727SOL    HW233081   2.384   6.051   6.824
10728SOL     OW33082   5.547   6.118   1.951
10728SOL    HW133083   5.494   6.109   2.035
10728SOL    HW233084   5.509   6.058   1.881
10729SOL     OW33085   6.352   2.194   0.352
10729SOL    HW133086   6.394   2.271   0.305
10729SOL    HW233087   6.320   2.223   0.442
10730SOL     OW33088   4.611   0.467   3.010
10730SOL    HW133089   4.646   0.500   3.097
10730SOL    HW233090   4.688   0.443   2.950
10731SOL     OW33091   3.423   6.984   1.093
10731SOL    HW133092   3.478   0.042   1.127
10731SOL    HW233093   3.353   0.001   1.031
10732SOL     OW33094   0.639   3.327   6.188
10732SOL    HW133095   0.623   3.229   6.180
10732SOL    HW233096   0.643   3.368   6.096
10733SOL     OW33097   5.727   0.514   0.271
10733SOL    HW133098   5.791   0.511   0.195
10733SOL    HW233099   5.654   0.580   0.251
10734SOL     OW33100   5.792   2.666   2.121
10734SOL    HW133101   5.849   2.746   2.140
10734SOL    HW233102   5.848   2.592   2.084
10735SOL     OW33103   0.220   5.573   2.946
10735SOL    HW133104   0.136   5.626   2.963
10735SOL    HW233105   0.254   5.592   2.854
10736SOL     OW33106   2.175   1.455   4.986
10736SOL    HW133107   2.192   1.409   4.899
10736SOL    HW233108   2.254   1.512   5.010
10737SOL     OW33109   6.914   1.909   6.391
10737SOL    HW133110   6.866   1.826   6.359
10737SOL    HW233111   6.978   1.885   6.463
10738SOL     OW33112   4.021   0.555   4.333
10738SOL    HW133113   4.084   0.537   4.257
10738SOL    HW233114   3.963   0.633   4.311
10739SOL     OW33115   2.321   1.762   2.264
10739SOL    HW133116   2.238   1.799   2.223
10739SOL    HW233117   2.384   1.733   2.192
10740SOL     OW33118   4.464   6.105   3.702
10740SOL    HW133119   4.405   6.025   3.704
10740SOL    HW233120   4.443   6.161   3.622
10741SOL     OW33121   2.467   0.361   3.121
10741SOL    HW133122   2.561   0.358   3.157
10741SOL    HW233123   2.455   0.288   3.055
10742SOL     OW33124   6.857   5.774   6.885
10742SOL    HW133125   6.769   5.823   6.890
10742SOL    HW233126   6.871   5.741   6.791
10743SOL     OW33127   2.974   1.387   5.066
10743SOL    HW133128   2.978   1.287   5.077
10743SOL    HW233129   2.974   1.410   4.969
10744SOL     OW33130   6.144   1.506   0.283
10744SOL    HW133131   6.161   1.433   0.216
10744SOL    HW233132   6.119   1.590   0.234
10745SOL     OW33133   0.014   5.874   5.768
10745SOL    HW133134   0.107   5.857   5.735
10745SOL    HW233135   6.967   5.857   5.694
10746SOL     OW33136   1.865   4.203   5.158
10746SOL    HW133137   1.891   4.247   5.244
10746SOL    HW233138   1.944   4.156   5.119
10747SOL     OW33139   3.073   2.158   4.801
10747SOL    HW133140   3.120   2.208   4.874
10747SOL    HW233141   2.974   2.162   4.816
10748SOL     OW33142   5.809   1.357   2.436
10748SOL    HW133143   5.723   1.307   2.448
10748SOL    HW233144   5.875   1.325   2.504
10749SOL     OW33145   3.448   0.017   0.286
10749SOL    HW133146   3.493   0.022   0.375
10749SOL    HW233147   3.350   0.002   0.299
10750SOL     OW33148   4.470   6.146   6.022
10750SOL    HW133149   4.486   6.115   6.116
10750SOL    HW233150   4.559   6.159   5.977
10751SOL     OW33151   2.788   5.464   3.158
10751SOL    HW133152   2.798   5.483   3.061
10751SOL    HW233153   2.786   5.365   3.173
10752SOL     OW33154   5.270   5.075   3.826
10752SOL    HW133155   5.232   5.144   3.765
10752SOL    HW233156   5.247   5.099   3.921
10753SOL     OW33157   5.566   4.175   4.221
10753SOL    HW133158   5.612   4.155   4.307
10753SOL    HW233159   5.480   4.126   4.217
10754SOL     OW33160   1.261   0.011   2.688
10754SOL    HW133161   1.200   6.959   2.651
10754SOL    HW233162   1.342   6.985   2.727
10755SOL     OW33163   6.031   5.473   1.500
10755SOL    HW133164   6.116   5.423   1.518
10755SOL    HW233165   6.020   5.546   1.567
10756SOL     OW33166   0.432   0.210   5.388
10756SOL    HW133167   0.365   0.143   5.355
10756SOL    HW233168   0.390   0.267   5.459
10757SOL     OW33169   2.947   3.085   1.908
10757SOL    HW133170   2.981   2.994   1.889
10757SOL    HW233171   3.021   3.152   1.896
10758SOL     OW33172   0.150   5.171   4.371
10758SOL    HW133173   0.227   5.185   4.434
10758SOL    HW233174   0.157   5.080   4.330
10759SOL     OW33175   6.879   0.998   0.026
10759SOL    HW133176   6.915   1.007   0.119
10759SOL    HW233177   6.782   0.974   0.031
10760SOL     OW33178   5.704   1.755   4.475
10760SOL    HW133179   5.691   1.837   4.419
10760SOL    HW233180   5.707   1.780   4.572
10761SOL     OW33181   3.102   5.324   5.531
10761SOL    HW133182   3.015   5.357   5.495
10761SOL    HW233183   3.111   5.227   5.513
10762SOL     OW33184   3.116   1.453   6.443
10762SOL    HW133185   3.162   1.365   6.455
10762SOL    HW233186   3.184   1.524   6.421
10763SOL     OW33187   4.751   5.913   4.376
10763SOL    HW133188   4.661   5.931   4.337
10763SOL    HW233189   4.801   5.850   4.316
10764SOL     OW33190   4.094   0.154   4.900
10764SOL    HW133191   4.178   0.114   4.936
10764SOL    HW233192   4.028   0.081   4.879
10765SOL     OW33193   0.016   3.576   6.800
10765SOL    HW133194   0.063   3.651   6.848
10765SOL    HW233195   6.943   3.606   6.774
10766SOL     OW33196   3.131   3.324   1.796
10766SOL    HW133197   3.109   3.293   1.704
10766SOL    HW233198   3.227   3.348   1.802
10767SOL     OW33199   4.716   2.161   2.240
10767SOL    HW133200   4.749   2.255   2.230
10767SOL    HW233201   4.619   2.158   2.220
10768SOL     OW33202   5.612   4.623   6.011
10768SOL    HW133203   5.542   4.692   6.025
10768SOL    HW233204   5.701   4.660   6.039
10769SOL     OW33205   1.647   3.489   5.024
10769SOL    HW133206   1.551   3.502   5.000
10769SOL    HW233207   1.658   3.495   5.124
10770SOL     OW33208   4.145   5.601   3.900
10770SOL    HW133209   4.149   5.507   3.867
10770SOL    HW233210   4.071   5.610   3.966
10771SOL     OW33211   2.607   1.919   4.338
10771SOL    HW133212   2.570   2.011   4.325
10771SOL    HW233213   2.705   1.926   4.356
10772SOL     OW33214   5.244   6.036   4.175
10772SOL    HW133215   5.251   6.135   4.192
10772SOL    HW233216   5.151   6.014   4.148
10773SOL     OW33217   5.783   5.252   3.091
10773SOL    HW133218   5.737   5.180   3.039
10773SOL    HW233219   5.838   5.308   3.030
10774SOL     OW33220   0.272   6.931   3.659
10774SOL    HW133221   0.226   6.850   3.621
10774SOL    HW233222   0.262   7.008   3.596
10775SOL     OW33223   0.106   3.550   1.012
10775SOL    HW133224   0.088   3.461   1.053
10775SOL    HW233225   0.133   3.615   1.083
10776SOL     OW33226   1.746   0.238   5.836
10776SOL    HW133227   1.691   0.191   5.905
10776SOL    HW233228   1.725   0.336   5.838
10777SOL     OW33229   2.869   5.663   1.594
10777SOL    HW133230   2.931   5.695   1.665
10777SOL    HW233231   2.776   5.657   1.631
10778SOL     OW33232   5.955   5.735   2.305
10778SOL    HW133233   6.030   5.682   2.267
10778SOL    HW233234   5.868   5.699   2.272
10779SOL     OW33235   5.135   2.954   3.677
10779SOL    HW133236   5.132   2.886   3.750
10779SOL    HW233237   5.135   3.046   3.717
10780SOL     OW33238   6.766   0.548   2.126
10780SOL    HW133239   6.684   0.514   2.079
10780SOL    HW233240   6.779   0.497   2.211
10781SOL     OW33241   3.140   6.899   4.224
10781SOL    HW133242   3.185   6.967   4.166
10781SOL    HW233243   3.173   6.808   4.200
10782SOL     OW33244   6.821   5.336   3.586
10782SOL    HW133245   6.794   5.288   3.669
10782SOL    HW233246   6.890   5.405   3.608
10783SOL     OW33247   6.512   2.500   2.833
10783SOL    HW133248   6.507   2.595   2.863
10783SOL    HW233249   6.433   2.479   2.775
10784SOL     OW33250   1.965   1.899   4.963
10784SOL    HW133251   1.937   1.923   5.056
10784SOL    HW233252   1.931   1.807   4.941
10785SOL     OW33253   1.046   2.802   6.082
10785SOL    HW133254   1.060   2.879   6.020
10785SOL    HW233255   1.104   2.814   6.163
10786SOL     OW33256   6.272   4.194   4.764
10786SOL    HW133257   6.234   4.271   4.712
10786SOL    HW233258   6.344   4.150   4.711
10787SOL     OW33259   1.982   2.290   6.023
10787SOL    HW133260   1.993   2.360   5.953
10787SOL    HW233261   1.889   2.293   6.059
10788SOL     OW33262   5.602   3.793   6.250
10788SOL    HW133263   5.670   3.732   6.210
10788SOL    HW233264   5.583   3.765   6.344
10789SOL     OW33265   4.955   0.794   0.107
10789SOL    HW133266   4.922   0.841   0.026
10789SOL    HW233267   4.911   0.704   0.114
10790SOL     OW33268   5.987   6.379   2.900
10790SOL    HW133269   6.053   6.375   2.975
10790SOL    HW233270   5.906   6.326   2.924
10791SOL     OW33271   0.531   6.154   2.405
10791SOL    HW133272   0.515   6.056   2.413
10791SOL    HW233273   0.516   6.198   2.494
10792SOL     OW33274   3.835   4.977   6.137
10792SOL    HW133275   3.782   4.948   6.217
10792SOL    HW233276   3.794   4.939   6.054
10793SOL     OW33277   5.445   4.115   4.517
10793SOL    HW133278   5.450   4.141   4.613
10793SOL    HW233279   5.357   4.144   4.480
10794SOL     OW33280   3.339   3.237   4.576
10794SOL    HW133281   3.316   3.159   4.633
10794SOL    HW233282   3.405   3.208   4.506
10795SOL     OW33283   6.933   4.968   2.749
10795SOL    HW133284   6.860   4.909   2.714
10795SOL    HW233285   0.002   4.940   2.708
10796SOL     OW33286   0.716   6.480   5.473
10796SOL    HW133287   0.750   6.422   5.547
10796SOL    HW233288   0.778   6.558   5.461
10797SOL     OW33289   4.050   3.041   0.384
10797SOL    HW133290   4.106   3.100   0.326
10797SOL    HW233291   3.999   2.976   0.328
10798SOL     OW33292   5.815   1.192   0.999
10798SOL    HW133293   5.829   1.114   0.938
10798SOL    HW233294   5.791   1.159   1.090
10799SOL     OW33295   5.236   1.489   0.971
10799SOL    HW133296   5.295   1.434   1.030
10799SOL    HW233297   5.274   1.492   0.878
10800SOL     OW33298   6.587   6.721   0.856
10800SOL    HW133299   6.614   6.636   0.903
10800SOL    HW233300   6.495   6.710   0.818
10801SOL     OW33301   2.240   0.695   1.383
10801SOL    HW133302   2.284   0.711   1.472
10801SOL    HW233303   2.141   0.698   1.394
10802SOL     OW33304   5.635   1.739   3.875
10802SOL    HW133305   5.647   1.675   3.951
10802SOL    HW233306   5.542   1.776   3.877
10803SOL     OW33307   2.345   5.015   5.117
10803SOL    HW133308   2.332   4.995   5.214
10803SOL    HW233309   2.315   4.937   5.062
10804SOL     OW33310   6.146   3.451   4.173
10804SOL    HW133311   6.236   3.429   4.136
10804SOL    HW233312   6.113   3.537   4.133
10805SOL     OW33313   6.644   7.004   6.672
10805SOL    HW133314   6.622   0.081   6.653
10805SOL    HW233315   6.700   6.967   6.598
10806SOL     OW33316   1.469   5.404   0.989
10806SOL    HW133317   1.504   5.409   0.895
10806SOL    HW233318   1.370   5.392   0.987
10807SOL     OW33319   3.166   5.263   4.540
10807SOL    HW133320   3.235   5.223   4.601
10807SOL    HW233321   3.085   5.204   4.539
10808SOL     OW33322   1.482   3.482   6.912
10808SOL    HW133323   1.438   3.443   6.992
10808SOL    HW233324   1.436   3.450   6.829
10809SOL     OW33325   1.236   0.872   4.846
10809SOL    HW133326   1.327   0.911   4.862
10809SOL    HW233327   1.230   0.782   4.890
10810SOL     OW33328   6.208   0.676   3.788
10810SOL    HW133329   6.133   0.697   3.725
10810SOL    HW233330   6.185   0.709   3.880
10811SOL     OW33331   5.399   5.674   5.112
10811SOL    HW133332   5.478   5.637   5.161
10811SOL    HW233333   5.399   5.774   5.119
10812SOL     OW33334   0.417   2.800   0.960
10812SOL    HW133335   0.390   2.746   1.040
10812SOL    HW233336   0.349   2.871   0.942
10813SOL     OW33337   0.977   3.968   6.985
10813SOL    HW133338   1.007   4.044   6.928
10813SOL    HW233339   1.049   3.898   6.989
10814SOL     OW33340   3.257   1.846   1.861
10814SOL    HW133341   3.293   1.931   1.900
10814SOL    HW233342   3.184   1.867   1.796
10815SOL     OW33343   4.977   0.640   4.702
10815SOL    HW133344   4.945   0.735   4.712
10815SOL    HW233345   4.947   0.605   4.613
10816SOL     OW33346   3.387   3.010   5.320
10816SOL    HW133347   3.297   3.000   5.276
10816SOL    HW233348   3.401   2.933   5.383
10817SOL     OW33349   1.306   6.213   4.394
10817SOL    HW133350   1.344   6.126   4.362
10817SOL    HW233351   1.343   6.288   4.337
10818SOL     OW33352   4.206   3.848   0.123
10818SOL    HW133353   4.143   3.925   0.132
10818SOL    HW233354   4.293   3.880   0.087
10819SOL     OW33355   6.109   5.491   5.237
10819SOL    HW133356   6.184   5.427   5.220
10819SOL    HW233357   6.106   5.514   5.335
10820SOL     OW33358   1.912   4.900   6.181
10820SOL    HW133359   1.893   4.997   6.165
10820SOL    HW233360   2.002   4.877   6.144
10821SOL     OW33361   4.424   5.517   3.899
10821SOL    HW133362   4.417   5.537   3.801
10821SOL    HW233363   4.462   5.596   3.946
10822SOL     OW33364   5.636   0.535   2.587
10822SOL    HW133365   5.549   0.520   2.635
10822SOL    HW233366   5.702   0.465   2.615
10823SOL     OW33367   5.754   6.668   2.806
10823SOL    HW133368   5.795   6.654   2.896
10823SOL    HW233369   5.796   6.748   2.762
10824SOL     OW33370   1.508   2.480   2.710
10824SOL    HW133371   1.447   2.555   2.683
10824SOL    HW233372   1.603   2.510   2.698
10825SOL     OW33373   0.142   1.366   0.747
10825SOL    HW133374   0.044   1.364   0.762
10825SOL    HW233375   0.186   1.294   0.800
10826SOL     OW33376   6.679   3.342   2.492
10826SOL    HW133377   6.748   3.400   2.450
10826SOL    HW233378   6.597   3.341   2.436
10827SOL     OW33379   7.003   3.179   3.931
10827SOL    HW133380   6.955   3.094   3.911
10827SOL    HW233381   6.991   3.243   3.855
10828SOL     OW33382   6.999   4.126   4.760
10828SOL    HW133383   6.946   4.210   4.766
10828SOL    HW233384   0.002   4.094   4.853
10829SOL     OW33385   3.862   3.130   5.804
10829SOL    HW133386   3.943   3.075   5.785
10829SOL    HW233387   3.794   3.116   5.732
10830SOL     OW33388   5.341   1.875   3.617
10830SOL    HW133389   5.375   1.794   3.664
10830SOL    HW233390   5.356   1.866   3.519
10831SOL     OW33391   4.145   7.017   3.591
10831SOL    HW133392   4.150   0.047   3.503
10831SOL    HW233393   4.237   7.009   3.629
10832SOL     OW33394   6.859   2.977   6.512
10832SOL    HW133395   6.846   3.076   6.515
10832SOL    HW233396   6.913   2.947   6.591
10833SOL     OW33397   0.614   1.317   6.585
10833SOL    HW133398   0.574   1.353   6.669
10833SOL    HW233399   0.702   1.362   6.569
10834SOL     OW33400   6.894   6.386   1.817
10834SOL    HW133401   6.889   6.312   1.884
10834SOL    HW233402   6.874   6.351   1.726
10835SOL     OW33403   6.414   2.472   5.588
10835SOL    HW133404   6.411   2.393   5.650
10835SOL    HW233405   6.472   2.543   5.627
10836SOL     OW33406   0.004   1.628   3.532
10836SOL    HW133407   0.021   1.538   3.492
10836SOL    HW233408   0.062   1.641   3.612
10837SOL     OW33409   6.629   2.932   3.801
10837SOL    HW133410   6.720   2.941   3.841
10837SOL    HW233411   6.625   2.848   3.746
10838SOL     OW33412   0.251   6.515   2.821
10838SOL    HW133413   0.306   6.521   2.905
10838SOL    HW233414   0.217   6.606   2.797
10839SOL     OW33415   4.671   2.842   0.298
10839SOL    HW133416   4.752   2.868   0.349
10839SOL    HW233417   4.688   2.756   0.249
10840SOL     OW33418   2.755   0.579   2.568
10840SOL    HW133419   2.730   0.487   2.536
10840SOL    HW233420   2.693   0.646   2.527
10841SOL     OW33421   2.140   5.231   5.111
10841SOL    HW133422   2.190   5.144   5.114
10841SOL    HW233423   2.051   5.216   5.067
10842SOL     OW33424   6.795   4.517   1.462
10842SOL    HW133425   6.717   4.512   1.525
10842SOL    HW233426   6.871   4.463   1.498
10843SOL     OW33427   2.703   1.388   1.812
10843SOL    HW133428   2.668   1.295   1.817
10843SOL    HW233429   2.787   1.396   1.864
10844SOL     OW33430   2.134   5.108   4.589
10844SOL    HW133431   2.112   5.060   4.505
10844SOL    HW233432   2.159   5.042   4.660
10845SOL     OW33433   3.879   0.773   4.234
10845SOL    HW133434   3.860   0.804   4.141
10845SOL    HW233435   3.838   0.838   4.299
10846SOL     OW33436   5.663   6.589   6.129
10846SOL    HW133437   5.730   6.524   6.094
10846SOL    HW233438   5.627   6.556   6.217
10847SOL     OW33439   3.623   0.114   6.804
10847SOL    HW133440   3.706   0.106   6.860
10847SOL    HW233441   3.604   0.211   6.788
10848SOL     OW33442   1.859   3.207   1.885
10848SOL    HW133443   1.837   3.155   1.968
10848SOL    HW233444   1.878   3.302   1.908
10849SOL     OW33445   1.575   6.454   3.518
10849SOL    HW133446   1.516   6.496   3.449
10849SOL    HW233447   1.578   6.355   3.503
10850SOL     OW33448   4.565   4.474   0.335
10850SOL    HW133449   4.467   4.461   0.352
10850SOL    HW233450   4.606   4.387   0.307
10851SOL     OW33451   1.693   4.786   0.650
10851SOL    HW133452   1.765   4.721   0.627
10851SOL    HW233453   1.734   4.865   0.697
10852SOL     OW33454   3.216   1.086   2.051
10852SOL    HW133455   3.172   1.084   2.141
10852SOL    HW233456   3.258   0.997   2.033
10853SOL     OW33457   3.631   1.042   6.201
10853SOL    HW133458   3.599   0.965   6.256
10853SOL    HW233459   3.688   1.008   6.127
10854SOL     OW33460   3.097   5.694   5.927
10854SOL    HW133461   3.148   5.677   5.842
10854SOL    HW233462   3.074   5.606   5.970
10855SOL     OW33463   4.339   1.071   6.939
10855SOL    HW133464   4.421   1.022   6.967
10855SOL    HW233465   4.305   1.127   7.014
10856SOL     OW33466   0.530   0.872   0.722
10856SOL    HW133467   0.580   0.950   0.685
10856SOL    HW233468   0.595   0.801   0.749
10857SOL     OW33469   0.085   2.104   1.939
10857SOL    HW133470   7.017   2.154   1.931
10857SOL    HW233471   0.067   2.012   1.974
10858SOL     OW33472   2.050   6.329   2.153
10858SOL    HW133473   2.009   6.249   2.198
10858SOL    HW233474   1.978   6.392   2.124
10859SOL     OW33475   1.696   4.599   3.907
10859SOL    HW133476   1.664   4.627   3.816
10859SOL    HW233477   1.695   4.678   3.968
10860SOL     OW33478   0.121   3.377   3.040
10860SOL    HW133479   0.056   3.308   3.072
10860SOL    HW233480   0.072   3.444   2.983
10861SOL     OW33481   4.363   3.314   5.437
10861SOL    HW133482   4.336   3.253   5.363
10861SOL    HW233483   4.284   3.337   5.493
10862SOL     OW33484   1.432   0.762   5.748
10862SOL    HW133485   1.353   0.730   5.801
10862SOL    HW233486   1.481   0.832   5.799
10863SOL     OW33487   2.068   6.645   4.113
10863SOL    HW133488   2.039   6.550   4.126
10863SOL    HW233489   2.150   6.662   4.167
10864SOL     OW33490   3.390   6.673   3.127
10864SOL    HW133491   3.334   6.744   3.084
10864SOL    HW233492   3.381   6.679   3.227
10865SOL     OW33493   6.799   0.999   6.160
10865SOL    HW133494   6.893   0.976   6.136
10865SOL    HW233495   6.752   1.036   6.080
10866SOL     OW33496   5.688   4.803   6.766
10866SOL    HW133497   5.763   4.740   6.787
10866SOL    HW233498   5.710   4.853   6.682
10867SOL     OW33499   3.069   2.077   0.065
10867SOL    HW133500   3.097   2.168   0.032
10867SOL    HW233501   3.136   2.009   0.033
10868SOL     OW33502   1.474   2.281   3.505
10868SOL    HW133503   1.518   2.370   3.515
10868SOL    HW233504   1.544   2.211   3.488
10869NA      NA33505   6.271   2.297   5.167
10870NA      NA33506   4.414   4.601   5.202
10871NA      NA33507   2.191   3.300   1.780
10872NA      NA33508   5.002   3.565   5.107
10873NA      NA33509   4.133   2.341   5.300
10874NA      NA33510   3.524   4.938   1.799
10875NA      NA33511   6.803   6.545   4.945
10876NA      NA33512   3.829   3.464   5.105
10877NA      NA33513   4.825   6.043   5.994
10878NA      NA33514   2.556   0.054   4.936
10879NA      NA33515   0.308   4.858   2.754
10880NA      NA33516   2.045   0.361   2.344
10881NA      NA33517   3.710   4.545   1.334
10882NA      NA33518   3.822   3.496   3.086
   7.01834   7.01834   7.01834
