Generated by trjconv : CNT in water t= 590.00000
33518
    1C        C    1   2.841   2.765   4.744
    1C        C    2   2.896   2.715   4.864
    1C        C    3   2.839   2.765   4.982
    1C        C    4   2.854   2.771   4.259
    1C        C    5   2.903   2.722   4.381
    1C        C    6   2.847   2.769   4.502
    1C        C    7   3.009   2.632   4.626
    1C        C    8   2.892   2.711   4.623
    1C        C    9   3.075   2.593   4.744
    1C        C   10   3.004   2.624   4.863
    1C        C   11   3.182   2.489   4.975
    1C        C   12   3.058   2.554   4.972
    1C        C   13   2.850   2.766   3.769
    1C        C   14   2.902   2.718   3.892
    1C        C   15   2.852   2.771   4.013
    1C        C   16   3.018   2.639   4.136
    1C        C   17   2.906   2.725   4.136
    1C        C   18   3.078   2.605   4.259
    1C        C   19   3.016   2.636   4.382
    1C        C   20   3.204   2.542   4.500
    1C        C   21   3.074   2.599   4.505
    1C        C   22   3.275   2.521   4.619
    1C        C   23   3.203   2.533   4.740
    1C        C   24   3.411   2.484   4.866
    1C        C   25   3.268   2.498   4.862
    1C        C   26   3.488   2.479   4.983
    1C        C   27   2.852   2.767   3.281
    1C        C   28   2.907   2.723   3.403
    1C        C   29   2.851   2.765   3.526
    1C        C   30   3.016   2.632   3.647
    1C        C   31   2.902   2.715   3.648
    1C        C   32   3.077   2.599   3.770
    1C        C   33   3.017   2.636   3.892
    1C        C   34   3.206   2.540   4.013
    1C        C   35   3.078   2.599   4.014
    1C        C   36   3.275   2.525   4.135
    1C        C   37   3.210   2.556   4.257
    1C        C   38   3.415   2.505   4.378
    1C        C   39   3.276   2.529   4.379
    1C        C   40   3.487   2.497   4.500
    1C        C   41   3.415   2.497   4.621
    1C        C   42   3.626   2.483   4.746
    1C        C   43   3.484   2.483   4.744
    1C        C   44   3.705   2.483   4.862
    1C        C   45   3.627   2.478   4.978
    1C        C   46   2.838   2.750   2.792
    1C        C   47   2.896   2.706   2.914
    1C        C   48   2.845   2.759   3.035
    1C        C   49   3.015   2.635   3.160
    1C        C   50   2.901   2.718   3.158
    1C        C   51   3.078   2.599   3.281
    1C        C   52   3.017   2.635   3.403
    1C        C   53   3.207   2.540   3.522
    1C        C   54   3.078   2.597   3.525
    1C        C   55   3.273   2.518   3.646
    1C        C   56   3.205   2.539   3.768
    1C        C   57   3.412   2.498   3.891
    1C        C   58   3.272   2.518   3.891
    1C        C   59   3.484   2.493   4.013
    1C        C   60   3.414   2.498   4.136
    1C        C   61   3.627   2.494   4.256
    1C        C   62   3.486   2.491   4.257
    1C        C   63   3.699   2.503   4.377
    1C        C   64   3.628   2.493   4.498
    1C        C   65   3.829   2.539   4.618
    1C        C   66   3.694   2.496   4.623
    1C        C   67   3.901   2.559   4.738
    1C        C   68   3.839   2.526   4.861
    1C        C   69   4.050   2.580   4.976
    1C        C   70   3.920   2.528   4.975
    1C        C   71   2.823   2.729   2.306
    1C        C   72   2.885   2.692   2.427
    1C        C   73   2.833   2.743   2.548
    1C        C   74   3.006   2.622   2.672
    1C        C   75   2.889   2.701   2.670
    1C        C   76   3.073   2.591   2.792
    1C        C   77   3.011   2.624   2.915
    1C        C   78   3.202   2.537   3.034
    1C        C   79   3.072   2.592   3.038
    1C        C   80   3.273   2.520   3.155
    1C        C   81   3.208   2.543   3.279
    1C        C   82   3.412   2.486   3.399
    1C        C   83   3.274   2.515   3.400
    1C        C   84   3.480   2.485   3.523
    1C        C   85   3.412   2.492   3.646
    1C        C   86   3.623   2.492   3.768
    1C        C   87   3.482   2.490   3.769
    1C        C   88   3.695   2.503   3.889
    1C        C   89   3.625   2.496   4.011
    1C        C   90   3.832   2.542   4.133
    1C        C   91   3.696   2.503   4.133
    1C        C   92   3.900   2.572   4.253
    1C        C   93   3.833   2.548   4.375
    1C        C   94   4.024   2.635   4.495
    1C        C   95   3.896   2.574   4.499
    1C        C   96   4.083   2.672   4.617
    1C        C   97   4.028   2.623   4.737
    1C        C   98   4.185   2.761   4.859
    1C        C   99   4.097   2.648   4.859
    1C        C  100   4.211   2.838   4.974
    1C        C  101   2.817   2.724   2.067
    1C        C  102   2.991   2.594   2.186
    1C        C  103   2.873   2.674   2.185
    1C        C  104   3.062   2.572   2.308
    1C        C  105   3.001   2.612   2.429
    1C        C  106   3.198   2.530   2.545
    1C        C  107   3.067   2.582   2.551
    1C        C  108   3.269   2.511   2.666
    1C        C  109   3.201   2.531   2.788
    1C        C  110   3.408   2.495   2.911
    1C        C  111   3.268   2.514   2.911
    1C        C  112   3.480   2.490   3.033
    1C        C  113   3.412   2.495   3.156
    1C        C  114   3.625   2.488   3.278
    1C        C  115   3.484   2.483   3.277
    1C        C  116   3.692   2.503   3.402
    1C        C  117   3.621   2.497   3.523
    1C        C  118   3.827   2.545   3.642
    1C        C  119   3.691   2.507   3.645
    1C        C  120   3.891   2.574   3.764
    1C        C  121   3.830   2.546   3.888
    1C        C  122   4.021   2.638   4.009
    1C        C  123   3.897   2.570   4.011
    1C        C  124   4.084   2.674   4.130
    1C        C  125   4.025   2.636   4.253
    1C        C  126   4.195   2.764   4.375
    1C        C  127   4.089   2.670   4.375
    1C        C  128   4.246   2.815   4.496
    1C        C  129   4.187   2.768   4.616
    1C        C  130   4.318   2.934   4.738
    1C        C  131   4.234   2.819   4.739
    1C        C  132   4.351   3.000   4.858
    1C        C  133   4.288   2.954   4.974
    1C        C  134   3.170   2.470   2.075
    1C        C  135   3.036   2.512   2.078
    1C        C  136   3.257   2.475   2.185
    1C        C  137   3.191   2.513   2.304
    1C        C  138   3.401   2.468   2.425
    1C        C  139   3.263   2.496   2.424
    1C        C  140   3.478   2.480   2.543
    1C        C  141   3.409   2.493   2.666
    1C        C  142   3.619   2.490   2.789
    1C        C  143   3.478   2.488   2.789
    1C        C  144   3.691   2.499   2.910
    1C        C  145   3.621   2.493   3.033
    1C        C  146   3.828   2.537   3.153
    1C        C  147   3.693   2.494   3.154
    1C        C  148   3.894   2.567   3.274
    1C        C  149   3.829   2.540   3.396
    1C        C  150   4.019   2.630   3.519
    1C        C  151   3.894   2.564   3.519
    1C        C  152   4.079   2.670   3.641
    1C        C  153   4.016   2.640   3.764
    1C        C  154   4.191   2.761   3.884
    1C        C  155   4.077   2.678   3.886
    1C        C  156   4.241   2.812   4.006
    1C        C  157   4.191   2.765   4.129
    1C        C  158   4.334   2.921   4.254
    1C        C  159   4.243   2.813   4.252
    1C        C  160   4.364   2.990   4.374
    1C        C  161   4.327   2.930   4.497
    1C        C  162   4.437   3.113   4.617
    1C        C  163   4.366   2.991   4.618
    1C        C  164   4.463   3.184   4.737
    1C        C  165   4.428   3.119   4.857
    1C        C  166   4.512   3.318   4.971
    1C        C  167   4.480   3.183   4.971
    1C        C  168   3.474   2.436   2.070
    1C        C  169   3.396   2.454   2.185
    1C        C  170   3.615   2.461   2.304
    1C        C  171   3.473   2.455   2.304
    1C        C  172   3.690   2.480   2.421
    1C        C  173   3.619   2.484   2.543
    1C        C  174   3.823   2.540   2.666
    1C        C  175   3.687   2.504   2.665
    1C        C  176   3.892   2.560   2.788
    1C        C  177   3.827   2.536   2.911
    1C        C  178   4.022   2.625   3.028
    1C        C  179   3.897   2.560   3.031
    1C        C  180   4.084   2.661   3.150
    1C        C  181   4.021   2.629   3.272
    1C        C  182   4.192   2.750   3.396
    1C        C  183   4.078   2.666   3.396
    1C        C  184   4.243   2.803   3.517
    1C        C  185   4.188   2.760   3.639
    1C        C  186   4.334   2.915   3.762
    1C        C  187   4.242   2.808   3.760
    1C        C  188   4.373   2.976   3.884
    1C        C  189   4.331   2.921   4.007
    1C        C  190   4.439   3.101   4.128
    1C        C  191   4.373   2.977   4.130
    1C        C  192   4.469   3.169   4.248
    1C        C  193   4.435   3.112   4.372
    1C        C  194   4.508   3.311   4.488
    1C        C  195   4.468   3.175   4.494
    1C        C  196   4.526   3.383   4.608
    1C        C  197   4.510   3.318   4.732
    1C        C  198   4.558   3.530   4.849
    1C        C  199   4.533   3.389   4.853
    1C        C  200   4.582   3.615   4.962
    1C        C  201   3.613   2.421   2.069
    1C        C  202   3.826   2.504   2.181
    1C        C  203   3.692   2.454   2.184
    1C        C  204   3.896   2.539   2.299
    1C        C  205   3.826   2.519   2.421
    1C        C  206   4.014   2.620   2.539
    1C        C  207   3.890   2.552   2.542
    1C        C  208   4.079   2.654   2.660
    1C        C  209   4.019   2.622   2.784
    1C        C  210   4.194   2.745   2.903
    1C        C  211   4.082   2.659   2.905
    1C        C  212   4.246   2.794   3.025
    1C        C  213   4.195   2.748   3.149
    1C        C  214   4.329   2.908   3.270
    1C        C  215   4.243   2.796   3.273
    1C        C  216   4.367   2.968   3.392
    1C        C  217   4.333   2.912   3.517
    1C        C  218   4.439   3.097   3.638
    1C        C  219   4.373   2.972   3.638
    1C        C  220   4.465   3.165   3.759
    1C        C  221   4.437   3.101   3.882
    1C        C  222   4.497   3.303   4.002
    1C        C  223   4.465   3.166   4.004
    1C        C  224   4.513   3.376   4.122
    1C        C  225   4.507   3.305   4.244
    1C        C  226   4.521   3.519   4.363
    1C        C  227   4.520   3.378   4.364
    1C        C  228   4.512   3.590   4.484
    1C        C  229   4.529   3.524   4.608
    1C        C  230   4.507   3.738   4.722
    1C        C  231   4.540   3.600   4.727
    1C        C  232   4.498   3.815   4.841
    1C        C  233   4.546   3.750   4.956
    1C        C  234   4.012   2.611   2.058
    1C        C  235   3.891   2.543   2.063
    1C        C  236   4.080   2.649   2.175
    1C        C  237   4.021   2.606   2.296
    1C        C  238   4.193   2.735   2.418
    1C        C  239   4.079   2.650   2.417
    1C        C  240   4.248   2.783   2.539
    1C        C  241   4.192   2.739   2.661
    1C        C  242   4.334   2.902   2.781
    1C        C  243   4.245   2.792   2.780
    1C        C  244   4.377   2.959   2.903
    1C        C  245   4.336   2.903   3.026
    1C        C  246   4.435   3.091   3.146
    1C        C  247   4.371   2.965   3.148
    1C        C  248   4.457   3.157   3.269
    1C        C  249   4.430   3.095   3.393
    1C        C  250   4.496   3.298   3.511
    1C        C  251   4.461   3.161   3.514
    1C        C  252   4.507   3.370   3.632
    1C        C  253   4.502   3.302   3.756
    1C        C  254   4.519   3.512   3.875
    1C        C  255   4.512   3.371   3.879
    1C        C  256   4.513   3.586   3.995
    1C        C  257   4.518   3.518   4.119
    1C        C  258   4.484   3.728   4.238
    1C        C  259   4.515   3.590   4.241
    1C        C  260   4.460   3.795   4.360
    1C        C  261   4.480   3.728   4.483
    1C        C  262   4.418   3.933   4.599
    1C        C  263   4.474   3.804   4.602
    1C        C  264   4.396   4.004   4.720
    1C        C  265   4.437   3.942   4.840
    1C        C  266   4.320   4.124   4.957
    1C        C  267   4.394   4.006   4.957
    1C        C  268   4.256   2.777   2.058
    1C        C  269   4.198   2.726   2.175
    1C        C  270   4.345   2.883   2.296
    1C        C  271   4.251   2.776   2.296
    1C        C  272   4.381   2.949   2.416
    1C        C  273   4.339   2.891   2.538
    1C        C  274   4.440   3.082   2.659
    1C        C  275   4.373   2.958   2.658
    1C        C  276   4.472   3.150   2.779
    1C        C  277   4.447   3.082   2.900
    1C        C  278   4.501   3.288   3.022
    1C        C  279   4.463   3.152   3.022
    1C        C  280   4.509   3.361   3.143
    1C        C  281   4.492   3.294   3.266
    1C        C  282   4.516   3.506   3.388
    1C        C  283   4.509   3.365   3.388
    1C        C  284   4.512   3.580   3.508
    1C        C  285   4.513   3.511   3.632
    1C        C  286   4.491   3.723   3.749
    1C        C  287   4.514   3.584   3.753
    1C        C  288   4.472   3.791   3.872
    1C        C  289   4.491   3.725   3.995
    1C        C  290   4.426   3.931   4.114
    1C        C  291   4.470   3.797   4.115
    1C        C  292   4.398   3.998   4.235
    1C        C  293   4.422   3.931   4.356
    1C        C  294   4.321   4.120   4.477
    1C        C  295   4.393   3.999   4.477
    1C        C  296   4.283   4.184   4.598
    1C        C  297   4.323   4.126   4.720
    1C        C  298   4.200   4.308   4.834
    1C        C  299   4.281   4.190   4.840
    1C        C  300   4.169   4.393   4.945
    1C        C  301   4.345   2.884   2.060
    1C        C  302   4.474   3.061   2.175
    1C        C  303   4.396   2.941   2.177
    1C        C  304   4.483   3.137   2.296
    1C        C  305   4.446   3.074   2.417
    1C        C  306   4.512   3.280   2.533
    1C        C  307   4.468   3.146   2.536
    1C        C  308   4.518   3.354   2.653
    1C        C  309   4.504   3.288   2.778
    1C        C  310   4.521   3.498   2.898
    1C        C  311   4.518   3.357   2.900
    1C        C  312   4.517   3.571   3.019
    1C        C  313   4.521   3.502   3.142
    1C        C  314   4.486   3.712   3.261
    1C        C  315   4.514   3.573   3.264
    1C        C  316   4.467   3.784   3.381
    1C        C  317   4.487   3.719   3.505
    1C        C  318   4.421   3.921   3.627
    1C        C  319   4.474   3.790   3.626
    1C        C  320   4.383   3.984   3.748
    1C        C  321   4.415   3.920   3.870
    1C        C  322   4.312   4.107   3.990
    1C        C  323   4.391   3.990   3.991
    1C        C  324   4.269   4.164   4.111
    1C        C  325   4.317   4.115   4.235
    1C        C  326   4.182   4.281   4.352
    1C        C  327   4.276   4.176   4.355
    1C        C  328   4.131   4.334   4.473
    1C        C  329   4.184   4.285   4.594
    1C        C  330   4.023   4.432   4.713
    1C        C  331   4.136   4.344   4.713
    1C        C  332   3.969   4.491   4.829
    1C        C  333   4.053   4.472   4.939
    1C        C  334   4.550   3.263   2.060
    1C        C  335   4.529   3.124   2.059
    1C        C  336   4.539   3.345   2.172
    1C        C  337   4.512   3.276   2.292
    1C        C  338   4.527   3.492   2.409
    1C        C  339   4.524   3.351   2.411
    1C        C  340   4.524   3.563   2.531
    1C        C  341   4.524   3.495   2.655
    1C        C  342   4.486   3.705   2.773
    1C        C  343   4.520   3.568   2.776
    1C        C  344   4.471   3.777   2.894
    1C        C  345   4.491   3.709   3.016
    1C        C  346   4.417   3.910   3.137
    1C        C  347   4.469   3.779   3.138
    1C        C  348   4.388   3.977   3.257
    1C        C  349   4.420   3.917   3.381
    1C        C  350   4.313   4.101   3.501
    1C        C  351   4.390   3.982   3.503
    1C        C  352   4.269   4.161   3.621
    1C        C  353   4.310   4.105   3.743
    1C        C  354   4.172   4.263   3.865
    1C        C  355   4.269   4.160   3.867
    1C        C  356   4.121   4.315   3.986
    1C        C  357   4.177   4.271   4.108
    1C        C  358   4.010   4.401   4.229
    1C        C  359   4.129   4.325   4.229
    1C        C  360   3.953   4.448   4.350
    1C        C  361   4.017   4.418   4.472
    1C        C  362   3.827   4.517   4.592
    1C        C  363   3.956   4.459   4.592
    1C        C  364   3.760   4.547   4.713
    1C        C  365   3.836   4.539   4.831
    1C        C  366   3.626   4.588   4.948
    1C        C  367   3.763   4.567   4.947
    1C        C  368   4.508   3.558   2.050
    1C        C  369   4.524   3.485   2.169
    1C        C  370   4.500   3.702   2.283
    1C        C  371   4.518   3.562   2.287
    1C        C  372   4.484   3.770   2.406
    1C        C  373   4.499   3.702   2.529
    1C        C  374   4.420   3.903   2.646
    1C        C  375   4.467   3.770   2.649
    1C        C  376   4.386   3.966   2.768
    1C        C  377   4.418   3.908   2.892
    1C        C  378   4.317   4.095   3.011
    1C        C  379   4.387   3.973   3.014
    1C        C  380   4.270   4.151   3.132
    1C        C  381   4.311   4.096   3.255
    1C        C  382   4.174   4.257   3.373
    1C        C  383   4.270   4.154   3.377
    1C        C  384   4.118   4.304   3.494
    1C        C  385   4.170   4.262   3.618
    1C        C  386   4.007   4.394   3.738
    1C        C  387   4.120   4.309   3.742
    1C        C  388   3.945   4.429   3.860
    1C        C  389   4.002   4.393   3.984
    1C        C  390   3.818   4.493   4.107
    1C        C  391   3.945   4.430   4.107
    1C        C  392   3.752   4.519   4.229
    1C        C  393   3.823   4.504   4.350
    1C        C  394   3.617   4.555   4.472
    1C        C  395   3.756   4.534   4.471
    1C        C  396   3.546   4.565   4.593
    1C        C  397   3.620   4.564   4.714
    1C        C  398   3.407   4.551   4.835
    1C        C  399   3.546   4.575   4.834
    1C        C  400   3.340   4.514   4.953
    1C        C  401   4.505   3.697   2.047
    1C        C  402   4.443   3.908   2.163
    1C        C  403   4.490   3.775   2.163
    1C        C  404   4.405   3.970   2.284
    1C        C  405   4.432   3.902   2.404
    1C        C  406   4.325   4.091   2.522
    1C        C  407   4.398   3.970   2.524
    1C        C  408   4.275   4.143   2.643
    1C        C  409   4.312   4.087   2.767
    1C        C  410   4.172   4.248   2.884
    1C        C  411   4.270   4.147   2.888
    1C        C  412   4.118   4.296   3.006
    1C        C  413   4.168   4.248   3.130
    1C        C  414   4.003   4.384   3.248
    1C        C  415   4.119   4.302   3.251
    1C        C  416   3.940   4.415   3.371
    1C        C  417   4.000   4.381   3.494
    1C        C  418   3.813   4.479   3.616
    1C        C  419   3.945   4.427   3.616
    1C        C  420   3.747   4.502   3.739
    1C        C  421   3.814   4.482   3.861
    1C        C  422   3.610   4.532   3.985
    1C        C  423   3.750   4.509   3.984
    1C        C  424   3.542   4.547   4.107
    1C        C  425   3.613   4.543   4.230
    1C        C  426   3.402   4.546   4.352
    1C        C  427   3.542   4.556   4.351
    1C        C  428   3.333   4.538   4.475
    1C        C  429   3.405   4.551   4.596
    1C        C  430   3.192   4.514   4.718
    1C        C  431   3.332   4.542   4.716
    1C        C  432   3.125   4.490   4.841
    1C        C  433   3.205   4.485   4.956
    1C        C  434   4.382   4.120   2.050
    1C        C  435   4.440   3.992   2.051
    1C        C  436   4.297   4.158   2.159
    1C        C  437   4.328   4.090   2.280
    1C        C  438   4.181   4.246   2.398
    1C        C  439   4.282   4.147   2.400
    1C        C  440   4.123   4.290   2.518
    1C        C  441   4.173   4.242   2.641
    1C        C  442   4.007   4.378   2.762
    1C        C  443   4.121   4.295   2.761
    1C        C  444   3.944   4.415   2.882
    1C        C  445   4.004   4.379   3.005
    1C        C  446   3.811   4.471   3.126
    1C        C  447   3.942   4.419   3.126
    1C        C  448   3.746   4.498   3.249
    1C        C  449   3.811   4.474   3.372
    1C        C  450   3.607   4.526   3.493
    1C        C  451   3.746   4.501   3.494
    1C        C  452   3.540   4.533   3.617
    1C        C  453   3.609   4.532   3.741
    1C        C  454   3.398   4.544   3.861
    1C        C  455   3.539   4.541   3.863
    1C        C  456   3.331   4.530   3.984
    1C        C  457   3.401   4.539   4.106
    1C        C  458   3.196   4.495   4.232
    1C        C  459   3.332   4.533   4.230
    1C        C  460   3.130   4.476   4.355
    1C        C  461   3.195   4.505   4.477
    1C        C  462   2.996   4.426   4.602
    1C        C  463   3.124   4.485   4.598
    1C        C  464   2.931   4.396   4.724
    1C        C  465   2.991   4.438   4.845
    1C        C  466   2.799   4.336   4.959
    1C        C  467   2.908   4.424   4.960
    1C        C  468   4.121   4.288   2.040
    1C        C  469   4.185   4.247   2.157
    1C        C  470   4.004   4.370   2.279
    1C        C  471   4.123   4.291   2.277
    1C        C  472   3.939   4.400   2.401
    1C        C  473   4.006   4.369   2.521
    1C        C  474   3.812   4.464   2.639
    1C        C  475   3.943   4.412   2.640
    1C        C  476   3.743   4.492   2.760
    1C        C  477   3.813   4.469   2.880
    1C        C  478   3.607   4.518   3.005
    1C        C  479   3.745   4.487   3.003
    1C        C  480   3.537   4.534   3.127
    1C        C  481   3.607   4.525   3.249
    1C        C  482   3.394   4.533   3.374
    1C        C  483   3.536   4.529   3.371
    1C        C  484   3.325   4.533   3.497
    1C        C  485   3.399   4.536   3.617
    1C        C  486   3.191   4.490   3.743
    1C        C  487   3.327   4.529   3.739
    1C        C  488   3.128   4.466   3.867
    1C        C  489   3.194   4.494   3.988
    1C        C  490   3.003   4.404   4.114
    1C        C  491   3.128   4.470   4.111
    1C        C  492   2.944   4.372   4.238
    1C        C  493   3.004   4.412   4.359
    1C        C  494   2.824   4.299   4.482
    1C        C  495   2.940   4.380   4.481
    1C        C  496   2.771   4.252   4.605
    1C        C  497   2.821   4.305   4.726
    1C        C  498   2.662   4.164   4.842
    1C        C  499   2.750   4.274   4.843
    1C        C  500   2.590   4.117   4.953
    1C        C  501   4.001   4.358   2.040
    1C        C  502   3.814   4.466   2.154
    1C        C  503   3.941   4.405   2.158
    1C        C  504   3.741   4.481   2.274
    1C        C  505   3.811   4.459   2.395
    1C        C  506   3.606   4.516   2.519
    1C        C  507   3.744   4.485   2.517
    1C        C  508   3.532   4.519   2.639
    1C        C  509   3.604   4.514   2.761
    1C        C  510   3.394   4.525   2.885
    1C        C  511   3.535   4.523   2.884
    1C        C  512   3.324   4.519   3.007
    1C        C  513   3.395   4.529   3.129
    1C        C  514   3.189   4.487   3.254
    1C        C  515   3.325   4.524   3.251
    1C        C  516   3.122   4.462   3.376
    1C        C  517   3.189   4.493   3.497
    1C        C  518   3.001   4.401   3.623
    1C        C  519   3.125   4.468   3.620
    1C        C  520   2.943   4.359   3.746
    1C        C  521   3.003   4.400   3.867
    1C        C  522   2.833   4.278   3.993
    1C        C  523   2.945   4.365   3.991
    1C        C  524   2.783   4.235   4.117
    1C        C  525   2.832   4.286   4.239
    1C        C  526   2.688   4.133   4.361
    1C        C  527   2.774   4.244   4.361
    1C        C  528   2.645   4.078   4.484
    1C        C  529   2.682   4.143   4.604
    1C        C  530   2.579   3.958   4.728
    1C        C  531   2.635   4.089   4.726
    1C        C  532   2.536   3.900   4.850
    1C        C  533   2.528   3.992   4.960
    1C        C  534   3.615   4.560   2.039
    1C        C  535   3.747   4.514   2.040
    1C        C  536   3.534   4.533   2.154
    1C        C  537   3.603   4.512   2.277
    1C        C  538   3.391   4.520   2.396
    1C        C  539   3.532   4.524   2.399
    1C        C  540   3.319   4.510   2.517
    1C        C  541   3.391   4.520   2.638
    1C        C  542   3.187   4.479   2.765
    1C        C  543   3.324   4.513   2.763
    1C        C  544   3.121   4.459   2.888
    1C        C  545   3.187   4.485   3.011
    1C        C  546   2.998   4.391   3.134
    1C        C  547   3.122   4.459   3.133
    1C        C  548   2.937   4.356   3.256
    1C        C  549   3.000   4.392   3.378
    1C        C  550   2.830   4.271   3.502
    1C        C  551   2.940   4.360   3.502
    1C        C  552   2.778   4.226   3.625
    1C        C  553   2.829   4.276   3.747
    1C        C  554   2.692   4.119   3.874
    1C        C  555   2.782   4.227   3.871
    1C        C  556   2.651   4.061   3.996
    1C        C  557   2.694   4.125   4.114
    1C        C  558   2.586   3.948   4.243
    1C        C  559   2.654   4.071   4.239
    1C        C  560   2.561   3.881   4.365
    1C        C  561   2.583   3.951   4.486
    1C        C  562   2.532   3.747   4.613
    1C        C  563   2.557   3.886   4.609
    1C        C  564   2.518   3.678   4.735
    1C        C  565   2.519   3.758   4.853
    1C        C  566   2.535   3.546   4.977
    1C        C  567   2.527   3.684   4.972
    1C        C  568   3.326   4.466   2.040
    1C        C  569   3.393   4.512   2.154
    1C        C  570   3.183   4.465   2.280
    1C        C  571   3.319   4.508   2.275
    1C        C  572   3.114   4.445   2.402
    1C        C  573   3.183   4.472   2.522
    1C        C  574   2.987   4.395   2.648
    1C        C  575   3.116   4.454   2.645
    1C        C  576   2.926   4.361   2.770
    1C        C  577   2.995   4.395   2.888
    1C        C  578   2.825   4.270   3.015
    1C        C  579   2.938   4.354   3.011
    1C        C  580   2.772   4.221   3.136
    1C        C  581   2.825   4.270   3.258
    1C        C  582   2.685   4.115   3.383
    1C        C  583   2.774   4.224   3.381
    1C        C  584   2.648   4.057   3.506
    1C        C  585   2.689   4.116   3.628
    1C        C  586   2.581   3.937   3.753
    1C        C  587   2.648   4.062   3.752
    1C        C  588   2.564   3.872   3.877
    1C        C  589   2.591   3.933   4.001
    1C        C  590   2.529   3.736   4.125
    1C        C  591   2.560   3.874   4.125
    1C        C  592   2.516   3.670   4.249
    1C        C  593   2.527   3.744   4.369
    1C        C  594   2.514   3.535   4.495
    1C        C  595   2.518   3.676   4.492
    1C        C  596   2.517   3.462   4.616
    1C        C  597   2.516   3.536   4.736
    1C        C  598   2.535   3.328   4.857
    1C        C  599   2.533   3.469   4.859
    1C        C  600   2.534   3.249   4.973
    1C        C  601   3.191   4.435   2.041
    1C        C  602   2.981   4.384   2.159
    1C        C  603   3.118   4.427   2.160
    1C        C  604   2.924   4.348   2.284
    1C        C  605   2.985   4.388   2.404
    1C        C  606   2.814   4.267   2.527
    1C        C  607   2.925   4.355   2.527
    1C        C  608   2.765   4.218   2.650
    1C        C  609   2.818   4.270   2.771
    1C        C  610   2.683   4.110   2.894
    1C        C  611   2.770   4.221   2.894
    1C        C  612   2.645   4.051   3.016
    1C        C  613   2.682   4.112   3.139
    1C        C  614   2.584   3.926   3.264
    1C        C  615   2.646   4.053   3.262
    1C        C  616   2.562   3.863   3.389
    1C        C  617   2.585   3.930   3.510
    1C        C  618   2.519   3.731   3.636
    1C        C  619   2.554   3.867   3.633
    1C        C  620   2.512   3.664   3.761
    1C        C  621   2.525   3.736   3.881
    1C        C  622   2.504   3.525   4.008
    1C        C  623   2.516   3.665   4.003
    1C        C  624   2.510   3.456   4.131
    1C        C  625   2.511   3.528   4.252
    1C        C  626   2.541   3.321   4.376
    1C        C  627   2.513   3.459   4.375
    1C        C  628   2.561   3.251   4.497
    1C        C  629   2.542   3.323   4.618
    1C        C  630   2.598   3.117   4.744
    1C        C  631   2.553   3.252   4.739
    1C        C  632   2.616   3.046   4.865
    1C        C  633   2.567   3.113   4.982
    1C        C  634   2.778   4.302   2.049
    1C        C  635   2.884   4.393   2.054
    1C        C  636   2.745   4.229   2.165
    1C        C  637   2.808   4.265   2.286
    1C        C  638   2.675   4.102   2.410
    1C        C  639   2.756   4.217   2.408
    1C        C  640   2.639   4.044   2.533
    1C        C  641   2.677   4.108   2.653
    1C        C  642   2.579   3.919   2.776
    1C        C  643   2.643   4.045   2.775
    1C        C  644   2.554   3.856   2.900
    1C        C  645   2.583   3.924   3.021
    1C        C  646   2.521   3.722   3.148
    1C        C  647   2.555   3.860   3.143
    1C        C  648   2.515   3.654   3.272
    1C        C  649   2.527   3.726   3.393
    1C        C  650   2.508   3.517   3.518
    1C        C  651   2.508   3.659   3.515
    1C        C  652   2.512   3.450   3.642
    1C        C  653   2.508   3.523   3.763
    1C        C  654   2.545   3.316   3.888
    1C        C  655   2.512   3.453   3.886
    1C        C  656   2.558   3.248   4.011
    1C        C  657   2.538   3.317   4.132
    1C        C  658   2.612   3.119   4.256
    1C        C  659   2.558   3.250   4.255
    1C        C  660   2.639   3.056   4.380
    1C        C  661   2.603   3.117   4.502
    1C        C  662   2.711   2.934   4.623
    1C        C  663   2.632   3.051   4.624
    1C        C  664   2.751   2.874   4.744
    1C        C  665   2.701   2.930   4.865
    1C        C  666   2.740   2.862   4.981
    1C        C  667   2.667   4.027   2.050
    1C        C  668   2.675   4.107   2.166
    1C        C  669   2.584   3.912   2.291
    1C        C  670   2.640   4.042   2.286
    1C        C  671   2.552   3.847   2.412
    1C        C  672   2.573   3.918   2.532
    1C        C  673   2.508   3.718   2.658
    1C        C  674   2.548   3.853   2.655
    1C        C  675   2.496   3.649   2.780
    1C        C  676   2.514   3.721   2.901
    1C        C  677   2.504   3.513   3.027
    1C        C  678   2.506   3.655   3.025
    1C        C  679   2.511   3.443   3.150
    1C        C  680   2.506   3.513   3.272
    1C        C  681   2.535   3.307   3.399
    1C        C  682   2.507   3.445   3.396
    1C        C  683   2.562   3.242   3.522
    1C        C  684   2.541   3.312   3.643
    1C        C  685   2.607   3.112   3.769
    1C        C  686   2.562   3.246   3.766
    1C        C  687   2.637   3.047   3.891
    1C        C  688   2.606   3.115   4.011
    1C        C  689   2.721   2.939   4.139
    1C        C  690   2.641   3.055   4.134
    1C        C  691   2.761   2.878   4.260
    1C        C  692   2.716   2.937   4.380
    1C        C  693   2.755   2.876   4.501
    1C        C  694   2.620   3.895   2.054
    1C        C  695   2.529   3.702   2.177
    1C        C  696   2.579   3.834   2.173
    1C        C  697   2.503   3.636   2.299
    1C        C  698   2.511   3.712   2.417
    1C        C  699   2.478   3.502   2.541
    1C        C  700   2.493   3.643   2.539
    1C        C  701   2.498   3.434   2.664
    1C        C  702   2.497   3.507   2.785
    1C        C  703   2.530   3.299   2.908
    1C        C  704   2.509   3.438   2.907
    1C        C  705   2.551   3.237   3.033
    1C        C  706   2.533   3.304   3.156
    1C        C  707   2.604   3.104   3.279
    1C        C  708   2.551   3.235   3.278
    1C        C  709   2.637   3.044   3.403
    1C        C  710   2.606   3.108   3.525
    1C        C  711   2.713   2.927   3.648
    1C        C  712   2.637   3.047   3.648
    1C        C  713   2.760   2.875   3.770
    1C        C  714   2.721   2.933   3.893
    1C        C  715   2.763   2.880   4.017
    1C        C  716   2.454   3.498   2.059
    1C        C  717   2.492   3.633   2.061
    1C        C  718   2.467   3.421   2.179
    1C        C  719   2.486   3.494   2.299
    1C        C  720   2.513   3.288   2.423
    1C        C  721   2.484   3.426   2.423
    1C        C  722   2.540   3.224   2.546
    1C        C  723   2.529   3.297   2.666
    1C        C  724   2.595   3.094   2.789
    1C        C  725   2.543   3.225   2.788
    1C        C  726   2.627   3.037   2.914
    1C        C  727   2.601   3.105   3.035
    1C        C  728   2.715   2.925   3.157
    1C        C  729   2.633   3.040   3.157
    1C        C  730   2.755   2.870   3.281
    1C        C  731   2.711   2.924   3.404
    1C        C  732   2.756   2.870   3.527
    1C        C  733   2.493   3.198   2.068
    1C        C  734   2.488   3.280   2.181
    1C        C  735   2.584   3.085   2.304
    1C        C  736   2.526   3.215   2.302
    1C        C  737   2.619   3.023   2.425
    1C        C  738   2.587   3.091   2.545
    1C        C  739   2.702   2.912   2.669
    1C        C  740   2.624   3.029   2.667
    1C        C  741   2.747   2.858   2.792
    1C        C  742   2.706   2.920   2.912
    1C        C  743   2.754   2.867   3.034
    1C        C  744   2.550   3.071   2.071
    1C        C  745   2.686   2.896   2.186
    1C        C  746   2.609   3.014   2.184
    1C        C  747   2.730   2.837   2.307
    1C        C  748   2.692   2.902   2.426
    1C        C  749   2.737   2.847   2.548
    1C        C  750   2.735   2.836   2.068
    1C        C  751   3.670   2.330   1.967
    1C        O  752   3.696   2.211   1.999
    1C        O  753   3.701   2.369   1.836
    1C        C  754   4.610   3.050   1.961
    1C        O  755   4.574   3.033   1.841
    1C        O  756   4.735   2.992   1.988
    1C        C  757   4.429   4.219   1.951
    1C        O  758   4.539   4.278   1.971
    1C        O  759   4.409   4.182   1.817
    1C        C  760   3.594   4.674   1.948
    1C        O  761   3.569   4.791   1.986
    1C        O  762   3.520   4.649   1.832
    1C        C  763   2.881   4.509   1.962
    1C        O  764   2.913   4.489   1.841
    1C        O  765   2.785   4.610   1.975
    1C        C  766   2.383   3.468   1.933
    1C        O  767   2.422   3.507   1.819
    1C        O  768   2.244   3.453   1.939
    1C        C  769   4.693   3.589   5.056
    1C        O  770   4.661   3.558   5.174
    1C        O  771   4.829   3.612   5.034
    1C        C  772   4.275   4.462   5.021
    1C        O  773   4.323   4.418   5.129
    1C        O  774   4.383   4.527   4.960
    1C        C  775   4.148   2.535   5.077
    1C        O  776   4.147   2.414   5.111
    1C        O  777   4.159   2.604   5.198
    1C        C  778   2.889   4.540   5.050
    1C        O  779   2.811   4.629   5.008
    1C        O  780   2.881   4.533   5.189
    1C        C  781   2.489   3.054   5.093
    1C        O  782   2.365   3.033   5.080
    1C        O  783   2.542   3.058   5.221
    1C        C  784   2.418   3.981   5.059
    1C        O  785   2.297   4.005   5.036
    1C        O  786   2.444   3.991   5.197
    1C        C  787   2.946   2.422   2.001
    1C        O  788   2.923   2.434   1.878
    1C        O  789   2.884   2.311   2.056
    1C        C  790   3.178   2.378   5.074
    1C        O  791   3.200   2.259   5.039
    1C        O  792   3.166   2.402   5.211
    1C        H  793   4.276   3.020   5.057
    1C        H  794   4.151   2.817   5.060
    1C        H  795   4.544   3.120   5.028
    1C        H  796   4.493   3.376   5.060
    1C        H  797   4.609   3.811   5.017
    1C        H  798   4.409   3.959   5.052
    1C        H  799   4.277   4.156   5.049
    1C        H  800   4.027   4.526   5.028
    1C        H  801   3.817   4.583   5.039
    1C        H  802   3.584   4.628   5.038
    1C        H  803   3.385   4.540   5.047
    1C        H  804   3.162   4.507   5.051
    1C        H  805   3.878   2.504   5.071
    1C        H  806   3.676   2.503   5.070
    1C        H  807   2.992   2.546   5.056
    1C        H  808   3.442   2.448   5.075
    1C        H  809   2.883   2.738   5.076
    1C        H  810   2.711   2.903   5.076
    1C        H  811   2.468   3.287   5.048
    1C        H  812   2.525   3.503   5.074
    1C        H  813   2.511   3.738   5.064
    1C        H  814   2.572   4.184   5.035
    1C        H  815   2.733   4.333   5.044
    1C        H  816   2.695   2.855   1.971
    1C        H  817   2.799   2.660   1.983
    1C        H  818   3.210   2.465   1.976
    1C        H  819   3.427   2.465   1.978
    1C        H  820   3.838   2.541   1.970
    1C        H  821   4.073   2.577   1.976
    1C        H  822   4.219   2.746   1.963
    1C        H  823   4.339   2.953   1.978
    1C        H  824   4.574   3.304   1.964
    1C        H  825   4.443   3.508   1.982
    1C        H  826   4.455   3.734   1.960
    1C        H  827   3.799   4.513   1.947
    1C        H  828   3.945   4.364   1.949
    1C        H  829   4.176   4.292   1.948
    1C        H  830   4.486   3.948   1.965
    1C        H  831   2.647   3.837   1.968
    1C        H  832   2.719   4.054   1.961
    1C        H  833   2.717   4.291   1.962
    1C        H  834   3.384   4.425   1.960
    1C        H  835   3.140   4.414   1.950
    1C        H  836   2.535   3.012   1.982
    1C        H  837   2.428   3.218   1.985
    1C        H  838   2.476   3.691   1.972
    2V3OU   H29  839   2.808   3.557   6.462
    2V3OU   C27  840   2.784   3.505   6.558
    2V3OU   H27  841   2.724   3.571   6.626
    2V3OU   H28  842   2.731   3.409   6.533
    2V3OU   O11  843   2.910   3.467   6.613
    2V3OU   C15  844   2.922   3.395   6.730
    2V3OU   C13  845   3.048   3.370   6.787
    2V3OU   C14  846   3.076   3.265   6.875
    2V3OU   C16  847   2.971   3.184   6.918
    2V3OU    H6  848   2.990   3.100   6.986
    2V3OU   C12  849   3.213   3.229   6.915
    2V3OU    O2  850   3.230   3.124   6.981
    2V3OU   C10  851   3.325   3.301   6.852
    2V3OU    C8  852   3.456   3.264   6.879
    2V3OU   O10  853   3.485   3.151   6.949
    2V3OU   H26  854   3.401   3.111   6.977
    2V3OU    C6  855   3.566   3.349   6.847
    2V3OU    C5  856   3.536   3.467   6.778
    2V3OU    C4  857   3.703   3.292   6.845
    2V3OU    H4  858   3.726   3.225   6.933
    2V3OU    H5  859   3.712   3.227   6.753
    2V3OU    C2  860   3.813   3.398   6.843
    2V3OU    O6  861   3.810   3.470   6.966
    2V3OU   H21  862   3.765   3.552   6.940
    2V3OU    C3  863   3.779   3.496   6.729
    2V3OU    H2  864   3.861   3.570   6.713
    2V3OU    H3  865   3.778   3.433   6.637
    2V3OU   C25  866   3.950   3.332   6.830
    2V3OU    O7  867   3.996   3.301   6.720
    2V3OU   C26  868   4.030   3.288   6.951
    2V3OU   H22  869   4.063   3.385   6.996
    2V3OU   H23  870   4.116   3.222   6.920
    2V3OU    O8  871   3.957   3.209   0.023
    2V3OU   H24  872   3.924   3.268   0.093
    2V3OU    C1  873   3.644   3.564   6.744
    2V3OU    H1  874   3.621   3.618   6.647
    2V3OU    O3  875   3.662   3.654   6.853
    2V3OU   C19  876   3.620   3.789   6.832
    2V3OU    H9  877   3.524   3.795   6.774
    2V3OU    O4  878   3.716   3.845   6.745
    2V3OU   C20  879   3.846   3.873   6.798
    2V3OU   H10  880   3.899   3.774   6.800
    2V3OU   C24  881   3.606   3.851   6.972
    2V3OU   H16  882   3.548   3.785   0.023
    2V3OU   H17  883   3.557   3.951   6.966
    2V3OU   C23  884   3.748   3.870   0.007
    2V3OU   H15  885   3.791   3.768   0.032
    2V3OU    N1  886   3.738   3.952   0.126
    2V3OU   H19  887   3.807   3.918   0.191
    2V3OU   H20  888   3.654   3.927   0.173
    2V3OU   C21  889   3.850   3.945   6.933
    2V3OU   H11  890   3.949   3.920   6.980
    2V3OU    O5  891   3.821   4.084   6.932
    2V3OU   H18  892   3.780   4.103   7.018
    2V3OU   C22  893   3.914   3.948   6.685
    2V3OU   H12  894   3.857   4.044   6.670
    2V3OU   H13  895   3.907   3.887   6.591
    2V3OU   H14  896   4.022   3.960   6.709
    2V3OU   C11  897   3.153   3.471   6.766
    2V3OU    O1  898   3.132   3.586   6.722
    2V3OU    C9  899   3.291   3.420   6.782
    2V3OU    C7  900   3.400   3.497   6.744
    2V3OU    O9  901   3.377   3.616   6.678
    2V3OU   H25  902   3.282   3.637   6.690
    2V3OU   C17  903   2.820   3.312   6.782
    2V3OU    H7  904   2.717   3.343   6.767
    2V3OU   C18  905   2.841   3.211   6.875
    2V3OU    H8  906   2.760   3.137   6.883
    3SOL     OW  907   2.728   3.452   5.248
    3SOL    HW1  908   2.746   3.355   5.263
    3SOL    HW2  909   2.643   3.477   5.295
    4SOL     OW  910   0.882   0.308   0.453
    4SOL    HW1  911   0.869   0.222   0.405
    4SOL    HW2  912   0.794   0.344   0.483
    5SOL     OW  913   3.781   1.896   0.433
    5SOL    HW1  914   3.700   1.921   0.379
    5SOL    HW2  915   3.860   1.946   0.400
    6SOL     OW  916   3.072   2.186   1.894
    6SOL    HW1  917   3.008   2.231   1.957
    6SOL    HW2  918   3.038   2.095   1.870
    7SOL     OW  919   1.720   2.787   4.859
    7SOL    HW1  920   1.670   2.871   4.839
    7SOL    HW2  921   1.817   2.808   4.873
    8SOL     OW  922   1.343   1.934   6.002
    8SOL    HW1  923   1.255   1.913   5.959
    8SOL    HW2  924   1.345   1.893   6.093
    9SOL     OW  925   2.060   2.311   5.435
    9SOL    HW1  926   2.038   2.282   5.342
    9SOL    HW2  927   2.117   2.242   5.479
   10SOL     OW  928   5.846   4.975   0.660
   10SOL    HW1  929   5.823   4.879   0.680
   10SOL    HW2  930   5.931   4.979   0.607
   11SOL     OW  931   3.082   1.363   1.075
   11SOL    HW1  932   3.168   1.323   1.109
   11SOL    HW2  933   3.100   1.412   0.990
   12SOL     OW  934   5.669   4.593   1.015
   12SOL    HW1  935   5.607   4.636   0.949
   12SOL    HW2  936   5.763   4.603   0.984
   13SOL     OW  937   4.454   5.953   1.936
   13SOL    HW1  938   4.398   5.903   2.002
   13SOL    HW2  939   4.469   6.046   1.970
   14SOL     OW  940   4.684   5.666   1.151
   14SOL    HW1  941   4.716   5.729   1.081
   14SOL    HW2  942   4.761   5.612   1.186
   15SOL     OW  943   0.306   0.023   6.828
   15SOL    HW1  944   0.230   0.022   6.763
   15SOL    HW2  945   0.291   0.094   6.897
   16SOL     OW  946   1.644   4.984   5.477
   16SOL    HW1  947   1.649   5.077   5.514
   16SOL    HW2  948   1.553   4.967   5.439
   17SOL     OW  949   0.335   2.051   3.981
   17SOL    HW1  950   0.425   2.091   3.964
   17SOL    HW2  951   0.275   2.070   3.903
   18SOL     OW  952   2.318   6.724   5.062
   18SOL    HW1  953   2.403   6.762   5.028
   18SOL    HW2  954   2.337   6.660   5.137
   19SOL     OW  955   4.152   5.825   3.490
   19SOL    HW1  956   4.129   5.728   3.493
   19SOL    HW2  957   4.103   5.873   3.563
   20SOL     OW  958   0.279   1.427   4.390
   20SOL    HW1  959   0.273   1.523   4.415
   20SOL    HW2  960   0.219   1.373   4.449
   21SOL     OW  961   2.173   3.114   1.950
   21SOL    HW1  962   2.238   3.062   1.894
   21SOL    HW2  963   2.168   3.075   2.041
   22SOL     OW  964   0.480   0.422   0.603
   22SOL    HW1  965   0.476   0.372   0.690
   22SOL    HW2  966   0.483   0.357   0.527
   23SOL     OW  967   0.364   5.243   0.485
   23SOL    HW1  968   0.338   5.258   0.580
   23SOL    HW2  969   0.369   5.145   0.466
   24SOL     OW  970   4.481   0.551   6.575
   24SOL    HW1  971   4.515   0.591   6.660
   24SOL    HW2  972   4.522   0.598   6.497
   25SOL     OW  973   2.462   0.449   5.473
   25SOL    HW1  974   2.499   0.364   5.436
   25SOL    HW2  975   2.524   0.487   5.541
   26SOL     OW  976   2.287   6.504   5.288
   26SOL    HW1  977   2.277   6.592   5.334
   26SOL    HW2  978   2.274   6.431   5.355
   27SOL     OW  979   0.134   0.107   2.104
   27SOL    HW1  980   0.047   0.109   2.055
   27SOL    HW2  981   0.163   0.201   2.123
   28SOL     OW  982   2.280   0.451   5.052
   28SOL    HW1  983   2.365   0.504   5.057
   28SOL    HW2  984   2.235   0.452   5.141
   29SOL     OW  985   5.146   0.271   2.038
   29SOL    HW1  986   5.055   0.306   2.013
   29SOL    HW2  987   5.216   0.334   2.005
   30SOL     OW  988   4.707   6.610   4.697
   30SOL    HW1  989   4.795   6.592   4.654
   30SOL    HW2  990   4.700   6.558   4.782
   31SOL     OW  991   5.895   3.759   4.406
   31SOL    HW1  992   5.976   3.812   4.382
   31SOL    HW2  993   5.893   3.675   4.351
   32SOL     OW  994   3.639   1.672   1.447
   32SOL    HW1  995   3.652   1.716   1.536
   32SOL    HW2  996   3.726   1.633   1.416
   33SOL     OW  997   1.971   4.854   5.080
   33SOL    HW1  998   1.876   4.882   5.091
   33SOL    HW2  999   2.026   4.891   5.155
   34SOL     OW 1000   2.611   0.090   5.690
   34SOL    HW1 1001   2.665   0.016   5.727
   34SOL    HW2 1002   2.592   0.157   5.761
   35SOL     OW 1003   0.836   3.394   4.639
   35SOL    HW1 1004   0.895   3.408   4.559
   35SOL    HW2 1005   0.797   3.302   4.635
   36SOL     OW 1006   5.432   1.102   4.883
   36SOL    HW1 1007   5.449   1.003   4.888
   36SOL    HW2 1008   5.395   1.125   4.794
   37SOL     OW 1009   1.128   5.812   3.598
   37SOL    HW1 1010   1.049   5.775   3.550
   37SOL    HW2 1011   1.157   5.749   3.670
   38SOL     OW 1012   0.956   3.694   1.960
   38SOL    HW1 1013   0.931   3.781   2.002
   38SOL    HW2 1014   0.905   3.683   1.875
   39SOL     OW 1015   6.240   5.745   1.093
   39SOL    HW1 1016   6.289   5.661   1.071
   39SOL    HW2 1017   6.196   5.779   1.010
   40SOL     OW 1018   4.411   0.610   5.797
   40SOL    HW1 1019   4.414   0.682   5.867
   40SOL    HW2 1020   4.341   0.543   5.822
   41SOL     OW 1021   0.239   3.542   1.154
   41SOL    HW1 1022   0.282   3.453   1.167
   41SOL    HW2 1023   0.309   3.612   1.143
   42SOL     OW 1024   2.437   3.863   1.281
   42SOL    HW1 1025   2.479   3.922   1.349
   42SOL    HW2 1026   2.501   3.850   1.205
   43SOL     OW 1027   5.045   0.487   3.489
   43SOL    HW1 1028   5.002   0.397   3.480
   43SOL    HW2 1029   4.975   0.558   3.487
   44SOL     OW 1030   0.018   1.044   6.743
   44SOL    HW1 1031   0.078   1.087   6.810
   44SOL    HW2 1032   0.021   0.945   6.754
   45SOL     OW 1033   2.164   3.479   5.005
   45SOL    HW1 1034   2.259   3.448   5.004
   45SOL    HW2 1035   2.160   3.577   4.989
   46SOL     OW 1036   0.760   5.689   4.484
   46SOL    HW1 1037   0.833   5.756   4.472
   46SOL    HW2 1038   0.680   5.735   4.522
   47SOL     OW 1039   0.398   3.916   6.033
   47SOL    HW1 1040   0.433   3.985   5.970
   47SOL    HW2 1041   0.329   3.860   5.987
   48SOL     OW 1042   0.711   4.098   0.270
   48SOL    HW1 1043   0.663   4.085   0.357
   48SOL    HW2 1044   0.644   4.109   0.197
   49SOL     OW 1045   3.726   0.494   0.388
   49SOL    HW1 1046   3.655   0.428   0.364
   49SOL    HW2 1047   3.814   0.463   0.352
   50SOL     OW 1048   4.912   1.813   5.711
   50SOL    HW1 1049   4.992   1.801   5.651
   50SOL    HW2 1050   4.829   1.810   5.656
   51SOL     OW 1051   1.008   6.406   1.970
   51SOL    HW1 1052   1.048   6.481   1.917
   51SOL    HW2 1053   0.947   6.444   2.040
   52SOL     OW 1054   4.931   3.131   2.657
   52SOL    HW1 1055   4.978   3.098   2.576
   52SOL    HW2 1056   4.874   3.210   2.633
   53SOL     OW 1057   4.142   6.408   1.228
   53SOL    HW1 1058   4.168   6.487   1.284
   53SOL    HW2 1059   4.111   6.334   1.288
   54SOL     OW 1060   1.006   1.174   6.275
   54SOL    HW1 1061   1.077   1.200   6.340
   54SOL    HW2 1062   1.046   1.121   6.201
   55SOL     OW 1063   2.583   3.828   6.393
   55SOL    HW1 1064   2.504   3.845   6.334
   55SOL    HW2 1065   2.640   3.756   6.353
   56SOL     OW 1066   2.250   2.204   0.017
   56SOL    HW1 1067   2.194   2.258   0.081
   56SOL    HW2 1068   2.261   2.255   6.951
   57SOL     OW 1069   4.464   5.924   1.666
   57SOL    HW1 1070   4.486   6.010   1.619
   57SOL    HW2 1071   4.449   5.942   1.764
   58SOL     OW 1072   0.627   0.540   0.146
   58SOL    HW1 1073   0.588   0.631   0.138
   58SOL    HW2 1074   0.712   0.544   0.198
   59SOL     OW 1075   4.201   3.789   6.918
   59SOL    HW1 1076   4.271   3.855   6.945
   59SOL    HW2 1077   4.226   3.749   6.830
   60SOL     OW 1078   6.237   2.528   2.010
   60SOL    HW1 1079   6.291   2.525   1.925
   60SOL    HW2 1080   6.282   2.589   2.075
   61SOL     OW 1081   1.253   4.904   2.572
   61SOL    HW1 1082   1.195   4.879   2.494
   61SOL    HW2 1083   1.302   4.989   2.552
   62SOL     OW 1084   4.839   3.747   3.066
   62SOL    HW1 1085   4.822   3.772   2.971
   62SOL    HW2 1086   4.861   3.650   3.072
   63SOL     OW 1087   4.526   0.318   5.972
   63SOL    HW1 1088   4.474   0.370   6.039
   63SOL    HW2 1089   4.471   0.306   5.889
   64SOL     OW 1090   2.274   1.840   6.875
   64SOL    HW1 1091   2.198   1.782   6.845
   64SOL    HW2 1092   2.354   1.783   6.895
   65SOL     OW 1093   0.827   5.258   4.802
   65SOL    HW1 1094   0.849   5.324   4.874
   65SOL    HW2 1095   0.819   5.306   4.715
   66SOL     OW 1096   4.658   1.748   1.401
   66SOL    HW1 1097   4.634   1.781   1.310
   66SOL    HW2 1098   4.626   1.654   1.412
   67SOL     OW 1099   0.075   3.032   2.799
   67SOL    HW1 1100   0.114   3.066   2.885
   67SOL    HW2 1101   0.117   2.944   2.776
   68SOL     OW 1102   0.133   1.115   5.798
   68SOL    HW1 1103   0.072   1.146   5.871
   68SOL    HW2 1104   0.101   1.027   5.763
   69SOL     OW 1105   1.873   1.145   5.800
   69SOL    HW1 1106   1.934   1.187   5.868
   69SOL    HW2 1107   1.824   1.216   5.751
   70SOL     OW 1108   4.713   4.975   3.185
   70SOL    HW1 1109   4.801   4.933   3.208
   70SOL    HW2 1110   4.650   4.966   3.262
   71SOL     OW 1111   5.325   1.203   5.411
   71SOL    HW1 1112   5.234   1.161   5.407
   71SOL    HW2 1113   5.356   1.205   5.506
   72SOL     OW 1114   6.943   2.057   2.669
   72SOL    HW1 1115   6.970   2.153   2.671
   72SOL    HW2 1116   6.846   2.050   2.646
   73SOL     OW 1117   2.556   1.036   0.544
   73SOL    HW1 1118   2.641   1.084   0.566
   73SOL    HW2 1119   2.537   0.969   0.616
   74SOL     OW 1120   2.664   0.814   0.162
   74SOL    HW1 1121   2.740   0.844   0.104
   74SOL    HW2 1122   2.631   0.891   0.217
   75SOL     OW 1123   2.913   3.396   1.265
   75SOL    HW1 1124   2.846   3.464   1.235
   75SOL    HW2 1125   2.975   3.438   1.332
   76SOL     OW 1126   2.988   5.089   6.045
   76SOL    HW1 1127   2.968   5.038   6.130
   76SOL    HW2 1128   2.903   5.121   6.005
   77SOL     OW 1129   0.674   4.791   5.395
   77SOL    HW1 1130   0.733   4.711   5.401
   77SOL    HW2 1131   0.650   4.821   5.488
   78SOL     OW 1132   4.994   1.446   0.915
   78SOL    HW1 1133   5.039   1.497   0.989
   78SOL    HW2 1134   5.057   1.439   0.838
   79SOL     OW 1135   2.098   4.914   4.162
   79SOL    HW1 1136   2.192   4.920   4.127
   79SOL    HW2 1137   2.096   4.952   4.255
   80SOL     OW 1138   4.509   2.056   5.279
   80SOL    HW1 1139   4.567   1.975   5.287
   80SOL    HW2 1140   4.457   2.052   5.193
   81SOL     OW 1141   2.260   4.835   2.640
   81SOL    HW1 1142   2.221   4.923   2.669
   81SOL    HW2 1143   2.289   4.783   2.719
   82SOL     OW 1144   2.798   0.326   1.313
   82SOL    HW1 1145   2.821   0.422   1.328
   82SOL    HW2 1146   2.782   0.310   1.216
   83SOL     OW 1147   6.127   1.965   3.684
   83SOL    HW1 1148   6.214   1.922   3.664
   83SOL    HW2 1149   6.121   2.053   3.637
   84SOL     OW 1150   5.163   1.988   2.808
   84SOL    HW1 1151   5.129   2.072   2.767
   84SOL    HW2 1152   5.149   1.991   2.907
   85SOL     OW 1153   2.047   5.316   2.687
   85SOL    HW1 1154   1.959   5.301   2.732
   85SOL    HW2 1155   2.120   5.315   2.755
   86SOL     OW 1156   4.650   1.382   5.755
   86SOL    HW1 1157   4.613   1.294   5.726
   86SOL    HW2 1158   4.708   1.369   5.836
   87SOL     OW 1159   2.914   2.233   6.637
   87SOL    HW1 1160   2.920   2.268   6.543
   87SOL    HW2 1161   2.955   2.142   6.641
   88SOL     OW 1162   1.290   1.905   0.305
   88SOL    HW1 1163   1.211   1.905   0.243
   88SOL    HW2 1164   1.374   1.913   0.252
   89SOL     OW 1165   3.971   4.065   6.039
   89SOL    HW1 1166   3.884   4.015   6.033
   89SOL    HW2 1167   3.961   4.154   5.994
   90SOL     OW 1168   0.021   4.074   1.995
   90SOL    HW1 1169   0.064   4.004   1.938
   90SOL    HW2 1170   0.036   4.051   2.091
   91SOL     OW 1171   5.309   4.928   0.649
   91SOL    HW1 1172   5.370   4.994   0.693
   91SOL    HW2 1173   5.232   4.909   0.710
   92SOL     OW 1174   6.642   6.549   6.836
   92SOL    HW1 1175   6.724   6.594   6.872
   92SOL    HW2 1176   6.669   6.484   6.765
   93SOL     OW 1177   3.024   3.241   2.317
   93SOL    HW1 1178   2.945   3.215   2.373
   93SOL    HW2 1179   3.050   3.166   2.257
   94SOL     OW 1180   3.723   1.210   4.406
   94SOL    HW1 1181   3.790   1.172   4.469
   94SOL    HW2 1182   3.638   1.157   4.410
   95SOL     OW 1183   0.523   6.328   4.392
   95SOL    HW1 1184   0.451   6.310   4.459
   95SOL    HW2 1185   0.482   6.367   4.309
   96SOL     OW 1186   0.497   6.627   0.535
   96SOL    HW1 1187   0.531   6.535   0.550
   96SOL    HW2 1188   0.479   6.671   0.623
   97SOL     OW 1189   3.945   5.291   4.535
   97SOL    HW1 1190   3.916   5.283   4.440
   97SOL    HW2 1191   3.867   5.274   4.596
   98SOL     OW 1192   6.774   1.966   4.885
   98SOL    HW1 1193   6.831   1.941   4.807
   98SOL    HW2 1194   6.798   2.058   4.916
   99SOL     OW 1195   5.507   4.652   5.063
   99SOL    HW1 1196   5.599   4.653   5.103
   99SOL    HW2 1197   5.439   4.657   5.137
  100SOL     OW 1198   2.011   1.886   5.514
  100SOL    HW1 1199   1.918   1.899   5.549
  100SOL    HW2 1200   2.024   1.946   5.435
  101SOL     OW 1201   5.124   2.681   2.250
  101SOL    HW1 1202   5.054   2.656   2.317
  101SOL    HW2 1203   5.193   2.739   2.294
  102SOL     OW 1204   4.780   6.927   0.797
  102SOL    HW1 1205   4.858   6.904   0.855
  102SOL    HW2 1206   4.808   6.994   0.729
  103SOL     OW 1207   2.422   2.340   1.166
  103SOL    HW1 1208   2.468   2.251   1.167
  103SOL    HW2 1209   2.490   2.412   1.170
  104SOL     OW 1210   1.220   3.555   1.679
  104SOL    HW1 1211   1.127   3.593   1.673
  104SOL    HW2 1212   1.258   3.546   1.587
  105SOL     OW 1213   0.421   1.752   4.112
  105SOL    HW1 1214   0.405   1.654   4.099
  105SOL    HW2 1215   0.338   1.796   4.146
  106SOL     OW 1216   5.435   3.379   1.065
  106SOL    HW1 1217   5.379   3.335   1.135
  106SOL    HW2 1218   5.511   3.427   1.108
  107SOL     OW 1219   4.412   0.248   2.431
  107SOL    HW1 1220   4.395   0.270   2.527
  107SOL    HW2 1221   4.507   0.220   2.419
  108SOL     OW 1222   3.870   1.351   4.998
  108SOL    HW1 1223   3.895   1.442   4.965
  108SOL    HW2 1224   3.780   1.355   5.042
  109SOL     OW 1225   2.097   1.610   4.575
  109SOL    HW1 1226   2.042   1.558   4.510
  109SOL    HW2 1227   2.182   1.639   4.531
  110SOL     OW 1228   4.345   4.959   5.318
  110SOL    HW1 1229   4.444   4.969   5.314
  110SOL    HW2 1230   4.313   4.979   5.411
  111SOL     OW 1231   0.118   3.489   0.486
  111SOL    HW1 1232   0.182   3.472   0.411
  111SOL    HW2 1233   0.145   3.436   0.566
  112SOL     OW 1234   3.369   6.206   4.753
  112SOL    HW1 1235   3.426   6.127   4.774
  112SOL    HW2 1236   3.286   6.205   4.809
  113SOL     OW 1237   1.568   4.758   2.141
  113SOL    HW1 1238   1.583   4.857   2.128
  113SOL    HW2 1239   1.590   4.710   2.056
  114SOL     OW 1240   6.883   1.729   1.774
  114SOL    HW1 1241   6.789   1.732   1.741
  114SOL    HW2 1242   6.922   1.639   1.757
  115SOL     OW 1243   4.458   0.691   3.310
  115SOL    HW1 1244   4.406   0.751   3.371
  115SOL    HW2 1245   4.543   0.735   3.284
  116SOL     OW 1246   6.299   5.806   6.636
  116SOL    HW1 1247   6.210   5.816   6.592
  116SOL    HW2 1248   6.371   5.829   6.571
  117SOL     OW 1249   2.069   1.461   0.450
  117SOL    HW1 1250   2.103   1.555   0.443
  117SOL    HW2 1251   1.985   1.460   0.505
  118SOL     OW 1252   1.242   3.048   1.452
  118SOL    HW1 1253   1.189   2.969   1.420
  118SOL    HW2 1254   1.208   3.131   1.408
  119SOL     OW 1255   5.451   5.219   4.248
  119SOL    HW1 1256   5.459   5.142   4.312
  119SOL    HW2 1257   5.499   5.299   4.286
  120SOL     OW 1258   4.633   1.315   4.012
  120SOL    HW1 1259   4.572   1.329   4.090
  120SOL    HW2 1260   4.585   1.267   3.939
  121SOL     OW 1261   6.741   4.934   5.688
  121SOL    HW1 1262   6.661   4.876   5.706
  121SOL    HW2 1263   6.801   4.889   5.623
  122SOL     OW 1264   0.195   5.597   5.328
  122SOL    HW1 1265   0.286   5.558   5.312
  122SOL    HW2 1266   0.129   5.524   5.343
  123SOL     OW 1267   0.721   2.023   0.923
  123SOL    HW1 1268   0.779   2.061   0.851
  123SOL    HW2 1269   0.746   1.927   0.939
  124SOL     OW 1270   2.000   3.653   6.870
  124SOL    HW1 1271   1.976   3.722   6.938
  124SOL    HW2 1272   1.919   3.597   6.850
  125SOL     OW 1273   4.130   3.492   2.035
  125SOL    HW1 1274   4.130   3.402   1.990
  125SOL    HW2 1275   4.185   3.556   1.982
  126SOL     OW 1276   3.846   3.345   5.223
  126SOL    HW1 1277   3.807   3.262   5.262
  126SOL    HW2 1278   3.907   3.387   5.291
  127SOL     OW 1279   0.469   4.275   6.227
  127SOL    HW1 1280   0.548   4.241   6.177
  127SOL    HW2 1281   0.483   4.370   6.252
  128SOL     OW 1282   5.033   4.418   6.234
  128SOL    HW1 1283   5.072   4.410   6.143
  128SOL    HW2 1284   4.956   4.354   6.242
  129SOL     OW 1285   1.062   5.346   2.698
  129SOL    HW1 1286   1.023   5.301   2.617
  129SOL    HW2 1287   0.993   5.403   2.741
  130SOL     OW 1288   6.345   3.892   5.078
  130SOL    HW1 1289   6.408   3.828   5.122
  130SOL    HW2 1290   6.254   3.852   5.074
  131SOL     OW 1291   0.456   2.886   1.911
  131SOL    HW1 1292   0.541   2.934   1.932
  131SOL    HW2 1293   0.429   2.830   1.990
  132SOL     OW 1294   3.705   3.811   1.686
  132SOL    HW1 1295   3.800   3.841   1.680
  132SOL    HW2 1296   3.664   3.845   1.771
  133SOL     OW 1297   4.307   4.469   5.792
  133SOL    HW1 1298   4.224   4.423   5.762
  133SOL    HW2 1299   4.373   4.471   5.716
  134SOL     OW 1300   0.390   2.197   6.894
  134SOL    HW1 1301   0.290   2.200   6.900
  134SOL    HW2 1302   0.417   2.186   6.798
  135SOL     OW 1303   4.293   5.066   4.128
  135SOL    HW1 1304   4.392   5.064   4.140
  135SOL    HW2 1305   4.253   4.981   4.162
  136SOL     OW 1306   3.349   6.160   6.568
  136SOL    HW1 1307   3.273   6.124   6.622
  136SOL    HW2 1308   3.408   6.084   6.539
  137SOL     OW 1309   1.814   4.277   6.843
  137SOL    HW1 1310   1.807   4.328   6.929
  137SOL    HW2 1311   1.773   4.187   6.854
  138SOL     OW 1312   6.986   6.658   1.695
  138SOL    HW1 1313   0.009   6.572   1.666
  138SOL    HW2 1314   6.898   6.640   1.738
  139SOL     OW 1315   1.347   7.012   1.029
  139SOL    HW1 1316   1.338   6.991   0.931
  139SOL    HW2 1317   1.439   6.991   1.059
  140SOL     OW 1318   2.719   0.256   3.292
  140SOL    HW1 1319   2.659   0.258   3.212
  140SOL    HW2 1320   2.790   0.325   3.282
  141SOL     OW 1321   2.383   2.240   0.412
  141SOL    HW1 1322   2.305   2.277   0.362
  141SOL    HW2 1323   2.351   2.197   0.497
  142SOL     OW 1324   1.386   4.429   6.025
  142SOL    HW1 1325   1.295   4.443   5.985
  142SOL    HW2 1326   1.408   4.331   6.024
  143SOL     OW 1327   4.613   6.253   2.324
  143SOL    HW1 1328   4.643   6.263   2.229
  143SOL    HW2 1329   4.693   6.253   2.384
  144SOL     OW 1330   2.387   4.933   3.090
  144SOL    HW1 1331   2.457   4.890   3.034
  144SOL    HW2 1332   2.416   5.025   3.114
  145SOL     OW 1333   6.205   6.267   2.390
  145SOL    HW1 1334   6.292   6.246   2.346
  145SOL    HW2 1335   6.217   6.346   2.451
  146SOL     OW 1336   6.463   1.498   4.463
  146SOL    HW1 1337   6.392   1.563   4.436
  146SOL    HW2 1338   6.427   1.435   4.531
  147SOL     OW 1339   5.777   6.488   5.676
  147SOL    HW1 1340   5.752   6.506   5.771
  147SOL    HW2 1341   5.812   6.395   5.668
  148SOL     OW 1342   1.943   0.447   3.794
  148SOL    HW1 1343   1.938   0.524   3.731
  148SOL    HW2 1344   1.863   0.448   3.854
  149SOL     OW 1345   2.114   2.015   5.266
  149SOL    HW1 1346   2.177   1.948   5.227
  149SOL    HW2 1347   2.055   2.052   5.194
  150SOL     OW 1348   5.299   3.257   4.726
  150SOL    HW1 1349   5.214   3.241   4.675
  150SOL    HW2 1350   5.374   3.272   4.662
  151SOL     OW 1351   6.299   2.894   1.805
  151SOL    HW1 1352   6.373   2.907   1.739
  151SOL    HW2 1353   6.249   2.979   1.816
  152SOL     OW 1354   6.058   1.458   0.156
  152SOL    HW1 1355   6.085   1.538   0.210
  152SOL    HW2 1356   5.969   1.474   0.115
  153SOL     OW 1357   1.676   1.731   3.740
  153SOL    HW1 1358   1.774   1.741   3.760
  153SOL    HW2 1359   1.655   1.775   3.653
  154SOL     OW 1360   0.118   2.445   3.611
  154SOL    HW1 1361   0.129   2.389   3.529
  154SOL    HW2 1362   0.043   2.409   3.666
  155SOL     OW 1363   5.820   4.899   3.267
  155SOL    HW1 1364   5.788   4.890   3.173
  155SOL    HW2 1365   5.891   4.969   3.272
  156SOL     OW 1366   4.284   7.008   1.196
  156SOL    HW1 1367   4.205   0.051   1.196
  156SOL    HW2 1368   4.262   6.924   1.146
  157SOL     OW 1369   5.833   1.077   0.708
  157SOL    HW1 1370   5.838   1.034   0.618
  157SOL    HW2 1371   5.913   1.137   0.720
  158SOL     OW 1372   0.937   2.691   5.729
  158SOL    HW1 1373   0.883   2.623   5.679
  158SOL    HW2 1374   0.885   2.722   5.809
  159SOL     OW 1375   0.333   4.886   6.475
  159SOL    HW1 1376   0.329   4.967   6.417
  159SOL    HW2 1377   0.243   4.841   6.476
  160SOL     OW 1378   4.311   6.962   1.872
  160SOL    HW1 1379   4.400   6.960   1.826
  160SOL    HW2 1380   4.317   0.000   1.953
  161SOL     OW 1381   5.730   6.419   1.294
  161SOL    HW1 1382   5.786   6.489   1.250
  161SOL    HW2 1383   5.778   6.331   1.291
  162SOL     OW 1384   4.147   0.005   5.211
  162SOL    HW1 1385   4.246   0.014   5.223
  162SOL    HW2 1386   4.100   0.067   5.274
  163SOL     OW 1387   1.597   3.857   3.207
  163SOL    HW1 1388   1.533   3.864   3.283
  163SOL    HW2 1389   1.683   3.817   3.239
  164SOL     OW 1390   1.729   2.859   2.328
  164SOL    HW1 1391   1.767   2.815   2.409
  164SOL    HW2 1392   1.782   2.941   2.307
  165SOL     OW 1393   0.327   5.861   5.028
  165SOL    HW1 1394   0.403   5.822   4.977
  165SOL    HW2 1395   0.358   5.890   5.118
  166SOL     OW 1396   0.523   5.450   3.907
  166SOL    HW1 1397   0.568   5.531   3.871
  166SOL    HW2 1398   0.486   5.396   3.832
  167SOL     OW 1399   0.191   1.461   3.178
  167SOL    HW1 1400   0.203   1.460   3.277
  167SOL    HW2 1401   0.278   1.484   3.134
  168SOL     OW 1402   3.128   3.873   4.669
  168SOL    HW1 1403   3.078   3.817   4.734
  168SOL    HW2 1404   3.065   3.908   4.599
  169SOL     OW 1405   4.938   2.970   5.793
  169SOL    HW1 1406   4.853   3.023   5.798
  169SOL    HW2 1407   4.944   2.910   5.873
  170SOL     OW 1408   5.699   5.170   2.643
  170SOL    HW1 1409   5.760   5.102   2.603
  170SOL    HW2 1410   5.731   5.261   2.619
  171SOL     OW 1411   3.631   2.808   0.927
  171SOL    HW1 1412   3.646   2.709   0.936
  171SOL    HW2 1413   3.597   2.844   1.013
  172SOL     OW 1414   2.072   0.617   0.034
  172SOL    HW1 1415   2.073   0.717   0.040
  172SOL    HW2 1416   2.015   0.589   6.975
  173SOL     OW 1417   5.364   0.813   4.899
  173SOL    HW1 1418   5.284   0.810   4.839
  173SOL    HW2 1419   5.335   0.802   4.994
  174SOL     OW 1420   6.293   5.094   3.591
  174SOL    HW1 1421   6.230   5.022   3.620
  174SOL    HW2 1422   6.247   5.154   3.525
  175SOL     OW 1423   0.595   5.403   2.237
  175SOL    HW1 1424   0.539   5.448   2.306
  175SOL    HW2 1425   0.548   5.322   2.203
  176SOL     OW 1426   6.021   3.803   1.036
  176SOL    HW1 1427   5.931   3.783   0.998
  176SOL    HW2 1428   6.091   3.787   0.966
  177SOL     OW 1429   5.566   2.006   3.634
  177SOL    HW1 1430   5.510   2.087   3.654
  177SOL    HW2 1431   5.545   1.973   3.542
  178SOL     OW 1432   1.146   5.763   4.544
  178SOL    HW1 1433   1.129   5.854   4.505
  178SOL    HW2 1434   1.244   5.753   4.562
  179SOL     OW 1435   3.006   4.042   1.961
  179SOL    HW1 1436   3.020   4.112   1.890
  179SOL    HW2 1437   3.031   4.080   2.050
  180SOL     OW 1438   5.405   0.686   5.632
  180SOL    HW1 1439   5.364   0.765   5.676
  180SOL    HW2 1440   5.335   0.616   5.617
  181SOL     OW 1441   3.428   5.891   5.464
  181SOL    HW1 1442   3.412   5.943   5.380
  181SOL    HW2 1443   3.350   5.830   5.481
  182SOL     OW 1444   3.328   2.573   5.336
  182SOL    HW1 1445   3.277   2.659   5.340
  182SOL    HW2 1446   3.280   2.509   5.275
  183SOL     OW 1447   1.933   0.746   2.688
  183SOL    HW1 1448   1.909   0.737   2.785
  183SOL    HW2 1449   2.017   0.798   2.679
  184SOL     OW 1450   5.610   6.447   3.812
  184SOL    HW1 1451   5.627   6.398   3.727
  184SOL    HW2 1452   5.528   6.503   3.803
  185SOL     OW 1453   0.898   5.985   5.057
  185SOL    HW1 1454   0.800   6.001   5.050
  185SOL    HW2 1455   0.931   5.942   4.973
  186SOL     OW 1456   3.607   5.065   0.712
  186SOL    HW1 1457   3.685   5.105   0.760
  186SOL    HW2 1458   3.558   5.137   0.663
  187SOL     OW 1459   4.267   5.639   0.456
  187SOL    HW1 1460   4.355   5.677   0.484
  187SOL    HW2 1461   4.277   5.542   0.437
  188SOL     OW 1462   1.276   4.226   3.515
  188SOL    HW1 1463   1.278   4.214   3.415
  188SOL    HW2 1464   1.369   4.241   3.549
  189SOL     OW 1465   6.656   3.622   5.770
  189SOL    HW1 1466   6.690   3.715   5.752
  189SOL    HW2 1467   6.661   3.603   5.868
  190SOL     OW 1468   6.218   6.176   6.908
  190SOL    HW1 1469   6.274   6.258   6.901
  190SOL    HW2 1470   6.126   6.195   6.874
  191SOL     OW 1471   1.926   3.729   6.306
  191SOL    HW1 1472   1.939   3.828   6.309
  191SOL    HW2 1473   1.915   3.700   6.211
  192SOL     OW 1474   1.082   6.486   0.358
  192SOL    HW1 1475   1.126   6.564   0.313
  192SOL    HW2 1476   0.995   6.465   0.313
  193SOL     OW 1477   2.739   6.915   1.866
  193SOL    HW1 1478   2.836   6.915   1.840
  193SOL    HW2 1479   2.730   6.876   1.958
  194SOL     OW 1480   4.081   6.459   3.524
  194SOL    HW1 1481   4.174   6.422   3.530
  194SOL    HW2 1482   4.086   6.557   3.506
  195SOL     OW 1483   3.483   1.044   1.533
  195SOL    HW1 1484   3.503   1.035   1.630
  195SOL    HW2 1485   3.506   1.136   1.502
  196SOL     OW 1486   3.795   3.027   1.586
  196SOL    HW1 1487   3.792   3.067   1.494
  196SOL    HW2 1488   3.765   3.095   1.653
  197SOL     OW 1489   0.943   6.797   1.276
  197SOL    HW1 1490   0.963   6.895   1.268
  197SOL    HW2 1491   0.890   6.767   1.197
  198SOL     OW 1492   6.426   0.552   5.410
  198SOL    HW1 1493   6.498   0.543   5.342
  198SOL    HW2 1494   6.414   0.648   5.434
  199SOL     OW 1495   1.189   0.817   2.945
  199SOL    HW1 1496   1.122   0.797   2.873
  199SOL    HW2 1497   1.263   0.872   2.908
  200SOL     OW 1498   1.562   3.553   3.491
  200SOL    HW1 1499   1.614   3.469   3.510
  200SOL    HW2 1500   1.567   3.613   3.571
  201SOL     OW 1501   5.204   1.077   6.594
  201SOL    HW1 1502   5.286   1.123   6.559
  201SOL    HW2 1503   5.228   1.025   6.676
  202SOL     OW 1504   3.922   0.674   2.599
  202SOL    HW1 1505   3.957   0.736   2.669
  202SOL    HW2 1506   3.841   0.626   2.635
  203SOL     OW 1507   6.015   2.440   0.911
  203SOL    HW1 1508   6.022   2.477   0.819
  203SOL    HW2 1509   6.075   2.361   0.920
  204SOL     OW 1510   2.402   5.857   0.759
  204SOL    HW1 1511   2.440   5.800   0.687
  204SOL    HW2 1512   2.363   5.940   0.719
  205SOL     OW 1513   5.172   0.900   0.791
  205SOL    HW1 1514   5.080   0.928   0.817
  205SOL    HW2 1515   5.182   0.801   0.805
  206SOL     OW 1516   0.325   5.573   1.857
  206SOL    HW1 1517   0.416   5.557   1.818
  206SOL    HW2 1518   0.280   5.648   1.810
  207SOL     OW 1519   6.462   2.609   6.421
  207SOL    HW1 1520   6.412   2.688   6.387
  207SOL    HW2 1521   6.464   2.538   6.350
  208SOL     OW 1522   5.006   3.162   1.266
  208SOL    HW1 1523   5.096   3.125   1.243
  208SOL    HW2 1524   4.998   3.170   1.366
  209SOL     OW 1525   6.355   0.320   4.058
  209SOL    HW1 1526   6.413   0.344   3.980
  209SOL    HW2 1527   6.285   0.255   4.029
  210SOL     OW 1528   5.330   2.942   6.484
  210SOL    HW1 1529   5.288   3.015   6.430
  210SOL    HW2 1530   5.427   2.963   6.498
  211SOL     OW 1531   6.985   4.892   2.404
  211SOL    HW1 1532   6.991   4.877   2.502
  211SOL    HW2 1533   0.035   4.960   2.377
  212SOL     OW 1534   0.900   5.305   5.352
  212SOL    HW1 1535   0.913   5.207   5.337
  212SOL    HW2 1536   0.821   5.319   5.412
  213SOL     OW 1537   4.514   2.346   1.207
  213SOL    HW1 1538   4.531   2.443   1.191
  213SOL    HW2 1539   4.597   2.303   1.242
  214SOL     OW 1540   6.836   5.740   3.791
  214SOL    HW1 1541   6.915   5.796   3.763
  214SOL    HW2 1542   6.820   5.669   3.723
  215SOL     OW 1543   3.622   3.289   3.309
  215SOL    HW1 1544   3.656   3.217   3.249
  215SOL    HW2 1545   3.522   3.287   3.309
  216SOL     OW 1546   3.956   6.598   4.891
  216SOL    HW1 1547   3.937   6.695   4.900
  216SOL    HW2 1548   3.870   6.547   4.886
  217SOL     OW 1549   6.152   2.093   5.003
  217SOL    HW1 1550   6.092   2.102   5.083
  217SOL    HW2 1551   6.179   1.998   4.991
  218SOL     OW 1552   2.442   4.847   5.713
  218SOL    HW1 1553   2.455   4.767   5.654
  218SOL    HW2 1554   2.481   4.928   5.669
  219SOL     OW 1555   3.362   6.874   6.688
  219SOL    HW1 1556   3.349   6.950   6.752
  219SOL    HW2 1557   3.415   6.802   6.732
  220SOL     OW 1558   1.300   4.786   0.084
  220SOL    HW1 1559   1.396   4.800   0.062
  220SOL    HW2 1560   1.276   4.840   0.164
  221SOL     OW 1561   6.253   4.828   4.548
  221SOL    HW1 1562   6.286   4.911   4.504
  221SOL    HW2 1563   6.249   4.842   4.647
  222SOL     OW 1564   1.073   0.550   4.188
  222SOL    HW1 1565   1.024   0.499   4.117
  222SOL    HW2 1566   1.148   0.494   4.223
  223SOL     OW 1567   5.689   5.709   1.664
  223SOL    HW1 1568   5.596   5.744   1.650
  223SOL    HW2 1569   5.685   5.610   1.680
  224SOL     OW 1570   5.544   4.459   2.384
  224SOL    HW1 1571   5.582   4.529   2.323
  224SOL    HW2 1572   5.597   4.375   2.376
  225SOL     OW 1573   4.395   6.303   1.094
  225SOL    HW1 1574   4.316   6.356   1.125
  225SOL    HW2 1575   4.469   6.312   1.162
  226SOL     OW 1576   1.358   5.092   2.852
  226SOL    HW1 1577   1.309   5.138   2.925
  226SOL    HW2 1578   1.356   4.993   2.868
  227SOL     OW 1579   1.042   3.801   3.168
  227SOL    HW1 1580   1.017   3.818   3.264
  227SOL    HW2 1581   0.994   3.720   3.135
  228SOL     OW 1582   3.429   5.282   3.312
  228SOL    HW1 1583   3.347   5.269   3.258
  228SOL    HW2 1584   3.510   5.267   3.255
  229SOL     OW 1585   5.317   6.441   2.017
  229SOL    HW1 1586   5.345   6.487   1.932
  229SOL    HW2 1587   5.330   6.502   2.094
  230SOL     OW 1588   1.447   4.595   4.861
  230SOL    HW1 1589   1.367   4.536   4.852
  230SOL    HW2 1590   1.526   4.552   4.817
  231SOL     OW 1591   0.096   2.186   6.877
  231SOL    HW1 1592   0.061   2.167   6.785
  231SOL    HW2 1593   0.047   2.129   6.943
  232SOL     OW 1594   1.996   3.302   0.195
  232SOL    HW1 1595   2.082   3.292   0.146
  232SOL    HW2 1596   1.940   3.372   0.150
  233SOL     OW 1597   3.736   0.360   0.846
  233SOL    HW1 1598   3.725   0.456   0.822
  233SOL    HW2 1599   3.658   0.308   0.811
  234SOL     OW 1600   1.493   5.248   0.458
  234SOL    HW1 1601   1.584   5.290   0.462
  234SOL    HW2 1602   1.429   5.312   0.416
  235SOL     OW 1603   4.461   2.963   5.670
  235SOL    HW1 1604   4.412   2.959   5.583
  235SOL    HW2 1605   4.396   2.968   5.746
  236SOL     OW 1606   6.967   0.080   6.797
  236SOL    HW1 1607   6.980   0.080   6.897
  236SOL    HW2 1608   6.890   0.139   6.773
  237SOL     OW 1609   5.711   0.783   2.773
  237SOL    HW1 1610   5.745   0.728   2.696
  237SOL    HW2 1611   5.650   0.855   2.738
  238SOL     OW 1612   0.098   2.033   3.286
  238SOL    HW1 1613   0.150   2.114   3.314
  238SOL    HW2 1614   0.152   1.980   3.221
  239SOL     OW 1615   6.320   4.484   6.503
  239SOL    HW1 1616   6.349   4.445   6.590
  239SOL    HW2 1617   6.341   4.420   6.429
  240SOL     OW 1618   0.293   2.438   4.323
  240SOL    HW1 1619   0.373   2.435   4.383
  240SOL    HW2 1620   0.214   2.399   4.369
  241SOL     OW 1621   5.939   2.688   4.526
  241SOL    HW1 1622   5.994   2.707   4.445
  241SOL    HW2 1623   5.965   2.599   4.564
  242SOL     OW 1624   2.513   2.606   3.157
  242SOL    HW1 1625   2.564   2.674   3.105
  242SOL    HW2 1626   2.530   2.515   3.118
  243SOL     OW 1627   5.012   1.270   6.183
  243SOL    HW1 1628   5.070   1.301   6.258
  243SOL    HW2 1629   5.009   1.170   6.183
  244SOL     OW 1630   1.818   0.681   5.588
  244SOL    HW1 1631   1.754   0.758   5.589
  244SOL    HW2 1632   1.892   0.698   5.652
  245SOL     OW 1633   5.309   2.004   4.626
  245SOL    HW1 1634   5.331   1.991   4.529
  245SOL    HW2 1635   5.248   1.931   4.656
  246SOL     OW 1636   5.221   3.930   4.623
  246SOL    HW1 1637   5.131   3.898   4.652
  246SOL    HW2 1638   5.214   3.975   4.534
  247SOL     OW 1639   1.714   0.405   2.399
  247SOL    HW1 1640   1.715   0.316   2.355
  247SOL    HW2 1641   1.806   0.444   2.400
  248SOL     OW 1642   6.746   2.895   3.103
  248SOL    HW1 1643   6.766   2.907   3.005
  248SOL    HW2 1644   6.713   2.803   3.119
  249SOL     OW 1645   1.844   6.419   4.729
  249SOL    HW1 1646   1.839   6.518   4.737
  249SOL    HW2 1647   1.776   6.377   4.790
  250SOL     OW 1648   6.271   2.373   0.147
  250SOL    HW1 1649   6.261   2.299   0.213
  250SOL    HW2 1650   6.277   2.334   0.055
  251SOL     OW 1651   2.355   6.967   2.721
  251SOL    HW1 1652   2.388   0.029   2.770
  251SOL    HW2 1653   2.267   6.987   2.680
  252SOL     OW 1654   6.715   3.200   0.045
  252SOL    HW1 1655   6.779   3.127   0.019
  252SOL    HW2 1656   6.763   3.287   0.046
  253SOL     OW 1657   2.036   4.769   5.472
  253SOL    HW1 1658   1.940   4.787   5.495
  253SOL    HW2 1659   2.094   4.799   5.548
  254SOL     OW 1660   4.997   3.397   6.878
  254SOL    HW1 1661   4.978   3.467   6.947
  254SOL    HW2 1662   5.088   3.410   6.841
  255SOL     OW 1663   4.366   2.095   1.912
  255SOL    HW1 1664   4.302   2.038   1.861
  255SOL    HW2 1665   4.447   2.114   1.856
  256SOL     OW 1666   0.707   6.290   1.183
  256SOL    HW1 1667   0.731   6.333   1.270
  256SOL    HW2 1668   0.786   6.242   1.146
  257SOL     OW 1669   2.764   6.038   6.559
  257SOL    HW1 1670   2.710   5.960   6.525
  257SOL    HW2 1671   2.804   6.014   6.648
  258SOL     OW 1672   4.896   5.092   4.258
  258SOL    HW1 1673   4.843   5.160   4.308
  258SOL    HW2 1674   4.864   5.000   4.280
  259SOL     OW 1675   7.012   1.204   1.624
  259SOL    HW1 1676   6.932   1.146   1.636
  259SOL    HW2 1677   0.057   1.159   1.561
  260SOL     OW 1678   6.133   6.886   6.201
  260SOL    HW1 1679   6.083   6.939   6.133
  260SOL    HW2 1680   6.160   6.945   6.277
  261SOL     OW 1681   6.957   1.104   3.224
  261SOL    HW1 1682   6.912   1.029   3.272
  261SOL    HW2 1683   6.900   1.136   3.148
  262SOL     OW 1684   1.941   5.475   0.926
  262SOL    HW1 1685   1.983   5.549   0.979
  262SOL    HW2 1686   2.012   5.410   0.898
  263SOL     OW 1687   1.168   4.575   5.121
  263SOL    HW1 1688   1.081   4.588   5.074
  263SOL    HW2 1689   1.238   4.547   5.055
  264SOL     OW 1690   4.410   4.322   0.769
  264SOL    HW1 1691   4.354   4.400   0.800
  264SOL    HW2 1692   4.356   4.238   0.778
  265SOL     OW 1693   3.716   5.740   4.108
  265SOL    HW1 1694   3.623   5.754   4.075
  265SOL    HW2 1695   3.724   5.648   4.148
  266SOL     OW 1696   4.704   3.509   0.015
  266SOL    HW1 1697   4.673   3.569   0.089
  266SOL    HW2 1698   4.642   3.518   6.956
  267SOL     OW 1699   3.020   2.069   6.320
  267SOL    HW1 1700   2.982   2.103   6.234
  267SOL    HW2 1701   3.076   2.141   6.362
  268SOL     OW 1702   1.672   4.166   2.608
  268SOL    HW1 1703   1.689   4.227   2.531
  268SOL    HW2 1704   1.610   4.211   2.672
  269SOL     OW 1705   2.498   1.452   5.317
  269SOL    HW1 1706   2.516   1.353   5.317
  269SOL    HW2 1707   2.511   1.488   5.409
  270SOL     OW 1708   5.739   5.498   4.836
  270SOL    HW1 1709   5.675   5.449   4.895
  270SOL    HW2 1710   5.688   5.546   4.765
  271SOL     OW 1711   2.940   0.378   0.038
  271SOL    HW1 1712   2.867   0.445   0.050
  271SOL    HW2 1713   3.012   0.419   7.000
  272SOL     OW 1714   5.737   4.112   6.936
  272SOL    HW1 1715   5.779   4.132   6.847
  272SOL    HW2 1716   5.658   4.171   6.949
  273SOL     OW 1717   0.425   5.732   4.071
  273SOL    HW1 1718   0.476   5.802   4.020
  273SOL    HW2 1719   0.483   5.651   4.082
  274SOL     OW 1720   5.279   2.867   2.329
  274SOL    HW1 1721   5.283   2.950   2.274
  274SOL    HW2 1722   5.372   2.832   2.344
  275SOL     OW 1723   5.874   4.963   5.908
  275SOL    HW1 1724   5.906   5.055   5.884
  275SOL    HW2 1725   5.774   4.963   5.911
  276SOL     OW 1726   0.788   0.287   4.426
  276SOL    HW1 1727   0.699   0.322   4.396
  276SOL    HW2 1728   0.850   0.364   4.442
  277SOL     OW 1729   3.941   3.289   5.637
  277SOL    HW1 1730   3.946   3.360   5.567
  277SOL    HW2 1731   4.020   3.297   5.698
  278SOL     OW 1732   5.943   5.128   1.746
  278SOL    HW1 1733   6.000   5.197   1.790
  278SOL    HW2 1734   5.847   5.159   1.746
  279SOL     OW 1735   6.715   3.069   3.914
  279SOL    HW1 1736   6.777   2.998   3.882
  279SOL    HW2 1737   6.747   3.105   4.001
  280SOL     OW 1738   4.269   1.245   2.310
  280SOL    HW1 1739   4.337   1.313   2.334
  280SOL    HW2 1740   4.187   1.257   2.366
  281SOL     OW 1741   5.192   5.510   6.156
  281SOL    HW1 1742   5.185   5.424   6.205
  281SOL    HW2 1743   5.163   5.585   6.215
  282SOL     OW 1744   0.715   1.664   0.158
  282SOL    HW1 1745   0.731   1.704   0.067
  282SOL    HW2 1746   0.791   1.687   0.218
  283SOL     OW 1747   6.390   3.889   2.544
  283SOL    HW1 1748   6.297   3.925   2.544
  283SOL    HW2 1749   6.389   3.794   2.575
  284SOL     OW 1750   5.811   6.931   2.702
  284SOL    HW1 1751   5.740   6.976   2.647
  284SOL    HW2 1752   5.874   6.999   2.737
  285SOL     OW 1753   5.069   5.714   5.960
  285SOL    HW1 1754   5.066   5.626   6.007
  285SOL    HW2 1755   4.981   5.760   5.969
  286SOL     OW 1756   3.513   5.614   5.441
  286SOL    HW1 1757   3.519   5.713   5.457
  286SOL    HW2 1758   3.489   5.597   5.346
  287SOL     OW 1759   4.448   6.763   0.797
  287SOL    HW1 1760   4.464   6.845   0.742
  287SOL    HW2 1761   4.534   6.715   0.811
  288SOL     OW 1762   3.688   0.888   0.466
  288SOL    HW1 1763   3.596   0.852   0.482
  288SOL    HW2 1764   3.755   0.817   0.485
  289SOL     OW 1765   5.905   5.282   4.987
  289SOL    HW1 1766   5.819   5.321   4.954
  289SOL    HW2 1767   5.956   5.351   5.037
  290SOL     OW 1768   2.808   1.165   4.594
  290SOL    HW1 1769   2.711   1.190   4.591
  290SOL    HW2 1770   2.837   1.159   4.690
  291SOL     OW 1771   5.924   1.125   4.976
  291SOL    HW1 1772   5.981   1.065   4.921
  291SOL    HW2 1773   5.902   1.208   4.924
  292SOL     OW 1774   2.432   0.750   4.165
  292SOL    HW1 1775   2.439   0.775   4.069
  292SOL    HW2 1776   2.424   0.832   4.221
  293SOL     OW 1777   5.493   0.630   3.144
  293SOL    HW1 1778   5.423   0.604   3.211
  293SOL    HW2 1779   5.577   0.656   3.192
  294SOL     OW 1780   6.898   0.842   6.337
  294SOL    HW1 1781   6.855   0.838   6.427
  294SOL    HW2 1782   6.833   0.812   6.267
  295SOL     OW 1783   0.586   0.914   4.958
  295SOL    HW1 1784   0.489   0.907   4.980
  295SOL    HW2 1785   0.597   0.962   4.871
  296SOL     OW 1786   0.179   1.414   6.924
  296SOL    HW1 1787   0.142   1.487   6.983
  296SOL    HW2 1788   0.258   1.448   6.873
  297SOL     OW 1789   5.040   4.402   3.159
  297SOL    HW1 1790   5.037   4.501   3.141
  297SOL    HW2 1791   4.970   4.379   3.227
  298SOL     OW 1792   4.235   6.198   5.529
  298SOL    HW1 1793   4.271   6.168   5.441
  298SOL    HW2 1794   4.165   6.134   5.560
  299SOL     OW 1795   6.997   1.400   6.180
  299SOL    HW1 1796   0.036   1.474   6.144
  299SOL    HW2 1797   0.035   1.337   6.234
  300SOL     OW 1798   4.220   6.410   4.412
  300SOL    HW1 1799   4.148   6.393   4.479
  300SOL    HW2 1800   4.236   6.509   4.405
  301SOL     OW 1801   6.524   6.645   5.393
  301SOL    HW1 1802   6.438   6.597   5.406
  301SOL    HW2 1803   6.562   6.670   5.482
  302SOL     OW 1804   0.925   6.621   2.367
  302SOL    HW1 1805   0.866   6.655   2.440
  302SOL    HW2 1806   0.918   6.682   2.288
  303SOL     OW 1807   4.253   5.319   2.823
  303SOL    HW1 1808   4.288   5.392   2.881
  303SOL    HW2 1809   4.311   5.238   2.833
  304SOL     OW 1810   1.050   1.444   5.206
  304SOL    HW1 1811   1.110   1.369   5.176
  304SOL    HW2 1812   0.996   1.477   5.129
  305SOL     OW 1813   3.152   1.360   0.623
  305SOL    HW1 1814   3.093   1.440   0.616
  305SOL    HW2 1815   3.224   1.377   0.691
  306SOL     OW 1816   0.615   6.834   2.861
  306SOL    HW1 1817   0.674   6.889   2.920
  306SOL    HW2 1818   0.653   6.742   2.852
  307SOL     OW 1819   4.010   3.156   4.593
  307SOL    HW1 1820   4.028   3.253   4.579
  307SOL    HW2 1821   4.019   3.108   4.506
  308SOL     OW 1822   6.638   3.126   0.461
  308SOL    HW1 1823   6.562   3.081   0.509
  308SOL    HW2 1824   6.723   3.075   0.478
  309SOL     OW 1825   1.840   5.400   0.160
  309SOL    HW1 1826   1.792   5.473   0.208
  309SOL    HW2 1827   1.934   5.393   0.195
  310SOL     OW 1828   4.647   6.106   5.587
  310SOL    HW1 1829   4.562   6.129   5.634
  310SOL    HW2 1830   4.712   6.181   5.598
  311SOL     OW 1831   1.807   6.369   1.940
  311SOL    HW1 1832   1.768   6.279   1.963
  311SOL    HW2 1833   1.782   6.393   1.847
  312SOL     OW 1834   3.885   0.405   4.376
  312SOL    HW1 1835   3.977   0.435   4.349
  312SOL    HW2 1836   3.854   0.335   4.311
  313SOL     OW 1837   2.994   3.214   3.552
  313SOL    HW1 1838   3.007   3.276   3.475
  313SOL    HW2 1839   3.006   3.119   3.521
  314SOL     OW 1840   2.170   4.298   6.337
  314SOL    HW1 1841   2.220   4.375   6.297
  314SOL    HW2 1842   2.191   4.291   6.434
  315SOL     OW 1843   5.949   6.821   4.616
  315SOL    HW1 1844   5.877   6.760   4.650
  315SOL    HW2 1845   6.034   6.769   4.607
  316SOL     OW 1846   3.842   1.094   4.817
  316SOL    HW1 1847   3.848   1.154   4.896
  316SOL    HW2 1848   3.845   0.998   4.846
  317SOL     OW 1849   0.646   1.034   1.827
  317SOL    HW1 1850   0.547   1.023   1.818
  317SOL    HW2 1851   0.666   1.095   1.904
  318SOL     OW 1852   1.081   1.747   4.080
  318SOL    HW1 1853   1.086   1.845   4.061
  318SOL    HW2 1854   0.991   1.713   4.056
  319SOL     OW 1855   0.569   2.087   2.252
  319SOL    HW1 1856   0.516   2.004   2.270
  319SOL    HW2 1857   0.607   2.122   2.337
  320SOL     OW 1858   5.023   0.944   6.460
  320SOL    HW1 1859   4.934   0.978   6.490
  320SOL    HW2 1860   5.095   1.002   6.496
  321SOL     OW 1861   4.587   3.163   0.880
  321SOL    HW1 1862   4.577   3.139   0.783
  321SOL    HW2 1863   4.587   3.080   0.935
  322SOL     OW 1864   3.167   2.053   0.303
  322SOL    HW1 1865   3.134   1.973   0.252
  322SOL    HW2 1866   3.196   2.124   0.238
  323SOL     OW 1867   0.209   4.194   1.732
  323SOL    HW1 1868   0.222   4.134   1.812
  323SOL    HW2 1869   0.296   4.208   1.686
  324SOL     OW 1870   6.564   0.317   3.338
  324SOL    HW1 1871   6.602   0.404   3.370
  324SOL    HW2 1872   6.638   0.255   3.314
  325SOL     OW 1873   6.840   2.928   0.507
  325SOL    HW1 1874   6.827   2.858   0.437
  325SOL    HW2 1875   6.928   2.974   0.492
  326SOL     OW 1876   6.028   5.973   6.024
  326SOL    HW1 1877   5.932   5.960   5.996
  326SOL    HW2 1878   6.085   5.979   5.942
  327SOL     OW 1879   4.002   6.140   6.519
  327SOL    HW1 1880   4.061   6.059   6.511
  327SOL    HW2 1881   4.044   6.206   6.581
  328SOL     OW 1882   2.372   4.567   3.654
  328SOL    HW1 1883   2.298   4.590   3.591
  328SOL    HW2 1884   2.460   4.587   3.610
  329SOL     OW 1885   2.913   3.452   2.769
  329SOL    HW1 1886   2.898   3.537   2.718
  329SOL    HW2 1887   2.936   3.379   2.706
  330SOL     OW 1888   2.106   3.505   6.498
  330SOL    HW1 1889   2.008   3.514   6.484
  330SOL    HW2 1890   2.127   3.412   6.530
  331SOL     OW 1891   5.075   5.627   4.462
  331SOL    HW1 1892   5.100   5.594   4.371
  331SOL    HW2 1893   5.015   5.706   4.454
  332SOL     OW 1894   6.020   2.130   2.928
  332SOL    HW1 1895   5.948   2.062   2.939
  332SOL    HW2 1896   5.994   2.214   2.975
  333SOL     OW 1897   2.822   5.879   4.038
  333SOL    HW1 1898   2.730   5.915   4.028
  333SOL    HW2 1899   2.870   5.930   4.110
  334SOL     OW 1900   3.780   3.423   3.753
  334SOL    HW1 1901   3.748   3.330   3.737
  334SOL    HW2 1902   3.717   3.488   3.709
  335SOL     OW 1903   4.292   1.159   6.922
  335SOL    HW1 1904   4.312   1.191   7.014
  335SOL    HW2 1905   4.291   1.237   6.859
  336SOL     OW 1906   3.786   1.775   4.528
  336SOL    HW1 1907   3.849   1.820   4.466
  336SOL    HW2 1908   3.723   1.716   4.476
  337SOL     OW 1909   1.052   1.868   5.279
  337SOL    HW1 1910   0.963   1.907   5.300
  337SOL    HW2 1911   1.105   1.934   5.225
  338SOL     OW 1912   5.420   1.530   1.571
  338SOL    HW1 1913   5.325   1.521   1.602
  338SOL    HW2 1914   5.451   1.624   1.585
  339SOL     OW 1915   3.228   4.977   5.668
  339SOL    HW1 1916   3.245   4.911   5.594
  339SOL    HW2 1917   3.260   4.938   5.754
  340SOL     OW 1918   5.456   4.662   4.763
  340SOL    HW1 1919   5.509   4.747   4.756
  340SOL    HW2 1920   5.496   4.603   4.832
  341SOL     OW 1921   5.670   0.610   1.556
  341SOL    HW1 1922   5.628   0.598   1.646
  341SOL    HW2 1923   5.615   0.561   1.487
  342SOL     OW 1924   4.758   0.515   1.370
  342SOL    HW1 1925   4.753   0.569   1.286
  342SOL    HW2 1926   4.835   0.547   1.426
  343SOL     OW 1927   5.550   0.515   1.814
  343SOL    HW1 1928   5.608   0.438   1.838
  343SOL    HW2 1929   5.506   0.497   1.726
  344SOL     OW 1930   6.485   2.950   1.616
  344SOL    HW1 1931   6.574   2.983   1.649
  344SOL    HW2 1932   6.439   3.024   1.568
  345SOL     OW 1933   6.979   3.609   3.548
  345SOL    HW1 1934   6.970   3.708   3.539
  345SOL    HW2 1935   6.899   3.565   3.506
  346SOL     OW 1936   0.281   0.473   3.527
  346SOL    HW1 1937   0.344   0.396   3.519
  346SOL    HW2 1938   0.196   0.442   3.569
  347SOL     OW 1939   1.952   4.120   1.547
  347SOL    HW1 1940   1.991   4.145   1.636
  347SOL    HW2 1941   1.905   4.033   1.554
  348SOL     OW 1942   6.022   4.888   0.979
  348SOL    HW1 1943   5.947   4.949   1.003
  348SOL    HW2 1944   5.989   4.794   0.975
  349SOL     OW 1945   6.165   5.198   6.624
  349SOL    HW1 1946   6.216   5.116   6.600
  349SOL    HW2 1947   6.204   5.239   6.707
  350SOL     OW 1948   2.749   0.356   0.760
  350SOL    HW1 1949   2.795   0.406   0.687
  350SOL    HW2 1950   2.811   0.344   0.837
  351SOL     OW 1951   4.231   3.889   0.820
  351SOL    HW1 1952   4.301   3.922   0.883
  351SOL    HW2 1953   4.214   3.792   0.837
  352SOL     OW 1954   3.581   0.945   2.602
  352SOL    HW1 1955   3.613   0.859   2.642
  352SOL    HW2 1956   3.558   0.931   2.506
  353SOL     OW 1957   2.537   6.441   0.613
  353SOL    HW1 1958   2.612   6.504   0.594
  353SOL    HW2 1959   2.514   6.391   0.529
  354SOL     OW 1960   2.613   2.533   0.776
  354SOL    HW1 1961   2.527   2.532   0.726
  354SOL    HW2 1962   2.672   2.459   0.743
  355SOL     OW 1963   0.024   2.355   2.746
  355SOL    HW1 1964   0.104   2.391   2.699
  355SOL    HW2 1965   0.009   2.406   2.830
  356SOL     OW 1966   2.722   6.882   5.771
  356SOL    HW1 1967   2.799   6.857   5.830
  356SOL    HW2 1968   2.679   6.798   5.736
  357SOL     OW 1969   6.099   6.097   4.435
  357SOL    HW1 1970   6.034   6.130   4.365
  357SOL    HW2 1971   6.085   6.149   4.519
  358SOL     OW 1972   3.403   6.033   0.057
  358SOL    HW1 1973   3.440   6.059   0.146
  358SOL    HW2 1974   3.365   6.113   0.011
  359SOL     OW 1975   2.100   2.206   0.915
  359SOL    HW1 1976   2.111   2.122   0.967
  359SOL    HW2 1977   2.099   2.284   0.978
  360SOL     OW 1978   1.795   4.696   2.895
  360SOL    HW1 1979   1.708   4.742   2.879
  360SOL    HW2 1980   1.812   4.631   2.821
  361SOL     OW 1981   6.291   2.901   2.480
  361SOL    HW1 1982   6.266   2.845   2.401
  361SOL    HW2 1983   6.390   2.907   2.487
  362SOL     OW 1984   4.141   3.408   3.003
  362SOL    HW1 1985   4.086   3.378   3.082
  362SOL    HW2 1986   4.147   3.333   2.937
  363SOL     OW 1987   4.472   5.621   1.419
  363SOL    HW1 1988   4.485   5.529   1.382
  363SOL    HW2 1989   4.433   5.680   1.349
  364SOL     OW 1990   1.207   0.814   6.776
  364SOL    HW1 1991   1.261   0.810   6.692
  364SOL    HW2 1992   1.237   0.742   6.839
  365SOL     OW 1993   4.952   0.420   3.837
  365SOL    HW1 1994   4.925   0.465   3.922
  365SOL    HW2 1995   4.871   0.384   3.791
  366SOL     OW 1996   5.603   1.153   0.136
  366SOL    HW1 1997   5.514   1.110   0.151
  366SOL    HW2 1998   5.668   1.122   0.206
  367SOL     OW 1999   6.440   6.598   0.001
  367SOL    HW1 2000   6.525   6.607   6.968
  367SOL    HW2 2001   6.374   6.545   6.966
  368SOL     OW 2002   2.782   1.306   5.165
  368SOL    HW1 2003   2.830   1.224   5.198
  368SOL    HW2 2004   2.846   1.383   5.165
  369SOL     OW 2005   4.866   3.710   6.788
  369SOL    HW1 2006   4.839   3.619   6.754
  369SOL    HW2 2007   4.946   3.700   6.847
  370SOL     OW 2008   1.721   2.050   3.945
  370SOL    HW1 2009   1.749   2.110   3.869
  370SOL    HW2 2010   1.630   2.078   3.976
  371SOL     OW 2011   2.827   5.011   1.033
  371SOL    HW1 2012   2.769   4.979   0.959
  371SOL    HW2 2013   2.784   4.991   1.121
  372SOL     OW 2014   2.723   5.856   5.722
  372SOL    HW1 2015   2.812   5.846   5.768
  372SOL    HW2 2016   2.651   5.864   5.791
  373SOL     OW 2017   5.107   4.266   2.898
  373SOL    HW1 2018   5.108   4.344   2.962
  373SOL    HW2 2019   5.101   4.181   2.950
  374SOL     OW 2020   2.204   2.755   1.974
  374SOL    HW1 2021   2.230   2.758   2.071
  374SOL    HW2 2022   2.287   2.754   1.918
  375SOL     OW 2023   0.146   4.997   4.372
  375SOL    HW1 2024   0.154   5.047   4.459
  375SOL    HW2 2025   0.075   5.039   4.316
  376SOL     OW 2026   4.838   6.995   3.530
  376SOL    HW1 2027   4.749   6.954   3.547
  376SOL    HW2 2028   4.910   6.937   3.568
  377SOL     OW 2029   2.504   3.396   6.360
  377SOL    HW1 2030   2.425   3.382   6.301
  377SOL    HW2 2031   2.481   3.462   6.432
  378SOL     OW 2032   4.106   1.305   1.293
  378SOL    HW1 2033   4.132   1.296   1.389
  378SOL    HW2 2034   4.042   1.233   1.268
  379SOL     OW 2035   2.982   3.612   0.781
  379SOL    HW1 2036   2.966   3.618   0.880
  379SOL    HW2 2037   2.939   3.529   0.746
  380SOL     OW 2038   5.264   1.295   6.823
  380SOL    HW1 2039   5.242   1.388   6.792
  380SOL    HW2 2040   5.199   1.231   6.782
  381SOL     OW 2041   0.318   3.234   1.977
  381SOL    HW1 2042   0.243   3.290   2.013
  381SOL    HW2 2043   0.338   3.160   2.042
  382SOL     OW 2044   6.352   0.056   0.787
  382SOL    HW1 2045   6.416   7.005   0.754
  382SOL    HW2 2046   6.394   0.147   0.775
  383SOL     OW 2047   5.335   3.234   1.265
  383SOL    HW1 2048   5.287   3.146   1.253
  383SOL    HW2 2049   5.306   3.276   1.350
  384SOL     OW 2050   1.609   2.784   4.538
  384SOL    HW1 2051   1.545   2.804   4.612
  384SOL    HW2 2052   1.659   2.867   4.514
  385SOL     OW 2053   4.886   3.018   0.026
  385SOL    HW1 2054   4.895   3.024   6.945
  385SOL    HW2 2055   4.838   3.100   0.059
  386SOL     OW 2056   3.317   6.045   5.238
  386SOL    HW1 2057   3.217   6.042   5.247
  386SOL    HW2 2058   3.348   6.140   5.244
  387SOL     OW 2059   1.643   6.494   3.412
  387SOL    HW1 2060   1.729   6.528   3.450
  387SOL    HW2 2061   1.657   6.467   3.317
  388SOL     OW 2062   1.671   5.546   5.773
  388SOL    HW1 2063   1.635   5.498   5.853
  388SOL    HW2 2064   1.750   5.496   5.737
  389SOL     OW 2065   3.865   2.302   6.580
  389SOL    HW1 2066   3.893   2.225   6.637
  389SOL    HW2 2067   3.898   2.289   6.487
  390SOL     OW 2068   3.395   1.564   3.806
  390SOL    HW1 2069   3.303   1.540   3.834
  390SOL    HW2 2070   3.406   1.664   3.809
  391SOL     OW 2071   0.650   0.876   0.622
  391SOL    HW1 2072   0.670   0.857   0.526
  391SOL    HW2 2073   0.582   0.949   0.628
  392SOL     OW 2074   4.154   5.547   4.156
  392SOL    HW1 2075   4.202   5.584   4.236
  392SOL    HW2 2076   4.112   5.622   4.105
  393SOL     OW 2077   5.559   2.747   5.638
  393SOL    HW1 2078   5.523   2.679   5.701
  393SOL    HW2 2079   5.531   2.838   5.667
  394SOL     OW 2080   2.304   1.039   6.712
  394SOL    HW1 2081   2.345   1.129   6.696
  394SOL    HW2 2082   2.258   1.038   6.801
  395SOL     OW 2083   0.094   2.971   0.951
  395SOL    HW1 2084   0.076   2.877   0.982
  395SOL    HW2 2085   0.027   2.997   0.882
  396SOL     OW 2086   3.811   2.748   5.522
  396SOL    HW1 2087   3.772   2.840   5.525
  396SOL    HW2 2088   3.895   2.749   5.468
  397SOL     OW 2089   4.568   6.915   6.692
  397SOL    HW1 2090   4.620   7.000   6.705
  397SOL    HW2 2091   4.544   6.877   6.781
  398SOL     OW 2092   5.907   3.968   2.402
  398SOL    HW1 2093   5.810   3.952   2.383
  398SOL    HW2 2094   5.924   4.067   2.403
  399SOL     OW 2095   2.374   6.037   1.413
  399SOL    HW1 2096   2.349   5.940   1.404
  399SOL    HW2 2097   2.432   6.049   1.493
  400SOL     OW 2098   2.181   4.868   5.667
  400SOL    HW1 2099   2.275   4.842   5.687
  400SOL    HW2 2100   2.131   4.878   5.753
  401SOL     OW 2101   6.090   1.256   1.320
  401SOL    HW1 2102   6.160   1.192   1.352
  401SOL    HW2 2103   6.072   1.325   1.390
  402SOL     OW 2104   0.316   5.548   0.990
  402SOL    HW1 2105   0.317   5.645   0.967
  402SOL    HW2 2106   0.225   5.522   1.023
  403SOL     OW 2107   5.448   4.330   0.486
  403SOL    HW1 2108   5.459   4.307   0.390
  403SOL    HW2 2109   5.351   4.323   0.511
  404SOL     OW 2110   6.537   5.842   4.643
  404SOL    HW1 2111   6.561   5.891   4.559
  404SOL    HW2 2112   6.565   5.747   4.634
  405SOL     OW 2113   1.248   1.191   1.647
  405SOL    HW1 2114   1.173   1.176   1.712
  405SOL    HW2 2115   1.333   1.209   1.697
  406SOL     OW 2116   1.314   3.148   3.897
  406SOL    HW1 2117   1.388   3.092   3.861
  406SOL    HW2 2118   1.352   3.235   3.930
  407SOL     OW 2119   3.300   1.796   3.906
  407SOL    HW1 2120   3.261   1.852   3.833
  407SOL    HW2 2121   3.230   1.733   3.941
  408SOL     OW 2122   1.999   0.166   3.727
  408SOL    HW1 2123   1.994   0.259   3.762
  408SOL    HW2 2124   2.095   0.142   3.709
  409SOL     OW 2125   0.330   4.955   4.613
  409SOL    HW1 2126   0.246   4.913   4.649
  409SOL    HW2 2127   0.399   4.885   4.599
  410SOL     OW 2128   2.545   6.488   6.403
  410SOL    HW1 2129   2.605   6.415   6.433
  410SOL    HW2 2130   2.545   6.493   6.303
  411SOL     OW 2131   0.685   4.315   5.365
  411SOL    HW1 2132   0.586   4.327   5.373
  411SOL    HW2 2133   0.726   4.309   5.456
  412SOL     OW 2134   3.742   6.294   3.172
  412SOL    HW1 2135   3.794   6.367   3.216
  412SOL    HW2 2136   3.646   6.299   3.201
  413SOL     OW 2137   2.386   0.210   1.557
  413SOL    HW1 2138   2.472   0.161   1.576
  413SOL    HW2 2139   2.397   0.264   1.473
  414SOL     OW 2140   5.009   4.562   0.674
  414SOL    HW1 2141   5.016   4.490   0.605
  414SOL    HW2 2142   5.098   4.573   0.720
  415SOL     OW 2143   3.806   6.851   2.865
  415SOL    HW1 2144   3.827   6.770   2.920
  415SOL    HW2 2145   3.706   6.862   2.859
  416SOL     OW 2146   3.930   5.673   6.939
  416SOL    HW1 2147   3.908   5.715   0.009
  416SOL    HW2 2148   3.915   5.574   6.945
  417SOL     OW 2149   5.673   5.533   0.981
  417SOL    HW1 2150   5.770   5.510   0.970
  417SOL    HW2 2151   5.619   5.484   0.912
  418SOL     OW 2152   0.224   5.081   6.286
  418SOL    HW1 2153   0.289   5.153   6.259
  418SOL    HW2 2154   0.209   5.020   6.209
  419SOL     OW 2155   4.843   5.502   6.158
  419SOL    HW1 2156   4.901   5.480   6.237
  419SOL    HW2 2157   4.767   5.437   6.154
  420SOL     OW 2158   5.771   3.531   6.744
  420SOL    HW1 2159   5.770   3.631   6.748
  420SOL    HW2 2160   5.845   3.500   6.684
  421SOL     OW 2161   1.650   6.188   6.211
  421SOL    HW1 2162   1.574   6.184   6.146
  421SOL    HW2 2163   1.617   6.163   6.302
  422SOL     OW 2164   6.284   3.697   0.221
  422SOL    HW1 2165   6.378   3.667   0.208
  422SOL    HW2 2166   6.237   3.699   0.133
  423SOL     OW 2167   1.636   3.307   6.344
  423SOL    HW1 2168   1.704   3.330   6.274
  423SOL    HW2 2169   1.552   3.359   6.327
  424SOL     OW 2170   2.453   4.333   6.097
  424SOL    HW1 2171   2.396   4.251   6.097
  424SOL    HW2 2172   2.416   4.399   6.162
  425SOL     OW 2173   2.598   0.656   0.567
  425SOL    HW1 2174   2.540   0.603   0.505
  425SOL    HW2 2175   2.687   0.611   0.576
  426SOL     OW 2176   0.726   3.165   6.693
  426SOL    HW1 2177   0.674   3.149   6.777
  426SOL    HW2 2178   0.813   3.208   6.715
  427SOL     OW 2179   4.111   3.067   0.249
  427SOL    HW1 2180   4.077   2.978   0.219
  427SOL    HW2 2181   4.162   3.110   0.175
  428SOL     OW 2182   3.532   1.037   4.453
  428SOL    HW1 2183   3.557   0.947   4.489
  428SOL    HW2 2184   3.446   1.067   4.494
  429SOL     OW 2185   3.768   5.979   0.287
  429SOL    HW1 2186   3.860   5.944   0.269
  429SOL    HW2 2187   3.771   6.078   0.298
  430SOL     OW 2188   2.924   0.942   4.457
  430SOL    HW1 2189   2.876   1.016   4.503
  430SOL    HW2 2190   2.970   0.977   4.376
  431SOL     OW 2191   3.715   0.755   6.271
  431SOL    HW1 2192   3.705   0.854   6.270
  431SOL    HW2 2193   3.640   0.714   6.218
  432SOL     OW 2194   6.512   1.188   1.023
  432SOL    HW1 2195   6.452   1.182   0.943
  432SOL    HW2 2196   6.561   1.276   1.020
  433SOL     OW 2197   3.916   6.201   4.878
  433SOL    HW1 2198   3.980   6.183   4.803
  433SOL    HW2 2199   3.849   6.127   4.883
  434SOL     OW 2200   6.514   3.346   0.756
  434SOL    HW1 2201   6.606   3.311   0.775
  434SOL    HW2 2202   6.504   3.366   0.659
  435SOL     OW 2203   3.883   3.132   0.678
  435SOL    HW1 2204   3.874   3.038   0.711
  435SOL    HW2 2205   3.794   3.178   0.684
  436SOL     OW 2206   2.245   1.258   1.203
  436SOL    HW1 2207   2.213   1.251   1.298
  436SOL    HW2 2208   2.250   1.354   1.176
  437SOL     OW 2209   6.326   6.699   6.137
  437SOL    HW1 2210   6.412   6.716   6.183
  437SOL    HW2 2211   6.258   6.767   6.165
  438SOL     OW 2212   1.371   3.463   0.833
  438SOL    HW1 2213   1.335   3.400   0.901
  438SOL    HW2 2214   1.336   3.438   0.742
  439SOL     OW 2215   6.118   4.947   1.773
  439SOL    HW1 2216   6.107   4.854   1.739
  439SOL    HW2 2217   6.047   5.005   1.733
  440SOL     OW 2218   1.640   2.910   2.671
  440SOL    HW1 2219   1.624   2.830   2.614
  440SOL    HW2 2220   1.735   2.910   2.703
  441SOL     OW 2221   6.999   1.426   2.981
  441SOL    HW1 2222   0.047   1.362   2.943
  441SOL    HW2 2223   0.016   1.466   3.066
  442SOL     OW 2224   1.326   5.093   6.575
  442SOL    HW1 2225   1.315   5.186   6.608
  442SOL    HW2 2226   1.418   5.060   6.598
  443SOL     OW 2227   0.480   5.316   5.697
  443SOL    HW1 2228   0.473   5.266   5.784
  443SOL    HW2 2229   0.513   5.409   5.715
  444SOL     OW 2230   5.619   3.070   6.599
  444SOL    HW1 2231   5.623   3.094   6.696
  444SOL    HW2 2232   5.597   2.972   6.590
  445SOL     OW 2233   1.919   3.879   3.120
  445SOL    HW1 2234   1.877   3.838   3.200
  445SOL    HW2 2235   1.907   3.819   3.041
  446SOL     OW 2236   1.623   5.193   4.445
  446SOL    HW1 2237   1.642   5.246   4.527
  446SOL    HW2 2238   1.672   5.106   4.448
  447SOL     OW 2239   0.927   5.948   0.559
  447SOL    HW1 2240   0.943   5.895   0.643
  447SOL    HW2 2241   0.854   6.014   0.574
  448SOL     OW 2242   4.240   0.562   5.137
  448SOL    HW1 2243   4.328   0.589   5.177
  448SOL    HW2 2244   4.211   0.631   5.071
  449SOL     OW 2245   6.081   0.483   4.585
  449SOL    HW1 2246   6.178   0.479   4.564
  449SOL    HW2 2247   6.068   0.494   4.683
  450SOL     OW 2248   0.080   5.871   2.768
  450SOL    HW1 2249   0.030   5.957   2.774
  450SOL    HW2 2250   0.100   5.836   2.859
  451SOL     OW 2251   5.705   3.580   3.907
  451SOL    HW1 2252   5.716   3.678   3.923
  451SOL    HW2 2253   5.788   3.543   3.867
  452SOL     OW 2254   6.381   4.707   5.975
  452SOL    HW1 2255   6.346   4.796   6.002
  452SOL    HW2 2256   6.337   4.636   6.030
  453SOL     OW 2257   3.828   1.222   6.394
  453SOL    HW1 2258   3.846   1.311   6.353
  453SOL    HW2 2259   3.912   1.188   6.438
  454SOL     OW 2260   0.294   5.783   6.822
  454SOL    HW1 2261   0.305   5.882   6.834
  454SOL    HW2 2262   0.243   5.746   6.899
  455SOL     OW 2263   5.284   1.942   4.923
  455SOL    HW1 2264   5.220   1.942   5.000
  455SOL    HW2 2265   5.309   1.847   4.902
  456SOL     OW 2266   4.341   5.952   0.951
  456SOL    HW1 2267   4.369   5.871   0.899
  456SOL    HW2 2268   4.342   5.929   1.049
  457SOL     OW 2269   0.450   4.262   1.612
  457SOL    HW1 2270   0.444   4.337   1.547
  457SOL    HW2 2271   0.536   4.212   1.599
  458SOL     OW 2272   0.874   0.115   5.732
  458SOL    HW1 2273   0.808   0.057   5.686
  458SOL    HW2 2274   0.902   0.072   5.818
  459SOL     OW 2275   1.678   0.992   3.514
  459SOL    HW1 2276   1.677   0.935   3.596
  459SOL    HW2 2277   1.700   0.937   3.434
  460SOL     OW 2278   6.595   2.273   3.094
  460SOL    HW1 2279   6.545   2.343   3.145
  460SOL    HW2 2280   6.652   2.220   3.158
  461SOL     OW 2281   5.301   4.558   5.981
  461SOL    HW1 2282   5.218   4.570   5.925
  461SOL    HW2 2283   5.312   4.461   6.002
  462SOL     OW 2284   3.618   2.725   0.577
  462SOL    HW1 2285   3.645   2.721   0.481
  462SOL    HW2 2286   3.693   2.764   0.631
  463SOL     OW 2287   6.159   5.993   1.605
  463SOL    HW1 2288   6.097   6.021   1.678
  463SOL    HW2 2289   6.107   5.947   1.533
  464SOL     OW 2290   1.785   2.246   5.843
  464SOL    HW1 2291   1.826   2.265   5.754
  464SOL    HW2 2292   1.745   2.330   5.880
  465SOL     OW 2293   0.730   3.319   5.995
  465SOL    HW1 2294   0.759   3.414   5.987
  465SOL    HW2 2295   0.687   3.290   5.910
  466SOL     OW 2296   1.414   0.571   3.306
  466SOL    HW1 2297   1.507   0.536   3.308
  466SOL    HW2 2298   1.377   0.562   3.214
  467SOL     OW 2299   1.615   1.357   5.007
  467SOL    HW1 2300   1.707   1.383   5.037
  467SOL    HW2 2301   1.547   1.404   5.065
  468SOL     OW 2302   3.032   3.858   3.512
  468SOL    HW1 2303   3.069   3.931   3.569
  468SOL    HW2 2304   2.955   3.815   3.559
  469SOL     OW 2305   3.791   0.401   6.557
  469SOL    HW1 2306   3.695   0.371   6.556
  469SOL    HW2 2307   3.794   0.500   6.571
  470SOL     OW 2308   4.292   6.851   3.038
  470SOL    HW1 2309   4.361   6.803   2.986
  470SOL    HW2 2310   4.331   6.936   3.074
  471SOL     OW 2311   2.820   2.277   4.051
  471SOL    HW1 2312   2.835   2.263   4.149
  471SOL    HW2 2313   2.908   2.273   4.004
  472SOL     OW 2314   3.902   4.240   5.187
  472SOL    HW1 2315   3.982   4.268   5.239
  472SOL    HW2 2316   3.917   4.149   5.148
  473SOL     OW 2317   0.254   4.723   4.124
  473SOL    HW1 2318   0.338   4.769   4.095
  473SOL    HW2 2319   0.191   4.790   4.162
  474SOL     OW 2320   5.157   5.105   5.291
  474SOL    HW1 2321   5.063   5.132   5.269
  474SOL    HW2 2322   5.215   5.117   5.210
  475SOL     OW 2323   2.721   6.964   0.327
  475SOL    HW1 2324   2.782   0.020   0.298
  475SOL    HW2 2325   2.723   6.956   0.427
  476SOL     OW 2326   6.795   5.681   3.049
  476SOL    HW1 2327   6.722   5.613   3.040
  476SOL    HW2 2328   6.820   5.715   2.958
  477SOL     OW 2329   1.599   4.784   4.094
  477SOL    HW1 2330   1.570   4.749   4.005
  477SOL    HW2 2331   1.524   4.836   4.136
  478SOL     OW 2332   1.331   4.818   3.799
  478SOL    HW1 2333   1.345   4.915   3.779
  478SOL    HW2 2334   1.324   4.805   3.898
  479SOL     OW 2335   4.478   1.794   2.097
  479SOL    HW1 2336   4.502   1.890   2.082
  479SOL    HW2 2337   4.385   1.777   2.065
  480SOL     OW 2338   1.731   6.433   3.785
  480SOL    HW1 2339   1.672   6.360   3.817
  480SOL    HW2 2340   1.741   6.503   3.856
  481SOL     OW 2341   2.200   0.398   1.048
  481SOL    HW1 2342   2.234   0.442   0.965
  481SOL    HW2 2343   2.179   0.468   1.117
  482SOL     OW 2344   5.550   5.832   0.768
  482SOL    HW1 2345   5.601   5.754   0.733
  482SOL    HW2 2346   5.517   5.812   0.861
  483SOL     OW 2347   5.274   1.660   3.319
  483SOL    HW1 2348   5.276   1.674   3.220
  483SOL    HW2 2349   5.349   1.599   3.345
  484SOL     OW 2350   6.414   1.548   3.735
  484SOL    HW1 2351   6.486   1.512   3.794
  484SOL    HW2 2352   6.341   1.587   3.791
  485SOL     OW 2353   2.745   6.216   0.493
  485SOL    HW1 2354   2.794   6.215   0.580
  485SOL    HW2 2355   2.768   6.299   0.442
  486SOL     OW 2356   6.736   0.420   5.743
  486SOL    HW1 2357   6.742   0.519   5.740
  486SOL    HW2 2358   6.677   0.387   5.670
  487SOL     OW 2359   6.648   2.288   6.906
  487SOL    HW1 2360   6.550   2.290   6.925
  487SOL    HW2 2361   6.675   2.196   6.876
  488SOL     OW 2362   1.287   4.639   3.306
  488SOL    HW1 2363   1.271   4.581   3.226
  488SOL    HW2 2364   1.201   4.685   3.331
  489SOL     OW 2365   3.519   5.209   6.029
  489SOL    HW1 2366   3.473   5.216   6.117
  489SOL    HW2 2367   3.618   5.217   6.042
  490SOL     OW 2368   4.847   0.903   4.317
  490SOL    HW1 2369   4.835   0.918   4.415
  490SOL    HW2 2370   4.764   0.865   4.278
  491SOL     OW 2371   0.331   3.214   3.594
  491SOL    HW1 2372   0.262   3.197   3.663
  491SOL    HW2 2373   0.298   3.283   3.529
  492SOL     OW 2374   1.771   1.489   4.641
  492SOL    HW1 2375   1.839   1.461   4.709
  492SOL    HW2 2376   1.706   1.552   4.683
  493SOL     OW 2377   5.784   4.018   4.711
  493SOL    HW1 2378   5.748   4.070   4.789
  493SOL    HW2 2379   5.717   4.017   4.637
  494SOL     OW 2380   5.730   0.723   6.619
  494SOL    HW1 2381   5.745   0.797   6.684
  494SOL    HW2 2382   5.806   0.721   6.553
  495SOL     OW 2383   5.666   4.669   6.923
  495SOL    HW1 2384   5.638   4.607   6.996
  495SOL    HW2 2385   5.674   4.618   6.837
  496SOL     OW 2386   6.054   3.591   2.900
  496SOL    HW1 2387   6.021   3.666   2.957
  496SOL    HW2 2388   6.004   3.591   2.813
  497SOL     OW 2389   4.167   6.935   4.340
  497SOL    HW1 2390   4.157   6.961   4.244
  497SOL    HW2 2391   4.225   6.854   4.347
  498SOL     OW 2392   1.453   3.275   1.420
  498SOL    HW1 2393   1.368   3.316   1.386
  498SOL    HW2 2394   1.531   3.331   1.390
  499SOL     OW 2395   3.555   1.646   5.249
  499SOL    HW1 2396   3.572   1.691   5.162
  499SOL    HW2 2397   3.477   1.687   5.295
  500SOL     OW 2398   1.282   4.819   2.823
  500SOL    HW1 2399   1.273   4.857   2.731
  500SOL    HW2 2400   1.218   4.743   2.834
  501SOL     OW 2401   0.716   5.085   6.166
  501SOL    HW1 2402   0.698   4.992   6.200
  501SOL    HW2 2403   0.668   5.151   6.222
  502SOL     OW 2404   2.358   4.676   5.931
  502SOL    HW1 2405   2.374   4.753   5.992
  502SOL    HW2 2406   2.410   4.688   5.847
  503SOL     OW 2407   6.894   5.057   4.579
  503SOL    HW1 2408   6.883   4.958   4.587
  503SOL    HW2 2409   6.804   5.101   4.575
  504SOL     OW 2410   1.382   5.210   4.556
  504SOL    HW1 2411   1.469   5.217   4.508
  504SOL    HW2 2412   1.381   5.271   4.635
  505SOL     OW 2413   3.575   6.352   4.597
  505SOL    HW1 2414   3.516   6.433   4.603
  505SOL    HW2 2415   3.534   6.277   4.649
  506SOL     OW 2416   2.184   3.402   0.572
  506SOL    HW1 2417   2.094   3.379   0.536
  506SOL    HW2 2418   2.199   3.353   0.658
  507SOL     OW 2419   3.926   1.937   4.105
  507SOL    HW1 2420   3.950   2.033   4.088
  507SOL    HW2 2421   3.972   1.905   4.187
  508SOL     OW 2422   5.782   5.356   4.393
  508SOL    HW1 2423   5.813   5.430   4.453
  508SOL    HW2 2424   5.730   5.394   4.317
  509SOL     OW 2425   4.916   3.135   1.834
  509SOL    HW1 2426   4.838   3.095   1.882
  509SOL    HW2 2427   4.893   3.149   1.738
  510SOL     OW 2428   0.802   3.879   4.348
  510SOL    HW1 2429   0.818   3.958   4.289
  510SOL    HW2 2430   0.704   3.870   4.365
  511SOL     OW 2431   0.315   5.993   1.352
  511SOL    HW1 2432   0.369   6.021   1.272
  511SOL    HW2 2433   0.341   6.050   1.430
  512SOL     OW 2434   2.085   4.021   5.669
  512SOL    HW1 2435   2.166   4.066   5.632
  512SOL    HW2 2436   2.009   4.085   5.670
  513SOL     OW 2437   0.603   5.249   4.367
  513SOL    HW1 2438   0.519   5.267   4.315
  513SOL    HW2 2439   0.583   5.184   4.441
  514SOL     OW 2440   5.196   1.695   3.575
  514SOL    HW1 2441   5.174   1.785   3.613
  514SOL    HW2 2442   5.241   1.707   3.486
  515SOL     OW 2443   3.009   5.878   0.283
  515SOL    HW1 2444   2.989   5.782   0.297
  515SOL    HW2 2445   3.101   5.888   0.243
  516SOL     OW 2446   1.750   4.519   3.664
  516SOL    HW1 2447   1.819   4.465   3.712
  516SOL    HW2 2448   1.689   4.562   3.731
  517SOL     OW 2449   4.726   0.411   5.833
  517SOL    HW1 2450   4.724   0.364   5.745
  517SOL    HW2 2451   4.650   0.379   5.890
  518SOL     OW 2452   2.125   1.194   6.915
  518SOL    HW1 2453   2.051   1.236   6.863
  518SOL    HW2 2454   2.171   1.264   6.969
  519SOL     OW 2455   0.924   6.884   0.085
  519SOL    HW1 2456   0.914   6.864   0.182
  519SOL    HW2 2457   0.863   6.960   0.060
  520SOL     OW 2458   6.128   4.394   4.782
  520SOL    HW1 2459   6.061   4.321   4.764
  520SOL    HW2 2460   6.118   4.465   4.712
  521SOL     OW 2461   6.701   0.806   0.147
  521SOL    HW1 2462   6.678   0.775   0.055
  521SOL    HW2 2463   6.639   0.881   0.173
  522SOL     OW 2464   3.300   4.322   5.445
  522SOL    HW1 2465   3.245   4.387   5.394
  522SOL    HW2 2466   3.241   4.255   5.490
  523SOL     OW 2467   6.394   6.798   3.467
  523SOL    HW1 2468   6.416   6.892   3.439
  523SOL    HW2 2469   6.476   6.741   3.460
  524SOL     OW 2470   4.152   0.706   4.682
  524SOL    HW1 2471   4.069   0.734   4.731
  524SOL    HW2 2472   4.164   0.607   4.691
  525SOL     OW 2473   3.679   2.903   6.990
  525SOL    HW1 2474   3.640   2.885   6.900
  525SOL    HW2 2475   3.755   2.967   6.981
  526SOL     OW 2476   4.012   6.870   4.591
  526SOL    HW1 2477   3.988   6.954   4.544
  526SOL    HW2 2478   4.109   6.870   4.614
  527SOL     OW 2479   0.940   1.307   0.232
  527SOL    HW1 2480   1.021   1.284   0.287
  527SOL    HW2 2481   0.894   1.386   0.274
  528SOL     OW 2482   1.438   1.771   6.588
  528SOL    HW1 2483   1.464   1.857   6.632
  528SOL    HW2 2484   1.505   1.701   6.611
  529SOL     OW 2485   0.097   4.845   4.696
  529SOL    HW1 2486   0.019   4.816   4.641
  529SOL    HW2 2487   0.081   4.939   4.728
  530SOL     OW 2488   0.021   3.029   5.402
  530SOL    HW1 2489   6.999   2.940   5.422
  530SOL    HW2 2490   0.020   3.045   5.303
  531SOL     OW 2491   0.162   6.959   0.090
  531SOL    HW1 2492   0.114   6.872   0.099
  531SOL    HW2 2493   0.232   6.951   0.019
  532SOL     OW 2494   2.177   1.249   5.543
  532SOL    HW1 2495   2.200   1.297   5.627
  532SOL    HW2 2496   2.190   1.151   5.555
  533SOL     OW 2497   4.464   0.738   5.166
  533SOL    HW1 2498   4.505   0.706   5.081
  533SOL    HW2 2499   4.536   0.768   5.229
  534SOL     OW 2500   3.026   5.935   3.246
  534SOL    HW1 2501   3.066   6.023   3.272
  534SOL    HW2 2502   2.942   5.921   3.299
  535SOL     OW 2503   6.606   4.136   2.068
  535SOL    HW1 2504   6.568   4.108   2.156
  535SOL    HW2 2505   6.649   4.057   2.024
  536SOL     OW 2506   1.927   6.173   1.051
  536SOL    HW1 2507   1.951   6.184   0.955
  536SOL    HW2 2508   1.983   6.235   1.106
  537SOL     OW 2509   2.547   0.239   3.054
  537SOL    HW1 2510   2.454   0.229   3.088
  537SOL    HW2 2511   2.580   0.151   3.020
  538SOL     OW 2512   1.540   5.431   4.214
  538SOL    HW1 2513   1.628   5.389   4.235
  538SOL    HW2 2514   1.539   5.525   4.249
  539SOL     OW 2515   1.371   5.150   1.450
  539SOL    HW1 2516   1.402   5.208   1.375
  539SOL    HW2 2517   1.308   5.201   1.508
  540SOL     OW 2518   2.850   2.600   0.952
  540SOL    HW1 2519   2.927   2.537   0.948
  540SOL    HW2 2520   2.777   2.567   0.892
  541SOL     OW 2521   4.802   5.968   5.192
  541SOL    HW1 2522   4.833   5.883   5.148
  541SOL    HW2 2523   4.788   6.038   5.123
  542SOL     OW 2524   6.116   0.273   6.307
  542SOL    HW1 2525   6.103   0.332   6.387
  542SOL    HW2 2526   6.134   0.330   6.226
  543SOL     OW 2527   6.375   0.105   2.276
  543SOL    HW1 2528   6.397   0.190   2.228
  543SOL    HW2 2529   6.390   0.027   2.215
  544SOL     OW 2530   0.583   5.545   0.631
  544SOL    HW1 2531   0.612   5.474   0.567
  544SOL    HW2 2532   0.656   5.564   0.696
  545SOL     OW 2533   2.955   1.869   3.949
  545SOL    HW1 2534   2.879   1.914   3.902
  545SOL    HW2 2535   2.972   1.914   4.037
  546SOL     OW 2536   1.135   2.154   6.563
  546SOL    HW1 2537   1.115   2.195   6.651
  546SOL    HW2 2538   1.233   2.160   6.544
  547SOL     OW 2539   3.144   1.804   0.694
  547SOL    HW1 2540   3.240   1.778   0.700
  547SOL    HW2 2541   3.095   1.770   0.774
  548SOL     OW 2542   3.011   3.430   5.963
  548SOL    HW1 2543   3.031   3.344   6.009
  548SOL    HW2 2544   3.023   3.419   5.864
  549SOL     OW 2545   0.262   4.540   1.222
  549SOL    HW1 2546   0.195   4.484   1.270
  549SOL    HW2 2547   0.226   4.565   1.132
  550SOL     OW 2548   6.872   4.257   1.035
  550SOL    HW1 2549   6.896   4.161   1.053
  550SOL    HW2 2550   6.926   4.290   0.958
  551SOL     OW 2551   0.471   0.217   0.420
  551SOL    HW1 2552   0.502   0.213   0.325
  551SOL    HW2 2553   0.528   0.157   0.476
  552SOL     OW 2554   4.476   5.406   0.404
  552SOL    HW1 2555   4.527   5.470   0.347
  552SOL    HW2 2556   4.504   5.416   0.499
  553SOL     OW 2557   0.961   2.295   1.153
  553SOL    HW1 2558   0.960   2.384   1.199
  553SOL    HW2 2559   0.878   2.244   1.179
  554SOL     OW 2560   4.432   5.188   4.832
  554SOL    HW1 2561   4.459   5.178   4.927
  554SOL    HW2 2562   4.473   5.271   4.794
  555SOL     OW 2563   1.853   4.173   5.658
  555SOL    HW1 2564   1.813   4.226   5.583
  555SOL    HW2 2565   1.779   4.138   5.717
  556SOL     OW 2566   6.318   3.914   2.847
  556SOL    HW1 2567   6.363   3.962   2.771
  556SOL    HW2 2568   6.219   3.918   2.834
  557SOL     OW 2569   6.412   5.449   5.919
  557SOL    HW1 2570   6.499   5.481   5.956
  557SOL    HW2 2571   6.357   5.410   5.992
  558SOL     OW 2572   3.919   3.770   5.616
  558SOL    HW1 2573   3.878   3.779   5.707
  558SOL    HW2 2574   3.848   3.743   5.551
  559SOL     OW 2575   4.895   5.142   6.525
  559SOL    HW1 2576   4.956   5.099   6.592
  559SOL    HW2 2577   4.881   5.080   6.448
  560SOL     OW 2578   4.722   6.640   0.827
  560SOL    HW1 2579   4.755   6.573   0.761
  560SOL    HW2 2580   4.771   6.727   0.815
  561SOL     OW 2581   4.576   6.875   3.004
  561SOL    HW1 2582   4.533   6.932   3.073
  561SOL    HW2 2583   4.642   6.930   2.952
  562SOL     OW 2584   5.807   0.136   1.635
  562SOL    HW1 2585   5.793   0.218   1.579
  562SOL    HW2 2586   5.842   0.062   1.577
  563SOL     OW 2587   2.845   0.196   4.925
  563SOL    HW1 2588   2.764   0.209   4.867
  563SOL    HW2 2589   2.921   0.163   4.869
  564SOL     OW 2590   0.417   1.133   5.236
  564SOL    HW1 2591   0.488   1.191   5.196
  564SOL    HW2 2592   0.406   1.157   5.333
  565SOL     OW 2593   4.155   3.253   5.823
  565SOL    HW1 2594   4.156   3.265   5.923
  565SOL    HW2 2595   4.237   3.296   5.784
  566SOL     OW 2596   6.800   4.469   2.411
  566SOL    HW1 2597   6.775   4.391   2.353
  566SOL    HW2 2598   6.719   4.523   2.432
  567SOL     OW 2599   3.906   3.611   6.427
  567SOL    HW1 2600   3.943   3.697   6.394
  567SOL    HW2 2601   3.966   3.536   6.399
  568SOL     OW 2602   2.683   1.052   6.523
  568SOL    HW1 2603   2.704   1.141   6.563
  568SOL    HW2 2604   2.627   1.064   6.441
  569SOL     OW 2605   1.936   4.410   6.622
  569SOL    HW1 2606   1.863   4.473   6.593
  569SOL    HW2 2607   1.902   4.352   6.696
  570SOL     OW 2608   0.237   5.385   6.529
  570SOL    HW1 2609   0.212   5.481   6.514
  570SOL    HW2 2610   0.201   5.329   6.455
  571SOL     OW 2611   4.748   6.083   2.748
  571SOL    HW1 2612   4.782   5.992   2.724
  571SOL    HW2 2613   4.821   6.150   2.741
  572SOL     OW 2614   1.965   4.113   3.932
  572SOL    HW1 2615   2.060   4.081   3.928
  572SOL    HW2 2616   1.939   4.129   4.028
  573SOL     OW 2617   3.990   2.410   6.904
  573SOL    HW1 2618   4.077   2.378   6.866
  573SOL    HW2 2619   3.957   2.345   6.973
  574SOL     OW 2620   2.941   2.250   3.564
  574SOL    HW1 2621   2.842   2.237   3.572
  574SOL    HW2 2622   2.972   2.215   3.476
  575SOL     OW 2623   4.549   2.539   5.746
  575SOL    HW1 2624   4.487   2.580   5.678
  575SOL    HW2 2625   4.514   2.449   5.772
  576SOL     OW 2626   0.452   3.887   3.635
  576SOL    HW1 2627   0.366   3.884   3.583
  576SOL    HW2 2628   0.460   3.805   3.691
  577SOL     OW 2629   3.795   1.919   3.381
  577SOL    HW1 2630   3.783   1.853   3.455
  577SOL    HW2 2631   3.788   2.012   3.417
  578SOL     OW 2632   6.472   3.151   4.719
  578SOL    HW1 2633   6.403   3.079   4.712
  578SOL    HW2 2634   6.562   3.110   4.726
  579SOL     OW 2635   4.355   3.349   0.821
  579SOL    HW1 2636   4.399   3.277   0.875
  579SOL    HW2 2637   4.255   3.342   0.832
  580SOL     OW 2638   6.915   0.270   6.992
  580SOL    HW1 2639   6.824   0.308   7.003
  580SOL    HW2 2640   6.951   0.293   6.901
  581SOL     OW 2641   3.965   3.023   3.577
  581SOL    HW1 2642   3.873   3.054   3.600
  581SOL    HW2 2643   3.970   3.000   3.480
  582SOL     OW 2644   0.157   3.795   0.472
  582SOL    HW1 2645   0.175   3.701   0.499
  582SOL    HW2 2646   0.096   3.838   0.539
  583SOL     OW 2647   2.924   6.683   6.890
  583SOL    HW1 2648   2.926   6.684   6.790
  583SOL    HW2 2649   2.841   6.730   6.921
  584SOL     OW 2650   1.769   5.197   4.925
  584SOL    HW1 2651   1.868   5.193   4.909
  584SOL    HW2 2652   1.752   5.214   5.022
  585SOL     OW 2653   5.368   1.907   5.251
  585SOL    HW1 2654   5.422   1.944   5.327
  585SOL    HW2 2655   5.367   1.973   5.176
  586SOL     OW 2656   3.540   5.248   1.103
  586SOL    HW1 2657   3.589   5.226   1.187
  586SOL    HW2 2658   3.572   5.336   1.067
  587SOL     OW 2659   2.512   2.891   6.474
  587SOL    HW1 2660   2.439   2.899   6.542
  587SOL    HW2 2661   2.531   2.981   6.435
  588SOL     OW 2662   2.126   0.101   1.879
  588SOL    HW1 2663   2.165   0.013   1.852
  588SOL    HW2 2664   2.031   0.087   1.908
  589SOL     OW 2665   4.633   5.259   2.008
  589SOL    HW1 2666   4.537   5.283   2.020
  589SOL    HW2 2667   4.645   5.160   2.018
  590SOL     OW 2668   0.587   4.287   1.924
  590SOL    HW1 2669   0.624   4.325   1.840
  590SOL    HW2 2670   0.525   4.354   1.966
  591SOL     OW 2671   2.426   0.440   2.910
  591SOL    HW1 2672   2.466   0.446   2.818
  591SOL    HW2 2673   2.473   0.370   2.962
  592SOL     OW 2674   5.377   0.242   6.555
  592SOL    HW1 2675   5.384   0.166   6.620
  592SOL    HW2 2676   5.290   0.237   6.507
  593SOL     OW 2677   0.375   0.569   4.434
  593SOL    HW1 2678   0.371   0.540   4.530
  593SOL    HW2 2679   0.285   0.601   4.405
  594SOL     OW 2680   5.397   2.195   1.271
  594SOL    HW1 2681   5.372   2.225   1.362
  594SOL    HW2 2682   5.337   2.120   1.242
  595SOL     OW 2683   2.850   6.768   3.797
  595SOL    HW1 2684   2.790   6.756   3.876
  595SOL    HW2 2685   2.945   6.776   3.829
  596SOL     OW 2686   0.694   4.699   2.664
  596SOL    HW1 2687   0.764   4.731   2.728
  596SOL    HW2 2688   0.661   4.609   2.693
  597SOL     OW 2689   4.541   2.267   5.413
  597SOL    HW1 2690   4.521   2.340   5.347
  597SOL    HW2 2691   4.540   2.179   5.367
  598SOL     OW 2692   3.598   3.529   1.614
  598SOL    HW1 2693   3.597   3.476   1.699
  598SOL    HW2 2694   3.653   3.612   1.628
  599SOL     OW 2695   5.697   5.554   3.486
  599SOL    HW1 2696   5.629   5.524   3.419
  599SOL    HW2 2697   5.659   5.544   3.579
  600SOL     OW 2698   3.075   2.026   0.573
  600SOL    HW1 2699   3.122   1.942   0.599
  600SOL    HW2 2700   3.107   2.057   0.483
  601SOL     OW 2701   1.758   4.906   1.523
  601SOL    HW1 2702   1.675   4.948   1.486
  601SOL    HW2 2703   1.734   4.820   1.569
  602SOL     OW 2704   0.408   1.031   2.715
  602SOL    HW1 2705   0.342   0.989   2.653
  602SOL    HW2 2706   0.360   1.065   2.796
  603SOL     OW 2707   4.485   1.569   3.024
  603SOL    HW1 2708   4.388   1.585   3.044
  603SOL    HW2 2709   4.499   1.568   2.925
  604SOL     OW 2710   1.803   2.851   6.080
  604SOL    HW1 2711   1.794   2.939   6.035
  604SOL    HW2 2712   1.873   2.857   6.151
  605SOL     OW 2713   5.019   0.082   4.419
  605SOL    HW1 2714   5.029   0.180   4.436
  605SOL    HW2 2715   5.110   0.042   4.407
  606SOL     OW 2716   2.309   0.022   2.336
  606SOL    HW1 2717   2.327   0.071   2.251
  606SOL    HW2 2718   2.226   6.986   2.327
  607SOL     OW 2719   3.615   6.936   4.415
  607SOL    HW1 2720   3.705   6.901   4.442
  607SOL    HW2 2721   3.550   6.924   4.490
  608SOL     OW 2722   6.730   2.693   0.944
  608SOL    HW1 2723   6.647   2.748   0.947
  608SOL    HW2 2724   6.705   2.596   0.941
  609SOL     OW 2725   3.465   4.204   5.057
  609SOL    HW1 2726   3.477   4.280   5.120
  609SOL    HW2 2727   3.372   4.168   5.066
  610SOL     OW 2728   6.887   2.181   5.007
  610SOL    HW1 2729   6.830   2.263   5.003
  610SOL    HW2 2730   6.977   2.201   4.970
  611SOL     OW 2731   6.606   6.781   0.380
  611SOL    HW1 2732   6.585   6.780   0.283
  611SOL    HW2 2733   6.676   6.851   0.398
  612SOL     OW 2734   1.491   4.585   6.328
  612SOL    HW1 2735   1.590   4.581   6.314
  612SOL    HW2 2736   1.445   4.586   6.239
  613SOL     OW 2737   3.820   1.473   6.773
  613SOL    HW1 2738   3.793   1.523   6.856
  613SOL    HW2 2739   3.740   1.462   6.714
  614SOL     OW 2740   5.390   2.532   0.576
  614SOL    HW1 2741   5.348   2.451   0.618
  614SOL    HW2 2742   5.353   2.614   0.619
  615SOL     OW 2743   6.067   5.373   0.360
  615SOL    HW1 2744   6.098   5.311   0.432
  615SOL    HW2 2745   6.140   5.386   0.293
  616SOL     OW 2746   4.879   1.388   4.710
  616SOL    HW1 2747   4.840   1.451   4.777
  616SOL    HW2 2748   4.921   1.440   4.636
  617SOL     OW 2749   6.265   0.406   5.251
  617SOL    HW1 2750   6.316   0.482   5.291
  617SOL    HW2 2751   6.312   0.320   5.269
  618SOL     OW 2752   5.239   4.646   0.916
  618SOL    HW1 2753   5.282   4.650   1.006
  618SOL    HW2 2754   5.282   4.573   0.862
  619SOL     OW 2755   1.450   0.161   0.109
  619SOL    HW1 2756   1.515   0.096   0.149
  619SOL    HW2 2757   1.455   0.247   0.160
  620SOL     OW 2758   4.871   1.824   1.592
  620SOL    HW1 2759   4.957   1.773   1.588
  620SOL    HW2 2760   4.820   1.810   1.508
  621SOL     OW 2761   1.712   6.774   6.615
  621SOL    HW1 2762   1.751   6.766   6.706
  621SOL    HW2 2763   1.613   6.792   6.623
  622SOL     OW 2764   0.710   2.997   5.544
  622SOL    HW1 2765   0.699   3.066   5.473
  622SOL    HW2 2766   0.807   2.988   5.568
  623SOL     OW 2767   6.439   1.419   2.770
  623SOL    HW1 2768   6.404   1.373   2.851
  623SOL    HW2 2769   6.486   1.503   2.797
  624SOL     OW 2770   5.821   0.606   5.877
  624SOL    HW1 2771   5.762   0.587   5.798
  624SOL    HW2 2772   5.801   0.539   5.949
  625SOL     OW 2773   3.256   0.998   1.360
  625SOL    HW1 2774   3.310   1.030   1.438
  625SOL    HW2 2775   3.239   0.899   1.369
  626SOL     OW 2776   6.932   0.033   3.929
  626SOL    HW1 2777   0.012   0.028   3.913
  626SOL    HW2 2778   6.902   0.128   3.923
  627SOL     OW 2779   6.404   4.085   5.875
  627SOL    HW1 2780   6.479   4.147   5.851
  627SOL    HW2 2781   6.350   4.064   5.793
  628SOL     OW 2782   3.576   4.429   6.939
  628SOL    HW1 2783   3.591   4.352   6.876
  628SOL    HW2 2784   3.522   4.399   7.017
  629SOL     OW 2785   2.336   6.933   6.902
  629SOL    HW1 2786   2.256   6.900   6.851
  629SOL    HW2 2787   2.314   0.000   6.947
  630SOL     OW 2788   6.485   2.188   0.520
  630SOL    HW1 2789   6.450   2.255   0.586
  630SOL    HW2 2790   6.549   2.232   0.458
  631SOL     OW 2791   1.903   3.658   2.135
  631SOL    HW1 2792   1.883   3.729   2.203
  631SOL    HW2 2793   1.994   3.673   2.097
  632SOL     OW 2794   3.998   5.036   1.051
  632SOL    HW1 2795   3.924   5.004   1.110
  632SOL    HW2 2796   4.018   4.967   0.982
  633SOL     OW 2797   1.389   6.256   6.736
  633SOL    HW1 2798   1.351   6.253   6.828
  633SOL    HW2 2799   1.395   6.350   6.705
  634SOL     OW 2800   2.109   3.616   5.483
  634SOL    HW1 2801   2.197   3.646   5.520
  634SOL    HW2 2802   2.119   3.524   5.444
  635SOL     OW 2803   0.203   5.811   6.564
  635SOL    HW1 2804   0.267   5.887   6.561
  635SOL    HW2 2805   0.194   5.778   6.659
  636SOL     OW 2806   1.565   2.057   4.782
  636SOL    HW1 2807   1.524   2.137   4.738
  636SOL    HW2 2808   1.616   2.004   4.713
  637SOL     OW 2809   6.396   1.471   1.975
  637SOL    HW1 2810   6.381   1.460   1.877
  637SOL    HW2 2811   6.468   1.409   2.005
  638SOL     OW 2812   0.330   3.613   5.639
  638SOL    HW1 2813   0.422   3.575   5.635
  638SOL    HW2 2814   0.321   3.685   5.569
  639SOL     OW 2815   5.687   3.559   0.970
  639SOL    HW1 2816   5.734   3.513   1.046
  639SOL    HW2 2817   5.620   3.496   0.930
  640SOL     OW 2818   6.325   3.699   2.283
  640SOL    HW1 2819   6.238   3.738   2.316
  640SOL    HW2 2820   6.387   3.686   2.360
  641SOL     OW 2821   2.485   5.896   4.189
  641SOL    HW1 2822   2.505   5.811   4.140
  641SOL    HW2 2823   2.569   5.936   4.225
  642SOL     OW 2824   0.983   5.381   4.369
  642SOL    HW1 2825   1.053   5.310   4.379
  642SOL    HW2 2826   0.918   5.374   4.445
  643SOL     OW 2827   4.020   4.782   0.145
  643SOL    HW1 2828   3.939   4.751   0.096
  643SOL    HW2 2829   4.047   4.713   0.213
  644SOL     OW 2830   5.466   0.523   4.663
  644SOL    HW1 2831   5.520   0.553   4.742
  644SOL    HW2 2832   5.370   0.515   4.690
  645SOL     OW 2833   3.964   6.068   2.406
  645SOL    HW1 2834   3.928   6.106   2.320
  645SOL    HW2 2835   3.910   6.104   2.482
  646SOL     OW 2836   3.131   0.998   5.432
  646SOL    HW1 2837   3.070   1.077   5.424
  646SOL    HW2 2838   3.078   0.914   5.425
  647SOL     OW 2839   1.945   2.256   6.814
  647SOL    HW1 2840   1.932   2.355   6.802
  647SOL    HW2 2841   1.956   2.213   6.725
  648SOL     OW 2842   5.102   2.412   3.718
  648SOL    HW1 2843   5.119   2.319   3.686
  648SOL    HW2 2844   5.095   2.412   3.818
  649SOL     OW 2845   3.751   6.120   0.966
  649SOL    HW1 2846   3.836   6.072   0.945
  649SOL    HW2 2847   3.767   6.219   0.960
  650SOL     OW 2848   2.269   3.547   1.617
  650SOL    HW1 2849   2.256   3.646   1.627
  650SOL    HW2 2850   2.326   3.513   1.692
  651SOL     OW 2851   0.114   1.727   3.062
  651SOL    HW1 2852   0.173   1.780   3.122
  651SOL    HW2 2853   0.130   1.629   3.076
  652SOL     OW 2854   3.929   6.260   0.602
  652SOL    HW1 2855   3.945   6.164   0.625
  652SOL    HW2 2856   3.830   6.277   0.597
  653SOL     OW 2857   1.796   0.577   2.948
  653SOL    HW1 2858   1.733   0.503   2.975
  653SOL    HW2 2859   1.761   0.664   2.980
  654SOL     OW 2860   1.432   0.318   6.068
  654SOL    HW1 2861   1.388   0.399   6.107
  654SOL    HW2 2862   1.363   0.246   6.055
  655SOL     OW 2863   1.104   3.981   2.093
  655SOL    HW1 2864   1.150   3.903   2.050
  655SOL    HW2 2865   1.009   3.984   2.063
  656SOL     OW 2866   2.328   0.418   6.928
  656SOL    HW1 2867   2.231   0.420   6.905
  656SOL    HW2 2868   2.343   0.469   7.013
  657SOL     OW 2869   3.418   3.246   4.445
  657SOL    HW1 2870   3.392   3.334   4.404
  657SOL    HW2 2871   3.443   3.182   4.373
  658SOL     OW 2872   2.594   0.218   5.417
  658SOL    HW1 2873   2.673   0.275   5.396
  658SOL    HW2 2874   2.605   0.176   5.507
  659SOL     OW 2875   1.542   4.724   6.705
  659SOL    HW1 2876   1.589   4.812   6.698
  659SOL    HW2 2877   1.606   4.654   6.735
  660SOL     OW 2878   5.493   3.391   2.445
  660SOL    HW1 2879   5.545   3.411   2.528
  660SOL    HW2 2880   5.438   3.309   2.458
  661SOL     OW 2881   4.507   5.575   4.226
  661SOL    HW1 2882   4.421   5.622   4.249
  661SOL    HW2 2883   4.498   5.478   4.247
  662SOL     OW 2884   7.009   3.136   0.200
  662SOL    HW1 2885   0.043   3.221   0.197
  662SOL    HW2 2886   0.053   3.059   0.213
  663SOL     OW 2887   1.675   4.220   5.914
  663SOL    HW1 2888   1.594   4.199   5.967
  663SOL    HW2 2889   1.670   4.315   5.881
  664SOL     OW 2890   2.121   0.196   5.688
  664SOL    HW1 2891   2.079   0.106   5.686
  664SOL    HW2 2892   2.088   0.250   5.610
  665SOL     OW 2893   2.430   4.356   3.396
  665SOL    HW1 2894   2.505   4.417   3.419
  665SOL    HW2 2895   2.393   4.316   3.480
  666SOL     OW 2896   3.151   0.489   0.188
  666SOL    HW1 2897   3.195   0.425   0.125
  666SOL    HW2 2898   3.051   0.481   0.180
  667SOL     OW 2899   2.159   3.010   2.235
  667SOL    HW1 2900   2.180   3.042   2.327
  667SOL    HW2 2901   2.073   2.958   2.236
  668SOL     OW 2902   5.049   0.063   0.566
  668SOL    HW1 2903   4.963   0.079   0.615
  668SOL    HW2 2904   5.105   7.017   0.618
  669SOL     OW 2905   6.188   5.608   2.289
  669SOL    HW1 2906   6.288   5.617   2.283
  669SOL    HW2 2907   6.155   5.661   2.366
  670SOL     OW 2908   3.093   3.944   3.253
  670SOL    HW1 2909   3.060   3.930   3.346
  670SOL    HW2 2910   3.167   4.011   3.254
  671SOL     OW 2911   1.575   0.317   6.861
  671SOL    HW1 2912   1.553   0.240   6.921
  671SOL    HW2 2913   1.606   0.395   6.916
  672SOL     OW 2914   0.368   2.336   2.759
  672SOL    HW1 2915   0.360   2.260   2.823
  672SOL    HW2 2916   0.462   2.341   2.726
  673SOL     OW 2917   4.852   0.711   6.468
  673SOL    HW1 2918   4.895   0.650   6.534
  673SOL    HW2 2919   4.917   0.783   6.443
  674SOL     OW 2920   6.552   2.713   4.152
  674SOL    HW1 2921   6.549   2.811   4.133
  674SOL    HW2 2922   6.599   2.698   4.239
  675SOL     OW 2923   5.562   6.900   3.723
  675SOL    HW1 2924   5.573   6.902   3.623
  675SOL    HW2 2925   5.563   6.805   3.754
  676SOL     OW 2926   3.257   4.881   5.243
  676SOL    HW1 2927   3.187   4.820   5.279
  676SOL    HW2 2928   3.265   4.869   5.144
  677SOL     OW 2929   4.868   6.525   0.565
  677SOL    HW1 2930   4.943   6.569   0.616
  677SOL    HW2 2931   4.902   6.443   0.520
  678SOL     OW 2932   2.471   0.492   6.623
  678SOL    HW1 2933   2.435   0.535   6.540
  678SOL    HW2 2934   2.514   0.405   6.599
  679SOL     OW 2935   0.116   0.300   2.425
  679SOL    HW1 2936   0.185   0.348   2.371
  679SOL    HW2 2937   0.053   0.366   2.466
  680SOL     OW 2938   5.990   3.173   3.706
  680SOL    HW1 2939   5.957   3.090   3.662
  680SOL    HW2 2940   6.088   3.165   3.723
  681SOL     OW 2941   0.787   5.223   3.279
  681SOL    HW1 2942   0.729   5.214   3.359
  681SOL    HW2 2943   0.751   5.293   3.218
  682SOL     OW 2944   0.653   6.852   5.741
  682SOL    HW1 2945   0.676   6.879   5.834
  682SOL    HW2 2946   0.654   6.752   5.734
  683SOL     OW 2947   5.220   1.383   1.389
  683SOL    HW1 2948   5.289   1.412   1.456
  683SOL    HW2 2949   5.161   1.314   1.430
  684SOL     OW 2950   6.839   5.652   6.425
  684SOL    HW1 2951   6.846   5.612   6.334
  684SOL    HW2 2952   6.748   5.634   6.462
  685SOL     OW 2953   6.206   0.129   4.881
  685SOL    HW1 2954   6.208   0.070   4.962
  685SOL    HW2 2955   6.222   0.224   4.908
  686SOL     OW 2956   5.798   4.343   0.872
  686SOL    HW1 2957   5.724   4.276   0.875
  686SOL    HW2 2958   5.851   4.338   0.956
  687SOL     OW 2959   5.253   2.877   6.743
  687SOL    HW1 2960   5.280   2.888   6.648
  687SOL    HW2 2961   5.216   2.963   6.778
  688SOL     OW 2962   6.994   2.798   5.026
  688SOL    HW1 2963   0.075   2.792   5.023
  688SOL    HW2 2964   6.960   2.754   5.109
  689SOL     OW 2965   5.562   4.758   4.210
  689SOL    HW1 2966   5.511   4.690   4.262
  689SOL    HW2 2967   5.559   4.846   4.258
  690SOL     OW 2968   7.012   2.083   4.205
  690SOL    HW1 2969   7.013   2.020   4.128
  690SOL    HW2 2970   7.009   2.177   4.171
  691SOL     OW 2971   1.416   2.645   6.635
  691SOL    HW1 2972   1.376   2.575   6.575
  691SOL    HW2 2973   1.514   2.629   6.645
  692SOL     OW 2974   2.450   0.490   3.927
  692SOL    HW1 2975   2.498   0.577   3.940
  692SOL    HW2 2976   2.380   0.502   3.856
  693SOL     OW 2977   5.918   1.024   3.381
  693SOL    HW1 2978   5.976   1.105   3.373
  693SOL    HW2 2979   5.962   0.958   3.442
  694SOL     OW 2980   1.404   0.470   2.375
  694SOL    HW1 2981   1.402   0.376   2.412
  694SOL    HW2 2982   1.492   0.486   2.331
  695SOL     OW 2983   4.487   5.896   6.489
  695SOL    HW1 2984   4.445   5.983   6.465
  695SOL    HW2 2985   4.417   5.825   6.495
  696SOL     OW 2986   5.526   5.656   2.548
  696SOL    HW1 2987   5.549   5.691   2.457
  696SOL    HW2 2988   5.436   5.689   2.575
  697SOL     OW 2989   1.591   4.204   3.239
  697SOL    HW1 2990   1.571   4.298   3.265
  697SOL    HW2 2991   1.573   4.191   3.142
  698SOL     OW 2992   4.686   6.318   4.173
  698SOL    HW1 2993   4.616   6.390   4.168
  698SOL    HW2 2994   4.776   6.360   4.167
  699SOL     OW 2995   1.940   5.919   6.259
  699SOL    HW1 2996   1.925   5.867   6.343
  699SOL    HW2 2997   1.870   5.896   6.192
  700SOL     OW 2998   1.989   2.078   4.517
  700SOL    HW1 2999   1.900   2.124   4.510
  700SOL    HW2 3000   2.061   2.142   4.492
  701SOL     OW 3001   0.519   4.815   5.980
  701SOL    HW1 3002   0.524   4.720   6.011
  701SOL    HW2 3003   0.608   4.858   5.993
  702SOL     OW 3004   5.697   6.199   5.687
  702SOL    HW1 3005   5.642   6.119   5.665
  702SOL    HW2 3006   5.777   6.201   5.627
  703SOL     OW 3007   6.174   3.742   6.044
  703SOL    HW1 3008   6.182   3.696   5.956
  703SOL    HW2 3009   6.079   3.772   6.058
  704SOL     OW 3010   2.371   0.129   2.096
  704SOL    HW1 3011   2.412   0.220   2.109
  704SOL    HW2 3012   2.415   0.084   2.018
  705SOL     OW 3013   1.277   1.845   4.464
  705SOL    HW1 3014   1.348   1.916   4.471
  705SOL    HW2 3015   1.227   1.856   4.379
  706SOL     OW 3016   5.535   3.500   3.355
  706SOL    HW1 3017   5.488   3.579   3.316
  706SOL    HW2 3018   5.537   3.426   3.287
  707SOL     OW 3019   4.849   3.260   2.926
  707SOL    HW1 3020   4.914   3.205   2.873
  707SOL    HW2 3021   4.778   3.201   2.964
  708SOL     OW 3022   5.171   0.805   1.887
  708SOL    HW1 3023   5.086   0.758   1.912
  708SOL    HW2 3024   5.150   0.890   1.840
  709SOL     OW 3025   1.628   3.775   6.522
  709SOL    HW1 3026   1.609   3.690   6.572
  709SOL    HW2 3027   1.554   3.840   6.540
  710SOL     OW 3028   3.262   3.429   4.008
  710SOL    HW1 3029   3.199   3.506   3.997
  710SOL    HW2 3030   3.224   3.348   3.964
  711SOL     OW 3031   1.365   1.054   3.976
  711SOL    HW1 3032   1.303   0.977   3.961
  711SOL    HW2 3033   1.380   1.102   3.890
  712SOL     OW 3034   0.031   5.015   3.833
  712SOL    HW1 3035   0.015   4.952   3.909
  712SOL    HW2 3036   0.129   5.034   3.826
  713SOL     OW 3037   2.331   3.757   5.645
  713SOL    HW1 3038   2.288   3.819   5.579
  713SOL    HW2 3039   2.431   3.760   5.633
  714SOL     OW 3040   4.962   4.841   4.712
  714SOL    HW1 3041   4.983   4.787   4.631
  714SOL    HW2 3042   4.888   4.905   4.691
  715SOL     OW 3043   6.797   0.351   5.994
  715SOL    HW1 3044   6.776   0.376   5.900
  715SOL    HW2 3045   6.836   0.259   5.996
  716SOL     OW 3046   6.394   5.577   6.791
  716SOL    HW1 3047   6.322   5.508   6.786
  716SOL    HW2 3048   6.364   5.661   6.746
  717SOL     OW 3049   5.758   2.738   6.002
  717SOL    HW1 3050   5.749   2.712   6.098
  717SOL    HW2 3051   5.707   2.674   5.945
  718SOL     OW 3052   3.560   3.441   0.500
  718SOL    HW1 3053   3.609   3.361   0.536
  718SOL    HW2 3054   3.462   3.427   0.509
  719SOL     OW 3055   6.585   4.395   0.002
  719SOL    HW1 3056   6.535   4.330   0.058
  719SOL    HW2 3057   6.675   4.412   0.042
  720SOL     OW 3058   3.917   0.798   5.868
  720SOL    HW1 3059   3.905   0.784   5.966
  720SOL    HW2 3060   3.981   0.730   5.832
  721SOL     OW 3061   1.838   0.516   5.064
  721SOL    HW1 3062   1.823   0.558   5.153
  721SOL    HW2 3063   1.770   0.551   4.999
  722SOL     OW 3064   4.478   1.393   5.207
  722SOL    HW1 3065   4.514   1.341   5.130
  722SOL    HW2 3066   4.553   1.422   5.266
  723SOL     OW 3067   0.398   3.750   1.828
  723SOL    HW1 3068   0.307   3.789   1.845
  723SOL    HW2 3069   0.429   3.776   1.737
  724SOL     OW 3070   0.525   2.456   4.465
  724SOL    HW1 3071   0.595   2.420   4.527
  724SOL    HW2 3072   0.530   2.555   4.462
  725SOL     OW 3073   2.443   5.286   2.148
  725SOL    HW1 3074   2.477   5.379   2.135
  725SOL    HW2 3075   2.415   5.274   2.244
  726SOL     OW 3076   5.463   6.153   6.794
  726SOL    HW1 3077   5.438   6.245   6.824
  726SOL    HW2 3078   5.548   6.125   6.840
  727SOL     OW 3079   1.396   4.877   4.406
  727SOL    HW1 3080   1.456   4.797   4.396
  727SOL    HW2 3081   1.401   4.911   4.500
  728SOL     OW 3082   6.624   1.978   6.385
  728SOL    HW1 3083   6.639   1.993   6.287
  728SOL    HW2 3084   6.595   1.883   6.400
  729SOL     OW 3085   4.043   1.266   0.480
  729SOL    HW1 3086   4.085   1.355   0.495
  729SOL    HW2 3087   3.953   1.263   0.524
  730SOL     OW 3088   5.952   1.157   3.861
  730SOL    HW1 3089   6.002   1.150   3.948
  730SOL    HW2 3090   5.882   1.086   3.856
  731SOL     OW 3091   0.584   2.201   3.472
  731SOL    HW1 3092   0.646   2.140   3.422
  731SOL    HW2 3093   0.634   2.282   3.503
  732SOL     OW 3094   0.165   4.303   3.961
  732SOL    HW1 3095   0.238   4.361   3.926
  732SOL    HW2 3096   0.187   4.207   3.942
  733SOL     OW 3097   5.193   4.598   4.707
  733SOL    HW1 3098   5.189   4.502   4.679
  733SOL    HW2 3099   5.287   4.621   4.733
  734SOL     OW 3100   1.044   0.177   6.961
  734SOL    HW1 3101   1.042   0.081   6.988
  734SOL    HW2 3102   1.022   0.185   6.863
  735SOL     OW 3103   3.402   4.372   0.115
  735SOL    HW1 3104   3.359   4.289   0.151
  735SOL    HW2 3105   3.445   4.423   0.190
  736SOL     OW 3106   5.802   1.475   2.317
  736SOL    HW1 3107   5.841   1.398   2.368
  736SOL    HW2 3108   5.703   1.466   2.315
  737SOL     OW 3109   5.162   3.700   0.438
  737SOL    HW1 3110   5.227   3.649   0.382
  737SOL    HW2 3111   5.109   3.762   0.380
  738SOL     OW 3112   6.360   3.730   4.301
  738SOL    HW1 3113   6.385   3.694   4.391
  738SOL    HW2 3114   6.438   3.777   4.261
  739SOL     OW 3115   4.751   5.895   6.368
  739SOL    HW1 3116   4.657   5.878   6.399
  739SOL    HW2 3117   4.800   5.946   6.439
  740SOL     OW 3118   5.548   6.837   0.549
  740SOL    HW1 3119   5.478   6.905   0.529
  740SOL    HW2 3120   5.609   6.872   0.621
  741SOL     OW 3121   1.760   0.479   3.355
  741SOL    HW1 3122   1.752   0.389   3.312
  741SOL    HW2 3123   1.790   0.546   3.287
  742SOL     OW 3124   0.915   6.006   2.486
  742SOL    HW1 3125   0.895   5.982   2.390
  742SOL    HW2 3126   0.900   5.926   2.544
  743SOL     OW 3127   1.513   3.070   2.476
  743SOL    HW1 3128   1.551   3.024   2.556
  743SOL    HW2 3129   1.584   3.127   2.434
  744SOL     OW 3130   6.785   5.118   0.574
  744SOL    HW1 3131   6.769   5.095   0.670
  744SOL    HW2 3132   6.700   5.151   0.533
  745SOL     OW 3133   1.155   6.581   1.784
  745SOL    HW1 3134   1.252   6.562   1.773
  745SOL    HW2 3135   1.141   6.640   1.863
  746SOL     OW 3136   3.101   0.073   3.202
  746SOL    HW1 3137   3.141   7.009   3.243
  746SOL    HW2 3138   3.063   0.050   3.112
  747SOL     OW 3139   0.389   3.956   0.491
  747SOL    HW1 3140   0.411   3.860   0.507
  747SOL    HW2 3141   0.291   3.970   0.506
  748SOL     OW 3142   3.045   3.369   3.307
  748SOL    HW1 3143   2.997   3.457   3.305
  748SOL    HW2 3144   3.052   3.333   3.214
  749SOL     OW 3145   5.090   3.001   5.571
  749SOL    HW1 3146   5.035   2.993   5.655
  749SOL    HW2 3147   5.055   2.938   5.502
  750SOL     OW 3148   2.929   3.368   1.884
  750SOL    HW1 3149   2.910   3.430   1.960
  750SOL    HW2 3150   2.943   3.421   1.800
  751SOL     OW 3151   5.676   1.319   0.400
  751SOL    HW1 3152   5.591   1.279   0.435
  751SOL    HW2 3153   5.656   1.378   0.323
  752SOL     OW 3154   4.303   0.465   2.291
  752SOL    HW1 3155   4.363   0.390   2.320
  752SOL    HW2 3156   4.224   0.470   2.352
  753SOL     OW 3157   3.322   1.768   1.785
  753SOL    HW1 3158   3.236   1.728   1.754
  753SOL    HW2 3159   3.388   1.695   1.802
  754SOL     OW 3160   5.218   5.164   6.671
  754SOL    HW1 3161   5.276   5.129   6.744
  754SOL    HW2 3162   5.161   5.238   6.705
  755SOL     OW 3163   5.716   4.901   2.264
  755SOL    HW1 3164   5.624   4.875   2.294
  755SOL    HW2 3165   5.765   4.819   2.234
  756SOL     OW 3166   2.391   6.894   4.424
  756SOL    HW1 3167   2.463   6.824   4.427
  756SOL    HW2 3168   2.430   6.982   4.451
  757SOL     OW 3169   6.938   0.752   4.073
  757SOL    HW1 3170   6.986   0.826   4.120
  757SOL    HW2 3171   6.841   0.754   4.097
  758SOL     OW 3172   3.945   1.977   0.160
  758SOL    HW1 3173   4.002   1.969   0.242
  758SOL    HW2 3174   3.994   1.936   0.083
  759SOL     OW 3175   2.465   0.349   1.288
  759SOL    HW1 3176   2.481   0.256   1.255
  759SOL    HW2 3177   2.407   0.398   1.222
  760SOL     OW 3178   4.901   1.722   6.083
  760SOL    HW1 3179   4.960   1.704   6.162
  760SOL    HW2 3180   4.810   1.684   6.099
  761SOL     OW 3181   5.178   0.510   6.359
  761SOL    HW1 3182   5.119   0.470   6.428
  761SOL    HW2 3183   5.229   0.438   6.313
  762SOL     OW 3184   2.403   4.667   4.788
  762SOL    HW1 3185   2.354   4.615   4.718
  762SOL    HW2 3186   2.350   4.666   4.873
  763SOL     OW 3187   0.618   4.555   1.079
  763SOL    HW1 3188   0.525   4.566   1.111
  763SOL    HW2 3189   0.661   4.478   1.127
  764SOL     OW 3190   5.909   1.284   2.475
  764SOL    HW1 3191   5.937   1.323   2.563
  764SOL    HW2 3192   5.987   1.237   2.433
  765SOL     OW 3193   1.235   6.448   2.895
  765SOL    HW1 3194   1.223   6.546   2.903
  765SOL    HW2 3195   1.228   6.421   2.799
  766SOL     OW 3196   0.338   5.717   0.188
  766SOL    HW1 3197   0.297   5.684   0.103
  766SOL    HW2 3198   0.305   5.662   0.265
  767SOL     OW 3199   5.923   6.202   1.330
  767SOL    HW1 3200   5.919   6.104   1.350
  767SOL    HW2 3201   5.917   6.254   1.415
  768SOL     OW 3202   2.859   6.157   4.197
  768SOL    HW1 3203   2.927   6.189   4.131
  768SOL    HW2 3204   2.772   6.203   4.181
  769SOL     OW 3205   3.290   0.455   0.433
  769SOL    HW1 3206   3.279   0.548   0.467
  769SOL    HW2 3207   3.211   0.430   0.377
  770SOL     OW 3208   4.047   5.455   5.097
  770SOL    HW1 3209   4.103   5.442   5.015
  770SOL    HW2 3210   4.000   5.370   5.119
  771SOL     OW 3211   0.426   6.570   4.604
  771SOL    HW1 3212   0.369   6.493   4.574
  771SOL    HW2 3213   0.416   6.646   4.540
  772SOL     OW 3214   0.503   3.247   6.199
  772SOL    HW1 3215   0.534   3.325   6.145
  772SOL    HW2 3216   0.560   3.238   6.281
  773SOL     OW 3217   6.796   3.358   1.559
  773SOL    HW1 3218   6.836   3.447   1.537
  773SOL    HW2 3219   6.721   3.370   1.624
  774SOL     OW 3220   1.467   1.493   1.882
  774SOL    HW1 3221   1.555   1.530   1.912
  774SOL    HW2 3222   1.396   1.562   1.893
  775SOL     OW 3223   1.859   2.531   4.297
  775SOL    HW1 3224   1.898   2.520   4.389
  775SOL    HW2 3225   1.766   2.567   4.305
  776SOL     OW 3226   2.546   1.184   5.268
  776SOL    HW1 3227   2.472   1.149   5.210
  776SOL    HW2 3228   2.622   1.214   5.210
  777SOL     OW 3229   4.246   0.414   6.939
  777SOL    HW1 3230   4.298   0.402   6.855
  777SOL    HW2 3231   4.251   0.509   6.968
  778SOL     OW 3232   5.076   5.998   5.315
  778SOL    HW1 3233   5.136   5.937   5.263
  778SOL    HW2 3234   4.981   5.982   5.289
  779SOL     OW 3235   0.295   0.405   2.243
  779SOL    HW1 3236   0.330   0.499   2.249
  779SOL    HW2 3237   0.239   0.396   2.160
  780SOL     OW 3238   5.538   2.273   5.297
  780SOL    HW1 3239   5.547   2.199   5.230
  780SOL    HW2 3240   5.445   2.308   5.295
  781SOL     OW 3241   1.379   4.028   0.275
  781SOL    HW1 3242   1.412   4.102   0.334
  781SOL    HW2 3243   1.449   4.006   0.207
  782SOL     OW 3244   0.088   5.391   0.752
  782SOL    HW1 3245   0.076   5.417   0.848
  782SOL    HW2 3246   0.162   5.445   0.712
  783SOL     OW 3247   1.341   5.459   0.854
  783SOL    HW1 3248   1.328   5.437   0.951
  783SOL    HW2 3249   1.396   5.387   0.811
  784SOL     OW 3250   5.140   5.320   3.282
  784SOL    HW1 3251   5.126   5.231   3.239
  784SOL    HW2 3252   5.059   5.346   3.334
  785SOL     OW 3253   6.007   2.874   3.211
  785SOL    HW1 3254   6.040   2.782   3.231
  785SOL    HW2 3255   6.063   2.914   3.138
  786SOL     OW 3256   6.375   6.687   1.324
  786SOL    HW1 3257   6.334   6.615   1.268
  786SOL    HW2 3258   6.471   6.665   1.342
  787SOL     OW 3259   4.079   1.223   6.053
  787SOL    HW1 3260   3.989   1.215   6.011
  787SOL    HW2 3261   4.136   1.284   5.998
  788SOL     OW 3262   6.928   4.484   3.525
  788SOL    HW1 3263   7.001   4.471   3.457
  788SOL    HW2 3264   6.927   4.579   3.555
  789SOL     OW 3265   6.228   2.999   0.090
  789SOL    HW1 3266   6.309   3.049   0.119
  789SOL    HW2 3267   6.194   2.943   0.166
  790SOL     OW 3268   2.739   0.495   4.122
  790SOL    HW1 3269   2.731   0.541   4.210
  790SOL    HW2 3270   2.651   0.496   4.075
  791SOL     OW 3271   3.456   1.108   3.813
  791SOL    HW1 3272   3.380   1.121   3.750
  791SOL    HW2 3273   3.525   1.180   3.798
  792SOL     OW 3274   5.155   0.737   3.990
  792SOL    HW1 3275   5.247   0.764   3.963
  792SOL    HW2 3276   5.089   0.774   3.924
  793SOL     OW 3277   0.546   6.695   6.610
  793SOL    HW1 3278   0.597   6.641   6.544
  793SOL    HW2 3279   0.449   6.673   6.604
  794SOL     OW 3280   3.717   5.255   4.692
  794SOL    HW1 3281   3.727   5.157   4.678
  794SOL    HW2 3282   3.725   5.275   4.790
  795SOL     OW 3283   5.056   5.395   6.737
  795SOL    HW1 3284   5.063   5.467   6.669
  795SOL    HW2 3285   4.976   5.411   6.795
  796SOL     OW 3286   1.142   1.779   6.203
  796SOL    HW1 3287   1.090   1.711   6.254
  796SOL    HW2 3288   1.079   1.844   6.161
  797SOL     OW 3289   6.081   3.055   5.840
  797SOL    HW1 3290   6.012   3.102   5.784
  797SOL    HW2 3291   6.056   2.959   5.850
  798SOL     OW 3292   6.362   0.252   4.421
  798SOL    HW1 3293   6.347   0.346   4.390
  798SOL    HW2 3294   6.282   0.221   4.472
  799SOL     OW 3295   6.477   3.978   3.860
  799SOL    HW1 3296   6.396   4.030   3.886
  799SOL    HW2 3297   6.558   4.034   3.875
  800SOL     OW 3298   0.549   2.659   2.556
  800SOL    HW1 3299   0.564   2.635   2.652
  800SOL    HW2 3300   0.624   2.625   2.500
  801SOL     OW 3301   0.231   3.904   3.482
  801SOL    HW1 3302   0.152   3.914   3.543
  801SOL    HW2 3303   0.204   3.924   3.388
  802SOL     OW 3304   6.571   1.246   0.650
  802SOL    HW1 3305   6.499   1.197   0.698
  802SOL    HW2 3306   6.660   1.214   0.681
  803SOL     OW 3307   2.498   6.639   4.457
  803SOL    HW1 3308   2.444   6.607   4.534
  803SOL    HW2 3309   2.594   6.647   4.483
  804SOL     OW 3310   5.883   5.801   0.594
  804SOL    HW1 3311   5.942   5.752   0.529
  804SOL    HW2 3312   5.791   5.763   0.590
  805SOL     OW 3313   2.322   2.630   6.041
  805SOL    HW1 3314   2.361   2.686   6.115
  805SOL    HW2 3315   2.224   2.646   6.034
  806SOL     OW 3316   4.049   6.617   0.242
  806SOL    HW1 3317   4.040   6.533   0.294
  806SOL    HW2 3318   4.047   6.696   0.304
  807SOL     OW 3319   6.790   0.902   3.310
  807SOL    HW1 3320   6.845   0.821   3.291
  807SOL    HW2 3321   6.736   0.926   3.229
  808SOL     OW 3322   5.606   3.638   5.021
  808SOL    HW1 3323   5.626   3.705   5.093
  808SOL    HW2 3324   5.525   3.585   5.046
  809SOL     OW 3325   0.097   5.595   5.786
  809SOL    HW1 3326   0.025   5.545   5.737
  809SOL    HW2 3327   0.135   5.665   5.727
  810SOL     OW 3328   6.017   5.018   6.127
  810SOL    HW1 3329   6.114   4.994   6.118
  810SOL    HW2 3330   5.968   4.988   6.046
  811SOL     OW 3331   2.826   4.745   2.585
  811SOL    HW1 3332   2.729   4.764   2.570
  811SOL    HW2 3333   2.868   4.714   2.499
  812SOL     OW 3334   6.858   0.680   3.003
  812SOL    HW1 3335   6.934   0.740   2.978
  812SOL    HW2 3336   6.891   0.610   3.066
  813SOL     OW 3337   4.935   4.702   1.743
  813SOL    HW1 3338   4.849   4.752   1.755
  813SOL    HW2 3339   4.916   4.604   1.740
  814SOL     OW 3340   5.257   5.068   1.741
  814SOL    HW1 3341   5.346   5.101   1.773
  814SOL    HW2 3342   5.223   4.997   1.803
  815SOL     OW 3343   0.955   1.359   0.999
  815SOL    HW1 3344   0.882   1.374   1.067
  815SOL    HW2 3345   1.011   1.281   1.027
  816SOL     OW 3346   5.864   0.766   1.723
  816SOL    HW1 3347   5.931   0.694   1.742
  816SOL    HW2 3348   5.791   0.730   1.665
  817SOL     OW 3349   0.601   2.129   1.995
  817SOL    HW1 3350   0.576   2.109   2.090
  817SOL    HW2 3351   0.679   2.193   1.993
  818SOL     OW 3352   5.532   1.525   3.092
  818SOL    HW1 3353   5.557   1.507   3.188
  818SOL    HW2 3354   5.613   1.516   3.034
  819SOL     OW 3355   0.251   5.094   2.795
  819SOL    HW1 3356   0.183   5.139   2.737
  819SOL    HW2 3357   0.318   5.161   2.825
  820SOL     OW 3358   2.652   3.520   5.933
  820SOL    HW1 3359   2.651   3.466   6.017
  820SOL    HW2 3360   2.616   3.465   5.858
  821SOL     OW 3361   1.152   4.337   0.547
  821SOL    HW1 3362   1.094   4.317   0.468
  821SOL    HW2 3363   1.248   4.324   0.521
  822SOL     OW 3364   0.682   3.148   5.311
  822SOL    HW1 3365   0.752   3.220   5.311
  822SOL    HW2 3366   0.703   3.081   5.240
  823SOL     OW 3367   4.246   4.218   1.332
  823SOL    HW1 3368   4.251   4.305   1.381
  823SOL    HW2 3369   4.203   4.232   1.243
  824SOL     OW 3370   6.430   3.539   6.585
  824SOL    HW1 3371   6.366   3.462   6.585
  824SOL    HW2 3372   6.498   3.525   6.513
  825SOL     OW 3373   2.253   2.881   1.230
  825SOL    HW1 3374   2.165   2.854   1.268
  825SOL    HW2 3375   2.244   2.967   1.180
  826SOL     OW 3376   0.782   1.748   6.937
  826SOL    HW1 3377   0.744   1.679   6.875
  826SOL    HW2 3378   0.881   1.738   6.941
  827SOL     OW 3379   3.825   4.704   0.932
  827SOL    HW1 3380   3.910   4.747   0.901
  827SOL    HW2 3381   3.777   4.664   0.853
  828SOL     OW 3382   5.809   1.174   5.344
  828SOL    HW1 3383   5.815   1.080   5.311
  828SOL    HW2 3384   5.714   1.204   5.342
  829SOL     OW 3385   4.557   4.475   5.652
  829SOL    HW1 3386   4.609   4.432   5.725
  829SOL    HW2 3387   4.536   4.408   5.582
  830SOL     OW 3388   4.220   3.480   6.394
  830SOL    HW1 3389   4.181   3.559   6.348
  830SOL    HW2 3390   4.148   3.411   6.409
  831SOL     OW 3391   5.147   2.068   5.351
  831SOL    HW1 3392   5.170   2.127   5.428
  831SOL    HW2 3393   5.195   1.980   5.361
  832SOL     OW 3394   3.137   1.571   5.516
  832SOL    HW1 3395   3.199   1.622   5.455
  832SOL    HW2 3396   3.190   1.529   5.589
  833SOL     OW 3397   1.082   0.598   5.246
  833SOL    HW1 3398   1.089   0.627   5.341
  833SOL    HW2 3399   1.173   0.597   5.204
  834SOL     OW 3400   2.953   4.636   5.576
  834SOL    HW1 3401   2.904   4.682   5.650
  834SOL    HW2 3402   2.978   4.544   5.606
  835SOL     OW 3403   3.920   1.864   2.861
  835SOL    HW1 3404   3.904   1.885   2.958
  835SOL    HW2 3405   4.004   1.909   2.830
  836SOL     OW 3406   2.211   1.411   5.303
  836SOL    HW1 3407   2.309   1.430   5.317
  836SOL    HW2 3408   2.183   1.337   5.363
  837SOL     OW 3409   4.099   1.590   4.373
  837SOL    HW1 3410   4.176   1.537   4.408
  837SOL    HW2 3411   4.020   1.530   4.361
  838SOL     OW 3412   0.275   6.616   2.252
  838SOL    HW1 3413   0.246   6.688   2.316
  838SOL    HW2 3414   0.217   6.536   2.264
  839SOL     OW 3415   2.117   1.705   2.342
  839SOL    HW1 3416   2.055   1.685   2.266
  839SOL    HW2 3417   2.211   1.691   2.313
  840SOL     OW 3418   2.037   0.863   5.086
  840SOL    HW1 3419   2.051   0.783   5.144
  840SOL    HW2 3420   1.941   0.892   5.090
  841SOL     OW 3421   0.457   3.469   0.795
  841SOL    HW1 3422   0.452   3.549   0.855
  841SOL    HW2 3423   0.552   3.439   0.787
  842SOL     OW 3424   3.858   4.925   4.141
  842SOL    HW1 3425   3.823   4.923   4.047
  842SOL    HW2 3426   3.793   4.973   4.200
  843SOL     OW 3427   6.937   2.650   1.354
  843SOL    HW1 3428   6.908   2.720   1.289
  843SOL    HW2 3429   0.017   2.657   1.367
  844SOL     OW 3430   5.669   4.756   6.212
  844SOL    HW1 3431   5.751   4.787   6.261
  844SOL    HW2 3432   5.594   4.821   6.227
  845SOL     OW 3433   2.058   5.078   5.560
  845SOL    HW1 3434   2.129   5.010   5.577
  845SOL    HW2 3435   1.970   5.044   5.591
  846SOL     OW 3436   4.995   2.031   0.025
  846SOL    HW1 3437   5.000   1.936   7.013
  846SOL    HW2 3438   4.923   2.040   0.094
  847SOL     OW 3439   5.063   4.176   1.894
  847SOL    HW1 3440   5.089   4.144   1.985
  847SOL    HW2 3441   5.097   4.269   1.881
  848SOL     OW 3442   5.766   0.234   5.947
  848SOL    HW1 3443   5.700   0.159   5.943
  848SOL    HW2 3444   5.856   0.202   5.915
  849SOL     OW 3445   0.871   0.130   3.592
  849SOL    HW1 3446   0.793   0.121   3.531
  849SOL    HW2 3447   0.860   0.069   3.671
  850SOL     OW 3448   2.758   1.165   2.927
  850SOL    HW1 3449   2.675   1.159   2.982
  850SOL    HW2 3450   2.734   1.194   2.834
  851SOL     OW 3451   6.701   1.408   6.177
  851SOL    HW1 3452   6.681   1.341   6.105
  851SOL    HW2 3453   6.799   1.407   6.197
  852SOL     OW 3454   3.486   5.141   4.452
  852SOL    HW1 3455   3.550   5.099   4.516
  852SOL    HW2 3456   3.431   5.210   4.499
  853SOL     OW 3457   0.717   3.957   0.575
  853SOL    HW1 3458   0.715   3.978   0.672
  853SOL    HW2 3459   0.794   4.005   0.532
  854SOL     OW 3460   6.616   4.817   1.159
  854SOL    HW1 3461   6.551   4.893   1.164
  854SOL    HW2 3462   6.584   4.749   1.095
  855SOL     OW 3463   4.846   0.452   0.477
  855SOL    HW1 3464   4.772   0.388   0.460
  855SOL    HW2 3465   4.918   0.408   0.530
  856SOL     OW 3466   1.618   0.749   5.316
  856SOL    HW1 3467   1.599   0.800   5.400
  856SOL    HW2 3468   1.585   0.655   5.325
  857SOL     OW 3469   6.186   4.510   2.440
  857SOL    HW1 3470   6.236   4.593   2.465
  857SOL    HW2 3471   6.231   4.467   2.361
  858SOL     OW 3472   3.636   3.863   2.019
  858SOL    HW1 3473   3.631   3.766   1.995
  858SOL    HW2 3474   3.614   3.874   2.116
  859SOL     OW 3475   6.539   4.166   1.241
  859SOL    HW1 3476   6.543   4.262   1.267
  859SOL    HW2 3477   6.546   4.158   1.142
  860SOL     OW 3478   1.466   4.178   6.096
  860SOL    HW1 3479   1.438   4.094   6.048
  860SOL    HW2 3480   1.434   4.174   6.191
  861SOL     OW 3481   4.422   4.585   6.292
  861SOL    HW1 3482   4.368   4.597   6.208
  861SOL    HW2 3483   4.360   4.578   6.371
  862SOL     OW 3484   4.392   4.691   3.792
  862SOL    HW1 3485   4.341   4.777   3.801
  862SOL    HW2 3486   4.403   4.669   3.695
  863SOL     OW 3487   6.479   2.946   1.258
  863SOL    HW1 3488   6.469   3.008   1.336
  863SOL    HW2 3489   6.495   2.999   1.175
  864SOL     OW 3490   1.220   6.249   1.940
  864SOL    HW1 3491   1.138   6.305   1.935
  864SOL    HW2 3492   1.242   6.230   2.035
  865SOL     OW 3493   1.286   1.406   3.757
  865SOL    HW1 3494   1.376   1.421   3.799
  865SOL    HW2 3495   1.216   1.407   3.828
  866SOL     OW 3496   4.064   1.081   1.738
  866SOL    HW1 3497   4.042   1.126   1.825
  866SOL    HW2 3498   4.163   1.077   1.727
  867SOL     OW 3499   3.048   1.595   5.919
  867SOL    HW1 3500   2.985   1.585   5.997
  867SOL    HW2 3501   3.131   1.642   5.949
  868SOL     OW 3502   4.862   1.835   3.118
  868SOL    HW1 3503   4.794   1.858   3.048
  868SOL    HW2 3504   4.830   1.866   3.207
  869SOL     OW 3505   6.623   3.736   0.736
  869SOL    HW1 3506   6.551   3.691   0.789
  869SOL    HW2 3507   6.711   3.691   0.755
  870SOL     OW 3508   6.273   1.686   0.545
  870SOL    HW1 3509   6.296   1.779   0.518
  870SOL    HW2 3510   6.272   1.678   0.644
  871SOL     OW 3511   6.776   4.535   0.633
  871SOL    HW1 3512   6.837   4.608   0.600
  871SOL    HW2 3513   6.799   4.512   0.727
  872SOL     OW 3514   0.197   1.786   2.011
  872SOL    HW1 3515   0.102   1.816   2.014
  872SOL    HW2 3516   0.229   1.787   1.916
  873SOL     OW 3517   3.978   0.141   4.241
  873SOL    HW1 3518   3.946   0.053   4.205
  873SOL    HW2 3519   3.991   0.134   4.340
  874SOL     OW 3520   1.396   3.483   6.347
  874SOL    HW1 3521   1.475   3.538   6.320
  874SOL    HW2 3522   1.346   3.532   6.420
  875SOL     OW 3523   5.940   6.112   6.426
  875SOL    HW1 3524   5.987   6.184   6.476
  875SOL    HW2 3525   5.841   6.129   6.428
  876SOL     OW 3526   2.870   2.254   1.675
  876SOL    HW1 3527   2.877   2.325   1.604
  876SOL    HW2 3528   2.896   2.293   1.763
  877SOL     OW 3529   6.379   5.872   6.117
  877SOL    HW1 3530   6.339   5.819   6.192
  877SOL    HW2 3531   6.362   5.826   6.030
  878SOL     OW 3532   4.351   3.133   1.083
  878SOL    HW1 3533   4.282   3.155   1.151
  878SOL    HW2 3534   4.347   3.036   1.061
  879SOL     OW 3535   5.109   3.209   3.140
  879SOL    HW1 3536   5.109   3.212   3.040
  879SOL    HW2 3537   5.025   3.163   3.171
  880SOL     OW 3538   4.366   0.012   1.454
  880SOL    HW1 3539   4.330   0.099   1.487
  880SOL    HW2 3540   4.343   0.001   1.357
  881SOL     OW 3541   4.772   5.548   3.595
  881SOL    HW1 3542   4.734   5.611   3.527
  881SOL    HW2 3543   4.847   5.593   3.643
  882SOL     OW 3544   0.699   2.313   4.970
  882SOL    HW1 3545   0.768   2.282   4.905
  882SOL    HW2 3546   0.653   2.234   5.010
  883SOL     OW 3547   3.129   4.984   6.818
  883SOL    HW1 3548   3.065   4.955   6.748
  883SOL    HW2 3549   3.102   4.946   6.906
  884SOL     OW 3550   4.356   4.640   1.108
  884SOL    HW1 3551   4.379   4.613   1.015
  884SOL    HW2 3552   4.422   4.599   1.172
  885SOL     OW 3553   3.733   5.600   6.699
  885SOL    HW1 3554   3.722   5.511   6.743
  885SOL    HW2 3555   3.643   5.638   6.678
  886SOL     OW 3556   3.927   2.703   6.231
  886SOL    HW1 3557   3.866   2.651   6.290
  886SOL    HW2 3558   3.934   2.797   6.264
  887SOL     OW 3559   6.187   6.646   5.129
  887SOL    HW1 3560   6.209   6.549   5.113
  887SOL    HW2 3561   6.199   6.667   5.226
  888SOL     OW 3562   6.491   1.167   3.575
  888SOL    HW1 3563   6.430   1.246   3.562
  888SOL    HW2 3564   6.500   1.117   3.489
  889SOL     OW 3565   0.641   0.560   4.631
  889SOL    HW1 3566   0.681   0.587   4.719
  889SOL    HW2 3567   0.714   0.536   4.567
  890SOL     OW 3568   2.458   3.548   0.683
  890SOL    HW1 3569   2.444   3.490   0.763
  890SOL    HW2 3570   2.392   3.523   0.612
  891SOL     OW 3571   6.497   2.905   5.563
  891SOL    HW1 3572   6.494   2.837   5.490
  891SOL    HW2 3573   6.476   2.861   5.650
  892SOL     OW 3574   2.168   4.670   2.014
  892SOL    HW1 3575   2.151   4.763   2.046
  892SOL    HW2 3576   2.260   4.643   2.038
  893SOL     OW 3577   2.039   0.396   1.792
  893SOL    HW1 3578   2.017   0.478   1.738
  893SOL    HW2 3579   2.076   0.325   1.731
  894SOL     OW 3580   1.291   5.298   4.137
  894SOL    HW1 3581   1.260   5.233   4.207
  894SOL    HW2 3582   1.376   5.340   4.168
  895SOL     OW 3583   2.851   1.206   4.315
  895SOL    HW1 3584   2.811   1.212   4.406
  895SOL    HW2 3585   2.785   1.163   4.253
  896SOL     OW 3586   4.600   0.202   3.512
  896SOL    HW1 3587   4.566   0.121   3.560
  896SOL    HW2 3588   4.651   0.174   3.431
  897SOL     OW 3589   6.237   1.282   6.867
  897SOL    HW1 3590   6.244   1.344   6.945
  897SOL    HW2 3591   6.328   1.248   6.842
  898SOL     OW 3592   5.380   5.812   3.835
  898SOL    HW1 3593   5.311   5.758   3.787
  898SOL    HW2 3594   5.348   5.906   3.846
  899SOL     OW 3595   1.577   4.793   0.016
  899SOL    HW1 3596   1.589   4.762   0.111
  899SOL    HW2 3597   1.572   4.714   6.974
  900SOL     OW 3598   0.220   5.938   3.384
  900SOL    HW1 3599   0.238   5.840   3.378
  900SOL    HW2 3600   0.200   5.975   3.293
  901SOL     OW 3601   6.439   1.901   3.615
  901SOL    HW1 3602   6.506   1.827   3.615
  901SOL    HW2 3603   6.417   1.925   3.520
  902SOL     OW 3604   1.401   5.984   0.108
  902SOL    HW1 3605   1.328   5.961   0.172
  902SOL    HW2 3606   1.465   5.907   0.103
  903SOL     OW 3607   1.251   4.685   6.682
  903SOL    HW1 3608   1.350   4.672   6.690
  903SOL    HW2 3609   1.232   4.779   6.651
  904SOL     OW 3610   1.390   2.497   4.484
  904SOL    HW1 3611   1.316   2.561   4.505
  904SOL    HW2 3612   1.464   2.509   4.550
  905SOL     OW 3613   6.455   3.431   3.601
  905SOL    HW1 3614   6.472   3.486   3.519
  905SOL    HW2 3615   6.437   3.492   3.679
  906SOL     OW 3616   0.009   3.304   5.474
  906SOL    HW1 3617   0.045   3.333   5.562
  906SOL    HW2 3618   0.056   3.221   5.444
  907SOL     OW 3619   6.863   4.556   2.931
  907SOL    HW1 3620   6.816   4.467   2.934
  907SOL    HW2 3621   6.860   4.592   2.838
  908SOL     OW 3622   2.703   1.095   3.455
  908SOL    HW1 3623   2.719   1.164   3.383
  908SOL    HW2 3624   2.705   1.140   3.544
  909SOL     OW 3625   3.103   6.846   2.346
  909SOL    HW1 3626   3.057   6.882   2.265
  909SOL    HW2 3627   3.133   6.921   2.404
  910SOL     OW 3628   1.357   0.731   2.102
  910SOL    HW1 3629   1.285   0.666   2.077
  910SOL    HW2 3630   1.442   0.681   2.121
  911SOL     OW 3631   1.086   2.793   1.157
  911SOL    HW1 3632   1.138   2.866   1.113
  911SOL    HW2 3633   0.989   2.802   1.134
  912SOL     OW 3634   2.407   1.133   1.014
  912SOL    HW1 3635   2.346   1.169   1.084
  912SOL    HW2 3636   2.483   1.196   0.999
  913SOL     OW 3637   2.285   0.604   1.765
  913SOL    HW1 3638   2.185   0.616   1.760
  913SOL    HW2 3639   2.307   0.507   1.777
  914SOL     OW 3640   3.201   4.891   2.244
  914SOL    HW1 3641   3.249   4.834   2.310
  914SOL    HW2 3642   3.105   4.863   2.240
  915SOL     OW 3643   3.473   2.358   1.131
  915SOL    HW1 3644   3.566   2.356   1.096
  915SOL    HW2 3645   3.475   2.378   1.229
  916SOL     OW 3646   0.308   4.067   2.629
  916SOL    HW1 3647   0.246   4.135   2.589
  916SOL    HW2 3648   0.326   3.994   2.563
  917SOL     OW 3649   3.900   0.755   5.235
  917SOL    HW1 3650   3.995   0.761   5.206
  917SOL    HW2 3651   3.893   0.694   5.314
  918SOL     OW 3652   6.993   2.533   4.976
  918SOL    HW1 3653   6.969   2.629   4.961
  918SOL    HW2 3654   0.036   2.527   5.055
  919SOL     OW 3655   0.842   0.169   0.979
  919SOL    HW1 3656   0.748   0.150   1.008
  919SOL    HW2 3657   0.896   0.201   1.057
  920SOL     OW 3658   1.322   2.097   2.746
  920SOL    HW1 3659   1.282   2.168   2.688
  920SOL    HW2 3660   1.419   2.087   2.724
  921SOL     OW 3661   4.280   4.433   0.035
  921SOL    HW1 3662   4.183   4.446   0.017
  921SOL    HW2 3663   4.327   4.406   6.969
  922SOL     OW 3664   2.162   5.815   6.659
  922SOL    HW1 3665   2.213   5.731   6.640
  922SOL    HW2 3666   2.226   5.891   6.666
  923SOL     OW 3667   3.473   1.158   0.196
  923SOL    HW1 3668   3.473   1.241   0.141
  923SOL    HW2 3669   3.559   1.109   0.183
  924SOL     OW 3670   5.260   5.467   1.397
  924SOL    HW1 3671   5.207   5.391   1.435
  924SOL    HW2 3672   5.288   5.445   1.303
  925SOL     OW 3673   5.760   1.916   1.484
  925SOL    HW1 3674   5.759   1.816   1.479
  925SOL    HW2 3675   5.668   1.948   1.510
  926SOL     OW 3676   4.151   5.903   1.815
  926SOL    HW1 3677   4.089   5.921   1.891
  926SOL    HW2 3678   4.234   5.857   1.848
  927SOL     OW 3679   5.654   5.238   5.721
  927SOL    HW1 3680   5.592   5.199   5.789
  927SOL    HW2 3681   5.614   5.323   5.685
  928SOL     OW 3682   0.097   1.267   1.950
  928SOL    HW1 3683   0.160   1.249   1.875
  928SOL    HW2 3684   0.052   1.182   1.976
  929SOL     OW 3685   6.641   1.936   2.686
  929SOL    HW1 3686   6.589   1.998   2.745
  929SOL    HW2 3687   6.630   1.964   2.591
  930SOL     OW 3688   5.854   4.252   2.603
  930SOL    HW1 3689   5.755   4.267   2.610
  930SOL    HW2 3690   5.884   4.274   2.511
  931SOL     OW 3691   0.419   2.761   1.062
  931SOL    HW1 3692   0.429   2.821   0.982
  931SOL    HW2 3693   0.322   2.751   1.084
  932SOL     OW 3694   4.508   6.549   0.553
  932SOL    HW1 3695   4.451   6.566   0.634
  932SOL    HW2 3696   4.476   6.607   0.478
  933SOL     OW 3697   0.519   6.546   3.141
  933SOL    HW1 3698   0.481   6.487   3.212
  933SOL    HW2 3699   0.578   6.616   3.183
  934SOL     OW 3700   4.423   2.036   5.014
  934SOL    HW1 3701   4.374   1.958   4.975
  934SOL    HW2 3702   4.385   2.121   4.979
  935SOL     OW 3703   0.819   4.146   4.205
  935SOL    HW1 3704   0.855   4.186   4.122
  935SOL    HW2 3705   0.729   4.186   4.225
  936SOL     OW 3706   1.019   1.105   1.340
  936SOL    HW1 3707   0.980   1.171   1.404
  936SOL    HW2 3708   0.964   1.021   1.341
  937SOL     OW 3709   4.683   1.882   2.913
  937SOL    HW1 3710   4.594   1.926   2.899
  937SOL    HW2 3711   4.709   1.835   2.829
  938SOL     OW 3712   0.416   1.003   6.359
  938SOL    HW1 3713   0.392   0.907   6.349
  938SOL    HW2 3714   0.384   1.037   6.448
  939SOL     OW 3715   0.477   0.793   4.226
  939SOL    HW1 3716   0.411   0.864   4.254
  939SOL    HW2 3717   0.481   0.721   4.295
  940SOL     OW 3718   6.028   0.010   3.572
  940SOL    HW1 3719   6.037   0.087   3.510
  940SOL    HW2 3720   6.118   7.004   3.607
  941SOL     OW 3721   5.480   2.788   4.866
  941SOL    HW1 3722   5.524   2.814   4.780
  941SOL    HW2 3723   5.549   2.772   4.936
  942SOL     OW 3724   4.148   6.363   6.242
  942SOL    HW1 3725   4.170   6.380   6.338
  942SOL    HW2 3726   4.122   6.267   6.231
  943SOL     OW 3727   4.993   1.818   6.884
  943SOL    HW1 3728   4.981   1.788   6.790
  943SOL    HW2 3729   5.091   1.822   6.906
  944SOL     OW 3730   5.373   4.560   4.277
  944SOL    HW1 3731   5.357   4.466   4.245
  944SOL    HW2 3732   5.427   4.558   4.361
  945SOL     OW 3733   6.192   3.209   6.046
  945SOL    HW1 3734   6.164   3.151   5.969
  945SOL    HW2 3735   6.125   3.281   6.060
  946SOL     OW 3736   6.121   2.921   6.161
  946SOL    HW1 3737   6.133   3.010   6.118
  946SOL    HW2 3738   6.051   2.928   6.232
  947SOL     OW 3739   1.430   1.789   6.307
  947SOL    HW1 3740   1.456   1.790   6.403
  947SOL    HW2 3741   1.331   1.776   6.300
  948SOL     OW 3742   3.568   1.883   1.292
  948SOL    HW1 3743   3.640   1.945   1.323
  948SOL    HW2 3744   3.579   1.794   1.337
  949SOL     OW 3745   5.466   5.150   5.915
  949SOL    HW1 3746   5.499   5.176   6.006
  949SOL    HW2 3747   5.366   5.157   5.913
  950SOL     OW 3748   3.968   5.432   0.706
  950SOL    HW1 3749   4.008   5.359   0.762
  950SOL    HW2 3750   4.030   5.510   0.704
  951SOL     OW 3751   0.274   3.492   3.095
  951SOL    HW1 3752   0.280   3.554   3.173
  951SOL    HW2 3753   0.341   3.520   3.026
  952SOL     OW 3754   4.511   1.121   0.982
  952SOL    HW1 3755   4.585   1.188   0.980
  952SOL    HW2 3756   4.445   1.142   0.910
  953SOL     OW 3757   4.345   6.456   5.933
  953SOL    HW1 3758   4.269   6.478   5.873
  953SOL    HW2 3759   4.326   6.490   6.025
  954SOL     OW 3760   6.580   6.308   1.409
  954SOL    HW1 3761   6.595   6.250   1.330
  954SOL    HW2 3762   6.489   6.349   1.405
  955SOL     OW 3763   1.460   6.298   3.552
  955SOL    HW1 3764   1.536   6.363   3.550
  955SOL    HW2 3765   1.469   6.238   3.632
  956SOL     OW 3766   1.806   2.875   0.899
  956SOL    HW1 3767   1.895   2.856   0.942
  956SOL    HW2 3768   1.734   2.868   0.968
  957SOL     OW 3769   2.675   6.024   4.355
  957SOL    HW1 3770   2.750   6.076   4.314
  957SOL    HW2 3771   2.712   5.950   4.410
  958SOL     OW 3772   4.296   2.504   6.591
  958SOL    HW1 3773   4.256   2.435   6.652
  958SOL    HW2 3774   4.244   2.589   6.598
  959SOL     OW 3775   1.472   4.418   0.213
  959SOL    HW1 3776   1.518   4.505   0.228
  959SOL    HW2 3777   1.391   4.432   0.155
  960SOL     OW 3778   1.777   3.775   5.305
  960SOL    HW1 3779   1.774   3.758   5.403
  960SOL    HW2 3780   1.867   3.749   5.270
  961SOL     OW 3781   3.862   6.551   6.503
  961SOL    HW1 3782   3.891   6.635   6.457
  961SOL    HW2 3783   3.884   6.472   6.445
  962SOL     OW 3784   0.208   0.068   3.830
  962SOL    HW1 3785   0.279   0.069   3.759
  962SOL    HW2 3786   0.175   0.161   3.844
  963SOL     OW 3787   5.651   6.985   3.422
  963SOL    HW1 3788   5.552   6.972   3.413
  963SOL    HW2 3789   5.693   6.984   3.332
  964SOL     OW 3790   5.930   4.183   1.652
  964SOL    HW1 3791   6.023   4.176   1.615
  964SOL    HW2 3792   5.894   4.274   1.633
  965SOL     OW 3793   1.995   2.253   0.126
  965SOL    HW1 3794   1.992   2.218   0.032
  965SOL    HW2 3795   1.903   2.282   0.153
  966SOL     OW 3796   5.324   1.825   1.852
  966SOL    HW1 3797   5.263   1.825   1.773
  966SOL    HW2 3798   5.329   1.732   1.891
  967SOL     OW 3799   0.511   5.565   2.948
  967SOL    HW1 3800   0.429   5.584   2.893
  967SOL    HW2 3801   0.513   5.627   3.026
  968SOL     OW 3802   0.216   4.354   0.778
  968SOL    HW1 3803   0.201   4.412   0.858
  968SOL    HW2 3804   0.174   4.396   0.697
  969SOL     OW 3805   3.616   7.002   6.580
  969SOL    HW1 3806   3.587   0.051   6.513
  969SOL    HW2 3807   3.538   6.946   6.607
  970SOL     OW 3808   5.399   4.012   6.626
  970SOL    HW1 3809   5.342   3.963   6.560
  970SOL    HW2 3810   5.427   3.949   6.699
  971SOL     OW 3811   0.490   1.796   0.227
  971SOL    HW1 3812   0.557   1.729   0.196
  971SOL    HW2 3813   0.524   1.843   0.309
  972SOL     OW 3814   3.865   6.869   6.192
  972SOL    HW1 3815   3.935   6.824   6.137
  972SOL    HW2 3816   3.776   6.859   6.148
  973SOL     OW 3817   6.378   3.401   6.127
  973SOL    HW1 3818   6.313   3.453   6.183
  973SOL    HW2 3819   6.335   3.316   6.096
  974SOL     OW 3820   2.195   0.690   4.040
  974SOL    HW1 3821   2.250   0.699   4.123
  974SOL    HW2 3822   2.232   0.616   3.984
  975SOL     OW 3823   2.709   6.498   4.082
  975SOL    HW1 3824   2.725   6.472   4.177
  975SOL    HW2 3825   2.659   6.425   4.035
  976SOL     OW 3826   0.551   5.113   4.586
  976SOL    HW1 3827   0.471   5.055   4.603
  976SOL    HW2 3828   0.632   5.072   4.628
  977SOL     OW 3829   0.806   2.281   1.880
  977SOL    HW1 3830   0.748   2.358   1.856
  977SOL    HW2 3831   0.799   2.210   1.810
  978SOL     OW 3832   6.125   2.785   3.679
  978SOL    HW1 3833   6.028   2.803   3.697
  978SOL    HW2 3834   6.168   2.747   3.760
  979SOL     OW 3835   5.666   1.382   2.739
  979SOL    HW1 3836   5.628   1.299   2.697
  979SOL    HW2 3837   5.596   1.453   2.739
  980SOL     OW 3838   6.148   5.854   5.216
  980SOL    HW1 3839   6.112   5.944   5.243
  980SOL    HW2 3840   6.192   5.811   5.295
  981SOL     OW 3841   6.245   3.101   6.770
  981SOL    HW1 3842   6.241   3.020   6.711
  981SOL    HW2 3843   6.167   3.099   6.833
  982SOL     OW 3844   1.622   4.521   6.899
  982SOL    HW1 3845   1.695   4.480   6.952
  982SOL    HW2 3846   1.565   4.449   6.859
  983SOL     OW 3847   5.703   1.252   3.600
  983SOL    HW1 3848   5.634   1.252   3.528
  983SOL    HW2 3849   5.794   1.252   3.558
  984SOL     OW 3850   4.892   3.344   5.111
  984SOL    HW1 3851   4.894   3.298   5.200
  984SOL    HW2 3852   4.836   3.427   5.118
  985SOL     OW 3853   1.781   4.422   0.062
  985SOL    HW1 3854   1.826   4.511   0.072
  985SOL    HW2 3855   1.758   4.385   0.152
  986SOL     OW 3856   5.508   4.414   4.926
  986SOL    HW1 3857   5.515   4.483   4.999
  986SOL    HW2 3858   5.413   4.406   4.896
  987SOL     OW 3859   2.506   1.483   3.014
  987SOL    HW1 3860   2.423   1.535   2.996
  987SOL    HW2 3861   2.531   1.493   3.111
  988SOL     OW 3862   3.875   3.563   1.335
  988SOL    HW1 3863   3.928   3.590   1.415
  988SOL    HW2 3864   3.799   3.505   1.362
  989SOL     OW 3865   0.913   1.062   5.005
  989SOL    HW1 3866   0.848   1.070   5.081
  989SOL    HW2 3867   0.893   0.978   4.953
  990SOL     OW 3868   4.416   6.153   2.121
  990SOL    HW1 3869   4.323   6.174   2.151
  990SOL    HW2 3870   4.479   6.168   2.197
  991SOL     OW 3871   5.990   1.543   6.339
  991SOL    HW1 3872   5.941   1.550   6.427
  991SOL    HW2 3873   6.017   1.448   6.324
  992SOL     OW 3874   0.351   2.793   0.529
  992SOL    HW1 3875   0.267   2.738   0.524
  992SOL    HW2 3876   0.398   2.789   0.440
  993SOL     OW 3877   4.083   6.753   4.118
  993SOL    HW1 3878   4.056   6.669   4.071
  993SOL    HW2 3879   4.156   6.732   4.183
  994SOL     OW 3880   3.119   3.662   3.782
  994SOL    HW1 3881   3.105   3.760   3.801
  994SOL    HW2 3882   3.052   3.632   3.714
  995SOL     OW 3883   1.262   1.574   4.942
  995SOL    HW1 3884   1.247   1.491   4.887
  995SOL    HW2 3885   1.323   1.552   5.018
  996SOL     OW 3886   2.351   3.191   0.464
  996SOL    HW1 3887   2.364   3.229   0.555
  996SOL    HW2 3888   2.307   3.258   0.405
  997SOL     OW 3889   6.761   1.033   0.487
  997SOL    HW1 3890   6.760   1.095   0.408
  997SOL    HW2 3891   6.771   1.087   0.571
  998SOL     OW 3892   4.668   6.707   3.644
  998SOL    HW1 3893   4.650   6.739   3.737
  998SOL    HW2 3894   4.586   6.719   3.588
  999SOL     OW 3895   0.156   4.604   6.496
  999SOL    HW1 3896   0.204   4.519   6.476
  999SOL    HW2 3897   0.148   4.617   6.595
 1000SOL     OW 3898   3.473   1.925   5.450
 1000SOL    HW1 3899   3.424   1.953   5.367
 1000SOL    HW2 3900   3.570   1.949   5.440
 1001SOL     OW 3901   5.003   1.132   4.613
 1001SOL    HW1 3902   4.955   1.216   4.637
 1001SOL    HW2 3903   4.938   1.056   4.610
 1002SOL     OW 3904   0.102   1.184   0.569
 1002SOL    HW1 3905   0.019   1.132   0.591
 1002SOL    HW2 3906   0.098   1.273   0.614
 1003SOL     OW 3907   4.268   5.252   2.397
 1003SOL    HW1 3908   4.303   5.328   2.451
 1003SOL    HW2 3909   4.344   5.205   2.351
 1004SOL     OW 3910   5.988   5.945   6.721
 1004SOL    HW1 3911   5.931   5.865   6.739
 1004SOL    HW2 3912   5.935   6.028   6.741
 1005SOL     OW 3913   5.271   6.411   2.902
 1005SOL    HW1 3914   5.211   6.378   2.975
 1005SOL    HW2 3915   5.229   6.392   2.813
 1006SOL     OW 3916   1.600   5.787   0.056
 1006SOL    HW1 3917   1.615   5.768   0.153
 1006SOL    HW2 3918   1.688   5.785   0.007
 1007SOL     OW 3919   6.006   2.180   2.609
 1007SOL    HW1 3920   5.966   2.109   2.551
 1007SOL    HW2 3921   5.990   2.157   2.705
 1008SOL     OW 3922   3.339   1.070   5.283
 1008SOL    HW1 3923   3.259   1.038   5.335
 1008SOL    HW2 3924   3.349   1.168   5.295
 1009SOL     OW 3925   3.334   6.293   5.656
 1009SOL    HW1 3926   3.334   6.387   5.690
 1009SOL    HW2 3927   3.245   6.273   5.616
 1010SOL     OW 3928   5.020   6.383   5.779
 1010SOL    HW1 3929   5.011   6.467   5.726
 1010SOL    HW2 3930   5.103   6.388   5.835
 1011SOL     OW 3931   2.499   5.096   4.595
 1011SOL    HW1 3932   2.470   5.165   4.529
 1011SOL    HW2 3933   2.418   5.046   4.628
 1012SOL     OW 3934   3.028   6.145   0.785
 1012SOL    HW1 3935   3.063   6.051   0.790
 1012SOL    HW2 3936   2.931   6.145   0.806
 1013SOL     OW 3937   0.735   0.061   0.045
 1013SOL    HW1 3938   0.715   0.079   6.968
 1013SOL    HW2 3939   0.692   0.131   0.102
 1014SOL     OW 3940   6.451   6.711   6.741
 1014SOL    HW1 3941   6.529   6.652   6.759
 1014SOL    HW2 3942   6.368   6.655   6.733
 1015SOL     OW 3943   2.473   0.127   4.468
 1015SOL    HW1 3944   2.568   0.125   4.436
 1015SOL    HW2 3945   2.429   0.211   4.436
 1016SOL     OW 3946   4.300   3.386   1.681
 1016SOL    HW1 3947   4.225   3.399   1.617
 1016SOL    HW2 3948   4.333   3.292   1.676
 1017SOL     OW 3949   4.960   6.743   6.462
 1017SOL    HW1 3950   4.962   6.648   6.430
 1017SOL    HW2 3951   4.869   6.781   6.449
 1018SOL     OW 3952   1.121   1.765   1.343
 1018SOL    HW1 3953   1.219   1.744   1.343
 1018SOL    HW2 3954   1.101   1.831   1.270
 1019SOL     OW 3955   5.799   0.611   0.482
 1019SOL    HW1 3956   5.873   0.567   0.432
 1019SOL    HW2 3957   5.789   0.705   0.451
 1020SOL     OW 3958   4.066   1.932   1.492
 1020SOL    HW1 3959   4.116   2.006   1.539
 1020SOL    HW2 3960   4.044   1.860   1.557
 1021SOL     OW 3961   5.178   1.055   1.369
 1021SOL    HW1 3962   5.118   1.105   1.431
 1021SOL    HW2 3963   5.182   0.959   1.396
 1022SOL     OW 3964   2.733   3.762   0.069
 1022SOL    HW1 3965   2.744   3.862   0.072
 1022SOL    HW2 3966   2.774   3.727   7.004
 1023SOL     OW 3967   6.713   1.157   4.199
 1023SOL    HW1 3968   6.812   1.164   4.211
 1023SOL    HW2 3969   6.684   1.216   4.124
 1024SOL     OW 3970   6.375   2.324   3.965
 1024SOL    HW1 3971   6.385   2.424   3.962
 1024SOL    HW2 3972   6.465   2.281   3.962
 1025SOL     OW 3973   2.330   4.300   1.511
 1025SOL    HW1 3974   2.285   4.240   1.445
 1025SOL    HW2 3975   2.290   4.392   1.505
 1026SOL     OW 3976   0.398   3.079   6.639
 1026SOL    HW1 3977   0.418   3.017   6.563
 1026SOL    HW2 3978   0.372   3.168   6.603
 1027SOL     OW 3979   1.765   4.873   0.925
 1027SOL    HW1 3980   1.793   4.779   0.946
 1027SOL    HW2 3981   1.716   4.912   1.003
 1028SOL     OW 3982   0.455   5.394   6.887
 1028SOL    HW1 3983   0.536   5.341   6.862
 1028SOL    HW2 3984   0.437   5.382   6.985
 1029SOL     OW 3985   3.754   0.675   4.823
 1029SOL    HW1 3986   3.752   0.586   4.778
 1029SOL    HW2 3987   3.846   0.694   4.855
 1030SOL     OW 3988   4.220   4.817   4.703
 1030SOL    HW1 3989   4.267   4.878   4.640
 1030SOL    HW2 3990   4.279   4.739   4.725
 1031SOL     OW 3991   2.708   5.721   1.145
 1031SOL    HW1 3992   2.793   5.752   1.102
 1031SOL    HW2 3993   2.630   5.765   1.101
 1032SOL     OW 3994   1.189   2.281   5.008
 1032SOL    HW1 3995   1.188   2.376   5.040
 1032SOL    HW2 3996   1.099   2.257   4.973
 1033SOL     OW 3997   2.883   0.316   2.299
 1033SOL    HW1 3998   2.843   0.226   2.281
 1033SOL    HW2 3999   2.977   0.306   2.329
 1034SOL     OW 4000   0.204   5.372   2.463
 1034SOL    HW1 4001   0.193   5.446   2.397
 1034SOL    HW2 4002   0.291   5.383   2.512
 1035SOL     OW 4003   3.071   2.167   3.343
 1035SOL    HW1 4004   3.155   2.218   3.324
 1035SOL    HW2 4005   3.094   2.074   3.371
 1036SOL     OW 4006   4.696   6.590   6.752
 1036SOL    HW1 4007   4.790   6.619   6.735
 1036SOL    HW2 4008   4.693   6.491   6.760
 1037SOL     OW 4009   3.827   1.048   5.949
 1037SOL    HW1 4010   3.772   1.109   5.893
 1037SOL    HW2 4011   3.857   0.969   5.894
 1038SOL     OW 4012   3.252   1.571   4.711
 1038SOL    HW1 4013   3.170   1.519   4.736
 1038SOL    HW2 4014   3.226   1.666   4.693
 1039SOL     OW 4015   5.352   1.563   1.966
 1039SOL    HW1 4016   5.392   1.479   2.004
 1039SOL    HW2 4017   5.277   1.593   2.026
 1040SOL     OW 4018   6.238   4.928   4.815
 1040SOL    HW1 4019   6.193   5.011   4.784
 1040SOL    HW2 4020   6.183   4.885   4.886
 1041SOL     OW 4021   1.176   6.809   4.858
 1041SOL    HW1 4022   1.134   6.899   4.867
 1041SOL    HW2 4023   1.246   6.798   4.928
 1042SOL     OW 4024   4.500   4.683   0.391
 1042SOL    HW1 4025   4.492   4.591   0.431
 1042SOL    HW2 4026   4.596   4.706   0.380
 1043SOL     OW 4027   4.571   7.018   6.369
 1043SOL    HW1 4028   4.625   6.934   6.372
 1043SOL    HW2 4029   4.581   0.048   6.456
 1044SOL     OW 4030   4.118   3.522   4.019
 1044SOL    HW1 4031   4.127   3.436   4.069
 1044SOL    HW2 4032   4.112   3.503   3.921
 1045SOL     OW 4033   1.942   1.637   2.763
 1045SOL    HW1 4034   1.976   1.727   2.736
 1045SOL    HW2 4035   1.963   1.620   2.859
 1046SOL     OW 4036   2.629   0.959   2.157
 1046SOL    HW1 4037   2.548   1.006   2.122
 1046SOL    HW2 4038   2.709   0.985   2.103
 1047SOL     OW 4039   0.713   6.692   2.506
 1047SOL    HW1 4040   0.636   6.753   2.524
 1047SOL    HW2 4041   0.687   6.598   2.529
 1048SOL     OW 4042   0.205   3.620   5.132
 1048SOL    HW1 4043   0.220   3.555   5.206
 1048SOL    HW2 4044   0.243   3.709   5.157
 1049SOL     OW 4045   0.557   3.946   5.635
 1049SOL    HW1 4046   0.616   3.871   5.665
 1049SOL    HW2 4047   0.554   4.016   5.706
 1050SOL     OW 4048   3.123   0.732   1.839
 1050SOL    HW1 4049   3.132   0.824   1.801
 1050SOL    HW2 4050   3.155   0.665   1.771
 1051SOL     OW 4051   5.149   3.189   2.217
 1051SOL    HW1 4052   5.177   3.282   2.196
 1051SOL    HW2 4053   5.071   3.163   2.160
 1052SOL     OW 4054   2.381   6.332   3.805
 1052SOL    HW1 4055   2.419   6.424   3.810
 1052SOL    HW2 4056   2.283   6.335   3.824
 1053SOL     OW 4057   3.055   5.876   2.981
 1053SOL    HW1 4058   3.037   5.892   3.078
 1053SOL    HW2 4059   3.097   5.785   2.970
 1054SOL     OW 4060   3.586   6.021   5.652
 1054SOL    HW1 4061   3.538   5.969   5.581
 1054SOL    HW2 4062   3.530   6.023   5.735
 1055SOL     OW 4063   3.624   4.982   4.678
 1055SOL    HW1 4064   3.693   4.918   4.713
 1055SOL    HW2 4065   3.541   4.975   4.734
 1056SOL     OW 4066   2.838   6.105   0.266
 1056SOL    HW1 4067   2.824   6.128   0.362
 1056SOL    HW2 4068   2.898   6.025   0.259
 1057SOL     OW 4069   3.688   3.944   1.227
 1057SOL    HW1 4070   3.782   3.949   1.260
 1057SOL    HW2 4071   3.635   3.883   1.285
 1058SOL     OW 4072   2.349   0.353   2.303
 1058SOL    HW1 4073   2.319   0.378   2.395
 1058SOL    HW2 4074   2.272   0.361   2.240
 1059SOL     OW 4075   3.942   0.326   0.623
 1059SOL    HW1 4076   4.002   0.298   0.698
 1059SOL    HW2 4077   3.850   0.290   0.640
 1060SOL     OW 4078   3.692   1.633   3.915
 1060SOL    HW1 4079   3.656   1.542   3.893
 1060SOL    HW2 4080   3.635   1.676   3.985
 1061SOL     OW 4081   2.687   5.264   1.233
 1061SOL    HW1 4082   2.741   5.273   1.150
 1061SOL    HW2 4083   2.595   5.231   1.210
 1062SOL     OW 4084   5.450   4.250   5.369
 1062SOL    HW1 4085   5.530   4.272   5.312
 1062SOL    HW2 4086   5.396   4.332   5.384
 1063SOL     OW 4087   3.944   2.116   6.020
 1063SOL    HW1 4088   3.950   2.026   6.064
 1063SOL    HW2 4089   3.914   2.104   5.925
 1064SOL     OW 4090   0.574   3.131   2.510
 1064SOL    HW1 4091   0.536   3.164   2.596
 1064SOL    HW2 4092   0.532   3.182   2.434
 1065SOL     OW 4093   4.032   5.819   0.344
 1065SOL    HW1 4094   4.084   5.884   0.398
 1065SOL    HW2 4095   4.095   5.756   0.298
 1066SOL     OW 4096   5.459   6.407   3.392
 1066SOL    HW1 4097   5.399   6.329   3.409
 1066SOL    HW2 4098   5.505   6.433   3.476
 1067SOL     OW 4099   3.377   4.473   1.008
 1067SOL    HW1 4100   3.398   4.529   1.088
 1067SOL    HW2 4101   3.318   4.396   1.035
 1068SOL     OW 4102   1.557   4.882   2.425
 1068SOL    HW1 4103   1.530   4.944   2.500
 1068SOL    HW2 4104   1.613   4.933   2.359
 1069SOL     OW 4105   3.880   3.941   3.177
 1069SOL    HW1 4106   3.951   4.001   3.213
 1069SOL    HW2 4107   3.856   3.968   3.084
 1070SOL     OW 4108   1.504   6.414   0.273
 1070SOL    HW1 4109   1.544   6.333   0.230
 1070SOL    HW2 4110   1.437   6.385   0.342
 1071SOL     OW 4111   4.339   5.102   3.847
 1071SOL    HW1 4112   4.266   5.164   3.817
 1071SOL    HW2 4113   4.319   5.068   3.938
 1072SOL     OW 4114   4.177   5.352   3.501
 1072SOL    HW1 4115   4.194   5.443   3.540
 1072SOL    HW2 4116   4.148   5.290   3.573
 1073SOL     OW 4117   2.957   5.622   3.992
 1073SOL    HW1 4118   2.936   5.595   3.898
 1073SOL    HW2 4119   2.943   5.720   4.003
 1074SOL     OW 4120   2.368   5.156   3.857
 1074SOL    HW1 4121   2.432   5.150   3.781
 1074SOL    HW2 4122   2.279   5.186   3.824
 1075SOL     OW 4123   1.073   4.342   2.920
 1075SOL    HW1 4124   1.121   4.356   3.006
 1075SOL    HW2 4125   1.123   4.276   2.864
 1076SOL     OW 4126   5.121   3.730   3.433
 1076SOL    HW1 4127   5.162   3.649   3.474
 1076SOL    HW2 4128   5.021   3.725   3.441
 1077SOL     OW 4129   3.799   0.690   2.091
 1077SOL    HW1 4130   3.806   0.702   2.190
 1077SOL    HW2 4131   3.878   0.731   2.047
 1078SOL     OW 4132   6.047   2.364   1.877
 1078SOL    HW1 4133   6.119   2.417   1.923
 1078SOL    HW2 4134   6.075   2.269   1.870
 1079SOL     OW 4135   1.684   5.016   3.249
 1079SOL    HW1 4136   1.654   4.977   3.336
 1079SOL    HW2 4137   1.619   4.990   3.177
 1080SOL     OW 4138   2.309   5.246   4.111
 1080SOL    HW1 4139   2.346   5.291   4.030
 1080SOL    HW2 4140   2.214   5.274   4.125
 1081SOL     OW 4141   1.368   0.392   0.354
 1081SOL    HW1 4142   1.320   0.431   0.433
 1081SOL    HW2 4143   1.302   0.353   0.291
 1082SOL     OW 4144   2.131   0.731   1.503
 1082SOL    HW1 4145   2.181   0.815   1.485
 1082SOL    HW2 4146   2.087   0.737   1.593
 1083SOL     OW 4147   3.304   3.963   1.757
 1083SOL    HW1 4148   3.313   3.864   1.773
 1083SOL    HW2 4149   3.395   4.003   1.747
 1084SOL     OW 4150   5.819   4.445   1.604
 1084SOL    HW1 4151   5.909   4.475   1.635
 1084SOL    HW2 4152   5.750   4.511   1.634
 1085SOL     OW 4153   1.619   6.017   3.654
 1085SOL    HW1 4154   1.581   6.069   3.731
 1085SOL    HW2 4155   1.716   6.002   3.669
 1086SOL     OW 4156   2.858   6.700   2.317
 1086SOL    HW1 4157   2.957   6.710   2.325
 1086SOL    HW2 4158   2.835   6.602   2.313
 1087SOL     OW 4159   3.709   3.125   5.324
 1087SOL    HW1 4160   3.692   3.064   5.246
 1087SOL    HW2 4161   3.663   3.089   5.405
 1088SOL     OW 4162   6.701   5.240   2.406
 1088SOL    HW1 4163   6.671   5.161   2.353
 1088SOL    HW2 4164   6.680   5.224   2.503
 1089SOL     OW 4165   6.857   0.529   3.660
 1089SOL    HW1 4166   6.873   0.615   3.708
 1089SOL    HW2 4167   6.769   0.533   3.613
 1090SOL     OW 4168   3.278   1.989   6.651
 1090SOL    HW1 4169   3.330   1.969   6.734
 1090SOL    HW2 4170   3.180   1.990   6.672
 1091SOL     OW 4171   1.665   1.683   5.589
 1091SOL    HW1 4172   1.739   1.641   5.642
 1091SOL    HW2 4173   1.610   1.741   5.649
 1092SOL     OW 4174   3.117   4.655   0.841
 1092SOL    HW1 4175   3.122   4.754   0.832
 1092SOL    HW2 4176   3.196   4.613   0.796
 1093SOL     OW 4177   0.266   1.960   1.434
 1093SOL    HW1 4178   0.236   2.037   1.379
 1093SOL    HW2 4179   0.198   1.941   1.505
 1094SOL     OW 4180   0.584   5.766   2.717
 1094SOL    HW1 4181   0.584   5.724   2.808
 1094SOL    HW2 4182   0.598   5.696   2.648
 1095SOL     OW 4183   1.778   2.939   5.291
 1095SOL    HW1 4184   1.799   2.990   5.208
 1095SOL    HW2 4185   1.852   2.875   5.310
 1096SOL     OW 4186   3.633   2.826   2.081
 1096SOL    HW1 4187   3.700   2.756   2.056
 1096SOL    HW2 4188   3.583   2.855   2.000
 1097SOL     OW 4189   2.840   5.475   5.556
 1097SOL    HW1 4190   2.935   5.464   5.529
 1097SOL    HW2 4191   2.830   5.452   5.653
 1098SOL     OW 4192   2.813   0.549   2.677
 1098SOL    HW1 4193   2.833   0.547   2.579
 1098SOL    HW2 4194   2.789   0.643   2.704
 1099SOL     OW 4195   3.360   0.687   2.325
 1099SOL    HW1 4196   3.368   0.659   2.229
 1099SOL    HW2 4197   3.264   0.704   2.347
 1100SOL     OW 4198   0.158   0.435   0.623
 1100SOL    HW1 4199   0.058   0.442   0.626
 1100SOL    HW2 4200   0.192   0.478   0.539
 1101SOL     OW 4201   5.958   4.366   1.105
 1101SOL    HW1 4202   6.026   4.411   1.162
 1101SOL    HW2 4203   6.000   4.339   1.019
 1102SOL     OW 4204   6.665   4.177   4.271
 1102SOL    HW1 4205   6.729   4.114   4.316
 1102SOL    HW2 4206   6.572   4.149   4.291
 1103SOL     OW 4207   0.749   2.689   6.665
 1103SOL    HW1 4208   0.827   2.626   6.668
 1103SOL    HW2 4209   0.769   2.764   6.603
 1104SOL     OW 4210   3.299   5.289   5.259
 1104SOL    HW1 4211   3.228   5.221   5.240
 1104SOL    HW2 4212   3.353   5.260   5.338
 1105SOL     OW 4213   3.976   6.004   0.696
 1105SOL    HW1 4214   4.005   6.012   0.791
 1105SOL    HW2 4215   3.912   5.928   0.686
 1106SOL     OW 4216   0.796   2.397   6.369
 1106SOL    HW1 4217   0.779   2.459   6.293
 1106SOL    HW2 4218   0.887   2.356   6.359
 1107SOL     OW 4219   6.374   6.628   1.624
 1107SOL    HW1 4220   6.343   6.534   1.636
 1107SOL    HW2 4221   6.345   6.662   1.534
 1108SOL     OW 4222   1.297   0.981   6.990
 1108SOL    HW1 4223   1.261   0.909   6.931
 1108SOL    HW2 4224   1.237   1.061   6.985
 1109SOL     OW 4225   4.253   1.634   3.091
 1109SOL    HW1 4226   4.250   1.595   3.183
 1109SOL    HW2 4227   4.237   1.732   3.096
 1110SOL     OW 4228   3.742   3.665   2.957
 1110SOL    HW1 4229   3.663   3.635   3.011
 1110SOL    HW2 4230   3.727   3.642   2.861
 1111SOL     OW 4231   4.006   0.377   6.732
 1111SOL    HW1 4232   4.001   0.445   6.805
 1111SOL    HW2 4233   3.921   0.377   6.681
 1112SOL     OW 4234   0.897   1.241   2.388
 1112SOL    HW1 4235   0.843   1.158   2.404
 1112SOL    HW2 4236   0.872   1.310   2.456
 1113SOL     OW 4237   0.795   5.081   2.042
 1113SOL    HW1 4238   0.730   5.047   2.111
 1113SOL    HW2 4239   0.869   5.130   2.088
 1114SOL     OW 4240   6.020   0.734   5.741
 1114SOL    HW1 4241   5.943   0.685   5.783
 1114SOL    HW2 4242   6.000   0.832   5.738
 1115SOL     OW 4243   1.770   5.131   0.098
 1115SOL    HW1 4244   1.792   5.078   0.180
 1115SOL    HW2 4245   1.793   5.227   0.114
 1116SOL     OW 4246   3.378   6.705   6.056
 1116SOL    HW1 4247   3.436   6.625   6.043
 1116SOL    HW2 4248   3.331   6.699   6.144
 1117SOL     OW 4249   3.111   2.517   0.589
 1117SOL    HW1 4250   3.175   2.593   0.599
 1117SOL    HW2 4251   3.157   2.439   0.548
 1118SOL     OW 4252   2.062   2.177   1.269
 1118SOL    HW1 4253   2.116   2.248   1.315
 1118SOL    HW2 4254   1.983   2.154   1.325
 1119SOL     OW 4255   3.336   3.429   3.631
 1119SOL    HW1 4256   3.271   3.423   3.706
 1119SOL    HW2 4257   3.319   3.355   3.566
 1120SOL     OW 4258   3.144   1.447   3.389
 1120SOL    HW1 4259   3.069   1.507   3.363
 1120SOL    HW2 4260   3.231   1.494   3.374
 1121SOL     OW 4261   4.868   4.050   2.851
 1121SOL    HW1 4262   4.839   3.957   2.827
 1121SOL    HW2 4263   4.882   4.104   2.767
 1122SOL     OW 4264   4.747   4.903   6.684
 1122SOL    HW1 4265   4.719   4.982   6.629
 1122SOL    HW2 4266   4.825   4.928   6.741
 1123SOL     OW 4267   4.082   0.513   2.035
 1123SOL    HW1 4268   4.086   0.610   2.058
 1123SOL    HW2 4269   4.027   0.464   2.104
 1124SOL     OW 4270   2.634   4.915   3.349
 1124SOL    HW1 4271   2.646   4.931   3.447
 1124SOL    HW2 4272   2.547   4.869   3.333
 1125SOL     OW 4273   3.376   4.519   5.624
 1125SOL    HW1 4274   3.336   4.441   5.576
 1125SOL    HW2 4275   3.421   4.488   5.708
 1126SOL     OW 4276   6.189   0.816   2.036
 1126SOL    HW1 4277   6.222   0.857   2.121
 1126SOL    HW2 4278   6.148   0.886   1.979
 1127SOL     OW 4279   2.914   5.396   5.956
 1127SOL    HW1 4280   2.837   5.355   5.908
 1127SOL    HW2 4281   3.000   5.370   5.912
 1128SOL     OW 4282   2.612   1.640   5.533
 1128SOL    HW1 4283   2.571   1.706   5.470
 1128SOL    HW2 4284   2.710   1.634   5.516
 1129SOL     OW 4285   4.159   5.894   6.575
 1129SOL    HW1 4286   4.086   5.827   6.567
 1129SOL    HW2 4287   4.179   5.910   6.672
 1130SOL     OW 4288   1.261   4.778   5.363
 1130SOL    HW1 4289   1.267   4.716   5.441
 1130SOL    HW2 4290   1.177   4.759   5.312
 1131SOL     OW 4291   1.312   4.059   5.590
 1131SOL    HW1 4292   1.401   4.030   5.625
 1131SOL    HW2 4293   1.273   4.128   5.651
 1132SOL     OW 4294   5.188   6.570   4.585
 1132SOL    HW1 4295   5.131   6.553   4.505
 1132SOL    HW2 4296   5.163   6.658   4.626
 1133SOL     OW 4297   0.147   2.076   0.184
 1133SOL    HW1 4298   0.051   2.073   0.158
 1133SOL    HW2 4299   0.198   2.009   0.129
 1134SOL     OW 4300   0.013   3.665   6.002
 1134SOL    HW1 4301   0.082   3.615   5.950
 1134SOL    HW2 4302   6.959   3.603   6.031
 1135SOL     OW 4303   6.791   1.913   3.948
 1135SOL    HW1 4304   6.886   1.886   3.966
 1135SOL    HW2 4305   6.777   1.922   3.850
 1136SOL     OW 4306   3.851   5.558   3.894
 1136SOL    HW1 4307   3.800   5.642   3.914
 1136SOL    HW2 4308   3.787   5.484   3.874
 1137SOL     OW 4309   0.691   0.454   6.916
 1137SOL    HW1 4310   0.774   0.505   6.895
 1137SOL    HW2 4311   0.655   0.484   7.005
 1138SOL     OW 4312   0.753   2.449   5.879
 1138SOL    HW1 4313   0.674   2.477   5.933
 1138SOL    HW2 4314   0.831   2.432   5.939
 1139SOL     OW 4315   6.832   0.265   2.763
 1139SOL    HW1 4316   6.926   0.297   2.769
 1139SOL    HW2 4317   6.829   0.181   2.710
 1140SOL     OW 4318   4.443   2.117   3.307
 1140SOL    HW1 4319   4.449   2.081   3.213
 1140SOL    HW2 4320   4.383   2.197   3.308
 1141SOL     OW 4321   0.485   0.360   6.100
 1141SOL    HW1 4322   0.564   0.312   6.063
 1141SOL    HW2 4323   0.514   0.450   6.134
 1142SOL     OW 4324   5.746   6.915   5.945
 1142SOL    HW1 4325   5.801   6.873   5.873
 1142SOL    HW2 4326   5.661   6.863   5.957
 1143SOL     OW 4327   5.624   2.397   1.457
 1143SOL    HW1 4328   5.670   2.361   1.376
 1143SOL    HW2 4329   5.644   2.338   1.536
 1144SOL     OW 4330   0.846   6.670   4.447
 1144SOL    HW1 4331   0.935   6.707   4.424
 1144SOL    HW2 4332   0.842   6.650   4.545
 1145SOL     OW 4333   3.118   5.136   5.108
 1145SOL    HW1 4334   3.066   5.143   5.023
 1145SOL    HW2 4335   3.171   5.052   5.108
 1146SOL     OW 4336   5.716   1.903   2.232
 1146SOL    HW1 4337   5.809   1.935   2.214
 1146SOL    HW2 4338   5.651   1.976   2.210
 1147SOL     OW 4339   6.638   4.098   2.467
 1147SOL    HW1 4340   6.597   4.145   2.546
 1147SOL    HW2 4341   6.568   4.083   2.398
 1148SOL     OW 4342   6.006   6.613   5.973
 1148SOL    HW1 4343   6.077   6.644   6.035
 1148SOL    HW2 4344   5.998   6.677   5.896
 1149SOL     OW 4345   4.904   3.377   2.440
 1149SOL    HW1 4346   4.995   3.388   2.478
 1149SOL    HW2 4347   4.903   3.411   2.345
 1150SOL     OW 4348   2.866   5.825   4.913
 1150SOL    HW1 4349   2.777   5.827   4.958
 1150SOL    HW2 4350   2.892   5.730   4.895
 1151SOL     OW 4351   1.764   5.516   0.723
 1151SOL    HW1 4352   1.723   5.594   0.770
 1151SOL    HW2 4353   1.844   5.485   0.773
 1152SOL     OW 4354   6.509   0.786   3.623
 1152SOL    HW1 4355   6.419   0.798   3.580
 1152SOL    HW2 4356   6.501   0.727   3.703
 1153SOL     OW 4357   1.366   4.404   2.108
 1153SOL    HW1 4358   1.301   4.480   2.107
 1153SOL    HW2 4359   1.401   4.391   2.200
 1154SOL     OW 4360   1.727   3.457   2.047
 1154SOL    HW1 4361   1.688   3.407   2.125
 1154SOL    HW2 4362   1.759   3.547   2.079
 1155SOL     OW 4363   4.944   0.751   2.137
 1155SOL    HW1 4364   4.844   0.751   2.131
 1155SOL    HW2 4365   4.975   0.837   2.178
 1156SOL     OW 4366   2.905   1.321   4.013
 1156SOL    HW1 4367   2.941   1.322   4.106
 1156SOL    HW2 4368   2.853   1.236   3.999
 1157SOL     OW 4369   2.113   3.488   3.384
 1157SOL    HW1 4370   2.041   3.438   3.335
 1157SOL    HW2 4371   2.133   3.574   3.336
 1158SOL     OW 4372   5.083   5.531   5.114
 1158SOL    HW1 4373   4.986   5.555   5.103
 1158SOL    HW2 4374   5.095   5.433   5.097
 1159SOL     OW 4375   6.175   3.906   3.235
 1159SOL    HW1 4376   6.205   3.825   3.285
 1159SOL    HW2 4377   6.111   3.959   3.292
 1160SOL     OW 4378   3.008   2.428   1.379
 1160SOL    HW1 4379   3.072   2.435   1.302
 1160SOL    HW2 4380   3.045   2.365   1.447
 1161SOL     OW 4381   4.059   1.221   2.981
 1161SOL    HW1 4382   4.044   1.236   3.079
 1161SOL    HW2 4383   4.061   1.123   2.962
 1162SOL     OW 4384   3.493   5.004   1.002
 1162SOL    HW1 4385   3.521   5.099   0.988
 1162SOL    HW2 4386   3.399   4.992   0.970
 1163SOL     OW 4387   4.774   6.458   3.720
 1163SOL    HW1 4388   4.872   6.455   3.741
 1163SOL    HW2 4389   4.743   6.553   3.719
 1164SOL     OW 4390   6.370   4.353   4.457
 1164SOL    HW1 4391   6.375   4.423   4.385
 1164SOL    HW2 4392   6.279   4.311   4.455
 1165SOL     OW 4393   0.102   5.123   2.373
 1165SOL    HW1 4394   0.086   5.167   2.285
 1165SOL    HW2 4395   0.145   5.188   2.436
 1166SOL     OW 4396   3.401   1.203   5.723
 1166SOL    HW1 4397   3.463   1.195   5.644
 1166SOL    HW2 4398   3.334   1.129   5.719
 1167SOL     OW 4399   4.227   1.726   5.583
 1167SOL    HW1 4400   4.269   1.649   5.632
 1167SOL    HW2 4401   4.290   1.804   5.585
 1168SOL     OW 4402   5.578   1.378   4.213
 1168SOL    HW1 4403   5.505   1.444   4.229
 1168SOL    HW2 4404   5.663   1.413   4.254
 1169SOL     OW 4405   2.231   2.563   0.964
 1169SOL    HW1 4406   2.298   2.557   1.038
 1169SOL    HW2 4407   2.278   2.560   0.876
 1170SOL     OW 4408   2.347   1.143   2.203
 1170SOL    HW1 4409   2.249   1.162   2.207
 1170SOL    HW2 4410   2.390   1.205   2.138
 1171SOL     OW 4411   4.623   0.692   0.876
 1171SOL    HW1 4412   4.536   0.653   0.906
 1171SOL    HW2 4413   4.642   0.661   0.783
 1172SOL     OW 4414   3.710   3.384   5.756
 1172SOL    HW1 4415   3.645   3.309   5.759
 1172SOL    HW2 4416   3.801   3.348   5.735
 1173SOL     OW 4417   5.357   5.913   7.004
 1173SOL    HW1 4418   5.423   5.863   6.948
 1173SOL    HW2 4419   5.270   5.919   6.955
 1174SOL     OW 4420   3.863   6.317   6.379
 1174SOL    HW1 4421   3.834   6.291   6.287
 1174SOL    HW2 4422   3.914   6.241   6.420
 1175SOL     OW 4423   0.004   5.264   5.143
 1175SOL    HW1 4424   6.950   5.203   5.112
 1175SOL    HW2 4425   0.093   5.229   5.113
 1176SOL     OW 4426   6.180   3.052   1.300
 1176SOL    HW1 4427   6.143   3.102   1.221
 1176SOL    HW2 4428   6.179   2.954   1.280
 1177SOL     OW 4429   6.957   3.055   5.147
 1177SOL    HW1 4430   6.860   3.079   5.146
 1177SOL    HW2 4431   6.968   2.961   5.114
 1178SOL     OW 4432   4.370   4.626   2.164
 1178SOL    HW1 4433   4.307   4.583   2.099
 1178SOL    HW2 4434   4.447   4.565   2.180
 1179SOL     OW 4435   1.472   5.417   6.348
 1179SOL    HW1 4436   1.415   5.335   6.348
 1179SOL    HW2 4437   1.437   5.481   6.279
 1180SOL     OW 4438   2.265   1.241   4.090
 1180SOL    HW1 4439   2.351   1.195   4.113
 1180SOL    HW2 4440   2.266   1.334   4.127
 1181SOL     OW 4441   0.900   4.150   1.841
 1181SOL    HW1 4442   0.981   4.200   1.872
 1181SOL    HW2 4443   0.833   4.214   1.803
 1182SOL     OW 4444   6.625   3.783   3.983
 1182SOL    HW1 4445   6.558   3.844   3.941
 1182SOL    HW2 4446   6.629   3.697   3.931
 1183SOL     OW 4447   4.128   6.039   0.486
 1183SOL    HW1 4448   4.173   6.128   0.487
 1183SOL    HW2 4449   4.071   6.029   0.568
 1184SOL     OW 4450   4.265   3.637   6.606
 1184SOL    HW1 4451   4.363   3.658   6.602
 1184SOL    HW2 4452   4.238   3.591   6.522
 1185SOL     OW 4453   3.539   1.330   6.188
 1185SOL    HW1 4454   3.621   1.276   6.206
 1185SOL    HW2 4455   3.560   1.427   6.197
 1186SOL     OW 4456   4.447   6.473   5.187
 1186SOL    HW1 4457   4.367   6.463   5.247
 1186SOL    HW2 4458   4.521   6.414   5.220
 1187SOL     OW 4459   0.641   2.479   4.775
 1187SOL    HW1 4460   0.735   2.513   4.779
 1187SOL    HW2 4461   0.625   2.415   4.850
 1188SOL     OW 4462   2.528   1.079   5.530
 1188SOL    HW1 4463   2.516   1.097   5.432
 1188SOL    HW2 4464   2.530   1.166   5.579
 1189SOL     OW 4465   0.908   1.357   1.448
 1189SOL    HW1 4466   0.852   1.417   1.505
 1189SOL    HW2 4467   0.929   1.403   1.362
 1190SOL     OW 4468   2.984   6.288   1.374
 1190SOL    HW1 4469   3.009   6.384   1.386
 1190SOL    HW2 4470   3.036   6.250   1.298
 1191SOL     OW 4471   1.659   3.790   1.759
 1191SOL    HW1 4472   1.574   3.738   1.747
 1191SOL    HW2 4473   1.655   3.840   1.846
 1192SOL     OW 4474   3.326   5.710   2.244
 1192SOL    HW1 4475   3.375   5.640   2.192
 1192SOL    HW2 4476   3.229   5.686   2.247
 1193SOL     OW 4477   3.250   2.131   3.973
 1193SOL    HW1 4478   3.286   2.222   3.991
 1193SOL    HW2 4479   3.184   2.136   3.898
 1194SOL     OW 4480   6.345   2.488   2.373
 1194SOL    HW1 4481   6.295   2.573   2.356
 1194SOL    HW2 4482   6.405   2.469   2.296
 1195SOL     OW 4483   4.320   0.675   7.006
 1195SOL    HW1 4484   4.281   0.726   6.929
 1195SOL    HW2 4485   4.418   0.661   6.990
 1196SOL     OW 4486   1.203   5.451   3.535
 1196SOL    HW1 4487   1.180   5.520   3.604
 1196SOL    HW2 4488   1.269   5.386   3.573
 1197SOL     OW 4489   3.732   5.066   6.973
 1197SOL    HW1 4490   3.828   5.056   6.999
 1197SOL    HW2 4491   3.714   5.016   6.888
 1198SOL     OW 4492   3.617   1.496   3.303
 1198SOL    HW1 4493   3.624   1.413   3.357
 1198SOL    HW2 4494   3.700   1.550   3.314
 1199SOL     OW 4495   3.217   3.945   3.961
 1199SOL    HW1 4496   3.288   3.884   3.927
 1199SOL    HW2 4497   3.129   3.897   3.963
 1200SOL     OW 4498   4.612   3.985   1.208
 1200SOL    HW1 4499   4.568   4.044   1.276
 1200SOL    HW2 4500   4.685   4.035   1.162
 1201SOL     OW 4501   1.885   1.433   5.385
 1201SOL    HW1 4502   1.920   1.453   5.293
 1201SOL    HW2 4503   1.950   1.469   5.453
 1202SOL     OW 4504   6.080   6.758   4.286
 1202SOL    HW1 4505   5.987   6.780   4.259
 1202SOL    HW2 4506   6.096   6.788   4.380
 1203SOL     OW 4507   5.492   0.248   1.587
 1203SOL    HW1 4508   5.428   0.226   1.660
 1203SOL    HW2 4509   5.523   0.163   1.543
 1204SOL     OW 4510   2.700   0.520   0.146
 1204SOL    HW1 4511   2.686   0.615   0.173
 1204SOL    HW2 4512   2.645   0.460   0.204
 1205SOL     OW 4513   1.064   2.662   6.445
 1205SOL    HW1 4514   1.102   2.753   6.431
 1205SOL    HW2 4515   1.138   2.595   6.451
 1206SOL     OW 4516   6.294   1.784   5.564
 1206SOL    HW1 4517   6.336   1.720   5.500
 1206SOL    HW2 4518   6.341   1.779   5.652
 1207SOL     OW 4519   6.249   6.046   5.823
 1207SOL    HW1 4520   6.344   6.063   5.849
 1207SOL    HW2 4521   6.243   5.961   5.771
 1208SOL     OW 4522   3.312   4.115   3.254
 1208SOL    HW1 4523   3.338   4.142   3.162
 1208SOL    HW2 4524   3.372   4.160   3.320
 1209SOL     OW 4525   6.870   3.222   4.842
 1209SOL    HW1 4526   6.820   3.300   4.879
 1209SOL    HW2 4527   6.932   3.252   4.769
 1210SOL     OW 4528   2.360   0.260   4.066
 1210SOL    HW1 4529   2.397   0.295   3.980
 1210SOL    HW2 4530   2.291   0.324   4.101
 1211SOL     OW 4531   6.750   3.797   3.357
 1211SOL    HW1 4532   6.674   3.861   3.371
 1211SOL    HW2 4533   6.786   3.767   3.446
 1212SOL     OW 4534   1.019   3.829   2.689
 1212SOL    HW1 4535   0.977   3.856   2.776
 1212SOL    HW2 4536   1.062   3.740   2.699
 1213SOL     OW 4537   6.488   3.659   5.133
 1213SOL    HW1 4538   6.500   3.589   5.203
 1213SOL    HW2 4539   6.573   3.671   5.082
 1214SOL     OW 4540   0.428   1.631   0.517
 1214SOL    HW1 4541   0.379   1.709   0.555
 1214SOL    HW2 4542   0.479   1.660   0.436
 1215SOL     OW 4543   0.728   0.247   1.675
 1215SOL    HW1 4544   0.690   0.156   1.662
 1215SOL    HW2 4545   0.801   0.243   1.744
 1216SOL     OW 4546   1.897   6.963   0.721
 1216SOL    HW1 4547   1.855   0.035   0.711
 1216SOL    HW2 4548   1.918   6.927   0.630
 1217SOL     OW 4549   1.523   2.710   3.392
 1217SOL    HW1 4550   1.515   2.751   3.301
 1217SOL    HW2 4551   1.433   2.711   3.437
 1218SOL     OW 4552   6.830   4.534   3.853
 1218SOL    HW1 4553   6.925   4.561   3.843
 1218SOL    HW2 4554   6.786   4.589   3.923
 1219SOL     OW 4555   1.163   5.916   2.771
 1219SOL    HW1 4556   1.221   5.896   2.692
 1219SOL    HW2 4557   1.134   6.011   2.768
 1220SOL     OW 4558   6.493   4.595   3.028
 1220SOL    HW1 4559   6.504   4.590   2.929
 1220SOL    HW2 4560   6.494   4.503   3.067
 1221SOL     OW 4561   4.561   5.013   0.128
 1221SOL    HW1 4562   4.575   5.086   0.195
 1221SOL    HW2 4563   4.575   5.049   0.036
 1222SOL     OW 4564   6.845   5.133   1.045
 1222SOL    HW1 4565   6.810   5.095   1.130
 1222SOL    HW2 4566   6.789   5.210   1.017
 1223SOL     OW 4567   0.808   4.131   5.193
 1223SOL    HW1 4568   0.873   4.089   5.256
 1223SOL    HW2 4569   0.761   4.207   5.238
 1224SOL     OW 4570   4.016   5.292   1.762
 1224SOL    HW1 4571   4.055   5.382   1.739
 1224SOL    HW2 4572   3.982   5.248   1.679
 1225SOL     OW 4573   5.142   1.557   6.644
 1225SOL    HW1 4574   5.044   1.536   6.637
 1225SOL    HW2 4575   5.157   1.654   6.626
 1226SOL     OW 4576   6.031   5.605   0.930
 1226SOL    HW1 4577   6.061   5.697   0.907
 1226SOL    HW2 4578   5.965   5.574   0.861
 1227SOL     OW 4579   6.281   4.485   0.648
 1227SOL    HW1 4580   6.227   4.524   0.573
 1227SOL    HW2 4581   6.363   4.443   0.610
 1228SOL     OW 4582   4.055   3.768   5.187
 1228SOL    HW1 4583   4.066   3.748   5.089
 1228SOL    HW2 4584   4.097   3.695   5.240
 1229SOL     OW 4585   1.740   5.449   1.955
 1229SOL    HW1 4586   1.800   5.373   1.981
 1229SOL    HW2 4587   1.793   5.535   1.955
 1230SOL     OW 4588   5.613   4.586   0.403
 1230SOL    HW1 4589   5.544   4.658   0.400
 1230SOL    HW2 4590   5.596   4.525   0.480
 1231SOL     OW 4591   2.226   0.756   1.054
 1231SOL    HW1 4592   2.300   0.822   1.065
 1231SOL    HW2 4593   2.152   0.796   1.000
 1232SOL     OW 4594   2.439   2.083   5.846
 1232SOL    HW1 4595   2.516   2.042   5.796
 1232SOL    HW2 4596   2.367   2.014   5.858
 1233SOL     OW 4597   0.206   5.119   5.066
 1233SOL    HW1 4598   0.305   5.120   5.051
 1233SOL    HW2 4599   0.163   5.069   4.991
 1234SOL     OW 4600   6.960   4.185   5.225
 1234SOL    HW1 4601   6.960   4.271   5.276
 1234SOL    HW2 4602   6.888   4.187   5.156
 1235SOL     OW 4603   6.664   5.080   0.049
 1235SOL    HW1 4604   6.627   4.992   0.018
 1235SOL    HW2 4605   6.648   5.090   0.147
 1236SOL     OW 4606   0.209   1.094   2.878
 1236SOL    HW1 4607   0.217   1.194   2.875
 1236SOL    HW2 4608   0.121   1.067   2.840
 1237SOL     OW 4609   0.543   0.368   5.774
 1237SOL    HW1 4610   0.491   0.452   5.789
 1237SOL    HW2 4611   0.483   0.296   5.741
 1238SOL     OW 4612   0.370   0.555   4.123
 1238SOL    HW1 4613   0.387   0.652   4.105
 1238SOL    HW2 4614   0.276   0.543   4.155
 1239SOL     OW 4615   4.345   5.259   3.261
 1239SOL    HW1 4616   4.370   5.167   3.230
 1239SOL    HW2 4617   4.322   5.256   3.358
 1240SOL     OW 4618   0.844   3.948   2.020
 1240SOL    HW1 4619   0.859   4.030   1.964
 1240SOL    HW2 4620   0.747   3.926   2.020
 1241SOL     OW 4621   3.252   5.773   6.114
 1241SOL    HW1 4622   3.256   5.822   6.201
 1241SOL    HW2 4623   3.159   5.739   6.099
 1242SOL     OW 4624   2.499   5.715   0.557
 1242SOL    HW1 4625   2.543   5.736   0.470
 1242SOL    HW2 4626   2.424   5.651   0.542
 1243SOL     OW 4627   0.735   4.500   4.204
 1243SOL    HW1 4628   0.833   4.513   4.187
 1243SOL    HW2 4629   0.702   4.571   4.266
 1244SOL     OW 4630   6.063   6.485   4.897
 1244SOL    HW1 4631   6.139   6.544   4.922
 1244SOL    HW2 4632   5.980   6.517   4.942
 1245SOL     OW 4633   4.212   6.862   1.635
 1245SOL    HW1 4634   4.256   6.882   1.723
 1245SOL    HW2 4635   4.268   6.900   1.561
 1246SOL     OW 4636   5.169   1.984   2.489
 1246SOL    HW1 4637   5.144   2.056   2.554
 1246SOL    HW2 4638   5.180   2.024   2.398
 1247SOL     OW 4639   4.531   6.193   2.918
 1247SOL    HW1 4640   4.570   6.178   3.008
 1247SOL    HW2 4641   4.592   6.156   2.848
 1248SOL     OW 4642   0.168   0.404   4.825
 1248SOL    HW1 4643   0.257   0.436   4.795
 1248SOL    HW2 4644   0.096   0.457   4.780
 1249SOL     OW 4645   6.362   6.966   0.459
 1249SOL    HW1 4646   6.364   0.046   0.448
 1249SOL    HW2 4647   6.448   6.926   0.427
 1250SOL     OW 4648   0.446   4.144   4.936
 1250SOL    HW1 4649   0.355   4.173   4.967
 1250SOL    HW2 4650   0.439   4.055   4.892
 1251SOL     OW 4651   1.750   0.196   3.248
 1251SOL    HW1 4652   1.803   0.128   3.198
 1251SOL    HW2 4653   1.721   0.157   3.336
 1252SOL     OW 4654   2.889   4.927   6.253
 1252SOL    HW1 4655   2.839   4.970   6.328
 1252SOL    HW2 4656   2.827   4.868   6.200
 1253SOL     OW 4657   3.205   5.076   0.493
 1253SOL    HW1 4658   3.231   4.980   0.506
 1253SOL    HW2 4659   3.194   5.120   0.582
 1254SOL     OW 4660   6.386   1.025   4.042
 1254SOL    HW1 4661   6.301   0.975   4.052
 1254SOL    HW2 4662   6.391   1.099   4.110
 1255SOL     OW 4663   5.606   1.922   6.713
 1255SOL    HW1 4664   5.657   1.906   6.628
 1255SOL    HW2 4665   5.528   1.860   6.716
 1256SOL     OW 4666   6.562   6.344   6.206
 1256SOL    HW1 4667   6.603   6.312   6.120
 1256SOL    HW2 4668   6.472   6.382   6.188
 1257SOL     OW 4669   6.934   6.239   2.166
 1257SOL    HW1 4670   6.845   6.236   2.121
 1257SOL    HW2 4671   6.964   6.146   2.188
 1258SOL     OW 4672   4.880   5.383   6.408
 1258SOL    HW1 4673   4.870   5.461   6.470
 1258SOL    HW2 4674   4.923   5.307   6.456
 1259SOL     OW 4675   6.059   6.868   4.941
 1259SOL    HW1 4676   6.084   6.819   5.024
 1259SOL    HW2 4677   6.018   6.956   4.965
 1260SOL     OW 4678   3.272   0.558   0.864
 1260SOL    HW1 4679   3.313   0.496   0.798
 1260SOL    HW2 4680   3.317   0.546   0.953
 1261SOL     OW 4681   0.961   3.851   5.155
 1261SOL    HW1 4682   0.890   3.890   5.096
 1261SOL    HW2 4683   0.977   3.911   5.233
 1262SOL     OW 4684   4.821   6.725   0.388
 1262SOL    HW1 4685   4.813   6.651   0.455
 1262SOL    HW2 4686   4.738   6.780   0.389
 1263SOL     OW 4687   6.895   1.280   1.054
 1263SOL    HW1 4688   6.901   1.235   1.143
 1263SOL    HW2 4689   6.807   1.326   1.046
 1264SOL     OW 4690   5.785   2.568   4.789
 1264SOL    HW1 4691   5.734   2.590   4.872
 1264SOL    HW2 4692   5.746   2.487   4.746
 1265SOL     OW 4693   5.956   5.995   3.823
 1265SOL    HW1 4694   5.935   5.945   3.907
 1265SOL    HW2 4695   5.949   6.093   3.840
 1266SOL     OW 4696   2.383   0.977   4.313
 1266SOL    HW1 4697   2.320   0.962   4.389
 1266SOL    HW2 4698   2.414   1.072   4.314
 1267SOL     OW 4699   6.957   4.591   1.966
 1267SOL    HW1 4700   0.009   4.662   1.966
 1267SOL    HW2 4701   7.001   4.501   1.967
 1268SOL     OW 4702   6.412   4.258   6.326
 1268SOL    HW1 4703   6.381   4.166   6.348
 1268SOL    HW2 4704   6.419   4.268   6.227
 1269SOL     OW 4705   1.325   3.665   5.697
 1269SOL    HW1 4706   1.399   3.683   5.631
 1269SOL    HW2 4707   1.260   3.600   5.657
 1270SOL     OW 4708   1.344   2.522   3.672
 1270SOL    HW1 4709   1.373   2.484   3.584
 1270SOL    HW2 4710   1.266   2.471   3.707
 1271SOL     OW 4711   5.069   4.036   3.022
 1271SOL    HW1 4712   4.992   4.042   2.959
 1271SOL    HW2 4713   5.035   4.015   3.114
 1272SOL     OW 4714   5.669   6.883   0.870
 1272SOL    HW1 4715   5.752   6.874   0.815
 1272SOL    HW2 4716   5.641   6.793   0.904
 1273SOL     OW 4717   2.591   6.235   4.155
 1273SOL    HW1 4718   2.537   6.237   4.239
 1273SOL    HW2 4719   2.540   6.188   4.084
 1274SOL     OW 4720   5.793   2.271   1.653
 1274SOL    HW1 4721   5.825   2.177   1.649
 1274SOL    HW2 4722   5.746   2.287   1.740
 1275SOL     OW 4723   3.591   1.231   3.484
 1275SOL    HW1 4724   3.592   1.132   3.469
 1275SOL    HW2 4725   3.505   1.258   3.528
 1276SOL     OW 4726   5.045   6.523   3.583
 1276SOL    HW1 4727   4.988   6.567   3.513
 1276SOL    HW2 4728   5.019   6.427   3.591
 1277SOL     OW 4729   0.536   1.916   4.560
 1277SOL    HW1 4730   0.627   1.921   4.603
 1277SOL    HW2 4731   0.515   2.004   4.517
 1278SOL     OW 4732   2.760   1.485   4.876
 1278SOL    HW1 4733   2.728   1.563   4.822
 1278SOL    HW2 4734   2.760   1.508   4.973
 1279SOL     OW 4735   2.164   5.149   0.654
 1279SOL    HW1 4736   2.192   5.053   0.644
 1279SOL    HW2 4737   2.077   5.164   0.607
 1280SOL     OW 4738   0.777   6.617   2.869
 1280SOL    HW1 4739   0.770   6.621   2.969
 1280SOL    HW2 4740   0.801   6.524   2.841
 1281SOL     OW 4741   1.231   6.569   4.214
 1281SOL    HW1 4742   1.173   6.492   4.242
 1281SOL    HW2 4743   1.272   6.549   4.125
 1282SOL     OW 4744   1.724   6.894   2.666
 1282SOL    HW1 4745   1.774   6.890   2.752
 1282SOL    HW2 4746   1.774   6.844   2.596
 1283SOL     OW 4747   5.566   4.606   5.383
 1283SOL    HW1 4748   5.585   4.701   5.358
 1283SOL    HW2 4749   5.635   4.546   5.344
 1284SOL     OW 4750   2.822   2.258   2.869
 1284SOL    HW1 4751   2.852   2.202   2.947
 1284SOL    HW2 4752   2.870   2.227   2.787
 1285SOL     OW 4753   6.096   2.334   5.892
 1285SOL    HW1 4754   6.132   2.421   5.926
 1285SOL    HW2 4755   6.000   2.344   5.867
 1286SOL     OW 4756   5.259   5.748   0.922
 1286SOL    HW1 4757   5.349   5.776   0.957
 1286SOL    HW2 4758   5.226   5.670   0.974
 1287SOL     OW 4759   5.925   3.353   6.099
 1287SOL    HW1 4760   5.877   3.298   6.030
 1287SOL    HW2 4761   5.876   3.439   6.112
 1288SOL     OW 4762   6.936   3.094   3.112
 1288SOL    HW1 4763   6.858   3.065   3.167
 1288SOL    HW2 4764   7.007   3.024   3.113
 1289SOL     OW 4765   0.359   4.917   3.130
 1289SOL    HW1 4766   0.292   4.876   3.191
 1289SOL    HW2 4767   0.439   4.946   3.183
 1290SOL     OW 4768   6.340   0.161   1.946
 1290SOL    HW1 4769   6.255   0.110   1.963
 1290SOL    HW2 4770   6.417   0.097   1.942
 1291SOL     OW 4771   1.924   5.645   1.264
 1291SOL    HW1 4772   1.979   5.595   1.331
 1291SOL    HW2 4773   1.983   5.675   1.189
 1292SOL     OW 4774   1.649   6.800   0.605
 1292SOL    HW1 4775   1.748   6.793   0.597
 1292SOL    HW2 4776   1.606   6.758   0.526
 1293SOL     OW 4777   6.870   1.269   6.775
 1293SOL    HW1 4778   6.908   1.194   6.722
 1293SOL    HW2 4779   6.900   1.356   6.736
 1294SOL     OW 4780   0.816   1.625   4.031
 1294SOL    HW1 4781   0.800   1.549   4.095
 1294SOL    HW2 4782   0.729   1.667   4.006
 1295SOL     OW 4783   5.220   3.994   0.760
 1295SOL    HW1 4784   5.123   4.009   0.778
 1295SOL    HW2 4785   5.230   3.943   0.674
 1296SOL     OW 4786   3.800   1.140   0.573
 1296SOL    HW1 4787   3.763   1.215   0.519
 1296SOL    HW2 4788   3.760   1.054   0.543
 1297SOL     OW 4789   5.274   0.954   6.056
 1297SOL    HW1 4790   5.253   0.859   6.079
 1297SOL    HW2 4791   5.293   1.005   6.140
 1298SOL     OW 4792   5.987   2.638   2.886
 1298SOL    HW1 4793   6.064   2.645   2.823
 1298SOL    HW2 4794   5.953   2.730   2.908
 1299SOL     OW 4795   1.196   4.291   4.171
 1299SOL    HW1 4796   1.141   4.374   4.180
 1299SOL    HW2 4797   1.188   4.256   4.077
 1300SOL     OW 4798   3.377   3.209   3.192
 1300SOL    HW1 4799   3.426   3.136   3.144
 1300SOL    HW2 4800   3.324   3.262   3.126
 1301SOL     OW 4801   0.695   0.811   1.461
 1301SOL    HW1 4802   0.733   0.798   1.553
 1301SOL    HW2 4803   0.595   0.814   1.466
 1302SOL     OW 4804   2.631   5.650   5.546
 1302SOL    HW1 4805   2.659   5.733   5.595
 1302SOL    HW2 4806   2.704   5.582   5.553
 1303SOL     OW 4807   2.986   6.917   1.706
 1303SOL    HW1 4808   3.082   6.925   1.681
 1303SOL    HW2 4809   2.950   7.008   1.727
 1304SOL     OW 4810   3.599   0.513   5.526
 1304SOL    HW1 4811   3.502   0.531   5.509
 1304SOL    HW2 4812   3.613   0.499   5.624
 1305SOL     OW 4813   5.850   6.510   4.141
 1305SOL    HW1 4814   5.782   6.453   4.187
 1305SOL    HW2 4815   5.838   6.502   4.042
 1306SOL     OW 4816   1.394   5.310   3.675
 1306SOL    HW1 4817   1.443   5.371   3.737
 1306SOL    HW2 4818   1.389   5.218   3.714
 1307SOL     OW 4819   1.110   1.001   5.274
 1307SOL    HW1 4820   1.024   1.020   5.227
 1307SOL    HW2 4821   1.095   0.930   5.344
 1308SOL     OW 4822   4.439   6.500   3.638
 1308SOL    HW1 4823   4.527   6.509   3.591
 1308SOL    HW2 4824   4.387   6.424   3.599
 1309SOL     OW 4825   6.532   2.984   4.094
 1309SOL    HW1 4826   6.518   3.043   4.174
 1309SOL    HW2 4827   6.593   3.030   4.029
 1310SOL     OW 4828   5.267   4.011   6.130
 1310SOL    HW1 4829   5.347   4.072   6.133
 1310SOL    HW2 4830   5.294   3.920   6.160
 1311SOL     OW 4831   5.475   4.547   0.120
 1311SOL    HW1 4832   5.432   4.531   0.031
 1311SOL    HW2 4833   5.507   4.461   0.159
 1312SOL     OW 4834   6.554   1.440   2.237
 1312SOL    HW1 4835   6.534   1.351   2.196
 1312SOL    HW2 4836   6.619   1.489   2.179
 1313SOL     OW 4837   4.469   5.035   5.086
 1313SOL    HW1 4838   4.536   4.961   5.088
 1313SOL    HW2 4839   4.384   5.004   5.128
 1314SOL     OW 4840   0.176   1.269   6.326
 1314SOL    HW1 4841   0.154   1.205   6.399
 1314SOL    HW2 4842   0.255   1.324   6.353
 1315SOL     OW 4843   1.237   6.506   3.607
 1315SOL    HW1 4844   1.270   6.589   3.563
 1315SOL    HW2 4845   1.287   6.427   3.572
 1316SOL     OW 4846   3.293   5.695   4.366
 1316SOL    HW1 4847   3.320   5.655   4.279
 1316SOL    HW2 4848   3.368   5.750   4.403
 1317SOL     OW 4849   0.196   3.451   3.503
 1317SOL    HW1 4850   0.206   3.490   3.412
 1317SOL    HW2 4851   0.115   3.490   3.547
 1318SOL     OW 4852   0.470   6.951   2.353
 1318SOL    HW1 4853   0.458   6.853   2.336
 1318SOL    HW2 4854   0.482   6.967   2.450
 1319SOL     OW 4855   0.581   6.628   1.185
 1319SOL    HW1 4856   0.670   6.659   1.153
 1319SOL    HW2 4857   0.593   6.571   1.266
 1320SOL     OW 4858   5.913   5.003   5.384
 1320SOL    HW1 4859   5.859   5.005   5.468
 1320SOL    HW2 4860   5.854   5.020   5.306
 1321SOL     OW 4861   3.701   1.277   1.180
 1321SOL    HW1 4862   3.640   1.221   1.123
 1321SOL    HW2 4863   3.693   1.373   1.152
 1322SOL     OW 4864   5.022   0.999   6.175
 1322SOL    HW1 4865   5.036   0.971   6.269
 1322SOL    HW2 4866   5.098   0.966   6.118
 1323SOL     OW 4867   6.584   0.517   4.462
 1323SOL    HW1 4868   6.672   0.557   4.435
 1323SOL    HW2 4869   6.521   0.520   4.384
 1324SOL     OW 4870   1.442   2.658   0.457
 1324SOL    HW1 4871   1.475   2.566   0.476
 1324SOL    HW2 4872   1.363   2.678   0.516
 1325SOL     OW 4873   4.511   5.435   3.688
 1325SOL    HW1 4874   4.508   5.449   3.787
 1325SOL    HW2 4875   4.597   5.470   3.652
 1326SOL     OW 4876   5.205   4.004   4.357
 1326SOL    HW1 4877   5.128   4.066   4.342
 1326SOL    HW2 4878   5.179   3.911   4.329
 1327SOL     OW 4879   3.371   6.468   3.454
 1327SOL    HW1 4880   3.426   6.393   3.417
 1327SOL    HW2 4881   3.287   6.432   3.494
 1328SOL     OW 4882   2.238   1.825   1.573
 1328SOL    HW1 4883   2.283   1.815   1.662
 1328SOL    HW2 4884   2.292   1.889   1.516
 1329SOL     OW 4885   1.087   5.566   1.575
 1329SOL    HW1 4886   1.121   5.560   1.481
 1329SOL    HW2 4887   0.994   5.530   1.580
 1330SOL     OW 4888   5.989   6.409   1.820
 1330SOL    HW1 4889   6.087   6.420   1.803
 1330SOL    HW2 4890   5.956   6.487   1.873
 1331SOL     OW 4891   0.821   2.240   1.498
 1331SOL    HW1 4892   0.792   2.210   1.407
 1331SOL    HW2 4893   0.894   2.307   1.488
 1332SOL     OW 4894   4.547   1.826   0.302
 1332SOL    HW1 4895   4.602   1.743   0.310
 1332SOL    HW2 4896   4.569   1.873   0.217
 1333SOL     OW 4897   4.202   3.546   5.324
 1333SOL    HW1 4898   4.294   3.580   5.346
 1333SOL    HW2 4899   4.210   3.459   5.277
 1334SOL     OW 4900   1.840   3.494   4.194
 1334SOL    HW1 4901   1.814   3.400   4.218
 1334SOL    HW2 4902   1.798   3.558   4.258
 1335SOL     OW 4903   2.187   5.696   3.506
 1335SOL    HW1 4904   2.221   5.783   3.539
 1335SOL    HW2 4905   2.233   5.621   3.553
 1336SOL     OW 4906   0.039   6.469   4.806
 1336SOL    HW1 4907   0.083   6.475   4.896
 1336SOL    HW2 4908   0.065   6.548   4.751
 1337SOL     OW 4909   3.242   0.343   6.995
 1337SOL    HW1 4910   3.210   0.353   6.900
 1337SOL    HW2 4911   3.314   0.273   6.999
 1338SOL     OW 4912   3.950   4.609   0.566
 1338SOL    HW1 4913   3.917   4.703   0.571
 1338SOL    HW2 4914   3.897   4.551   0.628
 1339SOL     OW 4915   0.240   4.309   6.443
 1339SOL    HW1 4916   0.167   4.300   6.510
 1339SOL    HW2 4917   0.287   4.221   6.433
 1340SOL     OW 4918   2.934   2.026   6.014
 1340SOL    HW1 4919   2.864   1.967   6.055
 1340SOL    HW2 4920   2.907   2.050   5.921
 1341SOL     OW 4921   5.285   1.886   4.065
 1341SOL    HW1 4922   5.189   1.862   4.078
 1341SOL    HW2 4923   5.326   1.827   3.996
 1342SOL     OW 4924   0.591   5.848   0.523
 1342SOL    HW1 4925   0.636   5.866   0.610
 1342SOL    HW2 4926   0.560   5.753   0.521
 1343SOL     OW 4927   2.893   6.194   3.109
 1343SOL    HW1 4928   2.935   6.118   3.157
 1343SOL    HW2 4929   2.955   6.228   3.038
 1344SOL     OW 4930   4.464   1.441   2.303
 1344SOL    HW1 4931   4.515   1.386   2.237
 1344SOL    HW2 4932   4.510   1.530   2.315
 1345SOL     OW 4933   6.094   5.313   1.849
 1345SOL    HW1 4934   6.092   5.410   1.826
 1345SOL    HW2 4935   6.189   5.285   1.863
 1346SOL     OW 4936   6.573   1.761   3.277
 1346SOL    HW1 4937   6.654   1.753   3.220
 1346SOL    HW2 4938   6.587   1.709   3.361
 1347SOL     OW 4939   4.198   0.871   3.912
 1347SOL    HW1 4940   4.177   0.811   3.989
 1347SOL    HW2 4941   4.194   0.967   3.942
 1348SOL     OW 4942   5.280   6.349   4.698
 1348SOL    HW1 4943   5.233   6.304   4.774
 1348SOL    HW2 4944   5.219   6.417   4.657
 1349SOL     OW 4945   5.442   1.242   6.510
 1349SOL    HW1 4946   5.468   1.336   6.529
 1349SOL    HW2 4947   5.524   1.188   6.490
 1350SOL     OW 4948   3.852   1.397   4.605
 1350SOL    HW1 4949   3.770   1.360   4.648
 1350SOL    HW2 4950   3.832   1.488   4.569
 1351SOL     OW 4951   1.021   1.596   4.307
 1351SOL    HW1 4952   1.072   1.633   4.229
 1351SOL    HW2 4953   0.968   1.517   4.278
 1352SOL     OW 4954   1.307   6.198   4.039
 1352SOL    HW1 4955   1.222   6.160   4.002
 1352SOL    HW2 4956   1.295   6.213   4.138
 1353SOL     OW 4957   2.697   3.396   6.164
 1353SOL    HW1 4958   2.779   3.443   6.195
 1353SOL    HW2 4959   2.632   3.388   6.239
 1354SOL     OW 4960   0.410   6.293   6.787
 1354SOL    HW1 4961   0.403   6.352   6.707
 1354SOL    HW2 4962   0.506   6.282   6.812
 1355SOL     OW 4963   4.958   3.408   0.316
 1355SOL    HW1 4964   4.895   3.395   0.392
 1355SOL    HW2 4965   5.049   3.378   0.342
 1356SOL     OW 4966   3.818   3.343   2.913
 1356SOL    HW1 4967   3.801   3.372   3.008
 1356SOL    HW2 4968   3.915   3.353   2.892
 1357SOL     OW 4969   4.063   2.438   5.812
 1357SOL    HW1 4970   3.970   2.443   5.776
 1357SOL    HW2 4971   4.107   2.354   5.781
 1358SOL     OW 4972   1.814   3.064   5.057
 1358SOL    HW1 4973   1.842   2.982   5.008
 1358SOL    HW2 4974   1.877   3.139   5.035
 1359SOL     OW 4975   0.668   1.584   6.732
 1359SOL    HW1 4976   0.664   1.492   6.768
 1359SOL    HW2 4977   0.664   1.581   6.632
 1360SOL     OW 4978   2.991   3.402   4.812
 1360SOL    HW1 4979   3.022   3.310   4.833
 1360SOL    HW2 4980   3.068   3.465   4.815
 1361SOL     OW 4981   1.476   6.377   1.178
 1361SOL    HW1 4982   1.451   6.350   1.270
 1361SOL    HW2 4983   1.395   6.378   1.120
 1362SOL     OW 4984   3.694   1.034   6.198
 1362SOL    HW1 4985   3.722   1.100   6.268
 1362SOL    HW2 4986   3.748   1.047   6.115
 1363SOL     OW 4987   6.553   6.178   1.162
 1363SOL    HW1 4988   6.558   6.087   1.121
 1363SOL    HW2 4989   6.475   6.228   1.125
 1364SOL     OW 4990   1.307   3.277   1.112
 1364SOL    HW1 4991   1.375   3.211   1.141
 1364SOL    HW2 4992   1.222   3.230   1.090
 1365SOL     OW 4993   1.684   2.837   6.426
 1365SOL    HW1 4994   1.715   2.766   6.363
 1365SOL    HW2 4995   1.618   2.896   6.380
 1366SOL     OW 4996   4.030   1.429   1.753
 1366SOL    HW1 4997   3.951   1.483   1.783
 1366SOL    HW2 4998   4.002   1.367   1.680
 1367SOL     OW 4999   1.531   0.428   4.121
 1367SOL    HW1 5000   1.545   0.515   4.169
 1367SOL    HW2 5001   1.604   0.414   4.055
 1368SOL     OW 5002   1.762   5.843   4.991
 1368SOL    HW1 5003   1.690   5.869   4.927
 1368SOL    HW2 5004   1.772   5.744   4.992
 1369SOL     OW 5005   2.652   5.649   3.252
 1369SOL    HW1 5006   2.583   5.614   3.188
 1369SOL    HW2 5007   2.606   5.699   3.325
 1370SOL     OW 5008   6.628   3.180   3.103
 1370SOL    HW1 5009   6.662   3.087   3.091
 1370SOL    HW2 5010   6.632   3.229   3.015
 1371SOL     OW 5011   6.383   1.773   6.454
 1371SOL    HW1 5012   6.300   1.807   6.497
 1371SOL    HW2 5013   6.374   1.778   6.354
 1372SOL     OW 5014   5.107   1.949   2.178
 1372SOL    HW1 5015   5.153   2.035   2.199
 1372SOL    HW2 5016   5.023   1.968   2.127
 1373SOL     OW 5017   4.103   2.484   1.220
 1373SOL    HW1 5018   4.159   2.557   1.181
 1373SOL    HW2 5019   4.014   2.484   1.174
 1374SOL     OW 5020   3.197   3.683   4.158
 1374SOL    HW1 5021   3.264   3.753   4.184
 1374SOL    HW2 5022   3.110   3.701   4.205
 1375SOL     OW 5023   6.073   4.057   5.243
 1375SOL    HW1 5024   6.131   3.991   5.291
 1375SOL    HW2 5025   6.013   4.009   5.180
 1376SOL     OW 5026   3.084   4.660   6.043
 1376SOL    HW1 5027   3.067   4.596   6.119
 1376SOL    HW2 5028   3.002   4.716   6.029
 1377SOL     OW 5029   1.103   2.393   3.662
 1377SOL    HW1 5030   1.069   2.329   3.594
 1377SOL    HW2 5031   1.053   2.480   3.653
 1378SOL     OW 5032   4.998   2.632   3.518
 1378SOL    HW1 5033   5.079   2.685   3.493
 1378SOL    HW2 5034   5.021   2.570   3.593
 1379SOL     OW 5035   5.120   5.696   6.367
 1379SOL    HW1 5036   5.195   5.720   6.429
 1379SOL    HW2 5037   5.053   5.639   6.416
 1380SOL     OW 5038   0.033   6.580   3.958
 1380SOL    HW1 5039   6.980   6.648   3.977
 1380SOL    HW2 5040   0.110   6.626   3.913
 1381SOL     OW 5041   6.707   2.691   6.108
 1381SOL    HW1 5042   6.634   2.759   6.099
 1381SOL    HW2 5043   6.672   2.600   6.085
 1382SOL     OW 5044   4.399   2.288   5.642
 1382SOL    HW1 5045   4.448   2.311   5.557
 1382SOL    HW2 5046   4.302   2.275   5.621
 1383SOL     OW 5047   5.536   0.612   0.555
 1383SOL    HW1 5048   5.635   0.612   0.539
 1383SOL    HW2 5049   5.512   0.678   0.625
 1384SOL     OW 5050   5.440   1.990   2.623
 1384SOL    HW1 5051   5.451   2.089   2.629
 1384SOL    HW2 5052   5.372   1.969   2.553
 1385SOL     OW 5053   6.674   6.586   1.756
 1385SOL    HW1 5054   6.681   6.556   1.660
 1385SOL    HW2 5055   6.579   6.612   1.775
 1386SOL     OW 5056   1.874   0.471   4.289
 1386SOL    HW1 5057   1.828   0.384   4.272
 1386SOL    HW2 5058   1.820   0.526   4.352
 1387SOL     OW 5059   1.195   5.770   1.729
 1387SOL    HW1 5060   1.292   5.750   1.744
 1387SOL    HW2 5061   1.152   5.695   1.679
 1388SOL     OW 5062   6.376   0.890   1.674
 1388SOL    HW1 5063   6.415   0.898   1.582
 1388SOL    HW2 5064   6.310   0.814   1.675
 1389SOL     OW 5065   6.345   0.763   0.873
 1389SOL    HW1 5066   6.439   0.788   0.853
 1389SOL    HW2 5067   6.284   0.807   0.807
 1390SOL     OW 5068   1.392   1.643   4.576
 1390SOL    HW1 5069   1.366   1.720   4.518
 1390SOL    HW2 5070   1.464   1.672   4.639
 1391SOL     OW 5071   0.471   3.633   3.776
 1391SOL    HW1 5072   0.469   3.556   3.713
 1391SOL    HW2 5073   0.555   3.628   3.832
 1392SOL     OW 5074   5.253   5.400   3.749
 1392SOL    HW1 5075   5.306   5.459   3.810
 1392SOL    HW2 5076   5.227   5.452   3.668
 1393SOL     OW 5077   3.552   4.743   6.635
 1393SOL    HW1 5078   3.480   4.735   6.704
 1393SOL    HW2 5079   3.512   4.735   6.543
 1394SOL     OW 5080   1.282   6.991   6.508
 1394SOL    HW1 5081   1.225   6.912   6.486
 1394SOL    HW2 5082   1.224   0.053   6.520
 1395SOL     OW 5083   4.226   4.914   6.401
 1395SOL    HW1 5084   4.303   4.866   6.357
 1395SOL    HW2 5085   4.192   4.859   6.477
 1396SOL     OW 5086   5.218   5.981   2.765
 1396SOL    HW1 5087   5.231   5.923   2.685
 1396SOL    HW2 5088   5.137   5.950   2.815
 1397SOL     OW 5089   5.812   6.011   4.818
 1397SOL    HW1 5090   5.792   5.981   4.725
 1397SOL    HW2 5091   5.794   5.936   4.882
 1398SOL     OW 5092   1.850   0.003   5.049
 1398SOL    HW1 5093   1.883   0.094   5.072
 1398SOL    HW2 5094   1.928   6.959   5.041
 1399SOL     OW 5095   2.763   5.440   2.313
 1399SOL    HW1 5096   2.852   5.454   2.358
 1399SOL    HW2 5097   2.759   5.347   2.276
 1400SOL     OW 5098   1.187   0.441   3.416
 1400SOL    HW1 5099   1.153   0.522   3.463
 1400SOL    HW2 5100   1.272   0.462   3.369
 1401SOL     OW 5101   6.707   2.041   4.173
 1401SOL    HW1 5102   6.799   2.077   4.191
 1401SOL    HW2 5103   6.711   1.978   4.096
 1402SOL     OW 5104   5.693   2.155   0.179
 1402SOL    HW1 5105   5.667   2.124   0.088
 1402SOL    HW2 5106   5.783   2.200   0.175
 1403SOL     OW 5107   4.015   1.197   2.009
 1403SOL    HW1 5108   4.006   1.293   2.035
 1403SOL    HW2 5109   4.095   1.157   2.055
 1404SOL     OW 5110   4.442   1.148   6.565
 1404SOL    HW1 5111   4.428   1.133   6.467
 1404SOL    HW2 5112   4.367   1.106   6.617
 1405SOL     OW 5113   3.922   2.533   0.678
 1405SOL    HW1 5114   3.964   2.532   0.587
 1405SOL    HW2 5115   3.993   2.549   0.747
 1406SOL     OW 5116   0.766   3.262   1.983
 1406SOL    HW1 5117   0.771   3.164   1.968
 1406SOL    HW2 5118   0.840   3.308   1.934
 1407SOL     OW 5119   6.675   2.397   2.763
 1407SOL    HW1 5120   6.617   2.315   2.762
 1407SOL    HW2 5121   6.726   2.401   2.848
 1408SOL     OW 5122   6.626   4.639   6.890
 1408SOL    HW1 5123   6.584   4.559   6.932
 1408SOL    HW2 5124   6.650   4.618   6.795
 1409SOL     OW 5125   0.551   0.978   4.055
 1409SOL    HW1 5126   0.520   0.949   3.964
 1409SOL    HW2 5127   0.568   0.898   4.111
 1410SOL     OW 5128   0.196   1.874   6.766
 1410SOL    HW1 5129   0.203   1.841   6.860
 1410SOL    HW2 5130   0.281   1.921   6.741
 1411SOL     OW 5131   1.671   1.451   1.400
 1411SOL    HW1 5132   1.707   1.543   1.385
 1411SOL    HW2 5133   1.726   1.385   1.349
 1412SOL     OW 5134   1.880   2.117   0.776
 1412SOL    HW1 5135   1.838   2.201   0.811
 1412SOL    HW2 5136   1.970   2.105   0.816
 1413SOL     OW 5137   3.258   6.920   3.335
 1413SOL    HW1 5138   3.278   6.956   3.426
 1413SOL    HW2 5139   3.324   6.848   3.312
 1414SOL     OW 5140   1.437   0.848   2.389
 1414SOL    HW1 5141   1.426   0.942   2.356
 1414SOL    HW2 5142   1.480   0.849   2.479
 1415SOL     OW 5143   5.810   6.744   4.861
 1415SOL    HW1 5144   5.887   6.801   4.890
 1415SOL    HW2 5145   5.730   6.801   4.845
 1416SOL     OW 5146   4.526   5.438   3.967
 1416SOL    HW1 5147   4.623   5.418   3.952
 1416SOL    HW2 5148   4.506   5.432   4.065
 1417SOL     OW 5149   3.568   3.003   5.545
 1417SOL    HW1 5150   3.502   2.929   5.552
 1417SOL    HW2 5151   3.612   3.017   5.633
 1418SOL     OW 5152   3.299   4.150   4.122
 1418SOL    HW1 5153   3.392   4.177   4.098
 1418SOL    HW2 5154   3.274   4.068   4.071
 1419SOL     OW 5155   3.181   6.175   3.828
 1419SOL    HW1 5156   3.272   6.183   3.788
 1419SOL    HW2 5157   3.129   6.106   3.777
 1420SOL     OW 5158   0.331   6.574   2.781
 1420SOL    HW1 5159   0.327   6.650   2.845
 1420SOL    HW2 5160   0.402   6.510   2.809
 1421SOL     OW 5161   3.439   1.236   3.174
 1421SOL    HW1 5162   3.363   1.270   3.119
 1421SOL    HW2 5163   3.481   1.312   3.224
 1422SOL     OW 5164   2.751   6.064   0.757
 1422SOL    HW1 5165   2.709   6.140   0.807
 1422SOL    HW2 5166   2.702   6.050   0.671
 1423SOL     OW 5167   4.666   0.447   2.616
 1423SOL    HW1 5168   4.674   0.359   2.570
 1423SOL    HW2 5169   4.619   0.512   2.556
 1424SOL     OW 5170   6.325   5.202   2.179
 1424SOL    HW1 5171   6.239   5.206   2.229
 1424SOL    HW2 5172   6.342   5.107   2.151
 1425SOL     OW 5173   2.135   0.346   4.184
 1425SOL    HW1 5174   2.102   0.253   4.200
 1425SOL    HW2 5175   2.060   0.411   4.197
 1426SOL     OW 5176   1.667   1.298   5.710
 1426SOL    HW1 5177   1.613   1.313   5.627
 1426SOL    HW2 5178   1.629   1.352   5.785
 1427SOL     OW 5179   5.326   2.076   6.284
 1427SOL    HW1 5180   5.271   1.996   6.311
 1427SOL    HW2 5181   5.291   2.113   6.198
 1428SOL     OW 5182   5.993   0.622   0.916
 1428SOL    HW1 5183   6.001   0.722   0.916
 1428SOL    HW2 5184   5.931   0.595   0.990
 1429SOL     OW 5185   5.421   6.079   0.206
 1429SOL    HW1 5186   5.415   6.038   0.115
 1429SOL    HW2 5187   5.485   6.155   0.205
 1430SOL     OW 5188   3.059   4.956   2.528
 1430SOL    HW1 5189   2.964   4.947   2.557
 1430SOL    HW2 5190   3.062   5.007   2.442
 1431SOL     OW 5191   2.069   0.886   0.461
 1431SOL    HW1 5192   1.989   0.830   0.481
 1431SOL    HW2 5193   2.119   0.903   0.546
 1432SOL     OW 5194   3.415   0.081   1.471
 1432SOL    HW1 5195   3.421   7.009   1.428
 1432SOL    HW2 5196   3.433   0.151   1.402
 1433SOL     OW 5197   5.154   6.781   3.347
 1433SOL    HW1 5198   5.074   6.748   3.397
 1433SOL    HW2 5199   5.209   6.704   3.316
 1434SOL     OW 5200   0.604   1.321   5.118
 1434SOL    HW1 5201   0.645   1.337   5.028
 1434SOL    HW2 5202   0.624   1.399   5.178
 1435SOL     OW 5203   6.993   2.333   3.829
 1435SOL    HW1 5204   0.008   2.369   3.916
 1435SOL    HW2 5205   6.893   2.336   3.827
 1436SOL     OW 5206   5.240   3.125   1.695
 1436SOL    HW1 5207   5.145   3.101   1.715
 1436SOL    HW2 5208   5.294   3.122   1.778
 1437SOL     OW 5209   4.813   0.575   2.823
 1437SOL    HW1 5210   4.763   0.575   2.909
 1437SOL    HW2 5211   4.756   0.537   2.751
 1438SOL     OW 5212   2.802   0.068   2.199
 1438SOL    HW1 5213   2.772   6.993   2.185
 1438SOL    HW2 5214   2.791   0.119   2.113
 1439SOL     OW 5215   0.541   5.980   2.348
 1439SOL    HW1 5216   0.589   5.903   2.304
 1439SOL    HW2 5217   0.507   6.042   2.278
 1440SOL     OW 5218   2.677   2.951   1.332
 1440SOL    HW1 5219   2.721   3.034   1.365
 1440SOL    HW2 5220   2.686   2.879   1.401
 1441SOL     OW 5221   4.810   6.374   6.534
 1441SOL    HW1 5222   4.867   6.347   6.612
 1441SOL    HW2 5223   4.771   6.292   6.492
 1442SOL     OW 5224   4.871   5.345   1.597
 1442SOL    HW1 5225   4.847   5.323   1.692
 1442SOL    HW2 5226   4.809   5.415   1.562
 1443SOL     OW 5227   6.811   2.608   2.334
 1443SOL    HW1 5228   6.867   2.535   2.373
 1443SOL    HW2 5229   6.734   2.569   2.284
 1444SOL     OW 5230   0.654   6.692   5.021
 1444SOL    HW1 5231   0.717   6.695   4.944
 1444SOL    HW2 5232   0.706   6.696   5.107
 1445SOL     OW 5233   0.956   2.544   1.246
 1445SOL    HW1 5234   1.001   2.613   1.190
 1445SOL    HW2 5235   0.857   2.550   1.231
 1446SOL     OW 5236   6.180   5.053   1.495
 1446SOL    HW1 5237   6.106   5.085   1.554
 1446SOL    HW2 5238   6.268   5.065   1.541
 1447SOL     OW 5239   0.276   6.509   4.221
 1447SOL    HW1 5240   0.309   6.601   4.198
 1447SOL    HW2 5241   0.181   6.515   4.252
 1448SOL     OW 5242   1.912   1.113   5.285
 1448SOL    HW1 5243   1.821   1.094   5.248
 1448SOL    HW2 5244   1.913   1.205   5.325
 1449SOL     OW 5245   1.906   2.929   2.795
 1449SOL    HW1 5246   1.993   2.930   2.745
 1449SOL    HW2 5247   1.923   2.938   2.893
 1450SOL     OW 5248   3.171   2.088   2.484
 1450SOL    HW1 5249   3.124   2.093   2.396
 1450SOL    HW2 5250   3.268   2.112   2.470
 1451SOL     OW 5251   4.466   1.960   2.760
 1451SOL    HW1 5252   4.393   1.895   2.740
 1451SOL    HW2 5253   4.530   1.962   2.684
 1452SOL     OW 5254   4.319   2.974   5.454
 1452SOL    HW1 5255   4.343   2.901   5.389
 1452SOL    HW2 5256   4.228   3.009   5.433
 1453SOL     OW 5257   1.664   3.232   5.208
 1453SOL    HW1 5258   1.608   3.203   5.285
 1453SOL    HW2 5259   1.680   3.154   5.147
 1454SOL     OW 5260   2.990   2.133   2.269
 1454SOL    HW1 5261   2.961   2.191   2.193
 1454SOL    HW2 5262   2.920   2.064   2.286
 1455SOL     OW 5263   0.302   5.872   2.444
 1455SOL    HW1 5264   0.248   5.905   2.521
 1455SOL    HW2 5265   0.390   5.918   2.442
 1456SOL     OW 5266   6.444   5.685   3.690
 1456SOL    HW1 5267   6.355   5.647   3.666
 1456SOL    HW2 5268   6.453   5.777   3.652
 1457SOL     OW 5269   1.019   5.491   5.722
 1457SOL    HW1 5270   0.936   5.436   5.725
 1457SOL    HW2 5271   0.994   5.588   5.716
 1458SOL     OW 5272   6.783   5.790   4.859
 1458SOL    HW1 5273   6.726   5.720   4.815
 1458SOL    HW2 5274   6.857   5.816   4.797
 1459SOL     OW 5275   0.015   6.291   5.529
 1459SOL    HW1 5276   0.014   6.202   5.576
 1459SOL    HW2 5277   6.971   6.288   5.451
 1460SOL     OW 5278   1.286   6.293   4.946
 1460SOL    HW1 5279   1.213   6.270   4.883
 1460SOL    HW2 5280   1.354   6.351   4.899
 1461SOL     OW 5281   5.668   3.648   3.539
 1461SOL    HW1 5282   5.742   3.610   3.594
 1461SOL    HW2 5283   5.644   3.584   3.466
 1462SOL     OW 5284   1.187   2.127   2.049
 1462SOL    HW1 5285   1.181   2.176   2.136
 1462SOL    HW2 5286   1.096   2.093   2.024
 1463SOL     OW 5287   1.877   4.780   6.764
 1463SOL    HW1 5288   1.886   4.703   6.700
 1463SOL    HW2 5289   1.861   4.865   6.712
 1464SOL     OW 5290   0.754   4.350   5.661
 1464SOL    HW1 5291   0.743   4.294   5.743
 1464SOL    HW2 5292   0.686   4.424   5.662
 1465SOL     OW 5293   1.239   2.977   5.899
 1465SOL    HW1 5294   1.334   2.994   5.873
 1465SOL    HW2 5295   1.211   2.887   5.865
 1466SOL     OW 5296   5.576   1.014   2.696
 1466SOL    HW1 5297   5.478   1.024   2.707
 1466SOL    HW2 5298   5.605   1.052   2.608
 1467SOL     OW 5299   0.121   0.326   3.849
 1467SOL    HW1 5300   0.074   0.385   3.915
 1467SOL    HW2 5301   0.073   0.328   3.762
 1468SOL     OW 5302   3.359   6.819   3.835
 1468SOL    HW1 5303   3.405   6.755   3.773
 1468SOL    HW2 5304   3.420   6.840   3.911
 1469SOL     OW 5305   5.524   4.405   3.248
 1469SOL    HW1 5306   5.499   4.308   3.250
 1469SOL    HW2 5307   5.571   4.429   3.333
 1470SOL     OW 5308   6.155   1.719   1.957
 1470SOL    HW1 5309   6.204   1.668   2.027
 1470SOL    HW2 5310   6.061   1.684   1.950
 1471SOL     OW 5311   4.894   6.707   0.092
 1471SOL    HW1 5312   4.871   6.681   0.186
 1471SOL    HW2 5313   4.897   6.626   0.034
 1472SOL     OW 5314   2.766   0.921   6.915
 1472SOL    HW1 5315   2.699   0.902   6.843
 1472SOL    HW2 5316   2.857   0.931   6.873
 1473SOL     OW 5317   1.520   5.707   3.217
 1473SOL    HW1 5318   1.600   5.672   3.264
 1473SOL    HW2 5319   1.514   5.667   3.125
 1474SOL     OW 5320   1.653   4.264   1.593
 1474SOL    HW1 5321   1.618   4.257   1.686
 1474SOL    HW2 5322   1.690   4.176   1.564
 1475SOL     OW 5323   6.717   0.069   6.495
 1475SOL    HW1 5324   6.650   7.018   6.519
 1475SOL    HW2 5325   6.791   0.027   6.442
 1476SOL     OW 5326   5.854   0.102   6.638
 1476SOL    HW1 5327   5.930   0.045   6.606
 1476SOL    HW2 5328   5.870   0.197   6.611
 1477SOL     OW 5329   3.582   4.094   1.781
 1477SOL    HW1 5330   3.544   4.182   1.809
 1477SOL    HW2 5331   3.680   4.105   1.762
 1478SOL     OW 5332   4.558   4.028   6.396
 1478SOL    HW1 5333   4.483   4.001   6.335
 1478SOL    HW2 5334   4.520   4.077   6.475
 1479SOL     OW 5335   4.574   4.862   0.784
 1479SOL    HW1 5336   4.567   4.957   0.754
 1479SOL    HW2 5337   4.482   4.822   0.790
 1480SOL     OW 5338   2.968   1.872   3.615
 1480SOL    HW1 5339   2.872   1.899   3.615
 1480SOL    HW2 5340   2.986   1.814   3.694
 1481SOL     OW 5341   3.985   1.618   5.512
 1481SOL    HW1 5342   4.068   1.667   5.537
 1481SOL    HW2 5343   4.009   1.539   5.456
 1482SOL     OW 5344   6.543   1.353   1.306
 1482SOL    HW1 5345   6.503   1.439   1.275
 1482SOL    HW2 5346   6.536   1.285   1.232
 1483SOL     OW 5347   6.308   6.263   0.493
 1483SOL    HW1 5348   6.335   6.171   0.523
 1483SOL    HW2 5349   6.260   6.257   0.406
 1484SOL     OW 5350   3.082   6.305   5.582
 1484SOL    HW1 5351   3.038   6.222   5.617
 1484SOL    HW2 5352   3.025   6.384   5.604
 1485SOL     OW 5353   5.290   3.758   3.756
 1485SOL    HW1 5354   5.244   3.671   3.738
 1485SOL    HW2 5355   5.327   3.794   3.671
 1486SOL     OW 5356   5.872   6.178   4.302
 1486SOL    HW1 5357   5.827   6.255   4.345
 1486SOL    HW2 5358   5.892   6.200   4.206
 1487SOL     OW 5359   5.811   0.506   6.856
 1487SOL    HW1 5360   5.730   0.563   6.871
 1487SOL    HW2 5361   5.852   0.483   6.945
 1488SOL     OW 5362   6.591   2.945   2.523
 1488SOL    HW1 5363   6.578   2.994   2.609
 1488SOL    HW2 5364   6.626   2.853   2.541
 1489SOL     OW 5365   3.181   5.606   0.168
 1489SOL    HW1 5366   3.143   5.621   0.259
 1489SOL    HW2 5367   3.231   5.520   0.166
 1490SOL     OW 5368   6.022   2.716   2.080
 1490SOL    HW1 5369   6.080   2.639   2.051
 1490SOL    HW2 5370   5.940   2.719   2.024
 1491SOL     OW 5371   5.493   3.198   4.527
 1491SOL    HW1 5372   5.561   3.248   4.473
 1491SOL    HW2 5373   5.536   3.163   4.610
 1492SOL     OW 5374   1.261   2.873   1.893
 1492SOL    HW1 5375   1.328   2.808   1.858
 1492SOL    HW2 5376   1.249   2.948   1.829
 1493SOL     OW 5377   6.181   2.043   6.390
 1493SOL    HW1 5378   6.256   2.099   6.355
 1493SOL    HW2 5379   6.192   1.949   6.357
 1494SOL     OW 5380   1.691   3.121   6.566
 1494SOL    HW1 5381   1.670   3.197   6.505
 1494SOL    HW2 5382   1.671   3.034   6.519
 1495SOL     OW 5383   5.913   4.000   4.190
 1495SOL    HW1 5384   5.854   3.952   4.125
 1495SOL    HW2 5385   5.975   3.935   4.234
 1496SOL     OW 5386   6.703   6.212   5.742
 1496SOL    HW1 5387   6.787   6.186   5.790
 1496SOL    HW2 5388   6.633   6.143   5.756
 1497SOL     OW 5389   4.531   2.551   2.497
 1497SOL    HW1 5390   4.579   2.560   2.409
 1497SOL    HW2 5391   4.444   2.600   2.493
 1498SOL     OW 5392   3.780   4.059   0.786
 1498SOL    HW1 5393   3.769   3.967   0.825
 1498SOL    HW2 5394   3.833   4.054   0.702
 1499SOL     OW 5395   1.024   4.574   4.176
 1499SOL    HW1 5396   1.056   4.585   4.082
 1499SOL    HW2 5397   1.082   4.627   4.238
 1500SOL     OW 5398   2.410   5.384   1.557
 1500SOL    HW1 5399   2.400   5.435   1.471
 1500SOL    HW2 5400   2.336   5.410   1.619
 1501SOL     OW 5401   5.451   1.088   1.372
 1501SOL    HW1 5402   5.352   1.087   1.386
 1501SOL    HW2 5403   5.491   1.166   1.419
 1502SOL     OW 5404   0.903   6.306   6.022
 1502SOL    HW1 5405   0.831   6.365   6.057
 1502SOL    HW2 5406   0.931   6.241   6.093
 1503SOL     OW 5407   6.182   5.991   2.202
 1503SOL    HW1 5408   6.102   5.949   2.159
 1503SOL    HW2 5409   6.166   5.999   2.301
 1504SOL     OW 5410   1.611   6.830   3.718
 1504SOL    HW1 5411   1.657   6.754   3.764
 1504SOL    HW2 5412   1.548   6.794   3.649
 1505SOL     OW 5413   6.716   4.289   5.081
 1505SOL    HW1 5414   6.747   4.378   5.048
 1505SOL    HW2 5415   6.687   4.232   5.003
 1506SOL     OW 5416   1.154   1.085   0.600
 1506SOL    HW1 5417   1.143   0.986   0.608
 1506SOL    HW2 5418   1.192   1.121   0.685
 1507SOL     OW 5419   2.122   2.218   3.788
 1507SOL    HW1 5420   2.096   2.163   3.708
 1507SOL    HW2 5421   2.063   2.298   3.794
 1508SOL     OW 5422   1.280   0.605   1.589
 1508SOL    HW1 5423   1.320   0.696   1.605
 1508SOL    HW2 5424   1.186   0.615   1.559
 1509SOL     OW 5425   4.328   0.909   4.681
 1509SOL    HW1 5426   4.270   0.834   4.649
 1509SOL    HW2 5427   4.273   0.975   4.732
 1510SOL     OW 5428   2.527   6.829   5.354
 1510SOL    HW1 5429   2.479   6.898   5.408
 1510SOL    HW2 5430   2.542   6.747   5.409
 1511SOL     OW 5431   3.869   3.981   5.106
 1511SOL    HW1 5432   3.858   3.996   5.007
 1511SOL    HW2 5433   3.926   3.900   5.120
 1512SOL     OW 5434   5.846   6.998   1.055
 1512SOL    HW1 5435   5.876   0.072   1.031
 1512SOL    HW2 5436   5.783   6.964   0.985
 1513SOL     OW 5437   3.176   6.365   5.302
 1513SOL    HW1 5438   3.259   6.337   5.254
 1513SOL    HW2 5439   3.182   6.336   5.398
 1514SOL     OW 5440   3.011   1.852   0.158
 1514SOL    HW1 5441   3.008   1.752   0.153
 1514SOL    HW2 5442   2.919   1.887   0.176
 1515SOL     OW 5443   3.608   0.767   1.616
 1515SOL    HW1 5444   3.594   0.791   1.520
 1515SOL    HW2 5445   3.636   0.848   1.668
 1516SOL     OW 5446   0.059   6.543   6.643
 1516SOL    HW1 5447   0.065   6.612   6.715
 1516SOL    HW2 5448   0.067   6.452   6.683
 1517SOL     OW 5449   2.136   6.280   2.555
 1517SOL    HW1 5450   2.075   6.211   2.593
 1517SOL    HW2 5451   2.229   6.245   2.551
 1518SOL     OW 5452   1.886   2.360   6.459
 1518SOL    HW1 5453   1.822   2.291   6.490
 1518SOL    HW2 5454   1.864   2.449   6.500
 1519SOL     OW 5455   0.612   4.230   6.907
 1519SOL    HW1 5456   0.660   4.154   6.863
 1519SOL    HW2 5457   0.598   4.304   6.841
 1520SOL     OW 5458   6.960   6.585   3.114
 1520SOL    HW1 5459   6.864   6.561   3.130
 1520SOL    HW2 5460   7.000   6.518   3.052
 1521SOL     OW 5461   2.723   4.884   0.022
 1521SOL    HW1 5462   2.804   4.832   7.014
 1521SOL    HW2 5463   2.647   4.820   0.037
 1522SOL     OW 5464   5.971   6.220   3.994
 1522SOL    HW1 5465   5.873   6.239   3.994
 1522SOL    HW2 5466   6.020   6.295   4.038
 1523SOL     OW 5467   2.920   6.733   0.221
 1523SOL    HW1 5468   2.901   6.641   0.186
 1523SOL    HW2 5469   2.846   6.795   0.195
 1524SOL     OW 5470   2.017   2.446   4.531
 1524SOL    HW1 5471   2.117   2.450   4.527
 1524SOL    HW2 5472   1.989   2.375   4.596
 1525SOL     OW 5473   6.117   3.860   0.345
 1525SOL    HW1 5474   6.193   3.804   0.312
 1525SOL    HW2 5475   6.136   3.888   0.440
 1526SOL     OW 5476   0.929   1.331   1.759
 1526SOL    HW1 5477   0.883   1.377   1.834
 1526SOL    HW2 5478   0.945   1.396   1.685
 1527SOL     OW 5479   5.071   1.330   4.367
 1527SOL    HW1 5480   5.005   1.279   4.312
 1527SOL    HW2 5481   5.097   1.275   4.447
 1528SOL     OW 5482   2.864   3.585   2.091
 1528SOL    HW1 5483   2.770   3.604   2.121
 1528SOL    HW2 5484   2.924   3.583   2.171
 1529SOL     OW 5485   4.172   0.930   5.908
 1529SOL    HW1 5486   4.192   0.922   5.810
 1529SOL    HW2 5487   4.083   0.889   5.927
 1530SOL     OW 5488   2.953   6.658   1.832
 1530SOL    HW1 5489   3.003   6.736   1.792
 1530SOL    HW2 5490   2.855   6.674   1.826
 1531SOL     OW 5491   5.618   6.125   4.558
 1531SOL    HW1 5492   5.652   6.209   4.601
 1531SOL    HW2 5493   5.680   6.050   4.579
 1532SOL     OW 5494   2.764   5.218   2.159
 1532SOL    HW1 5495   2.674   5.186   2.130
 1532SOL    HW2 5496   2.812   5.258   2.081
 1533SOL     OW 5497   5.451   5.850   1.542
 1533SOL    HW1 5498   5.525   5.896   1.493
 1533SOL    HW2 5499   5.364   5.897   1.523
 1534SOL     OW 5500   2.684   5.035   6.538
 1534SOL    HW1 5501   2.710   5.027   6.634
 1534SOL    HW2 5502   2.699   5.128   6.507
 1535SOL     OW 5503   4.714   4.761   3.516
 1535SOL    HW1 5504   4.756   4.691   3.574
 1535SOL    HW2 5505   4.662   4.717   3.443
 1536SOL     OW 5506   4.223   4.536   6.475
 1536SOL    HW1 5507   4.193   4.616   6.526
 1536SOL    HW2 5508   4.176   4.455   6.508
 1537SOL     OW 5509   3.015   5.961   2.014
 1537SOL    HW1 5510   3.109   5.928   2.016
 1537SOL    HW2 5511   2.997   6.004   1.925
 1538SOL     OW 5512   2.612   1.413   0.763
 1538SOL    HW1 5513   2.602   1.507   0.732
 1538SOL    HW2 5514   2.544   1.355   0.719
 1539SOL     OW 5515   0.347   2.908   0.836
 1539SOL    HW1 5516   0.326   2.885   0.741
 1539SOL    HW2 5517   0.275   2.966   0.873
 1540SOL     OW 5518   3.383   5.565   3.278
 1540SOL    HW1 5519   3.321   5.574   3.356
 1540SOL    HW2 5520   3.454   5.499   3.299
 1541SOL     OW 5521   4.787   2.619   5.380
 1541SOL    HW1 5522   4.821   2.711   5.400
 1541SOL    HW2 5523   4.802   2.560   5.460
 1542SOL     OW 5524   1.113   4.589   2.828
 1542SOL    HW1 5525   1.095   4.492   2.811
 1542SOL    HW2 5526   1.064   4.618   2.911
 1543SOL     OW 5527   4.297   4.970   0.839
 1543SOL    HW1 5528   4.337   5.024   0.913
 1543SOL    HW2 5529   4.309   5.018   0.753
 1544SOL     OW 5530   3.669   2.974   3.861
 1544SOL    HW1 5531   3.716   2.970   3.773
 1544SOL    HW2 5532   3.736   2.981   3.935
 1545SOL     OW 5533   6.520   4.555   0.862
 1545SOL    HW1 5534   6.465   4.518   0.937
 1545SOL    HW2 5535   6.500   4.504   0.778
 1546SOL     OW 5536   6.308   6.468   5.433
 1546SOL    HW1 5537   6.326   6.407   5.357
 1546SOL    HW2 5538   6.320   6.419   5.519
 1547SOL     OW 5539   1.802   2.853   6.678
 1547SOL    HW1 5540   1.787   2.842   6.580
 1547SOL    HW2 5541   1.788   2.949   6.704
 1548SOL     OW 5542   0.155   2.590   0.533
 1548SOL    HW1 5543   0.219   2.518   0.558
 1548SOL    HW2 5544   0.064   2.551   0.521
 1549SOL     OW 5545   4.819   0.390   4.226
 1549SOL    HW1 5546   4.831   0.442   4.141
 1549SOL    HW2 5547   4.757   0.439   4.287
 1550SOL     OW 5548   2.908   3.763   4.527
 1550SOL    HW1 5549   2.911   3.666   4.502
 1550SOL    HW2 5550   2.920   3.771   4.626
 1551SOL     OW 5551   7.006   5.215   5.823
 1551SOL    HW1 5552   0.073   5.265   5.834
 1551SOL    HW2 5553   7.000   5.178   5.730
 1552SOL     OW 5554   2.131   4.162   1.062
 1552SOL    HW1 5555   2.190   4.240   1.042
 1552SOL    HW2 5556   2.146   4.133   1.157
 1553SOL     OW 5557   1.080   2.053   5.578
 1553SOL    HW1 5558   1.102   2.133   5.522
 1553SOL    HW2 5559   0.993   2.068   5.625
 1554SOL     OW 5560   4.487   2.130   3.579
 1554SOL    HW1 5561   4.582   2.122   3.608
 1554SOL    HW2 5562   4.483   2.129   3.479
 1555SOL     OW 5563   6.500   4.402   5.244
 1555SOL    HW1 5564   6.532   4.494   5.266
 1555SOL    HW2 5565   6.576   4.346   5.211
 1556SOL     OW 5566   2.152   0.952   5.371
 1556SOL    HW1 5567   2.159   0.865   5.323
 1556SOL    HW2 5568   2.080   1.008   5.329
 1557SOL     OW 5569   1.521   1.421   5.915
 1557SOL    HW1 5570   1.431   1.406   5.873
 1557SOL    HW2 5571   1.509   1.462   6.005
 1558SOL     OW 5572   6.897   6.887   4.265
 1558SOL    HW1 5573   6.817   6.844   4.306
 1558SOL    HW2 5574   6.881   6.984   4.251
 1559SOL     OW 5575   1.897   1.012   6.106
 1559SOL    HW1 5576   1.824   0.944   6.098
 1559SOL    HW2 5577   1.896   1.071   6.026
 1560SOL     OW 5578   0.062   0.495   1.493
 1560SOL    HW1 5579   0.160   0.481   1.504
 1560SOL    HW2 5580   0.037   0.479   1.397
 1561SOL     OW 5581   6.300   6.260   2.048
 1561SOL    HW1 5582   6.380   6.205   2.023
 1561SOL    HW2 5583   6.229   6.200   2.085
 1562SOL     OW 5584   5.630   6.980   4.467
 1562SOL    HW1 5585   5.632   0.001   4.375
 1562SOL    HW2 5586   5.632   6.880   4.460
 1563SOL     OW 5587   2.928   6.764   6.185
 1563SOL    HW1 5588   2.853   6.768   6.251
 1563SOL    HW2 5589   2.967   6.672   6.185
 1564SOL     OW 5590   1.939   2.979   3.069
 1564SOL    HW1 5591   2.033   2.987   3.101
 1564SOL    HW2 5592   1.887   3.059   3.099
 1565SOL     OW 5593   6.343   4.456   1.345
 1565SOL    HW1 5594   6.259   4.415   1.381
 1565SOL    HW2 5595   6.352   4.434   1.248
 1566SOL     OW 5596   5.835   4.148   1.927
 1566SOL    HW1 5597   5.767   4.221   1.930
 1566SOL    HW2 5598   5.889   4.157   1.843
 1567SOL     OW 5599   6.894   5.466   5.664
 1567SOL    HW1 5600   6.877   5.374   5.630
 1567SOL    HW2 5601   6.811   5.503   5.705
 1568SOL     OW 5602   0.510   6.465   0.978
 1568SOL    HW1 5603   0.589   6.408   1.000
 1568SOL    HW2 5604   0.490   6.526   1.055
 1569SOL     OW 5605   4.195   5.745   4.603
 1569SOL    HW1 5606   4.149   5.663   4.569
 1569SOL    HW2 5607   4.141   5.826   4.579
 1570SOL     OW 5608   2.669   2.067   1.581
 1570SOL    HW1 5609   2.724   2.142   1.616
 1570SOL    HW2 5610   2.584   2.059   1.634
 1571SOL     OW 5611   0.378   2.964   6.407
 1571SOL    HW1 5612   0.341   3.034   6.345
 1571SOL    HW2 5613   0.338   2.876   6.384
 1572SOL     OW 5614   0.668   5.549   4.264
 1572SOL    HW1 5615   0.677   5.465   4.317
 1572SOL    HW2 5616   0.683   5.628   4.324
 1573SOL     OW 5617   4.236   0.350   0.286
 1573SOL    HW1 5618   4.249   0.294   0.204
 1573SOL    HW2 5619   4.281   0.438   0.274
 1574SOL     OW 5620   4.917   3.481   2.196
 1574SOL    HW1 5621   4.875   3.572   2.203
 1574SOL    HW2 5622   4.912   3.450   2.101
 1575SOL     OW 5623   3.476   2.887   0.173
 1575SOL    HW1 5624   3.538   2.862   0.247
 1575SOL    HW2 5625   3.513   2.855   0.086
 1576SOL     OW 5626   6.087   5.245   3.025
 1576SOL    HW1 5627   5.990   5.260   3.006
 1576SOL    HW2 5628   6.104   5.148   3.038
 1577SOL     OW 5629   1.828   0.542   0.712
 1577SOL    HW1 5630   1.778   0.529   0.627
 1577SOL    HW2 5631   1.910   0.484   0.711
 1578SOL     OW 5632   5.644   6.183   4.942
 1578SOL    HW1 5633   5.648   6.276   4.907
 1578SOL    HW2 5634   5.705   6.124   4.889
 1579SOL     OW 5635   6.734   1.423   3.334
 1579SOL    HW1 5636   6.700   1.404   3.427
 1579SOL    HW2 5637   6.797   1.500   3.337
 1580SOL     OW 5638   3.389   3.759   5.583
 1580SOL    HW1 5639   3.436   3.676   5.612
 1580SOL    HW2 5640   3.322   3.786   5.653
 1581SOL     OW 5641   6.167   3.154   4.267
 1581SOL    HW1 5642   6.152   3.211   4.348
 1581SOL    HW2 5643   6.262   3.161   4.239
 1582SOL     OW 5644   6.314   6.399   4.060
 1582SOL    HW1 5645   6.237   6.358   4.110
 1582SOL    HW2 5646   6.288   6.490   4.029
 1583SOL     OW 5647   2.488   3.213   0.719
 1583SOL    HW1 5648   2.472   3.282   0.789
 1583SOL    HW2 5649   2.587   3.206   0.701
 1584SOL     OW 5650   1.682   0.083   6.506
 1584SOL    HW1 5651   1.773   0.111   6.475
 1584SOL    HW2 5652   1.688   7.014   6.554
 1585SOL     OW 5653   5.727   1.052   5.627
 1585SOL    HW1 5654   5.764   1.119   5.563
 1585SOL    HW2 5655   5.690   0.974   5.576
 1586SOL     OW 5656   4.090   3.706   2.954
 1586SOL    HW1 5657   4.163   3.721   3.020
 1586SOL    HW2 5658   4.086   3.608   2.931
 1587SOL     OW 5659   1.798   7.000   5.458
 1587SOL    HW1 5660   1.740   0.046   5.409
 1587SOL    HW2 5661   1.890   7.001   5.418
 1588SOL     OW 5662   7.015   3.945   0.655
 1588SOL    HW1 5663   6.938   3.934   0.718
 1588SOL    HW2 5664   0.073   3.986   0.703
 1589SOL     OW 5665   5.135   5.040   2.846
 1589SOL    HW1 5666   5.172   4.952   2.876
 1589SOL    HW2 5667   5.163   5.057   2.752
 1590SOL     OW 5668   2.198   6.137   4.493
 1590SOL    HW1 5669   2.268   6.144   4.565
 1590SOL    HW2 5670   2.219   6.058   4.435
 1591SOL     OW 5671   2.260   3.612   0.415
 1591SOL    HW1 5672   2.186   3.648   0.358
 1591SOL    HW2 5673   2.224   3.537   0.471
 1592SOL     OW 5674   3.645   3.851   4.033
 1592SOL    HW1 5675   3.607   3.809   3.951
 1592SOL    HW2 5676   3.626   3.793   4.113
 1593SOL     OW 5677   0.924   4.865   3.911
 1593SOL    HW1 5678   0.936   4.964   3.912
 1593SOL    HW2 5679   0.985   4.824   3.843
 1594SOL     OW 5680   0.678   5.507   2.630
 1594SOL    HW1 5681   0.732   5.515   2.714
 1594SOL    HW2 5682   0.732   5.461   2.560
 1595SOL     OW 5683   6.505   3.325   4.949
 1595SOL    HW1 5684   6.499   3.285   4.858
 1595SOL    HW2 5685   6.486   3.423   4.944
 1596SOL     OW 5686   3.677   4.972   6.383
 1596SOL    HW1 5687   3.714   5.056   6.423
 1596SOL    HW2 5688   3.577   4.976   6.384
 1597SOL     OW 5689   2.519   6.478   1.118
 1597SOL    HW1 5690   2.474   6.557   1.159
 1597SOL    HW2 5691   2.502   6.478   1.019
 1598SOL     OW 5692   6.598   5.374   1.901
 1598SOL    HW1 5693   6.541   5.379   1.983
 1598SOL    HW2 5694   6.540   5.379   1.820
 1599SOL     OW 5695   3.413   5.220   0.385
 1599SOL    HW1 5696   3.347   5.151   0.415
 1599SOL    HW2 5697   3.459   5.259   0.465
 1600SOL     OW 5698   3.400   1.433   4.876
 1600SOL    HW1 5699   3.339   1.484   4.815
 1600SOL    HW2 5700   3.474   1.392   4.823
 1601SOL     OW 5701   1.429   5.304   5.012
 1601SOL    HW1 5702   1.431   5.205   5.016
 1601SOL    HW2 5703   1.382   5.333   4.928
 1602SOL     OW 5704   6.704   3.086   1.652
 1602SOL    HW1 5705   6.732   3.180   1.630
 1602SOL    HW2 5706   6.750   3.023   1.589
 1603SOL     OW 5707   6.198   7.006   1.039
 1603SOL    HW1 5708   6.122   0.046   1.009
 1603SOL    HW2 5709   6.269   7.005   0.969
 1604SOL     OW 5710   1.149   5.193   3.854
 1604SOL    HW1 5711   1.222   5.128   3.874
 1604SOL    HW2 5712   1.143   5.260   3.927
 1605SOL     OW 5713   4.976   5.060   2.034
 1605SOL    HW1 5714   4.998   5.142   2.086
 1605SOL    HW2 5715   4.899   5.012   2.077
 1606SOL     OW 5716   6.164   5.179   4.721
 1606SOL    HW1 5717   6.098   5.176   4.646
 1606SOL    HW2 5718   6.145   5.257   4.780
 1607SOL     OW 5719   5.792   3.723   1.421
 1607SOL    HW1 5720   5.848   3.664   1.479
 1607SOL    HW2 5721   5.762   3.803   1.474
 1608SOL     OW 5722   2.186   6.967   0.784
 1608SOL    HW1 5723   2.086   6.958   0.776
 1608SOL    HW2 5724   2.208   0.024   0.846
 1609SOL     OW 5725   5.879   2.282   5.567
 1609SOL    HW1 5726   5.969   2.257   5.602
 1609SOL    HW2 5727   5.852   2.372   5.604
 1610SOL     OW 5728   4.206   0.100   3.705
 1610SOL    HW1 5729   4.270   0.134   3.774
 1610SOL    HW2 5730   4.139   0.171   3.685
 1611SOL     OW 5731   4.504   3.558   1.482
 1611SOL    HW1 5732   4.577   3.529   1.421
 1611SOL    HW2 5733   4.538   3.630   1.543
 1612SOL     OW 5734   3.280   6.900   4.654
 1612SOL    HW1 5735   3.293   6.835   4.578
 1612SOL    HW2 5736   3.290   6.993   4.620
 1613SOL     OW 5737   2.499   0.009   1.881
 1613SOL    HW1 5738   2.425   0.007   1.814
 1613SOL    HW2 5739   2.573   6.968   1.851
 1614SOL     OW 5740   6.871   1.641   5.550
 1614SOL    HW1 5741   6.968   1.635   5.525
 1614SOL    HW2 5742   6.818   1.579   5.492
 1615SOL     OW 5743   6.526   5.407   5.434
 1615SOL    HW1 5744   6.436   5.394   5.392
 1615SOL    HW2 5745   6.546   5.505   5.437
 1616SOL     OW 5746   2.231   2.173   5.608
 1616SOL    HW1 5747   2.188   2.095   5.654
 1616SOL    HW2 5748   2.311   2.202   5.661
 1617SOL     OW 5749   3.039   1.030   2.848
 1617SOL    HW1 5750   2.957   1.015   2.904
 1617SOL    HW2 5751   3.120   1.008   2.903
 1618SOL     OW 5752   5.211   2.687   1.791
 1618SOL    HW1 5753   5.164   2.738   1.863
 1618SOL    HW2 5754   5.283   2.631   1.831
 1619SOL     OW 5755   1.707   3.133   4.731
 1619SOL    HW1 5756   1.650   3.178   4.663
 1619SOL    HW2 5757   1.795   3.181   4.738
 1620SOL     OW 5758   3.652   5.900   1.264
 1620SOL    HW1 5759   3.659   5.999   1.256
 1620SOL    HW2 5760   3.647   5.874   1.360
 1621SOL     OW 5761   2.741   2.435   1.424
 1621SOL    HW1 5762   2.840   2.445   1.438
 1621SOL    HW2 5763   2.713   2.490   1.346
 1622SOL     OW 5764   2.307   2.797   5.612
 1622SOL    HW1 5765   2.373   2.833   5.547
 1622SOL    HW2 5766   2.217   2.836   5.594
 1623SOL     OW 5767   2.261   2.253   4.540
 1623SOL    HW1 5768   2.356   2.233   4.566
 1623SOL    HW2 5769   2.256   2.346   4.503
 1624SOL     OW 5770   1.766   0.481   0.443
 1624SOL    HW1 5771   1.742   0.385   0.445
 1624SOL    HW2 5772   1.694   0.533   0.396
 1625SOL     OW 5773   1.563   6.996   0.781
 1625SOL    HW1 5774   1.589   6.922   0.718
 1625SOL    HW2 5775   1.564   6.962   0.875
 1626SOL     OW 5776   2.344   3.853   6.259
 1626SOL    HW1 5777   2.278   3.840   6.332
 1626SOL    HW2 5778   2.296   3.869   6.172
 1627SOL     OW 5779   4.632   4.389   2.976
 1627SOL    HW1 5780   4.662   4.453   3.047
 1627SOL    HW2 5781   4.647   4.295   3.006
 1628SOL     OW 5782   3.870   3.261   0.271
 1628SOL    HW1 5783   3.918   3.173   0.277
 1628SOL    HW2 5784   3.774   3.245   0.245
 1629SOL     OW 5785   2.090   2.614   3.198
 1629SOL    HW1 5786   2.127   2.574   3.114
 1629SOL    HW2 5787   2.103   2.550   3.274
 1630SOL     OW 5788   5.794   4.439   4.252
 1630SOL    HW1 5789   5.698   4.420   4.230
 1630SOL    HW2 5790   5.799   4.525   4.303
 1631SOL     OW 5791   0.802   0.599   5.475
 1631SOL    HW1 5792   0.742   0.524   5.503
 1631SOL    HW2 5793   0.877   0.607   5.540
 1632SOL     OW 5794   4.140   6.888   6.908
 1632SOL    HW1 5795   4.157   6.797   6.871
 1632SOL    HW2 5796   4.140   6.955   6.834
 1633SOL     OW 5797   6.496   4.187   2.695
 1633SOL    HW1 5798   6.434   4.263   2.713
 1633SOL    HW2 5799   6.563   4.181   2.769
 1634SOL     OW 5800   3.814   0.856   1.228
 1634SOL    HW1 5801   3.725   0.850   1.272
 1634SOL    HW2 5802   3.866   0.773   1.245
 1635SOL     OW 5803   2.238   4.098   3.923
 1635SOL    HW1 5804   2.259   4.188   3.884
 1635SOL    HW2 5805   2.307   4.032   3.895
 1636SOL     OW 5806   2.235   6.705   0.700
 1636SOL    HW1 5807   2.210   6.647   0.778
 1636SOL    HW2 5808   2.216   6.801   0.723
 1637SOL     OW 5809   1.222   3.015   2.128
 1637SOL    HW1 5810   1.199   2.965   2.212
 1637SOL    HW2 5811   1.224   2.952   2.051
 1638SOL     OW 5812   0.568   2.542   5.628
 1638SOL    HW1 5813   0.581   2.542   5.529
 1638SOL    HW2 5814   0.606   2.626   5.667
 1639SOL     OW 5815   3.250   5.311   3.065
 1639SOL    HW1 5816   3.244   5.411   3.058
 1639SOL    HW2 5817   3.157   5.273   3.064
 1640SOL     OW 5818   5.444   0.028   0.848
 1640SOL    HW1 5819   5.462   0.126   0.835
 1640SOL    HW2 5820   5.528   6.995   0.829
 1641SOL     OW 5821   6.266   2.519   4.494
 1641SOL    HW1 5822   6.184   2.464   4.508
 1641SOL    HW2 5823   6.332   2.468   4.438
 1642SOL     OW 5824   0.490   2.422   1.252
 1642SOL    HW1 5825   0.473   2.326   1.228
 1642SOL    HW2 5826   0.538   2.426   1.339
 1643SOL     OW 5827   4.438   0.425   5.492
 1643SOL    HW1 5828   4.404   0.517   5.510
 1643SOL    HW2 5829   4.530   0.430   5.452
 1644SOL     OW 5830   3.846   1.687   1.093
 1644SOL    HW1 5831   3.903   1.702   1.173
 1644SOL    HW2 5832   3.760   1.643   1.121
 1645SOL     OW 5833   2.235   5.660   5.699
 1645SOL    HW1 5834   2.204   5.664   5.604
 1645SOL    HW2 5835   2.170   5.606   5.753
 1646SOL     OW 5836   2.772   3.490   0.575
 1646SOL    HW1 5837   2.693   3.429   0.575
 1646SOL    HW2 5838   2.762   3.559   0.503
 1647SOL     OW 5839   6.189   3.140   1.890
 1647SOL    HW1 5840   6.157   3.209   1.825
 1647SOL    HW2 5841   6.112   3.106   1.943
 1648SOL     OW 5842   2.653   0.651   3.682
 1648SOL    HW1 5843   2.672   0.553   3.681
 1648SOL    HW2 5844   2.730   0.701   3.641
 1649SOL     OW 5845   2.900   0.510   4.727
 1649SOL    HW1 5846   2.927   0.583   4.666
 1649SOL    HW2 5847   2.980   0.479   4.780
 1650SOL     OW 5848   2.789   6.867   4.273
 1650SOL    HW1 5849   2.797   6.956   4.318
 1650SOL    HW2 5850   2.698   6.859   4.232
 1651SOL     OW 5851   1.539   6.794   2.300
 1651SOL    HW1 5852   1.443   6.784   2.326
 1651SOL    HW2 5853   1.597   6.751   2.369
 1652SOL     OW 5854   3.962   3.286   1.007
 1652SOL    HW1 5855   3.864   3.302   1.015
 1652SOL    HW2 5856   4.007   3.316   1.092
 1653SOL     OW 5857   1.011   4.367   0.793
 1653SOL    HW1 5858   0.940   4.438   0.794
 1653SOL    HW2 5859   1.056   4.368   0.703
 1654SOL     OW 5860   0.979   2.650   3.651
 1654SOL    HW1 5861   0.885   2.632   3.622
 1654SOL    HW2 5862   1.012   2.734   3.609
 1655SOL     OW 5863   4.164   4.253   5.284
 1655SOL    HW1 5864   4.156   4.296   5.374
 1655SOL    HW2 5865   4.210   4.316   5.221
 1656SOL     OW 5866   0.138   3.432   2.047
 1656SOL    HW1 5867   0.054   3.392   2.010
 1656SOL    HW2 5868   0.117   3.478   2.134
 1657SOL     OW 5869   1.023   0.803   5.876
 1657SOL    HW1 5870   1.115   0.830   5.904
 1657SOL    HW2 5871   0.985   0.740   5.943
 1658SOL     OW 5872   6.038   6.663   3.436
 1658SOL    HW1 5873   6.126   6.681   3.392
 1658SOL    HW2 5874   6.051   6.599   3.512
 1659SOL     OW 5875   5.736   2.658   6.269
 1659SOL    HW1 5876   5.648   2.695   6.301
 1659SOL    HW2 5877   5.809   2.689   6.329
 1660SOL     OW 5878   2.596   5.676   3.688
 1660SOL    HW1 5879   2.634   5.583   3.688
 1660SOL    HW2 5880   2.496   5.670   3.690
 1661SOL     OW 5881   2.435   1.038   3.477
 1661SOL    HW1 5882   2.414   1.129   3.440
 1661SOL    HW2 5883   2.532   1.033   3.498
 1662SOL     OW 5884   0.437   1.431   3.811
 1662SOL    HW1 5885   0.531   1.418   3.780
 1662SOL    HW2 5886   0.412   1.360   3.876
 1663SOL     OW 5887   0.982   0.525   3.258
 1663SOL    HW1 5888   1.020   0.535   3.166
 1663SOL    HW2 5889   1.051   0.482   3.317
 1664SOL     OW 5890   1.754   5.947   3.962
 1664SOL    HW1 5891   1.806   5.934   3.877
 1664SOL    HW2 5892   1.811   5.993   4.029
 1665SOL     OW 5893   0.067   0.993   4.181
 1665SOL    HW1 5894   0.158   0.992   4.223
 1665SOL    HW2 5895   0.031   1.087   4.183
 1666SOL     OW 5896   6.406   1.924   0.211
 1666SOL    HW1 5897   6.312   1.932   0.176
 1666SOL    HW2 5898   6.452   2.012   0.201
 1667SOL     OW 5899   6.567   6.926   0.715
 1667SOL    HW1 5900   6.591   6.928   0.812
 1667SOL    HW2 5901   6.621   6.856   0.668
 1668SOL     OW 5902   2.383   6.932   4.830
 1668SOL    HW1 5903   2.354   0.003   4.796
 1668SOL    HW2 5904   2.468   6.941   4.881
 1669SOL     OW 5905   5.320   5.823   6.591
 1669SOL    HW1 5906   5.417   5.801   6.601
 1669SOL    HW2 5907   5.310   5.916   6.558
 1670SOL     OW 5908   6.799   3.718   6.585
 1670SOL    HW1 5909   6.734   3.678   6.521
 1670SOL    HW2 5910   6.750   3.769   6.656
 1671SOL     OW 5911   6.510   4.170   0.968
 1671SOL    HW1 5912   6.590   4.177   0.908
 1671SOL    HW2 5913   6.442   4.109   0.926
 1672SOL     OW 5914   2.384   4.460   3.134
 1672SOL    HW1 5915   2.387   4.401   3.215
 1672SOL    HW2 5916   2.298   4.444   3.085
 1673SOL     OW 5917   6.147   3.654   3.343
 1673SOL    HW1 5918   6.234   3.618   3.309
 1673SOL    HW2 5919   6.151   3.660   3.443
 1674SOL     OW 5920   2.533   6.046   0.500
 1674SOL    HW1 5921   2.595   6.124   0.503
 1674SOL    HW2 5922   2.538   6.002   0.410
 1675SOL     OW 5923   5.128   2.338   6.583
 1675SOL    HW1 5924   5.148   2.434   6.602
 1675SOL    HW2 5925   5.133   2.322   6.484
 1676SOL     OW 5926   3.049   1.823   3.145
 1676SOL    HW1 5927   3.057   1.747   3.081
 1676SOL    HW2 5928   2.997   1.897   3.103
 1677SOL     OW 5929   5.294   0.292   6.133
 1677SOL    HW1 5930   5.203   0.272   6.098
 1677SOL    HW2 5931   5.351   0.210   6.126
 1678SOL     OW 5932   4.496   6.620   2.124
 1678SOL    HW1 5933   4.577   6.578   2.084
 1678SOL    HW2 5934   4.499   6.611   2.223
 1679SOL     OW 5935   6.499   4.547   0.323
 1679SOL    HW1 5936   6.598   4.544   0.308
 1679SOL    HW2 5937   6.455   4.478   0.266
 1680SOL     OW 5938   0.184   2.183   5.735
 1680SOL    HW1 5939   0.202   2.090   5.765
 1680SOL    HW2 5940   0.168   2.241   5.815
 1681SOL     OW 5941   4.854   5.322   0.942
 1681SOL    HW1 5942   4.899   5.408   0.919
 1681SOL    HW2 5943   4.924   5.253   0.962
 1682SOL     OW 5944   0.221   3.804   5.833
 1682SOL    HW1 5945   0.255   3.724   5.783
 1682SOL    HW2 5946   0.123   3.814   5.815
 1683SOL     OW 5947   6.057   5.472   5.502
 1683SOL    HW1 5948   6.086   5.566   5.486
 1683SOL    HW2 5949   5.976   5.472   5.561
 1684SOL     OW 5950   0.619   6.779   4.352
 1684SOL    HW1 5951   0.703   6.745   4.393
 1684SOL    HW2 5952   0.604   6.874   4.379
 1685SOL     OW 5953   1.154   2.097   0.006
 1685SOL    HW1 5954   1.072   2.085   0.061
 1685SOL    HW2 5955   1.153   2.032   6.949
 1686SOL     OW 5956   1.676   0.421   5.841
 1686SOL    HW1 5957   1.682   0.519   5.861
 1686SOL    HW2 5958   1.675   0.370   5.927
 1687SOL     OW 5959   2.574   6.741   2.485
 1687SOL    HW1 5960   2.617   6.673   2.425
 1687SOL    HW2 5961   2.616   6.830   2.470
 1688SOL     OW 5962   0.775   2.067   3.312
 1688SOL    HW1 5963   0.806   2.111   3.228
 1688SOL    HW2 5964   0.786   1.968   3.303
 1689SOL     OW 5965   2.037   1.989   1.744
 1689SOL    HW1 5966   1.966   1.986   1.815
 1689SOL    HW2 5967   2.020   1.916   1.678
 1690SOL     OW 5968   1.568   1.569   0.392
 1690SOL    HW1 5969   1.569   1.507   0.314
 1690SOL    HW2 5970   1.627   1.533   0.464
 1691SOL     OW 5971   4.853   4.097   3.575
 1691SOL    HW1 5972   4.789   4.152   3.628
 1691SOL    HW2 5973   4.940   4.092   3.624
 1692SOL     OW 5974   0.247   6.280   4.039
 1692SOL    HW1 5975   0.254   6.362   4.095
 1692SOL    HW2 5976   0.150   6.262   4.019
 1693SOL     OW 5977   3.986   2.215   4.071
 1693SOL    HW1 5978   4.066   2.257   4.027
 1693SOL    HW2 5979   3.904   2.268   4.049
 1694SOL     OW 5980   5.950   6.417   5.289
 1694SOL    HW1 5981   6.032   6.467   5.316
 1694SOL    HW2 5982   5.879   6.482   5.263
 1695SOL     OW 5983   4.010   1.645   6.365
 1695SOL    HW1 5984   4.034   1.637   6.461
 1695SOL    HW2 5985   3.931   1.706   6.355
 1696SOL     OW 5986   3.299   5.838   1.987
 1696SOL    HW1 5987   3.308   5.931   1.951
 1696SOL    HW2 5988   3.342   5.833   2.077
 1697SOL     OW 5989   1.738   1.591   1.909
 1697SOL    HW1 5990   1.764   1.688   1.904
 1697SOL    HW2 5991   1.754   1.548   1.820
 1698SOL     OW 5992   4.953   1.296   6.795
 1698SOL    HW1 5993   4.896   1.217   6.774
 1698SOL    HW2 5994   4.927   1.373   6.737
 1699SOL     OW 5995   2.494   4.873   1.398
 1699SOL    HW1 5996   2.439   4.957   1.398
 1699SOL    HW2 5997   2.486   4.828   1.487
 1700SOL     OW 5998   5.676   3.028   4.655
 1700SOL    HW1 5999   5.617   3.043   4.734
 1700SOL    HW2 6000   5.691   2.930   4.643
 1701SOL     OW 6001   5.471   3.075   4.847
 1701SOL    HW1 6002   5.394   3.135   4.822
 1701SOL    HW2 6003   5.436   2.984   4.868
 1702SOL     OW 6004   4.995   2.570   1.617
 1702SOL    HW1 6005   5.059   2.608   1.685
 1702SOL    HW2 6006   5.046   2.512   1.553
 1703SOL     OW 6007   2.230   3.826   1.614
 1703SOL    HW1 6008   2.183   3.836   1.526
 1703SOL    HW2 6009   2.308   3.889   1.617
 1704SOL     OW 6010   6.868   1.673   2.417
 1704SOL    HW1 6011   6.775   1.696   2.388
 1704SOL    HW2 6012   6.922   1.647   2.337
 1705SOL     OW 6013   3.823   2.989   2.570
 1705SOL    HW1 6014   3.802   2.972   2.474
 1705SOL    HW2 6015   3.880   3.071   2.577
 1706SOL     OW 6016   2.515   0.843   6.149
 1706SOL    HW1 6017   2.542   0.748   6.163
 1706SOL    HW2 6018   2.556   0.878   6.065
 1707SOL     OW 6019   5.004   1.450   2.644
 1707SOL    HW1 6020   4.921   1.486   2.600
 1707SOL    HW2 6021   5.076   1.438   2.576
 1708SOL     OW 6022   0.363   4.121   1.282
 1708SOL    HW1 6023   0.324   4.090   1.195
 1708SOL    HW2 6024   0.292   4.119   1.353
 1709SOL     OW 6025   3.159   5.341   3.964
 1709SOL    HW1 6026   3.105   5.345   4.048
 1709SOL    HW2 6027   3.182   5.245   3.944
 1710SOL     OW 6028   6.635   4.097   4.851
 1710SOL    HW1 6029   6.537   4.115   4.839
 1710SOL    HW2 6030   6.662   4.021   4.793
 1711SOL     OW 6031   0.856   4.546   6.195
 1711SOL    HW1 6032   0.920   4.532   6.270
 1711SOL    HW2 6033   0.879   4.631   6.147
 1712SOL     OW 6034   1.559   4.172   2.061
 1712SOL    HW1 6035   1.618   4.249   2.037
 1712SOL    HW2 6036   1.471   4.206   2.095
 1713SOL     OW 6037   2.119   3.678   0.931
 1713SOL    HW1 6038   2.067   3.681   1.016
 1713SOL    HW2 6039   2.121   3.770   0.891
 1714SOL     OW 6040   4.525   0.994   0.522
 1714SOL    HW1 6041   4.516   0.984   0.621
 1714SOL    HW2 6042   4.548   1.089   0.500
 1715SOL     OW 6043   1.384   3.848   3.377
 1715SOL    HW1 6044   1.321   3.893   3.440
 1715SOL    HW2 6045   1.333   3.784   3.319
 1716SOL     OW 6046   0.046   6.819   0.481
 1716SOL    HW1 6047   0.033   6.739   0.422
 1716SOL    HW2 6048   0.130   6.867   0.453
 1717SOL     OW 6049   3.308   0.977   0.308
 1717SOL    HW1 6050   3.238   1.028   0.359
 1717SOL    HW2 6051   3.374   1.041   0.269
 1718SOL     OW 6052   1.985   4.539   5.345
 1718SOL    HW1 6053   1.970   4.555   5.248
 1718SOL    HW2 6054   2.028   4.619   5.386
 1719SOL     OW 6055   2.411   2.945   0.730
 1719SOL    HW1 6056   2.461   2.892   0.798
 1719SOL    HW2 6057   2.409   3.041   0.757
 1720SOL     OW 6058   0.388   2.304   2.364
 1720SOL    HW1 6059   0.459   2.316   2.433
 1720SOL    HW2 6060   0.417   2.234   2.298
 1721SOL     OW 6061   0.761   5.709   4.065
 1721SOL    HW1 6062   0.707   5.787   4.035
 1721SOL    HW2 6063   0.713   5.663   4.140
 1722SOL     OW 6064   4.992   0.144   1.740
 1722SOL    HW1 6065   4.906   0.150   1.792
 1722SOL    HW2 6066   4.991   0.062   1.684
 1723SOL     OW 6067   5.985   0.662   3.690
 1723SOL    HW1 6068   5.990   0.590   3.621
 1723SOL    HW2 6069   6.004   0.751   3.647
 1724SOL     OW 6070   5.245   0.095   0.218
 1724SOL    HW1 6071   5.157   0.106   0.263
 1724SOL    HW2 6072   5.314   0.151   0.264
 1725SOL     OW 6073   4.159   5.924   2.290
 1725SOL    HW1 6074   4.241   5.956   2.338
 1725SOL    HW2 6075   4.080   5.977   2.322
 1726SOL     OW 6076   6.340   4.394   5.011
 1726SOL    HW1 6077   6.248   4.375   5.046
 1726SOL    HW2 6078   6.405   4.397   5.086
 1727SOL     OW 6079   2.595   4.534   5.899
 1727SOL    HW1 6080   2.634   4.525   5.991
 1727SOL    HW2 6081   2.496   4.547   5.905
 1728SOL     OW 6082   5.012   5.687   3.668
 1728SOL    HW1 6083   5.028   5.785   3.660
 1728SOL    HW2 6084   5.083   5.637   3.620
 1729SOL     OW 6085   6.491   3.168   3.373
 1729SOL    HW1 6086   6.506   3.215   3.286
 1729SOL    HW2 6087   6.518   3.228   3.449
 1730SOL     OW 6088   4.611   2.626   4.313
 1730SOL    HW1 6089   4.549   2.703   4.315
 1730SOL    HW2 6090   4.560   2.541   4.325
 1731SOL     OW 6091   0.272   6.873   6.379
 1731SOL    HW1 6092   0.244   6.914   6.465
 1731SOL    HW2 6093   0.277   6.774   6.388
 1732SOL     OW 6094   1.178   4.453   6.527
 1732SOL    HW1 6095   1.263   4.406   6.554
 1732SOL    HW2 6096   1.159   4.526   6.593
 1733SOL     OW 6097   1.858   3.851   6.623
 1733SOL    HW1 6098   1.785   3.793   6.585
 1733SOL    HW2 6099   1.899   3.905   6.550
 1734SOL     OW 6100   5.342   4.087   0.972
 1734SOL    HW1 6101   5.392   4.013   1.017
 1734SOL    HW2 6102   5.304   4.055   0.886
 1735SOL     OW 6103   4.939   5.032   6.833
 1735SOL    HW1 6104   4.922   5.079   6.920
 1735SOL    HW2 6105   5.020   4.974   6.842
 1736SOL     OW 6106   3.982   3.314   0.515
 1736SOL    HW1 6107   3.952   3.233   0.565
 1736SOL    HW2 6108   3.951   3.309   0.420
 1737SOL     OW 6109   0.851   6.385   3.114
 1737SOL    HW1 6110   0.859   6.329   3.197
 1737SOL    HW2 6111   0.905   6.468   3.125
 1738SOL     OW 6112   0.540   1.306   1.977
 1738SOL    HW1 6113   0.566   1.246   2.053
 1738SOL    HW2 6114   0.606   1.381   1.969
 1739SOL     OW 6115   4.244   1.654   6.812
 1739SOL    HW1 6116   4.251   1.615   6.904
 1739SOL    HW2 6117   4.319   1.719   6.797
 1740SOL     OW 6118   0.555   1.838   6.726
 1740SOL    HW1 6119   0.637   1.891   6.749
 1740SOL    HW2 6120   0.576   1.740   6.730
 1741SOL     OW 6121   0.634   0.448   2.681
 1741SOL    HW1 6122   0.603   0.354   2.695
 1741SOL    HW2 6123   0.577   0.511   2.735
 1742SOL     OW 6124   6.261   6.196   3.422
 1742SOL    HW1 6125   6.180   6.151   3.385
 1742SOL    HW2 6126   6.263   6.291   3.391
 1743SOL     OW 6127   4.246   1.299   0.153
 1743SOL    HW1 6128   4.285   1.273   0.242
 1743SOL    HW2 6129   4.147   1.285   0.155
 1744SOL     OW 6130   4.079   6.375   1.638
 1744SOL    HW1 6131   4.124   6.344   1.554
 1744SOL    HW2 6132   4.083   6.303   1.707
 1745SOL     OW 6133   0.504   2.044   5.387
 1745SOL    HW1 6134   0.507   2.112   5.460
 1745SOL    HW2 6135   0.582   1.982   5.396
 1746SOL     OW 6136   2.796   1.605   0.497
 1746SOL    HW1 6137   2.894   1.602   0.513
 1746SOL    HW2 6138   2.767   1.523   0.448
 1747SOL     OW 6139   3.923   6.875   4.847
 1747SOL    HW1 6140   3.951   6.866   4.752
 1747SOL    HW2 6141   3.843   6.936   4.853
 1748SOL     OW 6142   5.488   0.932   1.906
 1748SOL    HW1 6143   5.572   0.903   1.952
 1748SOL    HW2 6144   5.477   0.880   1.821
 1749SOL     OW 6145   5.455   6.809   6.264
 1749SOL    HW1 6146   5.366   6.770   6.242
 1749SOL    HW2 6147   5.494   6.762   6.343
 1750SOL     OW 6148   3.661   1.121   3.064
 1750SOL    HW1 6149   3.737   1.164   3.112
 1750SOL    HW2 6150   3.577   1.132   3.116
 1751SOL     OW 6151   2.379   5.659   4.482
 1751SOL    HW1 6152   2.403   5.696   4.572
 1751SOL    HW2 6153   2.463   5.633   4.434
 1752SOL     OW 6154   6.664   1.990   6.108
 1752SOL    HW1 6155   6.737   1.964   6.045
 1752SOL    HW2 6156   6.576   1.990   6.059
 1753SOL     OW 6157   1.646   0.067   2.055
 1753SOL    HW1 6158   1.572   0.067   2.123
 1753SOL    HW2 6159   1.608   0.044   1.965
 1754SOL     OW 6160   3.048   3.274   3.021
 1754SOL    HW1 6161   2.993   3.308   2.944
 1754SOL    HW2 6162   3.049   3.174   3.019
 1755SOL     OW 6163   0.078   4.298   6.651
 1755SOL    HW1 6164   7.003   4.328   6.668
 1755SOL    HW2 6165   0.123   4.277   6.739
 1756SOL     OW 6166   5.926   5.206   5.812
 1756SOL    HW1 6167   5.922   5.280   5.879
 1756SOL    HW2 6168   5.847   5.210   5.751
 1757SOL     OW 6169   3.870   0.401   4.999
 1757SOL    HW1 6170   3.777   0.426   5.028
 1757SOL    HW2 6171   3.930   0.401   5.078
 1758SOL     OW 6172   2.354   1.285   3.138
 1758SOL    HW1 6173   2.385   1.339   3.059
 1758SOL    HW2 6174   2.268   1.322   3.172
 1759SOL     OW 6175   6.741   5.827   6.060
 1759SOL    HW1 6176   6.820   5.775   6.028
 1759SOL    HW2 6177   6.764   5.873   6.146
 1760SOL     OW 6178   4.661   6.206   3.816
 1760SOL    HW1 6179   4.732   6.137   3.826
 1760SOL    HW2 6180   4.700   6.289   3.776
 1761SOL     OW 6181   6.332   3.296   0.933
 1761SOL    HW1 6182   6.242   3.257   0.914
 1761SOL    HW2 6183   6.388   3.292   0.850
 1762SOL     OW 6184   6.187   2.625   0.177
 1762SOL    HW1 6185   6.200   2.526   0.172
 1762SOL    HW2 6186   6.089   2.645   0.187
 1763SOL     OW 6187   2.098   2.210   4.067
 1763SOL    HW1 6188   2.140   2.169   3.986
 1763SOL    HW2 6189   2.004   2.237   4.046
 1764SOL     OW 6190   6.614   4.156   3.096
 1764SOL    HW1 6191   6.577   4.210   3.172
 1764SOL    HW2 6192   6.640   4.217   3.021
 1765SOL     OW 6193   2.208   3.134   6.257
 1765SOL    HW1 6194   2.124   3.159   6.304
 1765SOL    HW2 6195   2.271   3.090   6.322
 1766SOL     OW 6196   6.042   4.341   5.593
 1766SOL    HW1 6197   6.133   4.304   5.578
 1766SOL    HW2 6198   6.020   4.337   5.690
 1767SOL     OW 6199   6.789   5.009   1.278
 1767SOL    HW1 6200   6.771   5.019   1.376
 1767SOL    HW2 6201   6.710   4.967   1.234
 1768SOL     OW 6202   6.128   0.372   3.214
 1768SOL    HW1 6203   6.098   0.460   3.249
 1768SOL    HW2 6204   6.183   0.385   3.132
 1769SOL     OW 6205   4.459   0.551   3.885
 1769SOL    HW1 6206   4.539   0.594   3.843
 1769SOL    HW2 6207   4.485   0.514   3.974
 1770SOL     OW 6208   3.731   5.568   5.921
 1770SOL    HW1 6209   3.670   5.620   5.980
 1770SOL    HW2 6210   3.682   5.542   5.838
 1771SOL     OW 6211   5.141   5.667   6.721
 1771SOL    HW1 6212   5.160   5.665   6.819
 1771SOL    HW2 6213   5.219   5.705   6.672
 1772SOL     OW 6214   2.267   6.063   1.978
 1772SOL    HW1 6215   2.352   6.088   2.024
 1772SOL    HW2 6216   2.209   6.144   1.967
 1773SOL     OW 6217   2.127   6.587   6.830
 1773SOL    HW1 6218   2.121   6.516   6.761
 1773SOL    HW2 6219   2.055   6.655   6.815
 1774SOL     OW 6220   2.550   5.511   1.300
 1774SOL    HW1 6221   2.566   5.412   1.299
 1774SOL    HW2 6222   2.624   5.557   1.251
 1775SOL     OW 6223   0.628   5.386   0.379
 1775SOL    HW1 6224   0.647   5.342   0.291
 1775SOL    HW2 6225   0.587   5.319   0.441
 1776SOL     OW 6226   3.122   5.948   4.879
 1776SOL    HW1 6227   3.041   5.890   4.887
 1776SOL    HW2 6228   3.177   5.918   4.801
 1777SOL     OW 6229   4.463   6.273   6.627
 1777SOL    HW1 6230   4.384   6.278   6.565
 1777SOL    HW2 6231   4.470   6.358   6.679
 1778SOL     OW 6232   0.888   3.561   5.933
 1778SOL    HW1 6233   0.980   3.543   5.897
 1778SOL    HW2 6234   0.895   3.609   6.020
 1779SOL     OW 6235   4.265   6.205   5.016
 1779SOL    HW1 6236   4.219   6.291   5.039
 1779SOL    HW2 6237   4.355   6.203   5.058
 1780SOL     OW 6238   3.960   2.266   6.324
 1780SOL    HW1 6239   3.880   2.287   6.268
 1780SOL    HW2 6240   4.043   2.289   6.273
 1781SOL     OW 6241   1.941   6.393   3.181
 1781SOL    HW1 6242   1.878   6.373   3.106
 1781SOL    HW2 6243   1.925   6.330   3.257
 1782SOL     OW 6244   3.204   0.987   5.065
 1782SOL    HW1 6245   3.255   1.010   5.148
 1782SOL    HW2 6246   3.106   0.999   5.082
 1783SOL     OW 6247   2.236   5.724   0.281
 1783SOL    HW1 6248   2.250   5.804   0.340
 1783SOL    HW2 6249   2.273   5.742   0.190
 1784SOL     OW 6250   1.539   6.748   5.975
 1784SOL    HW1 6251   1.439   6.741   5.975
 1784SOL    HW2 6252   1.579   6.659   5.996
 1785SOL     OW 6253   6.978   5.151   2.746
 1785SOL    HW1 6254   6.882   5.146   2.771
 1785SOL    HW2 6255   6.989   5.209   2.665
 1786SOL     OW 6256   4.183   2.218   1.195
 1786SOL    HW1 6257   4.129   2.156   1.253
 1786SOL    HW2 6258   4.163   2.313   1.220
 1787SOL     OW 6259   4.009   0.234   4.847
 1787SOL    HW1 6260   4.091   0.204   4.896
 1787SOL    HW2 6261   3.952   0.289   4.908
 1788SOL     OW 6262   1.571   5.019   4.912
 1788SOL    HW1 6263   1.594   4.928   4.945
 1788SOL    HW2 6264   1.654   5.073   4.902
 1789SOL     OW 6265   5.238   6.306   0.580
 1789SOL    HW1 6266   5.277   6.279   0.668
 1789SOL    HW2 6267   5.210   6.402   0.583
 1790SOL     OW 6268   1.908   6.603   2.872
 1790SOL    HW1 6269   1.947   6.564   2.788
 1790SOL    HW2 6270   1.809   6.616   2.860
 1791SOL     OW 6271   0.984   6.835   3.029
 1791SOL    HW1 6272   1.007   6.932   3.040
 1791SOL    HW2 6273   1.000   6.807   2.935
 1792SOL     OW 6274   0.131   4.033   4.169
 1792SOL    HW1 6275   0.133   4.002   4.264
 1792SOL    HW2 6276   0.049   3.996   4.125
 1793SOL     OW 6277   0.080   0.446   4.317
 1793SOL    HW1 6278   0.050   0.362   4.362
 1793SOL    HW2 6279   0.066   0.524   4.378
 1794SOL     OW 6280   4.306   6.115   6.379
 1794SOL    HW1 6281   4.342   6.134   6.288
 1794SOL    HW2 6282   4.218   6.069   6.371
 1795SOL     OW 6283   1.008   3.247   6.778
 1795SOL    HW1 6284   1.036   3.186   6.853
 1795SOL    HW2 6285   1.085   3.263   6.717
 1796SOL     OW 6286   4.022   0.194   5.395
 1796SOL    HW1 6287   4.038   0.285   5.358
 1796SOL    HW2 6288   3.927   0.166   5.376
 1797SOL     OW 6289   0.314   1.234   2.405
 1797SOL    HW1 6290   0.346   1.156   2.350
 1797SOL    HW2 6291   0.229   1.209   2.452
 1798SOL     OW 6292   5.968   1.670   3.049
 1798SOL    HW1 6293   5.884   1.634   3.007
 1798SOL    HW2 6294   6.046   1.652   2.989
 1799SOL     OW 6295   2.867   0.061   0.849
 1799SOL    HW1 6296   2.857   6.987   0.886
 1799SOL    HW2 6297   2.929   0.059   0.770
 1800SOL     OW 6298   2.668   4.662   2.215
 1800SOL    HW1 6299   2.676   4.761   2.229
 1800SOL    HW2 6300   2.713   4.636   2.129
 1801SOL     OW 6301   5.417   6.470   1.053
 1801SOL    HW1 6302   5.350   6.466   1.128
 1801SOL    HW2 6303   5.412   6.385   1.001
 1802SOL     OW 6304   5.744   5.618   4.497
 1802SOL    HW1 6305   5.649   5.614   4.464
 1802SOL    HW2 6306   5.745   5.662   4.587
 1803SOL     OW 6307   5.971   4.768   0.151
 1803SOL    HW1 6308   6.068   4.759   0.172
 1803SOL    HW2 6309   5.953   4.858   0.111
 1804SOL     OW 6310   2.879   3.861   6.100
 1804SOL    HW1 6311   2.917   3.906   6.181
 1804SOL    HW2 6312   2.820   3.925   6.051
 1805SOL     OW 6313   0.091   2.422   6.993
 1805SOL    HW1 6314   0.173   2.469   0.009
 1805SOL    HW2 6315   0.118   2.340   6.944
 1806SOL     OW 6316   6.668   6.140   0.532
 1806SOL    HW1 6317   6.607   6.183   0.598
 1806SOL    HW2 6318   6.634   6.156   0.439
 1807SOL     OW 6319   6.875   1.918   5.478
 1807SOL    HW1 6320   6.881   1.821   5.502
 1807SOL    HW2 6321   6.949   1.940   5.414
 1808SOL     OW 6322   2.325   4.925   3.983
 1808SOL    HW1 6323   2.338   5.018   3.950
 1808SOL    HW2 6324   2.398   4.901   4.046
 1809SOL     OW 6325   3.823   0.255   6.056
 1809SOL    HW1 6326   3.877   0.193   6.114
 1809SOL    HW2 6327   3.760   0.307   6.114
 1810SOL     OW 6328   3.646   6.268   3.603
 1810SOL    HW1 6329   3.732   6.224   3.577
 1810SOL    HW2 6330   3.666   6.347   3.661
 1811SOL     OW 6331   4.835   5.496   3.037
 1811SOL    HW1 6332   4.761   5.473   3.100
 1811SOL    HW2 6333   4.898   5.419   3.030
 1812SOL     OW 6334   4.684   4.673   4.812
 1812SOL    HW1 6335   4.683   4.680   4.712
 1812SOL    HW2 6336   4.774   4.641   4.842
 1813SOL     OW 6337   0.129   6.495   5.115
 1813SOL    HW1 6338   0.140   6.396   5.102
 1813SOL    HW2 6339   0.219   6.538   5.117
 1814SOL     OW 6340   4.439   0.326   2.697
 1814SOL    HW1 6341   4.481   0.240   2.726
 1814SOL    HW2 6342   4.505   0.401   2.709
 1815SOL     OW 6343   0.217   1.092   3.183
 1815SOL    HW1 6344   0.218   1.114   3.086
 1815SOL    HW2 6345   0.122   1.088   3.215
 1816SOL     OW 6346   1.323   5.425   0.346
 1816SOL    HW1 6347   1.409   5.414   0.296
 1816SOL    HW2 6348   1.315   5.519   0.378
 1817SOL     OW 6349   1.401   4.157   1.720
 1817SOL    HW1 6350   1.387   4.243   1.670
 1817SOL    HW2 6351   1.345   4.156   1.802
 1818SOL     OW 6352   0.372   2.036   3.189
 1818SOL    HW1 6353   0.375   2.026   3.089
 1818SOL    HW2 6354   0.404   2.127   3.215
 1819SOL     OW 6355   1.474   3.979   2.410
 1819SOL    HW1 6356   1.555   4.037   2.401
 1819SOL    HW2 6357   1.391   4.036   2.409
 1820SOL     OW 6358   5.435   6.577   2.229
 1820SOL    HW1 6359   5.532   6.601   2.220
 1820SOL    HW2 6360   5.392   6.638   2.296
 1821SOL     OW 6361   1.491   2.002   2.964
 1821SOL    HW1 6362   1.475   2.087   3.014
 1821SOL    HW2 6363   1.471   2.016   2.867
 1822SOL     OW 6364   3.350   3.581   2.156
 1822SOL    HW1 6365   3.291   3.581   2.075
 1822SOL    HW2 6366   3.346   3.491   2.201
 1823SOL     OW 6367   4.172   6.611   2.496
 1823SOL    HW1 6368   4.080   6.637   2.524
 1823SOL    HW2 6369   4.238   6.643   2.565
 1824SOL     OW 6370   4.838   1.389   2.107
 1824SOL    HW1 6371   4.908   1.321   2.088
 1824SOL    HW2 6372   4.875   1.460   2.167
 1825SOL     OW 6373   0.283   0.337   1.327
 1825SOL    HW1 6374   0.313   0.432   1.325
 1825SOL    HW2 6375   0.316   0.290   1.245
 1826SOL     OW 6376   2.536   5.220   6.169
 1826SOL    HW1 6377   2.530   5.132   6.123
 1826SOL    HW2 6378   2.480   5.288   6.121
 1827SOL     OW 6379   5.663   0.729   0.909
 1827SOL    HW1 6380   5.755   0.766   0.907
 1827SOL    HW2 6381   5.601   0.790   0.859
 1828SOL     OW 6382   3.152   2.590   0.277
 1828SOL    HW1 6383   3.064   2.542   0.284
 1828SOL    HW2 6384   3.175   2.630   0.366
 1829SOL     OW 6385   5.052   5.233   2.462
 1829SOL    HW1 6386   5.134   5.285   2.487
 1829SOL    HW2 6387   4.976   5.260   2.521
 1830SOL     OW 6388   4.471   0.649   4.893
 1830SOL    HW1 6389   4.455   0.676   4.798
 1830SOL    HW2 6390   4.487   0.551   4.898
 1831SOL     OW 6391   5.327   1.362   3.087
 1831SOL    HW1 6392   5.409   1.416   3.068
 1831SOL    HW2 6393   5.269   1.412   3.151
 1832SOL     OW 6394   5.575   2.819   6.573
 1832SOL    HW1 6395   5.639   2.752   6.611
 1832SOL    HW2 6396   5.544   2.789   6.483
 1833SOL     OW 6397   5.887   1.607   6.098
 1833SOL    HW1 6398   5.894   1.540   6.025
 1833SOL    HW2 6399   5.934   1.572   6.180
 1834SOL     OW 6400   2.319   4.230   6.971
 1834SOL    HW1 6401   2.375   4.172   0.012
 1834SOL    HW2 6402   2.289   4.177   6.892
 1835SOL     OW 6403   2.171   4.920   0.159
 1835SOL    HW1 6404   2.182   4.829   0.200
 1835SOL    HW2 6405   2.086   4.923   0.107
 1836SOL     OW 6406   0.532   6.246   0.509
 1836SOL    HW1 6407   0.477   6.176   0.464
 1836SOL    HW2 6408   0.479   6.288   0.583
 1837SOL     OW 6409   6.757   2.698   4.355
 1837SOL    HW1 6410   6.764   2.602   4.382
 1837SOL    HW2 6411   6.845   2.743   4.369
 1838SOL     OW 6412   0.836   2.832   4.273
 1838SOL    HW1 6413   0.925   2.826   4.228
 1838SOL    HW2 6414   0.764   2.809   4.207
 1839SOL     OW 6415   1.578   1.418   0.175
 1839SOL    HW1 6416   1.543   1.494   0.120
 1839SOL    HW2 6417   1.512   1.343   0.175
 1840SOL     OW 6418   1.041   5.175   1.628
 1840SOL    HW1 6419   1.085   5.251   1.676
 1840SOL    HW2 6420   1.092   5.091   1.645
 1841SOL     OW 6421   1.764   3.005   4.467
 1841SOL    HW1 6422   1.784   3.086   4.414
 1841SOL    HW2 6423   1.744   3.031   4.562
 1842SOL     OW 6424   1.652   5.610   6.633
 1842SOL    HW1 6425   1.606   5.524   6.657
 1842SOL    HW2 6426   1.589   5.686   6.648
 1843SOL     OW 6427   4.770   2.092   5.482
 1843SOL    HW1 6428   4.678   2.123   5.458
 1843SOL    HW2 6429   4.768   1.993   5.500
 1844SOL     OW 6430   5.601   4.988   3.417
 1844SOL    HW1 6431   5.674   4.951   3.359
 1844SOL    HW2 6432   5.517   4.997   3.364
 1845SOL     OW 6433   5.167   6.632   0.983
 1845SOL    HW1 6434   5.262   6.602   0.994
 1845SOL    HW2 6435   5.111   6.555   0.954
 1846SOL     OW 6436   3.844   1.263   5.589
 1846SOL    HW1 6437   3.782   1.246   5.665
 1846SOL    HW2 6438   3.813   1.343   5.538
 1847SOL     OW 6439   1.383   5.841   6.317
 1847SOL    HW1 6440   1.403   5.921   6.259
 1847SOL    HW2 6441   1.469   5.794   6.339
 1848SOL     OW 6442   2.303   1.733   4.364
 1848SOL    HW1 6443   2.254   1.814   4.329
 1848SOL    HW2 6444   2.376   1.763   4.425
 1849SOL     OW 6445   2.860   0.894   5.668
 1849SOL    HW1 6446   2.831   0.957   5.740
 1849SOL    HW2 6447   2.877   0.944   5.584
 1850SOL     OW 6448   5.361   1.958   1.095
 1850SOL    HW1 6449   5.379   2.045   1.048
 1850SOL    HW2 6450   5.304   1.900   1.036
 1851SOL     OW 6451   6.052   4.479   2.884
 1851SOL    HW1 6452   6.019   4.391   2.919
 1851SOL    HW2 6453   6.088   4.533   2.960
 1852SOL     OW 6454   5.798   1.730   5.758
 1852SOL    HW1 6455   5.771   1.755   5.851
 1852SOL    HW2 6456   5.897   1.736   5.749
 1853SOL     OW 6457   1.478   4.992   0.462
 1853SOL    HW1 6458   1.484   5.092   0.473
 1853SOL    HW2 6459   1.387   4.968   0.431
 1854SOL     OW 6460   2.181   5.283   4.605
 1854SOL    HW1 6461   2.273   5.292   4.641
 1854SOL    HW2 6462   2.145   5.374   4.582
 1855SOL     OW 6463   6.551   4.567   1.676
 1855SOL    HW1 6464   6.504   4.542   1.592
 1855SOL    HW2 6465   6.487   4.565   1.753
 1856SOL     OW 6466   5.438   2.906   0.274
 1856SOL    HW1 6467   5.504   2.968   0.231
 1856SOL    HW2 6468   5.371   2.877   0.206
 1857SOL     OW 6469   5.428   0.850   3.488
 1857SOL    HW1 6470   5.329   0.849   3.475
 1857SOL    HW2 6471   5.464   0.757   3.480
 1858SOL     OW 6472   5.585   4.138   2.613
 1858SOL    HW1 6473   5.604   4.041   2.625
 1858SOL    HW2 6474   5.517   4.168   2.680
 1859SOL     OW 6475   5.774   2.194   3.755
 1859SOL    HW1 6476   5.746   2.171   3.662
 1859SOL    HW2 6477   5.833   2.274   3.753
 1860SOL     OW 6478   3.613   2.126   4.737
 1860SOL    HW1 6479   3.642   2.030   4.743
 1860SOL    HW2 6480   3.532   2.132   4.679
 1861SOL     OW 6481   4.885   6.580   2.144
 1861SOL    HW1 6482   4.843   6.650   2.202
 1861SOL    HW2 6483   4.817   6.543   2.080
 1862SOL     OW 6484   3.270   2.832   0.808
 1862SOL    HW1 6485   3.294   2.759   0.745
 1862SOL    HW2 6486   3.171   2.842   0.812
 1863SOL     OW 6487   2.025   1.655   1.587
 1863SOL    HW1 6488   1.971   1.639   1.505
 1863SOL    HW2 6489   2.108   1.705   1.563
 1864SOL     OW 6490   6.989   6.834   2.853
 1864SOL    HW1 6491   0.038   6.873   2.916
 1864SOL    HW2 6492   6.899   6.832   2.898
 1865SOL     OW 6493   5.625   3.100   6.909
 1865SOL    HW1 6494   5.529   3.117   6.929
 1865SOL    HW2 6495   5.675   3.084   6.995
 1866SOL     OW 6496   5.966   5.392   1.498
 1866SOL    HW1 6497   6.014   5.425   1.579
 1866SOL    HW2 6498   5.868   5.407   1.509
 1867SOL     OW 6499   1.474   4.279   6.562
 1867SOL    HW1 6500   1.554   4.307   6.509
 1867SOL    HW2 6501   1.477   4.319   6.653
 1868SOL     OW 6502   6.058   3.782   5.052
 1868SOL    HW1 6503   6.080   3.779   4.955
 1868SOL    HW2 6504   6.003   3.703   5.077
 1869SOL     OW 6505   5.620   0.676   4.859
 1869SOL    HW1 6506   5.682   0.716   4.793
 1869SOL    HW2 6507   5.537   0.732   4.866
 1870SOL     OW 6508   2.181   3.755   5.017
 1870SOL    HW1 6509   2.217   3.849   5.018
 1870SOL    HW2 6510   2.123   3.742   5.097
 1871SOL     OW 6511   1.830   1.195   1.050
 1871SOL    HW1 6512   1.779   1.167   0.969
 1871SOL    HW2 6513   1.839   1.295   1.050
 1872SOL     OW 6514   1.626   5.714   6.341
 1872SOL    HW1 6515   1.654   5.715   6.437
 1872SOL    HW2 6516   1.616   5.620   6.310
 1873SOL     OW 6517   5.759   6.382   6.869
 1873SOL    HW1 6518   5.744   6.395   6.967
 1873SOL    HW2 6519   5.697   6.441   6.818
 1874SOL     OW 6520   0.645   4.111   3.095
 1874SOL    HW1 6521   0.585   4.039   3.129
 1874SOL    HW2 6522   0.725   4.119   3.154
 1875SOL     OW 6523   0.315   6.944   2.029
 1875SOL    HW1 6524   0.284   6.931   1.935
 1875SOL    HW2 6525   0.256   7.012   2.073
 1876SOL     OW 6526   1.933   6.069   4.136
 1876SOL    HW1 6527   1.932   6.074   4.236
 1876SOL    HW2 6528   1.899   6.154   4.098
 1877SOL     OW 6529   6.935   0.229   4.409
 1877SOL    HW1 6530   6.927   0.159   4.479
 1877SOL    HW2 6531   6.887   0.200   4.326
 1878SOL     OW 6532   6.395   3.067   5.856
 1878SOL    HW1 6533   6.368   3.022   5.771
 1878SOL    HW2 6534   6.487   3.106   5.845
 1879SOL     OW 6535   1.745   6.208   5.586
 1879SOL    HW1 6536   1.666   6.267   5.575
 1879SOL    HW2 6537   1.780   6.181   5.496
 1880SOL     OW 6538   6.838   0.128   4.178
 1880SOL    HW1 6539   6.752   0.172   4.151
 1880SOL    HW2 6540   6.882   0.089   4.096
 1881SOL     OW 6541   0.954   2.493   6.637
 1881SOL    HW1 6542   0.979   2.400   6.611
 1881SOL    HW2 6543   0.990   2.558   6.570
 1882SOL     OW 6544   0.844   6.427   0.172
 1882SOL    HW1 6545   0.838   6.483   0.089
 1882SOL    HW2 6546   0.754   6.391   0.195
 1883SOL     OW 6547   0.032   1.930   3.980
 1883SOL    HW1 6548   0.077   1.841   3.972
 1883SOL    HW2 6549   0.051   1.984   3.897
 1884SOL     OW 6550   6.026   1.708   1.286
 1884SOL    HW1 6551   5.950   1.648   1.260
 1884SOL    HW2 6552   6.013   1.799   1.246
 1885SOL     OW 6553   3.343   0.991   4.846
 1885SOL    HW1 6554   3.424   0.934   4.856
 1885SOL    HW2 6555   3.298   1.001   4.934
 1886SOL     OW 6556   0.424   6.515   3.650
 1886SOL    HW1 6557   0.445   6.585   3.718
 1886SOL    HW2 6558   0.390   6.433   3.697
 1887SOL     OW 6559   2.173   5.458   6.241
 1887SOL    HW1 6560   2.083   5.501   6.252
 1887SOL    HW2 6561   2.166   5.386   6.172
 1888SOL     OW 6562   2.232   0.155   3.600
 1888SOL    HW1 6563   2.309   0.125   3.657
 1888SOL    HW2 6564   2.263   0.230   3.541
 1889SOL     OW 6565   0.225   3.629   2.658
 1889SOL    HW1 6566   0.260   3.714   2.618
 1889SOL    HW2 6567   0.269   3.551   2.613
 1890SOL     OW 6568   1.755   6.077   4.594
 1890SOL    HW1 6569   1.691   6.149   4.622
 1890SOL    HW2 6570   1.822   6.062   4.667
 1891SOL     OW 6571   4.038   3.478   3.759
 1891SOL    HW1 6572   3.939   3.461   3.763
 1891SOL    HW2 6573   4.084   3.399   3.719
 1892SOL     OW 6574   0.227   0.865   2.535
 1892SOL    HW1 6575   0.163   0.922   2.483
 1892SOL    HW2 6576   0.179   0.822   2.611
 1893SOL     OW 6577   3.416   2.903   3.968
 1893SOL    HW1 6578   3.506   2.885   3.928
 1893SOL    HW2 6579   3.421   2.892   4.067
 1894SOL     OW 6580   2.950   2.951   5.515
 1894SOL    HW1 6581   3.002   2.973   5.597
 1894SOL    HW2 6582   2.923   2.855   5.517
 1895SOL     OW 6583   1.106   6.378   1.580
 1895SOL    HW1 6584   1.084   6.428   1.664
 1895SOL    HW2 6585   1.148   6.290   1.603
 1896SOL     OW 6586   6.390   3.076   0.619
 1896SOL    HW1 6587   6.320   3.115   0.678
 1896SOL    HW2 6588   6.347   3.034   0.539
 1897SOL     OW 6589   2.331   4.796   3.314
 1897SOL    HW1 6590   2.284   4.710   3.300
 1897SOL    HW2 6591   2.357   4.836   3.226
 1898SOL     OW 6592   2.143   5.904   2.140
 1898SOL    HW1 6593   2.201   5.947   2.071
 1898SOL    HW2 6594   2.094   5.975   2.191
 1899SOL     OW 6595   6.807   1.241   2.383
 1899SOL    HW1 6596   6.899   1.229   2.419
 1899SOL    HW2 6597   6.779   1.336   2.393
 1900SOL     OW 6598   2.943   6.307   6.295
 1900SOL    HW1 6599   2.993   6.352   6.369
 1900SOL    HW2 6600   2.947   6.208   6.308
 1901SOL     OW 6601   4.046   3.154   2.864
 1901SOL    HW1 6602   3.948   3.166   2.880
 1901SOL    HW2 6603   4.071   3.059   2.882
 1902SOL     OW 6604   1.452   6.927   5.317
 1902SOL    HW1 6605   1.359   6.921   5.353
 1902SOL    HW2 6606   1.507   6.986   5.376
 1903SOL     OW 6607   0.755   2.393   4.191
 1903SOL    HW1 6608   0.746   2.308   4.242
 1903SOL    HW2 6609   0.664   2.427   4.166
 1904SOL     OW 6610   5.646   5.467   1.916
 1904SOL    HW1 6611   5.732   5.419   1.934
 1904SOL    HW2 6612   5.653   5.561   1.949
 1905SOL     OW 6613   0.229   2.959   3.864
 1905SOL    HW1 6614   0.214   2.863   3.842
 1905SOL    HW2 6615   0.189   3.017   3.792
 1906SOL     OW 6616   0.026   6.226   3.838
 1906SOL    HW1 6617   0.029   6.306   3.778
 1906SOL    HW2 6618   6.950   6.202   3.857
 1907SOL     OW 6619   6.882   2.923   0.779
 1907SOL    HW1 6620   6.813   2.881   0.838
 1907SOL    HW2 6621   6.859   2.905   0.683
 1908SOL     OW 6622   4.749   0.518   1.786
 1908SOL    HW1 6623   4.834   0.533   1.735
 1908SOL    HW2 6624   4.697   0.445   1.743
 1909SOL     OW 6625   6.562   5.148   5.095
 1909SOL    HW1 6626   6.592   5.126   5.188
 1909SOL    HW2 6627   6.548   5.063   5.044
 1910SOL     OW 6628   0.291   6.198   4.966
 1910SOL    HW1 6629   0.257   6.202   5.060
 1910SOL    HW2 6630   0.385   6.232   4.962
 1911SOL     OW 6631   5.692   6.282   4.018
 1911SOL    HW1 6632   5.652   6.368   3.985
 1911SOL    HW2 6633   5.652   6.259   4.107
 1912SOL     OW 6634   3.484   4.928   2.185
 1912SOL    HW1 6635   3.388   4.944   2.207
 1912SOL    HW2 6636   3.490   4.871   2.102
 1913SOL     OW 6637   2.952   3.989   6.345
 1913SOL    HW1 6638   2.880   4.045   6.385
 1913SOL    HW2 6639   2.990   3.929   6.416
 1914SOL     OW 6640   4.461   4.447   0.509
 1914SOL    HW1 6641   4.501   4.384   0.575
 1914SOL    HW2 6642   4.378   4.486   0.547
 1915SOL     OW 6643   4.204   2.100   6.953
 1915SOL    HW1 6644   4.194   2.164   6.876
 1915SOL    HW2 6645   4.206   2.152   0.020
 1916SOL     OW 6646   3.596   1.761   2.910
 1916SOL    HW1 6647   3.501   1.751   2.941
 1916SOL    HW2 6648   3.607   1.716   2.821
 1917SOL     OW 6649   2.662   3.979   1.392
 1917SOL    HW1 6650   2.746   3.993   1.339
 1917SOL    HW2 6651   2.684   3.974   1.489
 1918SOL     OW 6652   5.155   3.214   4.330
 1918SOL    HW1 6653   5.229   3.274   4.299
 1918SOL    HW2 6654   5.192   3.125   4.357
 1919SOL     OW 6655   6.571   0.837   6.420
 1919SOL    HW1 6656   6.555   0.774   6.344
 1919SOL    HW2 6657   6.489   0.839   6.478
 1920SOL     OW 6658   4.873   3.660   0.496
 1920SOL    HW1 6659   4.967   3.626   0.487
 1920SOL    HW2 6660   4.819   3.594   0.548
 1921SOL     OW 6661   3.356   2.369   6.966
 1921SOL    HW1 6662   3.345   2.270   6.972
 1921SOL    HW2 6663   3.318   2.402   6.880
 1922SOL     OW 6664   3.621   3.554   4.289
 1922SOL    HW1 6665   3.544   3.544   4.226
 1922SOL    HW2 6666   3.696   3.603   4.244
 1923SOL     OW 6667   2.912   0.178   4.176
 1923SOL    HW1 6668   2.966   0.109   4.129
 1923SOL    HW2 6669   2.822   0.185   4.133
 1924SOL     OW 6670   5.538   0.559   1.255
 1924SOL    HW1 6671   5.482   0.622   1.310
 1924SOL    HW2 6672   5.485   0.476   1.238
 1925SOL     OW 6673   1.237   4.673   1.017
 1925SOL    HW1 6674   1.314   4.734   1.001
 1925SOL    HW2 6675   1.218   4.620   0.934
 1926SOL     OW 6676   2.646   6.641   1.771
 1926SOL    HW1 6677   2.604   6.688   1.848
 1926SOL    HW2 6678   2.676   6.708   1.703
 1927SOL     OW 6679   1.666   5.365   0.958
 1927SOL    HW1 6680   1.763   5.390   0.960
 1927SOL    HW2 6681   1.636   5.356   0.863
 1928SOL     OW 6682   1.454   4.120   2.980
 1928SOL    HW1 6683   1.385   4.058   3.017
 1928SOL    HW2 6684   1.543   4.074   2.978
 1929SOL     OW 6685   3.067   0.716   3.311
 1929SOL    HW1 6686   3.032   0.631   3.272
 1929SOL    HW2 6687   3.036   0.725   3.406
 1930SOL     OW 6688   3.233   3.550   0.053
 1930SOL    HW1 6689   3.189   3.627   0.008
 1930SOL    HW2 6690   3.164   3.494   0.099
 1931SOL     OW 6691   5.496   3.411   3.638
 1931SOL    HW1 6692   5.591   3.391   3.613
 1931SOL    HW2 6693   5.455   3.472   3.570
 1932SOL     OW 6694   4.845   1.017   1.887
 1932SOL    HW1 6695   4.783   1.019   1.965
 1932SOL    HW2 6696   4.931   1.060   1.911
 1933SOL     OW 6697   1.526   1.160   1.199
 1933SOL    HW1 6698   1.586   1.123   1.269
 1933SOL    HW2 6699   1.555   1.253   1.176
 1934SOL     OW 6700   6.683   0.745   6.895
 1934SOL    HW1 6701   6.593   0.776   6.866
 1934SOL    HW2 6702   6.728   0.697   6.819
 1935SOL     OW 6703   5.991   5.069   3.450
 1935SOL    HW1 6704   5.915   5.127   3.478
 1935SOL    HW2 6705   6.011   5.003   3.523
 1936SOL     OW 6706   5.964   2.930   6.611
 1936SOL    HW1 6707   5.937   2.905   6.704
 1936SOL    HW2 6708   5.937   3.024   6.593
 1937SOL     OW 6709   0.952   5.157   6.774
 1937SOL    HW1 6710   1.024   5.202   6.827
 1937SOL    HW2 6711   0.993   5.086   6.716
 1938SOL     OW 6712   0.039   1.504   6.557
 1938SOL    HW1 6713   0.039   1.578   6.624
 1938SOL    HW2 6714   6.964   1.484   6.529
 1939SOL     OW 6715   0.477   0.859   3.830
 1939SOL    HW1 6716   0.508   0.765   3.816
 1939SOL    HW2 6717   0.402   0.879   3.767
 1940SOL     OW 6718   1.073   5.115   2.123
 1940SOL    HW1 6719   1.112   5.194   2.075
 1940SOL    HW2 6720   1.118   5.032   2.091
 1941SOL     OW 6721   5.924   0.035   4.198
 1941SOL    HW1 6722   5.977   0.024   4.282
 1941SOL    HW2 6723   5.975   7.016   4.121
 1942SOL     OW 6724   0.801   6.372   1.817
 1942SOL    HW1 6725   0.725   6.429   1.847
 1942SOL    HW2 6726   0.870   6.367   1.890
 1943SOL     OW 6727   0.695   4.279   3.680
 1943SOL    HW1 6728   0.673   4.355   3.740
 1943SOL    HW2 6729   0.642   4.199   3.706
 1944SOL     OW 6730   6.786   3.853   3.694
 1944SOL    HW1 6731   6.883   3.877   3.697
 1944SOL    HW2 6732   6.731   3.931   3.727
 1945SOL     OW 6733   4.606   1.675   2.314
 1945SOL    HW1 6734   4.563   1.717   2.234
 1945SOL    HW2 6735   4.705   1.682   2.306
 1946SOL     OW 6736   6.002   4.824   6.730
 1946SOL    HW1 6737   6.062   4.783   6.661
 1946SOL    HW2 6738   5.913   4.842   6.689
 1947SOL     OW 6739   5.488   6.143   2.315
 1947SOL    HW1 6740   5.571   6.195   2.338
 1947SOL    HW2 6741   5.465   6.157   2.219
 1948SOL     OW 6742   5.001   2.909   2.851
 1948SOL    HW1 6743   5.074   2.944   2.910
 1948SOL    HW2 6744   4.982   2.975   2.779
 1949SOL     OW 6745   3.206   3.904   6.700
 1949SOL    HW1 6746   3.220   3.979   6.763
 1949SOL    HW2 6747   3.264   3.917   6.619
 1950SOL     OW 6748   3.853   3.613   4.144
 1950SOL    HW1 6749   3.851   3.519   4.108
 1950SOL    HW2 6750   3.897   3.673   4.078
 1951SOL     OW 6751   0.866   5.393   6.134
 1951SOL    HW1 6752   0.950   5.340   6.145
 1951SOL    HW2 6753   0.800   5.366   6.205
 1952SOL     OW 6754   5.786   3.552   0.087
 1952SOL    HW1 6755   5.743   3.640   0.111
 1952SOL    HW2 6756   5.724   3.500   0.029
 1953SOL     OW 6757   0.505   1.249   6.285
 1953SOL    HW1 6758   0.491   1.302   6.369
 1953SOL    HW2 6759   0.495   1.152   6.305
 1954SOL     OW 6760   4.126   6.710   3.213
 1954SOL    HW1 6761   4.201   6.769   3.184
 1954SOL    HW2 6762   4.080   6.673   3.132
 1955SOL     OW 6763   6.888   3.478   4.001
 1955SOL    HW1 6764   6.941   3.393   3.988
 1955SOL    HW2 6765   6.910   3.517   4.090
 1956SOL     OW 6766   4.782   1.403   1.519
 1956SOL    HW1 6767   4.750   1.315   1.555
 1956SOL    HW2 6768   4.794   1.467   1.595
 1957SOL     OW 6769   0.352   3.118   4.825
 1957SOL    HW1 6770   0.424   3.146   4.761
 1957SOL    HW2 6771   0.330   3.195   4.885
 1958SOL     OW 6772   5.349   2.045   0.361
 1958SOL    HW1 6773   5.355   2.038   0.261
 1958SOL    HW2 6774   5.254   2.042   0.390
 1959SOL     OW 6775   1.752   1.626   5.864
 1959SOL    HW1 6776   1.664   1.590   5.894
 1959SOL    HW2 6777   1.755   1.724   5.881
 1960SOL     OW 6778   4.718   4.461   1.930
 1960SOL    HW1 6779   4.638   4.400   1.933
 1960SOL    HW2 6780   4.749   4.478   2.024
 1961SOL     OW 6781   6.426   3.622   4.546
 1961SOL    HW1 6782   6.470   3.556   4.485
 1961SOL    HW2 6783   6.480   3.631   4.630
 1962SOL     OW 6784   0.010   6.952   2.356
 1962SOL    HW1 6785   6.941   6.996   2.375
 1962SOL    HW2 6786   0.048   6.989   2.272
 1963SOL     OW 6787   0.734   1.051   6.894
 1963SOL    HW1 6788   0.732   1.140   6.941
 1963SOL    HW2 6789   0.669   1.054   6.817
 1964SOL     OW 6790   5.355   3.188   0.662
 1964SOL    HW1 6791   5.256   3.195   0.668
 1964SOL    HW2 6792   5.397   3.268   0.705
 1965SOL     OW 6793   5.552   5.139   4.881
 1965SOL    HW1 6794   5.618   5.133   4.806
 1965SOL    HW2 6795   5.572   5.219   4.937
 1966SOL     OW 6796   1.820   5.343   6.693
 1966SOL    HW1 6797   1.913   5.348   6.730
 1966SOL    HW2 6798   1.754   5.338   6.767
 1967SOL     OW 6799   6.392   2.589   3.978
 1967SOL    HW1 6800   6.455   2.628   4.044
 1967SOL    HW2 6801   6.317   2.653   3.960
 1968SOL     OW 6802   2.523   1.350   5.650
 1968SOL    HW1 6803   2.591   1.366   5.579
 1968SOL    HW2 6804   2.545   1.404   5.731
 1969SOL     OW 6805   0.299   6.154   1.837
 1969SOL    HW1 6806   0.359   6.101   1.898
 1969SOL    HW2 6807   0.343   6.165   1.748
 1970SOL     OW 6808   5.017   4.214   2.635
 1970SOL    HW1 6809   5.083   4.172   2.572
 1970SOL    HW2 6810   5.066   4.257   2.710
 1971SOL     OW 6811   1.374   5.684   4.300
 1971SOL    HW1 6812   1.386   5.752   4.227
 1971SOL    HW2 6813   1.287   5.637   4.287
 1972SOL     OW 6814   5.360   2.165   3.431
 1972SOL    HW1 6815   5.333   2.233   3.363
 1972SOL    HW2 6816   5.402   2.211   3.509
 1973SOL     OW 6817   4.219   2.309   6.771
 1973SOL    HW1 6818   4.305   2.296   6.819
 1973SOL    HW2 6819   4.210   2.240   6.699
 1974SOL     OW 6820   2.051   6.443   4.222
 1974SOL    HW1 6821   2.066   6.470   4.317
 1974SOL    HW2 6822   2.099   6.507   4.162
 1975SOL     OW 6823   2.058   2.386   2.789
 1975SOL    HW1 6824   2.080   2.367   2.885
 1975SOL    HW2 6825   2.140   2.373   2.733
 1976SOL     OW 6826   2.666   0.404   4.587
 1976SOL    HW1 6827   2.747   0.461   4.601
 1976SOL    HW2 6828   2.602   0.453   4.528
 1977SOL     OW 6829   1.024   4.293   0.285
 1977SOL    HW1 6830   1.061   4.225   0.222
 1977SOL    HW2 6831   0.987   4.370   0.232
 1978SOL     OW 6832   2.621   0.664   2.274
 1978SOL    HW1 6833   2.529   0.628   2.290
 1978SOL    HW2 6834   2.614   0.755   2.233
 1979SOL     OW 6835   5.345   3.129   6.946
 1979SOL    HW1 6836   5.267   3.141   6.885
 1979SOL    HW2 6837   5.316   3.145   0.022
 1980SOL     OW 6838   4.026   6.807   1.352
 1980SOL    HW1 6839   3.954   6.749   1.390
 1980SOL    HW2 6840   4.112   6.756   1.349
 1981SOL     OW 6841   4.469   2.722   1.523
 1981SOL    HW1 6842   4.518   2.635   1.525
 1981SOL    HW2 6843   4.508   2.783   1.592
 1982SOL     OW 6844   2.518   2.269   6.615
 1982SOL    HW1 6845   2.575   2.262   6.533
 1982SOL    HW2 6846   2.540   2.353   6.664
 1983SOL     OW 6847   6.983   2.251   0.972
 1983SOL    HW1 6848   6.980   2.168   1.028
 1983SOL    HW2 6849   6.948   2.328   1.024
 1984SOL     OW 6850   4.833   3.207   6.221
 1984SOL    HW1 6851   4.769   3.230   6.147
 1984SOL    HW2 6852   4.835   3.282   6.287
 1985SOL     OW 6853   5.176   5.809   5.113
 1985SOL    HW1 6854   5.163   5.715   5.082
 1985SOL    HW2 6855   5.128   5.872   5.052
 1986SOL     OW 6856   3.279   3.251   3.435
 1986SOL    HW1 6857   3.323   3.212   3.354
 1986SOL    HW2 6858   3.193   3.295   3.409
 1987SOL     OW 6859   1.536   2.074   2.081
 1987SOL    HW1 6860   1.475   1.999   2.109
 1987SOL    HW2 6861   1.482   2.146   2.038
 1988SOL     OW 6862   1.617   1.760   2.522
 1988SOL    HW1 6863   1.601   1.853   2.556
 1988SOL    HW2 6864   1.613   1.695   2.598
 1989SOL     OW 6865   3.085   5.050   3.509
 1989SOL    HW1 6866   2.999   5.093   3.483
 1989SOL    HW2 6867   3.151   5.120   3.536
 1990SOL     OW 6868   4.625   0.091   0.940
 1990SOL    HW1 6869   4.683   0.132   1.009
 1990SOL    HW2 6870   4.668   0.008   0.905
 1991SOL     OW 6871   2.965   5.094   2.314
 1991SOL    HW1 6872   3.040   5.159   2.325
 1991SOL    HW2 6873   2.904   5.126   2.242
 1992SOL     OW 6874   0.649   0.216   3.103
 1992SOL    HW1 6875   0.648   0.269   3.188
 1992SOL    HW2 6876   0.631   0.277   3.026
 1993SOL     OW 6877   1.234   0.885   1.409
 1993SOL    HW1 6878   1.205   0.981   1.405
 1993SOL    HW2 6879   1.165   0.831   1.458
 1994SOL     OW 6880   3.078   3.509   1.437
 1994SOL    HW1 6881   3.086   3.595   1.386
 1994SOL    HW2 6882   3.052   3.530   1.532
 1995SOL     OW 6883   6.400   0.516   4.253
 1995SOL    HW1 6884   6.367   0.606   4.225
 1995SOL    HW2 6885   6.376   0.449   4.183
 1996SOL     OW 6886   4.803   0.067   1.251
 1996SOL    HW1 6887   4.790   0.140   1.317
 1996SOL    HW2 6888   4.784   6.997   1.295
 1997SOL     OW 6889   2.666   1.709   3.125
 1997SOL    HW1 6890   2.670   1.612   3.149
 1997SOL    HW2 6891   2.610   1.721   3.044
 1998SOL     OW 6892   1.992   3.657   1.191
 1998SOL    HW1 6893   2.035   3.595   1.257
 1998SOL    HW2 6894   1.912   3.613   1.151
 1999SOL     OW 6895   0.328   0.192   5.660
 1999SOL    HW1 6896   0.291   0.195   5.753
 1999SOL    HW2 6897   0.354   0.098   5.638
 2000SOL     OW 6898   4.210   4.138   6.423
 2000SOL    HW1 6899   4.150   4.070   6.381
 2000SOL    HW2 6900   4.263   4.184   6.352
 2001SOL     OW 6901   1.457   1.520   6.921
 2001SOL    HW1 6902   1.453   1.619   6.911
 2001SOL    HW2 6903   1.372   1.480   6.887
 2002SOL     OW 6904   5.759   4.493   6.732
 2002SOL    HW1 6905   5.676   4.444   6.758
 2002SOL    HW2 6906   5.756   4.514   6.634
 2003SOL     OW 6907   6.929   5.300   1.294
 2003SOL    HW1 6908   6.922   5.305   1.394
 2003SOL    HW2 6909   6.938   5.204   1.267
 2004SOL     OW 6910   3.266   0.937   2.946
 2004SOL    HW1 6911   3.294   0.845   2.974
 2004SOL    HW2 6912   3.346   0.988   2.913
 2005SOL     OW 6913   1.646   6.539   0.056
 2005SOL    HW1 6914   1.582   6.466   0.080
 2005SOL    HW2 6915   1.715   6.547   0.129
 2006SOL     OW 6916   5.990   0.309   1.942
 2006SOL    HW1 6917   6.070   0.326   2.001
 2006SOL    HW2 6918   6.001   0.221   1.897
 2007SOL     OW 6919   5.613   4.934   5.855
 2007SOL    HW1 6920   5.570   5.008   5.907
 2007SOL    HW2 6921   5.568   4.847   5.878
 2008SOL     OW 6922   2.180   3.019   2.745
 2008SOL    HW1 6923   2.183   3.105   2.795
 2008SOL    HW2 6924   2.221   2.947   2.802
 2009SOL     OW 6925   5.830   6.998   3.768
 2009SOL    HW1 6926   5.876   6.945   3.696
 2009SOL    HW2 6927   5.731   6.991   3.756
 2010SOL     OW 6928   6.662   1.276   1.699
 2010SOL    HW1 6929   6.702   1.352   1.649
 2010SOL    HW2 6930   6.695   1.190   1.661
 2011SOL     OW 6931   0.571   0.389   5.248
 2011SOL    HW1 6932   0.554   0.475   5.200
 2011SOL    HW2 6933   0.534   0.396   5.341
 2012SOL     OW 6934   0.379   2.424   0.523
 2012SOL    HW1 6935   0.389   2.417   0.424
 2012SOL    HW2 6936   0.321   2.349   0.556
 2013SOL     OW 6937   0.594   2.449   2.192
 2013SOL    HW1 6938   0.499   2.441   2.224
 2013SOL    HW2 6939   0.595   2.457   2.093
 2014SOL     OW 6940   4.161   2.195   3.001
 2014SOL    HW1 6941   4.231   2.205   3.072
 2014SOL    HW2 6942   4.196   2.231   2.914
 2015SOL     OW 6943   3.373   6.062   1.105
 2015SOL    HW1 6944   3.349   6.031   1.197
 2015SOL    HW2 6945   3.419   5.988   1.056
 2016SOL     OW 6946   2.300   0.457   4.402
 2016SOL    HW1 6947   2.271   0.463   4.497
 2016SOL    HW2 6948   2.221   0.444   4.343
 2017SOL     OW 6949   1.107   6.839   4.143
 2017SOL    HW1 6950   1.171   6.915   4.132
 2017SOL    HW2 6951   1.156   6.752   4.130
 2018SOL     OW 6952   0.430   1.236   4.743
 2018SOL    HW1 6953   0.368   1.310   4.717
 2018SOL    HW2 6954   0.478   1.204   4.661
 2019SOL     OW 6955   0.845   4.721   6.791
 2019SOL    HW1 6956   0.823   4.804   6.842
 2019SOL    HW2 6957   0.866   4.648   6.856
 2020SOL     OW 6958   1.988   6.838   1.320
 2020SOL    HW1 6959   2.084   6.861   1.301
 2020SOL    HW2 6960   1.929   6.893   1.261
 2021SOL     OW 6961   0.128   5.341   3.840
 2021SOL    HW1 6962   0.151   5.432   3.807
 2021SOL    HW2 6963   0.084   5.347   3.929
 2022SOL     OW 6964   2.179   3.216   4.160
 2022SOL    HW1 6965   2.136   3.278   4.095
 2022SOL    HW2 6966   2.219   3.139   4.111
 2023SOL     OW 6967   0.582   6.086   6.207
 2023SOL    HW1 6968   0.511   6.032   6.252
 2023SOL    HW2 6969   0.672   6.046   6.224
 2024SOL     OW 6970   6.234   5.478   3.077
 2024SOL    HW1 6971   6.167   5.407   3.055
 2024SOL    HW2 6972   6.285   5.452   3.158
 2025SOL     OW 6973   1.943   0.850   4.621
 2025SOL    HW1 6974   1.970   0.905   4.542
 2025SOL    HW2 6975   1.935   0.754   4.594
 2026SOL     OW 6976   1.489   6.543   5.605
 2026SOL    HW1 6977   1.485   6.451   5.567
 2026SOL    HW2 6978   1.559   6.596   5.557
 2027SOL     OW 6979   6.274   6.768   3.219
 2027SOL    HW1 6980   6.317   6.778   3.309
 2027SOL    HW2 6981   6.342   6.734   3.154
 2028SOL     OW 6982   1.927   6.030   4.794
 2028SOL    HW1 6983   1.907   5.966   4.868
 2028SOL    HW2 6984   2.026   6.029   4.775
 2029SOL     OW 6985   0.148   2.334   0.281
 2029SOL    HW1 6986   0.244   2.352   0.261
 2029SOL    HW2 6987   0.130   2.236   0.277
 2030SOL     OW 6988   1.498   6.122   2.450
 2030SOL    HW1 6989   1.409   6.088   2.480
 2030SOL    HW2 6990   1.551   6.150   2.530
 2031SOL     OW 6991   6.788   0.734   4.371
 2031SOL    HW1 6992   6.740   0.810   4.328
 2031SOL    HW2 6993   6.885   0.758   4.382
 2032SOL     OW 6994   3.098   2.560   6.246
 2032SOL    HW1 6995   3.027   2.548   6.178
 2032SOL    HW2 6996   3.062   2.615   6.322
 2033SOL     OW 6997   2.604   6.898   1.346
 2033SOL    HW1 6998   2.633   6.829   1.411
 2033SOL    HW2 6999   2.607   6.860   1.253
 2034SOL     OW 7000   0.712   3.677   4.971
 2034SOL    HW1 7001   0.761   3.765   4.968
 2034SOL    HW2 7002   0.778   3.603   4.987
 2035SOL     OW 7003   4.895   6.012   3.562
 2035SOL    HW1 7004   4.795   6.007   3.565
 2035SOL    HW2 7005   4.930   5.939   3.504
 2036SOL     OW 7006   6.989   3.798   5.666
 2036SOL    HW1 7007   6.912   3.735   5.676
 2036SOL    HW2 7008   6.955   3.890   5.646
 2037SOL     OW 7009   0.514   2.579   6.435
 2037SOL    HW1 7010   0.512   2.653   6.367
 2037SOL    HW2 7011   0.608   2.554   6.455
 2038SOL     OW 7012   2.195   0.909   5.619
 2038SOL    HW1 7013   2.242   0.821   5.621
 2038SOL    HW2 7014   2.174   0.934   5.525
 2039SOL     OW 7015   5.170   5.945   4.662
 2039SOL    HW1 7016   5.265   5.920   4.647
 2039SOL    HW2 7017   5.129   5.977   4.577
 2040SOL     OW 7018   2.868   1.279   0.678
 2040SOL    HW1 7019   2.804   1.353   0.701
 2040SOL    HW2 7020   2.957   1.318   0.657
 2041SOL     OW 7021   2.636   0.226   6.561
 2041SOL    HW1 7022   2.709   0.172   6.519
 2041SOL    HW2 7023   2.553   0.169   6.570
 2042SOL     OW 7024   0.393   0.190   5.126
 2042SOL    HW1 7025   0.401   0.146   5.037
 2042SOL    HW2 7026   0.470   0.253   5.139
 2043SOL     OW 7027   1.371   3.335   0.218
 2043SOL    HW1 7028   1.464   3.297   0.216
 2043SOL    HW2 7029   1.312   3.275   0.272
 2044SOL     OW 7030   2.849   1.259   2.423
 2044SOL    HW1 7031   2.943   1.285   2.447
 2044SOL    HW2 7032   2.846   1.161   2.403
 2045SOL     OW 7033   1.692   6.099   3.405
 2045SOL    HW1 7034   1.648   6.056   3.483
 2045SOL    HW2 7035   1.750   6.174   3.436
 2046SOL     OW 7036   0.486   2.583   5.235
 2046SOL    HW1 7037   0.442   2.669   5.209
 2046SOL    HW2 7038   0.580   2.601   5.264
 2047SOL     OW 7039   6.681   0.306   1.954
 2047SOL    HW1 7040   6.697   0.394   1.910
 2047SOL    HW2 7041   6.588   0.303   1.992
 2048SOL     OW 7042   2.389   1.297   3.404
 2048SOL    HW1 7043   2.305   1.263   3.445
 2048SOL    HW2 7044   2.385   1.286   3.305
 2049SOL     OW 7045   4.423   2.393   5.190
 2049SOL    HW1 7046   4.338   2.390   5.138
 2049SOL    HW2 7047   4.482   2.466   5.153
 2050SOL     OW 7048   6.999   1.013   2.743
 2050SOL    HW1 7049   6.940   1.081   2.787
 2050SOL    HW2 7050   6.975   1.005   2.647
 2051SOL     OW 7051   3.287   6.920   6.427
 2051SOL    HW1 7052   3.188   6.936   6.423
 2051SOL    HW2 7053   3.313   6.894   6.520
 2052SOL     OW 7054   0.613   4.158   0.825
 2052SOL    HW1 7055   0.593   4.251   0.794
 2052SOL    HW2 7056   0.702   4.157   0.870
 2053SOL     OW 7057   4.668   5.130   1.568
 2053SOL    HW1 7058   4.664   5.034   1.543
 2053SOL    HW2 7059   4.733   5.178   1.508
 2054SOL     OW 7060   2.987   3.816   3.980
 2054SOL    HW1 7061   2.960   3.720   3.980
 2054SOL    HW2 7062   2.967   3.856   4.070
 2055SOL     OW 7063   3.056   2.970   5.861
 2055SOL    HW1 7064   3.138   2.955   5.918
 2055SOL    HW2 7065   2.987   2.902   5.884
 2056SOL     OW 7066   2.981   5.553   1.687
 2056SOL    HW1 7067   2.944   5.487   1.622
 2056SOL    HW2 7068   2.930   5.546   1.774
 2057SOL     OW 7069   6.033   3.074   4.559
 2057SOL    HW1 7070   5.958   3.137   4.537
 2057SOL    HW2 7071   6.073   3.039   4.474
 2058SOL     OW 7072   5.450   0.581   3.749
 2058SOL    HW1 7073   5.531   0.524   3.764
 2058SOL    HW2 7074   5.368   0.529   3.770
 2059SOL     OW 7075   2.834   1.392   5.885
 2059SOL    HW1 7076   2.750   1.417   5.932
 2059SOL    HW2 7077   2.846   1.293   5.888
 2060SOL     OW 7078   1.387   2.230   6.481
 2060SOL    HW1 7079   1.420   2.178   6.402
 2060SOL    HW2 7080   1.458   2.293   6.511
 2061SOL     OW 7081   2.642   2.505   3.767
 2061SOL    HW1 7082   2.733   2.465   3.779
 2061SOL    HW2 7083   2.589   2.493   3.852
 2062SOL     OW 7084   4.550   5.065   4.156
 2062SOL    HW1 7085   4.590   5.008   4.228
 2062SOL    HW2 7086   4.557   5.017   4.068
 2063SOL     OW 7087   1.336   1.579   4.014
 2063SOL    HW1 7088   1.260   1.644   4.013
 2063SOL    HW2 7089   1.423   1.628   4.014
 2064SOL     OW 7090   6.931   3.846   4.607
 2064SOL    HW1 7091   6.864   3.893   4.549
 2064SOL    HW2 7092   6.965   3.765   4.559
 2065SOL     OW 7093   3.438   3.243   5.509
 2065SOL    HW1 7094   3.488   3.157   5.494
 2065SOL    HW2 7095   3.363   3.226   5.574
 2066SOL     OW 7096   2.267   2.505   4.423
 2066SOL    HW1 7097   2.250   2.518   4.325
 2066SOL    HW2 7098   2.314   2.585   4.459
 2067SOL     OW 7099   5.982   4.268   3.156
 2067SOL    HW1 7100   5.893   4.236   3.123
 2067SOL    HW2 7101   6.054   4.217   3.109
 2068SOL     OW 7102   3.161   6.568   4.320
 2068SOL    HW1 7103   3.104   6.639   4.278
 2068SOL    HW2 7104   3.115   6.531   4.400
 2069SOL     OW 7105   5.427   1.647   2.792
 2069SOL    HW1 7106   5.424   1.715   2.865
 2069SOL    HW2 7107   5.345   1.589   2.797
 2070SOL     OW 7108   0.632   5.742   1.956
 2070SOL    HW1 7109   0.606   5.659   1.905
 2070SOL    HW2 7110   0.696   5.795   1.902
 2071SOL     OW 7111   0.025   2.374   4.116
 2071SOL    HW1 7112   0.099   2.438   4.136
 2071SOL    HW2 7113   6.956   2.423   4.116
 2072SOL     OW 7114   5.432   3.017   5.764
 2072SOL    HW1 7115   5.378   3.054   5.689
 2072SOL    HW2 7116   5.372   2.966   5.826
 2073SOL     OW 7117   3.177   5.850   0.033
 2073SOL    HW1 7118   3.263   5.901   0.031
 2073SOL    HW2 7119   3.192   5.760   0.076
 2074SOL     OW 7120   3.501   4.349   5.300
 2074SOL    HW1 7121   3.579   4.408   5.323
 2074SOL    HW2 7122   3.425   4.367   5.363
 2075SOL     OW 7123   4.986   0.773   1.173
 2075SOL    HW1 7124   5.004   0.778   1.271
 2075SOL    HW2 7125   4.891   0.798   1.155
 2076SOL     OW 7126   6.467   0.120   3.484
 2076SOL    HW1 7127   6.502   0.208   3.451
 2076SOL    HW2 7128   6.511   0.046   3.433
 2077SOL     OW 7129   0.503   4.410   1.359
 2077SOL    HW1 7130   0.411   4.423   1.323
 2077SOL    HW2 7131   0.559   4.363   1.290
 2078SOL     OW 7132   1.008   2.434   0.442
 2078SOL    HW1 7133   1.001   2.506   0.510
 2078SOL    HW2 7134   1.076   2.366   0.471
 2079SOL     OW 7135   5.410   1.799   3.845
 2079SOL    HW1 7136   5.493   1.842   3.879
 2079SOL    HW2 7137   5.405   1.809   3.746
 2080SOL     OW 7138   1.997   2.835   4.440
 2080SOL    HW1 7139   1.983   2.751   4.387
 2080SOL    HW2 7140   1.911   2.886   4.445
 2081SOL     OW 7141   0.602   6.118   2.594
 2081SOL    HW1 7142   0.604   6.068   2.508
 2081SOL    HW2 7143   0.509   6.118   2.630
 2082SOL     OW 7144   6.550   6.165   4.265
 2082SOL    HW1 7145   6.502   6.122   4.188
 2082SOL    HW2 7146   6.482   6.200   4.330
 2083SOL     OW 7147   0.998   5.815   3.182
 2083SOL    HW1 7148   1.074   5.761   3.218
 2083SOL    HW2 7149   1.032   5.904   3.152
 2084SOL     OW 7150   5.851   2.502   1.123
 2084SOL    HW1 7151   5.912   2.476   1.048
 2084SOL    HW2 7152   5.854   2.601   1.136
 2085SOL     OW 7153   6.154   4.832   6.485
 2085SOL    HW1 7154   6.248   4.840   6.516
 2085SOL    HW2 7155   6.143   4.750   6.429
 2086SOL     OW 7156   5.495   1.569   5.778
 2086SOL    HW1 7157   5.593   1.583   5.762
 2086SOL    HW2 7158   5.465   1.627   5.854
 2087SOL     OW 7159   4.799   1.321   6.000
 2087SOL    HW1 7160   4.752   1.294   6.084
 2087SOL    HW2 7161   4.889   1.277   5.997
 2088SOL     OW 7162   0.619   3.534   5.610
 2088SOL    HW1 7163   0.580   3.499   5.524
 2088SOL    HW2 7164   0.688   3.470   5.643
 2089SOL     OW 7165   3.072   5.117   4.835
 2089SOL    HW1 7166   3.150   5.100   4.776
 2089SOL    HW2 7167   2.999   5.052   4.814
 2090SOL     OW 7168   5.595   2.285   6.223
 2090SOL    HW1 7169   5.689   2.312   6.204
 2090SOL    HW2 7170   5.540   2.294   6.140
 2091SOL     OW 7171   5.483   0.291   0.887
 2091SOL    HW1 7172   5.549   0.360   0.915
 2091SOL    HW2 7173   5.392   0.315   0.922
 2092SOL     OW 7174   3.619   3.303   2.717
 2092SOL    HW1 7175   3.672   3.314   2.801
 2092SOL    HW2 7176   3.526   3.276   2.740
 2093SOL     OW 7177   5.028   0.292   6.912
 2093SOL    HW1 7178   5.054   0.206   6.956
 2093SOL    HW2 7179   4.929   0.299   6.906
 2094SOL     OW 7180   4.801   2.894   1.168
 2094SOL    HW1 7181   4.837   2.895   1.261
 2094SOL    HW2 7182   4.793   2.989   1.135
 2095SOL     OW 7183   3.919   5.842   4.274
 2095SOL    HW1 7184   3.844   5.805   4.219
 2095SOL    HW2 7185   3.890   5.927   4.317
 2096SOL     OW 7186   3.737   0.495   2.637
 2096SOL    HW1 7187   3.794   0.418   2.610
 2096SOL    HW2 7188   3.661   0.505   2.572
 2097SOL     OW 7189   2.556   5.817   5.290
 2097SOL    HW1 7190   2.561   5.893   5.355
 2097SOL    HW2 7191   2.499   5.745   5.329
 2098SOL     OW 7192   1.425   0.172   3.959
 2098SOL    HW1 7193   1.451   0.266   3.984
 2098SOL    HW2 7194   1.483   0.141   3.883
 2099SOL     OW 7195   4.597   1.960   0.040
 2099SOL    HW1 7196   4.667   1.895   0.010
 2099SOL    HW2 7197   4.516   1.951   7.001
 2100SOL     OW 7198   4.931   0.307   0.907
 2100SOL    HW1 7199   5.014   0.301   0.852
 2100SOL    HW2 7200   4.931   0.394   0.957
 2101SOL     OW 7201   0.658   0.489   3.012
 2101SOL    HW1 7202   0.660   0.514   3.109
 2101SOL    HW2 7203   0.707   0.559   2.960
 2102SOL     OW 7204   3.749   3.059   2.827
 2102SOL    HW1 7205   3.668   3.114   2.809
 2102SOL    HW2 7206   3.782   3.019   2.741
 2103SOL     OW 7207   1.665   6.999   1.408
 2103SOL    HW1 7208   1.712   0.010   1.491
 2103SOL    HW2 7209   1.674   6.900   1.397
 2104SOL     OW 7210   0.920   4.640   2.473
 2104SOL    HW1 7211   0.832   4.663   2.516
 2104SOL    HW2 7212   0.970   4.724   2.453
 2105SOL     OW 7213   5.268   6.417   5.911
 2105SOL    HW1 7214   5.339   6.383   5.850
 2105SOL    HW2 7215   5.259   6.357   5.990
 2106SOL     OW 7216   3.619   3.641   0.669
 2106SOL    HW1 7217   3.603   3.731   0.627
 2106SOL    HW2 7218   3.607   3.569   0.601
 2107SOL     OW 7219   5.822   4.638   4.447
 2107SOL    HW1 7220   5.828   4.737   4.462
 2107SOL    HW2 7221   5.905   4.594   4.481
 2108SOL     OW 7222   4.423   6.151   5.721
 2108SOL    HW1 7223   4.346   6.179   5.664
 2108SOL    HW2 7224   4.451   6.227   5.779
 2109SOL     OW 7225   2.847   6.165   2.124
 2109SOL    HW1 7226   2.831   6.156   2.223
 2109SOL    HW2 7227   2.896   6.085   2.091
 2110SOL     OW 7228   3.761   5.828   0.675
 2110SOL    HW1 7229   3.771   5.764   0.599
 2110SOL    HW2 7230   3.680   5.885   0.660
 2111SOL     OW 7231   1.088   2.654   0.311
 2111SOL    HW1 7232   1.159   2.646   0.241
 2111SOL    HW2 7233   1.052   2.563   0.332
 2112SOL     OW 7234   0.746   0.806   6.288
 2112SOL    HW1 7235   0.763   0.892   6.336
 2112SOL    HW2 7236   0.797   0.804   6.202
 2113SOL     OW 7237   6.572   1.722   4.580
 2113SOL    HW1 7238   6.670   1.741   4.589
 2113SOL    HW2 7239   6.558   1.651   4.511
 2114SOL     OW 7240   2.894   0.536   5.743
 2114SOL    HW1 7241   2.870   0.563   5.836
 2114SOL    HW2 7242   2.975   0.587   5.713
 2115SOL     OW 7243   0.291   6.931   4.379
 2115SOL    HW1 7244   0.285   6.971   4.288
 2115SOL    HW2 7245   0.238   6.846   4.382
 2116SOL     OW 7246   2.663   6.720   6.703
 2116SOL    HW1 7247   2.601   6.671   6.764
 2116SOL    HW2 7248   2.667   6.817   6.731
 2117SOL     OW 7249   6.535   2.921   0.817
 2117SOL    HW1 7250   6.505   2.968   0.900
 2117SOL    HW2 7251   6.518   2.980   0.738
 2118SOL     OW 7252   0.017   3.033   2.538
 2118SOL    HW1 7253   0.085   3.045   2.465
 2118SOL    HW2 7254   0.061   3.045   2.627
 2119SOL     OW 7255   2.005   2.533   6.847
 2119SOL    HW1 7256   2.038   2.522   6.941
 2119SOL    HW2 7257   2.079   2.568   6.790
 2120SOL     OW 7258   6.303   1.679   0.825
 2120SOL    HW1 7259   6.389   1.730   0.822
 2120SOL    HW2 7260   6.256   1.698   0.911
 2121SOL     OW 7261   2.557   5.654   1.868
 2121SOL    HW1 7262   2.511   5.672   1.781
 2121SOL    HW2 7263   2.651   5.686   1.863
 2122SOL     OW 7264   0.330   1.315   5.464
 2122SOL    HW1 7265   0.275   1.337   5.545
 2122SOL    HW2 7266   0.418   1.362   5.470
 2123SOL     OW 7267   0.811   4.740   3.209
 2123SOL    HW1 7268   0.824   4.765   3.304
 2123SOL    HW2 7269   0.750   4.661   3.203
 2124SOL     OW 7270   5.707   3.429   6.473
 2124SOL    HW1 7271   5.684   3.360   6.405
 2124SOL    HW2 7272   5.631   3.439   6.538
 2125SOL     OW 7273   2.177   5.295   5.980
 2125SOL    HW1 7274   2.113   5.371   5.965
 2125SOL    HW2 7275   2.263   5.314   5.932
 2126SOL     OW 7276   2.474   6.131   2.155
 2126SOL    HW1 7277   2.516   6.041   2.167
 2126SOL    HW2 7278   2.540   6.193   2.113
 2127SOL     OW 7279   1.545   3.803   4.145
 2127SOL    HW1 7280   1.597   3.732   4.193
 2127SOL    HW2 7281   1.563   3.892   4.187
 2128SOL     OW 7282   5.140   2.947   0.906
 2128SOL    HW1 7283   5.095   2.900   0.982
 2128SOL    HW2 7284   5.078   3.016   0.869
 2129SOL     OW 7285   5.443   4.818   3.964
 2129SOL    HW1 7286   5.405   4.734   3.925
 2129SOL    HW2 7287   5.484   4.799   4.053
 2130SOL     OW 7288   2.145   6.932   3.020
 2130SOL    HW1 7289   2.201   6.850   3.013
 2130SOL    HW2 7290   2.153   6.971   3.112
 2131SOL     OW 7291   6.017   6.856   6.586
 2131SOL    HW1 7292   6.054   6.786   6.648
 2131SOL    HW2 7293   5.987   6.813   6.501
 2132SOL     OW 7294   3.055   1.602   0.553
 2132SOL    HW1 7295   3.110   1.677   0.590
 2132SOL    HW2 7296   3.081   1.585   0.458
 2133SOL     OW 7297   3.264   3.359   2.283
 2133SOL    HW1 7298   3.337   3.290   2.282
 2133SOL    HW2 7299   3.175   3.314   2.286
 2134SOL     OW 7300   2.552   6.702   4.804
 2134SOL    HW1 7301   2.561   6.610   4.766
 2134SOL    HW2 7302   2.456   6.727   4.808
 2135SOL     OW 7303   0.179   5.582   3.732
 2135SOL    HW1 7304   0.195   5.620   3.641
 2135SOL    HW2 7305   0.198   5.652   3.801
 2136SOL     OW 7306   0.305   4.726   3.781
 2136SOL    HW1 7307   0.293   4.775   3.695
 2136SOL    HW2 7308   0.347   4.786   3.848
 2137SOL     OW 7309   0.174   0.117   4.709
 2137SOL    HW1 7310   0.157   0.192   4.773
 2137SOL    HW2 7311   0.090   0.094   4.661
 2138SOL     OW 7312   1.085   2.037   0.472
 2138SOL    HW1 7313   1.154   1.965   0.468
 2138SOL    HW2 7314   1.127   2.125   0.453
 2139SOL     OW 7315   4.023   6.428   4.627
 2139SOL    HW1 7316   3.938   6.439   4.575
 2139SOL    HW2 7317   4.014   6.473   4.716
 2140SOL     OW 7318   0.902   5.667   3.503
 2140SOL    HW1 7319   0.891   5.656   3.405
 2140SOL    HW2 7320   0.895   5.579   3.549
 2141SOL     OW 7321   6.789   0.607   6.685
 2141SOL    HW1 7322   6.712   0.544   6.671
 2141SOL    HW2 7323   6.771   0.692   6.635
 2142SOL     OW 7324   3.872   1.677   3.278
 2142SOL    HW1 7325   3.855   1.770   3.312
 2142SOL    HW2 7326   3.847   1.672   3.182
 2143SOL     OW 7327   3.288   5.502   0.442
 2143SOL    HW1 7328   3.261   5.488   0.537
 2143SOL    HW2 7329   3.271   5.418   0.390
 2144SOL     OW 7330   1.129   1.206   1.903
 2144SOL    HW1 7331   1.120   1.223   2.002
 2144SOL    HW2 7332   1.055   1.251   1.854
 2145SOL     OW 7333   2.505   6.234   3.336
 2145SOL    HW1 7334   2.549   6.216   3.423
 2145SOL    HW2 7335   2.548   6.180   3.264
 2146SOL     OW 7336   2.850   2.045   1.374
 2146SOL    HW1 7337   2.902   2.099   1.440
 2146SOL    HW2 7338   2.792   1.979   1.423
 2147SOL     OW 7339   6.987   0.463   4.027
 2147SOL    HW1 7340   0.007   0.435   4.115
 2147SOL    HW2 7341   6.979   0.563   4.024
 2148SOL     OW 7342   6.654   4.422   4.136
 2148SOL    HW1 7343   6.636   4.344   4.195
 2148SOL    HW2 7344   6.729   4.401   4.073
 2149SOL     OW 7345   2.060   1.118   2.227
 2149SOL    HW1 7346   2.032   1.054   2.155
 2149SOL    HW2 7347   2.051   1.074   2.316
 2150SOL     OW 7348   5.822   0.584   3.265
 2150SOL    HW1 7349   5.810   0.652   3.192
 2150SOL    HW2 7350   5.792   0.494   3.232
 2151SOL     OW 7351   5.198   4.704   5.182
 2151SOL    HW1 7352   5.166   4.756   5.102
 2151SOL    HW2 7353   5.132   4.714   5.257
 2152SOL     OW 7354   6.955   6.440   2.608
 2152SOL    HW1 7355   6.986   6.514   2.547
 2152SOL    HW2 7356   6.979   6.352   2.568
 2153SOL     OW 7357   4.264   2.307   3.300
 2153SOL    HW1 7358   4.165   2.314   3.315
 2153SOL    HW2 7359   4.302   2.398   3.287
 2154SOL     OW 7360   4.380   0.240   3.868
 2154SOL    HW1 7361   4.337   0.272   3.952
 2154SOL    HW2 7362   4.399   0.318   3.808
 2155SOL     OW 7363   5.818   3.770   0.830
 2155SOL    HW1 7364   5.786   3.763   0.736
 2155SOL    HW2 7365   5.764   3.710   0.888
 2156SOL     OW 7366   5.853   5.362   2.505
 2156SOL    HW1 7367   5.932   5.335   2.559
 2156SOL    HW2 7368   5.855   5.460   2.488
 2157SOL     OW 7369   5.285   1.489   4.025
 2157SOL    HW1 7370   5.186   1.494   4.011
 2157SOL    HW2 7371   5.331   1.482   3.936
 2158SOL     OW 7372   4.213   1.201   3.550
 2158SOL    HW1 7373   4.217   1.294   3.516
 2158SOL    HW2 7374   4.129   1.188   3.604
 2159SOL     OW 7375   2.099   1.895   4.665
 2159SOL    HW1 7376   2.073   1.970   4.604
 2159SOL    HW2 7377   2.086   1.808   4.619
 2160SOL     OW 7378   2.027   4.077   0.644
 2160SOL    HW1 7379   1.997   4.037   0.557
 2160SOL    HW2 7380   2.101   4.143   0.626
 2161SOL     OW 7381   4.339   2.147   2.179
 2161SOL    HW1 7382   4.328   2.123   2.083
 2161SOL    HW2 7383   4.264   2.107   2.232
 2162SOL     OW 7384   1.735   1.335   2.884
 2162SOL    HW1 7385   1.822   1.309   2.843
 2162SOL    HW2 7386   1.704   1.262   2.946
 2163SOL     OW 7387   4.633   1.654   0.811
 2163SOL    HW1 7388   4.719   1.702   0.794
 2163SOL    HW2 7389   4.624   1.634   0.909
 2164SOL     OW 7390   6.320   0.418   1.854
 2164SOL    HW1 7391   6.328   0.326   1.894
 2164SOL    HW2 7392   6.312   0.410   1.755
 2165SOL     OW 7393   2.055   6.942   2.326
 2165SOL    HW1 7394   1.990   7.012   2.297
 2165SOL    HW2 7395   2.079   6.884   2.248
 2166SOL     OW 7396   5.649   2.631   5.022
 2166SOL    HW1 7397   5.628   2.639   5.120
 2166SOL    HW2 7398   5.675   2.537   5.001
 2167SOL     OW 7399   3.160   1.649   1.304
 2167SOL    HW1 7400   3.064   1.676   1.299
 2167SOL    HW2 7401   3.218   1.722   1.269
 2168SOL     OW 7402   5.765   6.703   4.426
 2168SOL    HW1 7403   5.789   6.623   4.371
 2168SOL    HW2 7404   5.668   6.700   4.451
 2169SOL     OW 7405   4.967   2.470   5.251
 2169SOL    HW1 7406   4.937   2.468   5.155
 2169SOL    HW2 7407   4.893   2.503   5.308
 2170SOL     OW 7408   4.936   5.580   4.704
 2170SOL    HW1 7409   4.984   5.613   4.623
 2170SOL    HW2 7410   4.878   5.652   4.740
 2171SOL     OW 7411   0.594   2.915   0.341
 2171SOL    HW1 7412   0.691   2.934   0.351
 2171SOL    HW2 7413   0.575   2.885   0.248
 2172SOL     OW 7414   2.542   0.611   3.343
 2172SOL    HW1 7415   2.538   0.579   3.437
 2172SOL    HW2 7416   2.604   0.689   3.337
 2173SOL     OW 7417   4.549   1.883   4.370
 2173SOL    HW1 7418   4.591   1.947   4.305
 2173SOL    HW2 7419   4.615   1.812   4.395
 2174SOL     OW 7420   1.072   6.233   5.528
 2174SOL    HW1 7421   1.102   6.218   5.623
 2174SOL    HW2 7422   1.130   6.180   5.466
 2175SOL     OW 7423   0.948   0.578   6.802
 2175SOL    HW1 7424   1.022   0.577   6.734
 2175SOL    HW2 7425   0.907   0.669   6.805
 2176SOL     OW 7426   2.479   2.459   2.054
 2176SOL    HW1 7427   2.510   2.452   2.149
 2176SOL    HW2 7428   2.380   2.443   2.051
 2177SOL     OW 7429   0.960   2.004   1.918
 2177SOL    HW1 7430   0.905   2.032   1.839
 2177SOL    HW2 7431   0.942   1.908   1.940
 2178SOL     OW 7432   6.341   5.698   0.332
 2178SOL    HW1 7433   6.408   5.755   0.379
 2178SOL    HW2 7434   6.328   5.731   0.238
 2179SOL     OW 7435   2.127   3.761   4.064
 2179SOL    HW1 7436   2.135   3.793   3.970
 2179SOL    HW2 7437   2.070   3.824   4.116
 2180SOL     OW 7438   3.172   2.964   2.940
 2180SOL    HW1 7439   3.214   2.976   2.850
 2180SOL    HW2 7440   3.113   2.884   2.939
 2181SOL     OW 7441   3.616   6.969   1.244
 2181SOL    HW1 7442   3.706   6.961   1.201
 2181SOL    HW2 7443   3.581   0.043   1.231
 2182SOL     OW 7444   4.952   4.085   0.328
 2182SOL    HW1 7445   4.866   4.063   0.281
 2182SOL    HW2 7446   4.932   4.129   0.415
 2183SOL     OW 7447   4.680   2.727   1.906
 2183SOL    HW1 7448   4.687   2.823   1.935
 2183SOL    HW2 7449   4.588   2.693   1.923
 2184SOL     OW 7450   4.529   2.598   6.020
 2184SOL    HW1 7451   4.572   2.605   5.930
 2184SOL    HW2 7452   4.457   2.528   6.017
 2185SOL     OW 7453   6.720   6.755   1.970
 2185SOL    HW1 7454   6.718   6.684   1.900
 2185SOL    HW2 7455   6.815   6.772   1.998
 2186SOL     OW 7456   6.735   4.812   3.058
 2186SOL    HW1 7457   6.811   4.753   3.085
 2186SOL    HW2 7458   6.682   4.767   2.986
 2187SOL     OW 7459   6.713   6.948   6.845
 2187SOL    HW1 7460   6.646   6.908   6.782
 2187SOL    HW2 7461   6.724   0.026   6.825
 2188SOL     OW 7462   4.726   2.794   3.561
 2188SOL    HW1 7463   4.656   2.741   3.512
 2188SOL    HW2 7464   4.798   2.732   3.593
 2189SOL     OW 7465   3.100   6.984   6.180
 2189SOL    HW1 7466   3.148   6.956   6.096
 2189SOL    HW2 7467   3.039   6.910   6.209
 2190SOL     OW 7468   5.927   3.346   1.225
 2190SOL    HW1 7469   5.904   3.291   1.306
 2190SOL    HW2 7470   6.017   3.389   1.238
 2191SOL     OW 7471   3.655   0.606   0.786
 2191SOL    HW1 7472   3.601   0.673   0.837
 2191SOL    HW2 7473   3.605   0.579   0.703
 2192SOL     OW 7474   4.249   6.598   2.031
 2192SOL    HW1 7475   4.342   6.632   2.041
 2192SOL    HW2 7476   4.225   6.593   1.934
 2193SOL     OW 7477   0.178   5.801   4.496
 2193SOL    HW1 7478   0.078   5.802   4.501
 2193SOL    HW2 7479   0.215   5.792   4.588
 2194SOL     OW 7480   2.461   6.794   2.975
 2194SOL    HW1 7481   2.477   6.857   2.899
 2194SOL    HW2 7482   2.543   6.738   2.990
 2195SOL     OW 7483   0.227   4.738   2.732
 2195SOL    HW1 7484   0.215   4.640   2.715
 2195SOL    HW2 7485   0.303   4.772   2.677
 2196SOL     OW 7486   4.783   4.080   6.948
 2196SOL    HW1 7487   4.724   4.002   6.926
 2196SOL    HW2 7488   4.761   4.156   6.888
 2197SOL     OW 7489   4.597   3.471   0.664
 2197SOL    HW1 7490   4.550   3.383   0.671
 2197SOL    HW2 7491   4.619   3.505   0.756
 2198SOL     OW 7492   0.973   4.826   6.365
 2198SOL    HW1 7493   0.893   4.869   6.407
 2198SOL    HW2 7494   0.960   4.726   6.366
 2199SOL     OW 7495   3.532   1.919   3.698
 2199SOL    HW1 7496   3.615   1.864   3.705
 2199SOL    HW2 7497   3.504   1.925   3.602
 2200SOL     OW 7498   3.837   0.582   3.792
 2200SOL    HW1 7499   3.822   0.546   3.700
 2200SOL    HW2 7500   3.887   0.514   3.846
 2201SOL     OW 7501   5.284   4.641   3.817
 2201SOL    HW1 7502   5.226   4.720   3.801
 2201SOL    HW2 7503   5.268   4.573   3.746
 2202SOL     OW 7504   4.669   5.787   4.365
 2202SOL    HW1 7505   4.596   5.836   4.413
 2202SOL    HW2 7506   4.638   5.695   4.342
 2203SOL     OW 7507   2.062   1.977   3.144
 2203SOL    HW1 7508   2.061   2.071   3.110
 2203SOL    HW2 7509   2.110   1.973   3.232
 2204SOL     OW 7510   3.942   2.303   0.887
 2204SOL    HW1 7511   3.902   2.289   0.796
 2204SOL    HW2 7512   4.027   2.250   0.895
 2205SOL     OW 7513   3.297   0.401   2.364
 2205SOL    HW1 7514   3.298   0.501   2.372
 2205SOL    HW2 7515   3.274   0.375   2.270
 2206SOL     OW 7516   1.539   5.079   6.993
 2206SOL    HW1 7517   1.627   5.107   0.013
 2206SOL    HW2 7518   1.541   4.981   6.974
 2207SOL     OW 7519   6.646   4.098   5.370
 2207SOL    HW1 7520   6.578   4.091   5.444
 2207SOL    HW2 7521   6.609   4.057   5.287
 2208SOL     OW 7522   6.713   4.853   2.455
 2208SOL    HW1 7523   6.696   4.922   2.384
 2208SOL    HW2 7524   6.809   4.828   2.454
 2209SOL     OW 7525   6.512   0.355   2.211
 2209SOL    HW1 7526   6.604   0.378   2.242
 2209SOL    HW2 7527   6.459   0.438   2.195
 2210SOL     OW 7528   2.579   4.590   3.451
 2210SOL    HW1 7529   2.673   4.608   3.479
 2210SOL    HW2 7530   2.567   4.614   3.354
 2211SOL     OW 7531   5.282   0.777   5.154
 2211SOL    HW1 7532   5.283   0.686   5.195
 2211SOL    HW2 7533   5.311   0.844   5.222
 2212SOL     OW 7534   2.357   5.834   6.368
 2212SOL    HW1 7535   2.320   5.869   6.282
 2212SOL    HW2 7536   2.345   5.902   6.440
 2213SOL     OW 7537   4.438   1.299   3.336
 2213SOL    HW1 7538   4.434   1.201   3.356
 2213SOL    HW2 7539   4.402   1.316   3.244
 2214SOL     OW 7540   4.389   0.317   4.211
 2214SOL    HW1 7541   4.393   0.218   4.204
 2214SOL    HW2 7542   4.380   0.343   4.308
 2215SOL     OW 7543   5.826   2.074   6.481
 2215SOL    HW1 7544   5.786   2.126   6.557
 2215SOL    HW2 7545   5.906   2.024   6.513
 2216SOL     OW 7546   3.116   1.311   2.524
 2216SOL    HW1 7547   3.097   1.336   2.620
 2216SOL    HW2 7548   3.215   1.306   2.510
 2217SOL     OW 7549   2.937   6.822   0.927
 2217SOL    HW1 7550   2.998   6.885   0.976
 2217SOL    HW2 7551   2.992   6.753   0.880
 2218SOL     OW 7552   6.503   1.077   2.345
 2218SOL    HW1 7553   6.499   1.019   2.426
 2218SOL    HW2 7554   6.584   1.136   2.351
 2219SOL     OW 7555   2.190   2.381   3.046
 2219SOL    HW1 7556   2.249   2.310   3.084
 2219SOL    HW2 7557   2.096   2.348   3.042
 2220SOL     OW 7558   1.857   5.955   3.222
 2220SOL    HW1 7559   1.816   6.010   3.295
 2220SOL    HW2 7560   1.891   5.869   3.261
 2221SOL     OW 7561   0.064   6.749   4.881
 2221SOL    HW1 7562   0.066   6.806   4.963
 2221SOL    HW2 7563   0.155   6.714   4.861
 2222SOL     OW 7564   5.198   5.557   3.536
 2222SOL    HW1 7565   5.280   5.597   3.495
 2222SOL    HW2 7566   5.135   5.529   3.464
 2223SOL     OW 7567   5.992   6.597   2.203
 2223SOL    HW1 7568   5.934   6.610   2.122
 2223SOL    HW2 7569   6.011   6.686   2.245
 2224SOL     OW 7570   0.493   5.431   1.260
 2224SOL    HW1 7571   0.397   5.427   1.286
 2224SOL    HW2 7572   0.501   5.470   1.168
 2225SOL     OW 7573   0.566   4.478   0.818
 2225SOL    HW1 7574   0.472   4.500   0.791
 2225SOL    HW2 7575   0.584   4.518   0.908
 2226SOL     OW 7576   3.355   4.170   2.993
 2226SOL    HW1 7577   3.303   4.088   2.969
 2226SOL    HW2 7578   3.311   4.250   2.954
 2227SOL     OW 7579   1.858   1.851   4.980
 2227SOL    HW1 7580   1.892   1.780   4.918
 2227SOL    HW2 7581   1.915   1.933   4.971
 2228SOL     OW 7582   1.153   4.752   4.325
 2228SOL    HW1 7583   1.251   4.760   4.346
 2228SOL    HW2 7584   1.123   4.834   4.276
 2229SOL     OW 7585   5.276   5.399   2.512
 2229SOL    HW1 7586   5.257   5.451   2.596
 2229SOL    HW2 7587   5.350   5.442   2.461
 2230SOL     OW 7588   1.661   5.438   2.986
 2230SOL    HW1 7589   1.695   5.377   3.058
 2230SOL    HW2 7590   1.728   5.510   2.970
 2231SOL     OW 7591   2.239   6.063   0.558
 2231SOL    HW1 7592   2.327   6.045   0.514
 2231SOL    HW2 7593   2.218   6.160   0.551
 2232SOL     OW 7594   6.153   2.672   3.401
 2232SOL    HW1 7595   6.139   2.712   3.492
 2232SOL    HW2 7596   6.251   2.667   3.382
 2233SOL     OW 7597   3.688   1.472   0.808
 2233SOL    HW1 7598   3.659   1.547   0.866
 2233SOL    HW2 7599   3.769   1.500   0.755
 2234SOL     OW 7600   4.329   2.647   1.144
 2234SOL    HW1 7601   4.391   2.654   1.222
 2234SOL    HW2 7602   4.336   2.729   1.087
 2235SOL     OW 7603   1.920   3.134   1.741
 2235SOL    HW1 7604   1.877   3.068   1.679
 2235SOL    HW2 7605   1.886   3.120   1.834
 2236SOL     OW 7606   1.308   3.778   5.415
 2236SOL    HW1 7607   1.404   3.751   5.413
 2236SOL    HW2 7608   1.301   3.878   5.425
 2237SOL     OW 7609   5.903   2.393   2.989
 2237SOL    HW1 7610   5.921   2.487   2.962
 2237SOL    HW2 7611   5.809   2.384   3.020
 2238SOL     OW 7612   4.618   6.331   6.886
 2238SOL    HW1 7613   4.664   6.242   6.884
 2238SOL    HW2 7614   4.520   6.317   6.899
 2239SOL     OW 7615   6.683   5.941   1.634
 2239SOL    HW1 7616   6.655   5.863   1.690
 2239SOL    HW2 7617   6.602   5.994   1.608
 2240SOL     OW 7618   0.573   3.918   1.995
 2240SOL    HW1 7619   0.518   3.865   1.931
 2240SOL    HW2 7620   0.521   3.936   2.078
 2241SOL     OW 7621   0.386   0.051   3.601
 2241SOL    HW1 7622   0.318   6.996   3.598
 2241SOL    HW2 7623   0.391   0.096   3.512
 2242SOL     OW 7624   2.040   1.513   3.371
 2242SOL    HW1 7625   1.942   1.495   3.363
 2242SOL    HW2 7626   2.054   1.600   3.419
 2243SOL     OW 7627   0.914   0.573   4.452
 2243SOL    HW1 7628   0.879   0.667   4.452
 2243SOL    HW2 7629   0.963   0.556   4.367
 2244SOL     OW 7630   3.341   0.345   4.247
 2244SOL    HW1 7631   3.249   0.367   4.281
 2244SOL    HW2 7632   3.350   0.376   4.153
 2245SOL     OW 7633   0.769   2.083   1.711
 2245SOL    HW1 7634   0.786   2.115   1.617
 2245SOL    HW2 7635   0.681   2.038   1.715
 2246SOL     OW 7636   0.577   4.498   4.729
 2246SOL    HW1 7637   0.484   4.462   4.739
 2246SOL    HW2 7638   0.642   4.433   4.769
 2247SOL     OW 7639   2.384   2.118   3.815
 2247SOL    HW1 7640   2.307   2.181   3.803
 2247SOL    HW2 7641   2.444   2.151   3.887
 2248SOL     OW 7642   5.017   3.955   6.006
 2248SOL    HW1 7643   4.967   4.031   5.963
 2248SOL    HW2 7644   5.106   3.988   6.037
 2249SOL     OW 7645   5.419   6.119   5.080
 2249SOL    HW1 7646   5.342   6.159   5.031
 2249SOL    HW2 7647   5.504   6.150   5.037
 2250SOL     OW 7648   4.045   4.843   2.669
 2250SOL    HW1 7649   4.125   4.848   2.609
 2250SOL    HW2 7650   4.074   4.835   2.764
 2251SOL     OW 7651   0.782   1.728   5.899
 2251SOL    HW1 7652   0.846   1.724   5.976
 2251SOL    HW2 7653   0.731   1.643   5.894
 2252SOL     OW 7654   4.151   1.327   6.285
 2252SOL    HW1 7655   4.088   1.349   6.359
 2252SOL    HW2 7656   4.102   1.281   6.212
 2253SOL     OW 7657   0.599   3.984   1.207
 2253SOL    HW1 7658   0.536   4.038   1.263
 2253SOL    HW2 7659   0.639   3.911   1.262
 2254SOL     OW 7660   1.513   5.436   5.991
 2254SOL    HW1 7661   1.436   5.379   5.961
 2254SOL    HW2 7662   1.478   5.520   6.033
 2255SOL     OW 7663   6.852   4.355   6.669
 2255SOL    HW1 7664   6.794   4.433   6.694
 2255SOL    HW2 7665   6.836   4.280   6.733
 2256SOL     OW 7666   2.645   5.692   2.514
 2256SOL    HW1 7667   2.724   5.704   2.454
 2256SOL    HW2 7668   2.673   5.641   2.596
 2257SOL     OW 7669   0.832   5.006   5.917
 2257SOL    HW1 7670   0.827   5.053   6.005
 2257SOL    HW2 7671   0.884   5.061   5.852
 2258SOL     OW 7672   2.070   6.711   6.145
 2258SOL    HW1 7673   2.089   6.624   6.190
 2258SOL    HW2 7674   1.973   6.734   6.156
 2259SOL     OW 7675   6.067   1.777   6.546
 2259SOL    HW1 7676   6.009   1.704   6.581
 2259SOL    HW2 7677   6.078   1.766   6.447
 2260SOL     OW 7678   4.855   3.179   1.563
 2260SOL    HW1 7679   4.837   3.084   1.539
 2260SOL    HW2 7680   4.774   3.234   1.542
 2261SOL     OW 7681   1.989   6.440   5.274
 2261SOL    HW1 7682   2.054   6.364   5.277
 2261SOL    HW2 7683   1.987   6.478   5.182
 2262SOL     OW 7684   2.636   1.664   4.467
 2262SOL    HW1 7685   2.674   1.734   4.407
 2262SOL    HW2 7686   2.685   1.578   4.453
 2263SOL     OW 7687   0.380   4.346   5.740
 2263SOL    HW1 7688   0.319   4.423   5.718
 2263SOL    HW2 7689   0.328   4.261   5.739
 2264SOL     OW 7690   3.209   3.092   4.551
 2264SOL    HW1 7691   3.283   3.153   4.522
 2264SOL    HW2 7692   3.242   2.998   4.550
 2265SOL     OW 7693   0.045   5.960   4.179
 2265SOL    HW1 7694   0.113   5.987   4.247
 2265SOL    HW2 7695   7.017   6.041   4.144
 2266SOL     OW 7696   6.927   0.665   5.418
 2266SOL    HW1 7697   6.996   0.625   5.358
 2266SOL    HW2 7698   6.964   0.747   5.462
 2267SOL     OW 7699   6.364   1.853   5.013
 2267SOL    HW1 7700   6.429   1.885   4.945
 2267SOL    HW2 7701   6.320   1.769   4.980
 2268SOL     OW 7702   0.520   6.808   0.338
 2268SOL    HW1 7703   0.436   6.862   0.328
 2268SOL    HW2 7704   0.503   6.732   0.401
 2269SOL     OW 7705   7.017   6.187   2.525
 2269SOL    HW1 7706   0.010   6.171   2.427
 2269SOL    HW2 7707   0.081   6.229   2.563
 2270SOL     OW 7708   3.121   2.987   3.209
 2270SOL    HW1 7709   3.155   2.978   3.115
 2270SOL    HW2 7710   3.196   2.971   3.273
 2271SOL     OW 7711   1.564   3.938   2.707
 2271SOL    HW1 7712   1.511   3.955   2.623
 2271SOL    HW2 7713   1.643   3.999   2.709
 2272SOL     OW 7714   4.620   0.670   6.356
 2272SOL    HW1 7715   4.715   0.671   6.388
 2272SOL    HW2 7716   4.618   0.639   6.261
 2273SOL     OW 7717   0.159   0.785   1.708
 2273SOL    HW1 7718   0.149   0.787   1.609
 2273SOL    HW2 7719   0.072   0.762   1.751
 2274SOL     OW 7720   6.777   4.951   3.463
 2274SOL    HW1 7721   6.721   5.003   3.527
 2274SOL    HW2 7722   6.718   4.910   3.393
 2275SOL     OW 7723   4.402   5.904   4.168
 2275SOL    HW1 7724   4.394   5.846   4.087
 2275SOL    HW2 7725   4.424   5.998   4.139
 2276SOL     OW 7726   3.492   5.832   3.155
 2276SOL    HW1 7727   3.483   5.745   3.203
 2276SOL    HW2 7728   3.424   5.838   3.082
 2277SOL     OW 7729   3.513   2.897   2.788
 2277SOL    HW1 7730   3.607   2.863   2.785
 2277SOL    HW2 7731   3.480   2.913   2.695
 2278SOL     OW 7732   4.238   5.012   1.548
 2278SOL    HW1 7733   4.163   5.074   1.572
 2278SOL    HW2 7734   4.310   5.064   1.502
 2279SOL     OW 7735   5.902   4.219   5.390
 2279SOL    HW1 7736   5.951   4.238   5.475
 2279SOL    HW2 7737   5.952   4.152   5.336
 2280SOL     OW 7738   5.423   1.110   5.673
 2280SOL    HW1 7739   5.395   1.020   5.707
 2280SOL    HW2 7740   5.522   1.118   5.679
 2281SOL     OW 7741   2.269   0.575   0.614
 2281SOL    HW1 7742   2.251   0.671   0.595
 2281SOL    HW2 7743   2.200   0.518   0.568
 2282SOL     OW 7744   3.223   0.524   2.647
 2282SOL    HW1 7745   3.147   0.494   2.705
 2282SOL    HW2 7746   3.186   0.575   2.569
 2283SOL     OW 7747   1.078   3.195   0.984
 2283SOL    HW1 7748   1.014   3.154   1.049
 2283SOL    HW2 7749   1.028   3.235   0.908
 2284SOL     OW 7750   1.666   2.727   0.656
 2284SOL    HW1 7751   1.730   2.748   0.730
 2284SOL    HW2 7752   1.603   2.804   0.644
 2285SOL     OW 7753   2.806   2.720   0.316
 2285SOL    HW1 7754   2.797   2.714   0.416
 2285SOL    HW2 7755   2.717   2.741   0.276
 2286SOL     OW 7756   6.576   5.524   4.105
 2286SOL    HW1 7757   6.477   5.529   4.119
 2286SOL    HW2 7758   6.619   5.481   4.184
 2287SOL     OW 7759   2.604   1.824   1.122
 2287SOL    HW1 7760   2.687   1.780   1.086
 2287SOL    HW2 7761   2.528   1.808   1.059
 2288SOL     OW 7762   3.287   5.599   4.867
 2288SOL    HW1 7763   3.369   5.569   4.914
 2288SOL    HW2 7764   3.303   5.689   4.825
 2289SOL     OW 7765   4.166   0.089   5.639
 2289SOL    HW1 7766   4.108   0.112   5.561
 2289SOL    HW2 7767   4.111   0.044   5.709
 2290SOL     OW 7768   2.184   3.817   6.052
 2290SOL    HW1 7769   2.200   3.782   5.960
 2290SOL    HW2 7770   2.106   3.879   6.051
 2291SOL     OW 7771   3.399   2.171   0.752
 2291SOL    HW1 7772   3.480   2.228   0.736
 2291SOL    HW2 7773   3.426   2.075   0.757
 2292SOL     OW 7774   5.055   2.475   2.551
 2292SOL    HW1 7775   4.980   2.517   2.501
 2292SOL    HW2 7776   5.059   2.512   2.644
 2293SOL     OW 7777   0.051   0.772   6.664
 2293SOL    HW1 7778   0.087   0.737   6.750
 2293SOL    HW2 7779   6.969   0.769   6.667
 2294SOL     OW 7780   6.898   2.357   5.567
 2294SOL    HW1 7781   6.987   2.381   5.607
 2294SOL    HW2 7782   6.834   2.432   5.585
 2295SOL     OW 7783   5.696   5.890   0.299
 2295SOL    HW1 7784   5.631   5.816   0.282
 2295SOL    HW2 7785   5.782   5.870   0.251
 2296SOL     OW 7786   4.163   5.902   4.836
 2296SOL    HW1 7787   4.180   5.821   4.780
 2296SOL    HW2 7788   4.201   5.983   4.790
 2297SOL     OW 7789   6.483   2.620   0.206
 2297SOL    HW1 7790   6.514   2.689   0.140
 2297SOL    HW2 7791   6.383   2.612   0.201
 2298SOL     OW 7792   1.809   3.956   5.060
 2298SOL    HW1 7793   1.908   3.954   5.046
 2298SOL    HW2 7794   1.790   3.967   5.158
 2299SOL     OW 7795   5.846   3.447   4.606
 2299SOL    HW1 7796   5.931   3.403   4.635
 2299SOL    HW2 7797   5.855   3.546   4.615
 2300SOL     OW 7798   4.042   0.914   2.773
 2300SOL    HW1 7799   3.988   0.920   2.857
 2300SOL    HW2 7800   4.094   0.998   2.761
 2301SOL     OW 7801   4.614   3.251   6.069
 2301SOL    HW1 7802   4.544   3.220   6.132
 2301SOL    HW2 7803   4.577   3.321   6.009
 2302SOL     OW 7804   0.339   3.375   4.965
 2302SOL    HW1 7805   0.393   3.436   5.022
 2302SOL    HW2 7806   0.249   3.361   5.006
 2303SOL     OW 7807   2.214   2.607   6.691
 2303SOL    HW1 7808   2.224   2.706   6.693
 2303SOL    HW2 7809   2.202   2.576   6.597
 2304SOL     OW 7810   3.491   0.340   3.468
 2304SOL    HW1 7811   3.396   0.344   3.435
 2304SOL    HW2 7812   3.520   0.245   3.473
 2305SOL     OW 7813   2.365   6.128   4.778
 2305SOL    HW1 7814   2.445   6.071   4.759
 2305SOL    HW2 7815   2.366   6.155   4.875
 2306SOL     OW 7816   0.880   4.783   5.729
 2306SOL    HW1 7817   0.884   4.736   5.641
 2306SOL    HW2 7818   0.789   4.822   5.742
 2307SOL     OW 7819   5.955   3.966   5.597
 2307SOL    HW1 7820   5.871   4.017   5.579
 2307SOL    HW2 7821   5.963   3.890   5.532
 2308SOL     OW 7822   1.120   6.253   3.048
 2308SOL    HW1 7823   1.023   6.276   3.046
 2308SOL    HW2 7824   1.168   6.307   2.978
 2309SOL     OW 7825   1.787   1.206   4.577
 2309SOL    HW1 7826   1.744   1.183   4.489
 2309SOL    HW2 7827   1.819   1.301   4.574
 2310SOL     OW 7828   5.184   5.992   0.309
 2310SOL    HW1 7829   5.279   5.997   0.278
 2310SOL    HW2 7830   5.126   5.959   0.234
 2311SOL     OW 7831   2.819   5.844   0.524
 2311SOL    HW1 7832   2.820   5.842   0.424
 2311SOL    HW2 7833   2.743   5.789   0.557
 2312SOL     OW 7834   2.713   5.104   1.814
 2312SOL    HW1 7835   2.758   5.055   1.739
 2312SOL    HW2 7836   2.673   5.038   1.877
 2313SOL     OW 7837   5.145   5.227   1.266
 2313SOL    HW1 7838   5.066   5.178   1.302
 2313SOL    HW2 7839   5.216   5.233   1.336
 2314SOL     OW 7840   2.036   4.515   2.337
 2314SOL    HW1 7841   2.022   4.581   2.410
 2314SOL    HW2 7842   2.131   4.520   2.305
 2315SOL     OW 7843   3.768   1.797   6.362
 2315SOL    HW1 7844   3.751   1.859   6.285
 2315SOL    HW2 7845   3.721   1.830   6.443
 2316SOL     OW 7846   6.197   4.138   1.506
 2316SOL    HW1 7847   6.277   4.190   1.538
 2316SOL    HW2 7848   6.225   4.044   1.484
 2317SOL     OW 7849   0.234   6.687   3.426
 2317SOL    HW1 7850   0.170   6.620   3.390
 2317SOL    HW2 7851   0.326   6.667   3.392
 2318SOL     OW 7852   6.918   1.609   3.609
 2318SOL    HW1 7853   6.922   1.511   3.590
 2318SOL    HW2 7854   6.965   1.659   3.535
 2319SOL     OW 7855   0.566   5.804   3.163
 2319SOL    HW1 7856   0.659   5.779   3.189
 2319SOL    HW2 7857   0.555   5.903   3.165
 2320SOL     OW 7858   6.660   4.550   3.619
 2320SOL    HW1 7859   6.719   4.524   3.543
 2320SOL    HW2 7860   6.715   4.563   3.701
 2321SOL     OW 7861   2.801   4.728   3.537
 2321SOL    HW1 7862   2.817   4.728   3.439
 2321SOL    HW2 7863   2.889   4.732   3.585
 2322SOL     OW 7864   1.975   1.648   4.842
 2322SOL    HW1 7865   2.060   1.691   4.870
 2322SOL    HW2 7866   1.981   1.621   4.746
 2323SOL     OW 7867   5.446   3.554   1.426
 2323SOL    HW1 7868   5.508   3.507   1.364
 2323SOL    HW2 7869   5.366   3.497   1.444
 2324SOL     OW 7870   7.015   5.319   4.096
 2324SOL    HW1 7871   6.947   5.370   4.149
 2324SOL    HW2 7872   0.082   5.315   4.147
 2325SOL     OW 7873   6.466   1.989   0.852
 2325SOL    HW1 7874   6.509   1.996   0.942
 2325SOL    HW2 7875   6.520   1.927   0.794
 2326SOL     OW 7876   0.405   5.346   0.168
 2326SOL    HW1 7877   0.489   5.298   0.143
 2326SOL    HW2 7878   0.420   5.397   0.253
 2327SOL     OW 7879   4.855   1.248   2.840
 2327SOL    HW1 7880   4.883   1.340   2.811
 2327SOL    HW2 7881   4.778   1.256   2.903
 2328SOL     OW 7882   5.889   5.279   3.819
 2328SOL    HW1 7883   5.966   5.227   3.856
 2328SOL    HW2 7884   5.839   5.222   3.755
 2329SOL     OW 7885   1.314   6.544   3.311
 2329SOL    HW1 7886   1.397   6.563   3.257
 2329SOL    HW2 7887   1.298   6.445   3.313
 2330SOL     OW 7888   1.457   4.006   6.920
 2330SOL    HW1 7889   1.484   3.916   6.886
 2330SOL    HW2 7890   1.525   4.038   6.987
 2331SOL     OW 7891   1.490   4.343   5.325
 2331SOL    HW1 7892   1.398   4.316   5.353
 2331SOL    HW2 7893   1.525   4.277   5.259
 2332SOL     OW 7894   6.835   3.445   6.988
 2332SOL    HW1 7895   6.762   3.452   6.919
 2332SOL    HW2 7896   6.921   3.476   6.947
 2333SOL     OW 7897   2.295   4.629   3.916
 2333SOL    HW1 7898   2.261   4.722   3.927
 2333SOL    HW2 7899   2.318   4.612   3.820
 2334SOL     OW 7900   1.911   0.367   6.022
 2334SOL    HW1 7901   1.828   0.359   6.077
 2334SOL    HW2 7902   1.954   0.277   6.012
 2335SOL     OW 7903   4.878   4.354   4.709
 2335SOL    HW1 7904   4.869   4.280   4.776
 2335SOL    HW2 7905   4.898   4.440   4.757
 2336SOL     OW 7906   4.348   1.422   5.535
 2336SOL    HW1 7907   4.279   1.455   5.471
 2336SOL    HW2 7908   4.384   1.334   5.503
 2337SOL     OW 7909   6.002   0.788   4.701
 2337SOL    HW1 7910   6.031   0.735   4.781
 2337SOL    HW2 7911   5.916   0.752   4.665
 2338SOL     OW 7912   1.855   6.798   0.106
 2338SOL    HW1 7913   1.797   6.783   0.026
 2338SOL    HW2 7914   1.908   6.716   0.124
 2339SOL     OW 7915   3.370   4.440   5.905
 2339SOL    HW1 7916   3.276   4.405   5.899
 2339SOL    HW2 7917   3.368   4.532   5.946
 2340SOL     OW 7918   4.103   5.290   4.123
 2340SOL    HW1 7919   4.114   5.388   4.134
 2340SOL    HW2 7920   4.193   5.247   4.118
 2341SOL     OW 7921   0.929   3.807   6.178
 2341SOL    HW1 7922   0.956   3.854   6.262
 2341SOL    HW2 7923   0.988   3.835   6.103
 2342SOL     OW 7924   4.889   1.108   5.079
 2342SOL    HW1 7925   4.832   1.122   4.998
 2342SOL    HW2 7926   4.983   1.092   5.051
 2343SOL     OW 7927   0.822   5.697   1.690
 2343SOL    HW1 7928   0.878   5.704   1.608
 2343SOL    HW2 7929   0.796   5.789   1.720
 2344SOL     OW 7930   1.997   0.334   2.968
 2344SOL    HW1 7931   1.960   0.298   2.882
 2344SOL    HW2 7932   1.938   0.407   3.002
 2345SOL     OW 7933   1.455   2.670   1.849
 2345SOL    HW1 7934   1.507   2.733   1.906
 2345SOL    HW2 7935   1.411   2.601   1.906
 2346SOL     OW 7936   5.772   2.951   5.240
 2346SOL    HW1 7937   5.831   2.914   5.169
 2346SOL    HW2 7938   5.776   3.051   5.238
 2347SOL     OW 7939   1.919   4.324   1.358
 2347SOL    HW1 7940   1.832   4.302   1.313
 2347SOL    HW2 7941   1.953   4.243   1.406
 2348SOL     OW 7942   3.321   0.175   1.934
 2348SOL    HW1 7943   3.396   0.185   1.869
 2348SOL    HW2 7944   3.241   0.137   1.888
 2349SOL     OW 7945   5.873   2.531   6.795
 2349SOL    HW1 7946   5.801   2.543   6.864
 2349SOL    HW2 7947   5.836   2.553   6.705
 2350SOL     OW 7948   2.620   5.859   5.032
 2350SOL    HW1 7949   2.556   5.926   4.993
 2350SOL    HW2 7950   2.588   5.832   5.122
 2351SOL     OW 7951   1.733   5.616   3.370
 2351SOL    HW1 7952   1.746   5.663   3.457
 2351SOL    HW2 7953   1.703   5.522   3.387
 2352SOL     OW 7954   6.095   6.205   6.201
 2352SOL    HW1 7955   6.097   6.135   6.130
 2352SOL    HW2 7956   6.038   6.174   6.277
 2353SOL     OW 7957   3.209   2.921   6.658
 2353SOL    HW1 7958   3.217   2.844   6.594
 2353SOL    HW2 7959   3.115   2.928   6.691
 2354SOL     OW 7960   3.325   1.820   2.316
 2354SOL    HW1 7961   3.292   1.888   2.251
 2354SOL    HW2 7962   3.301   1.848   2.409
 2355SOL     OW 7963   7.012   1.585   2.179
 2355SOL    HW1 7964   0.019   1.491   2.153
 2355SOL    HW2 7965   0.076   1.640   2.188
 2356SOL     OW 7966   3.474   5.300   3.960
 2356SOL    HW1 7967   3.425   5.328   3.877
 2356SOL    HW2 7968   3.433   5.217   3.998
 2357SOL     OW 7969   0.656   5.593   1.095
 2357SOL    HW1 7970   0.632   5.562   1.003
 2357SOL    HW2 7971   0.670   5.692   1.094
 2358SOL     OW 7972   2.451   0.809   5.198
 2358SOL    HW1 7973   2.363   0.821   5.245
 2358SOL    HW2 7974   2.439   0.749   5.119
 2359SOL     OW 7975   3.420   2.777   5.512
 2359SOL    HW1 7976   3.414   2.684   5.475
 2359SOL    HW2 7977   3.344   2.795   5.573
 2360SOL     OW 7978   3.538   5.149   1.961
 2360SOL    HW1 7979   3.602   5.225   1.967
 2360SOL    HW2 7980   3.542   5.110   1.869
 2361SOL     OW 7981   3.706   4.849   1.112
 2361SOL    HW1 7982   3.759   4.803   1.041
 2361SOL    HW2 7983   3.661   4.929   1.073
 2362SOL     OW 7984   2.826   4.988   4.303
 2362SOL    HW1 7985   2.876   5.041   4.372
 2362SOL    HW2 7986   2.760   4.929   4.349
 2363SOL     OW 7987   2.794   3.894   1.655
 2363SOL    HW1 7988   2.889   3.901   1.623
 2363SOL    HW2 7989   2.766   3.798   1.655
 2364SOL     OW 7990   4.518   0.698   2.853
 2364SOL    HW1 7991   4.565   0.767   2.908
 2364SOL    HW2 7992   4.420   0.716   2.853
 2365SOL     OW 7993   5.873   3.574   2.676
 2365SOL    HW1 7994   5.856   3.585   2.578
 2365SOL    HW2 7995   5.786   3.581   2.725
 2366SOL     OW 7996   4.161   5.205   4.852
 2366SOL    HW1 7997   4.257   5.193   4.828
 2366SOL    HW2 7998   4.128   5.294   4.820
 2367SOL     OW 7999   5.923   4.578   5.498
 2367SOL    HW1 8000   5.983   4.498   5.509
 2367SOL    HW2 8001   5.888   4.606   5.587
 2368SOL     OW 8002   5.097   1.639   5.115
 2368SOL    HW1 8003   5.188   1.613   5.147
 2368SOL    HW2 8004   5.106   1.698   5.034
 2369SOL     OW 8005   4.209   2.351   3.962
 2369SOL    HW1 8006   4.309   2.346   3.973
 2369SOL    HW2 8007   4.184   2.311   3.874
 2370SOL     OW 8008   4.023   2.263   0.409
 2370SOL    HW1 8009   4.067   2.235   0.324
 2370SOL    HW2 8010   4.038   2.361   0.424
 2371SOL     OW 8011   2.255   6.631   3.144
 2371SOL    HW1 8012   2.300   6.584   3.220
 2371SOL    HW2 8013   2.324   6.658   3.076
 2372SOL     OW 8014   5.578   6.609   6.805
 2372SOL    HW1 8015   5.495   6.655   6.773
 2372SOL    HW2 8016   5.623   6.666   6.874
 2373SOL     OW 8017   6.404   4.312   6.049
 2373SOL    HW1 8018   6.428   4.379   5.979
 2373SOL    HW2 8019   6.390   4.223   6.007
 2374SOL     OW 8020   0.437   5.363   2.628
 2374SOL    HW1 8021   0.432   5.337   2.724
 2374SOL    HW2 8022   0.496   5.443   2.619
 2375SOL     OW 8023   2.278   0.321   4.708
 2375SOL    HW1 8024   2.325   0.243   4.749
 2375SOL    HW2 8025   2.233   0.292   4.623
 2376SOL     OW 8026   5.961   2.903   4.199
 2376SOL    HW1 8027   5.980   2.979   4.136
 2376SOL    HW2 8028   5.871   2.917   4.241
 2377SOL     OW 8029   3.871   4.635   5.770
 2377SOL    HW1 8030   3.823   4.583   5.699
 2377SOL    HW2 8031   3.804   4.682   5.828
 2378SOL     OW 8032   0.620   0.079   0.606
 2378SOL    HW1 8033   0.664   0.157   0.651
 2378SOL    HW2 8034   0.566   0.029   0.674
 2379SOL     OW 8035   0.711   4.438   3.149
 2379SOL    HW1 8036   0.641   4.412   3.083
 2379SOL    HW2 8037   0.722   4.365   3.216
 2380SOL     OW 8038   4.908   5.644   6.572
 2380SOL    HW1 8039   4.913   5.726   6.514
 2380SOL    HW2 8040   4.987   5.642   6.633
 2381SOL     OW 8041   2.244   4.539   4.171
 2381SOL    HW1 8042   2.294   4.456   4.196
 2381SOL    HW2 8043   2.274   4.570   4.081
 2382SOL     OW 8044   6.127   5.733   2.533
 2382SOL    HW1 8045   6.154   5.720   2.629
 2382SOL    HW2 8046   6.144   5.828   2.506
 2383SOL     OW 8047   4.674   3.872   6.019
 2383SOL    HW1 8048   4.693   3.784   6.062
 2383SOL    HW2 8049   4.680   3.863   5.920
 2384SOL     OW 8050   0.913   2.540   3.091
 2384SOL    HW1 8051   0.872   2.559   3.002
 2384SOL    HW2 8052   0.865   2.590   3.162
 2385SOL     OW 8053   1.085   1.007   0.935
 2385SOL    HW1 8054   1.096   0.938   1.007
 2385SOL    HW2 8055   1.159   1.073   0.940
 2386SOL     OW 8056   6.948   4.747   6.461
 2386SOL    HW1 8057   0.014   4.695   6.470
 2386SOL    HW2 8058   6.970   4.844   6.447
 2387SOL     OW 8059   6.498   6.958   3.038
 2387SOL    HW1 8060   6.466   6.958   2.944
 2387SOL    HW2 8061   6.458   0.018   3.086
 2388SOL     OW 8062   2.020   4.906   3.780
 2388SOL    HW1 8063   1.992   4.861   3.695
 2388SOL    HW2 8064   1.978   4.859   3.857
 2389SOL     OW 8065   3.302   6.964   3.054
 2389SOL    HW1 8066   3.261   0.032   3.080
 2389SOL    HW2 8067   3.233   6.905   3.012
 2390SOL     OW 8068   5.140   3.274   4.951
 2390SOL    HW1 8069   5.202   3.255   4.876
 2390SOL    HW2 8070   5.080   3.195   4.966
 2391SOL     OW 8071   2.185   4.339   6.707
 2391SOL    HW1 8072   2.165   4.241   6.704
 2391SOL    HW2 8073   2.106   4.390   6.673
 2392SOL     OW 8074   4.019   4.936   5.643
 2392SOL    HW1 8075   4.074   4.867   5.690
 2392SOL    HW2 8076   4.071   5.022   5.637
 2393SOL     OW 8077   4.976   5.217   0.391
 2393SOL    HW1 8078   5.062   5.178   0.424
 2393SOL    HW2 8079   4.906   5.207   0.461
 2394SOL     OW 8080   6.823   2.385   3.000
 2394SOL    HW1 8081   6.892   2.320   3.034
 2394SOL    HW2 8082   6.732   2.356   3.031
 2395SOL     OW 8083   0.396   2.914   3.499
 2395SOL    HW1 8084   0.333   2.842   3.528
 2395SOL    HW2 8085   0.359   3.003   3.525
 2396SOL     OW 8086   0.300   0.599   5.527
 2396SOL    HW1 8087   0.221   0.543   5.506
 2396SOL    HW2 8088   0.302   0.618   5.625
 2397SOL     OW 8089   2.773   4.708   5.762
 2397SOL    HW1 8090   2.705   4.657   5.814
 2397SOL    HW2 8091   2.739   4.800   5.744
 2398SOL     OW 8092   4.055   6.076   5.212
 2398SOL    HW1 8093   4.116   6.091   5.134
 2398SOL    HW2 8094   3.999   6.157   5.226
 2399SOL     OW 8095   3.004   1.862   2.045
 2399SOL    HW1 8096   2.907   1.869   2.065
 2399SOL    HW2 8097   3.025   1.772   2.008
 2400SOL     OW 8098   1.002   1.540   6.256
 2400SOL    HW1 8099   0.927   1.601   6.283
 2400SOL    HW2 8100   0.979   1.495   6.170
 2401SOL     OW 8101   1.300   6.835   0.564
 2401SOL    HW1 8102   1.363   6.767   0.528
 2401SOL    HW2 8103   1.291   6.910   0.498
 2402SOL     OW 8104   0.739   3.076   1.583
 2402SOL    HW1 8105   0.717   3.120   1.496
 2402SOL    HW2 8106   0.775   3.144   1.646
 2403SOL     OW 8107   3.116   4.163   5.128
 2403SOL    HW1 8108   3.173   4.120   5.198
 2403SOL    HW2 8109   3.059   4.234   5.170
 2404SOL     OW 8110   6.479   1.953   1.814
 2404SOL    HW1 8111   6.423   1.893   1.757
 2404SOL    HW2 8112   6.429   1.977   1.897
 2405SOL     OW 8113   2.542   3.766   0.796
 2405SOL    HW1 8114   2.633   3.785   0.759
 2405SOL    HW2 8115   2.505   3.683   0.753
 2406SOL     OW 8116   4.855   6.298   5.483
 2406SOL    HW1 8117   4.939   6.247   5.469
 2406SOL    HW2 8118   4.848   6.371   5.414
 2407SOL     OW 8119   2.205   1.913   3.864
 2407SOL    HW1 8120   2.270   1.989   3.863
 2407SOL    HW2 8121   2.220   1.854   3.785
 2408SOL     OW 8122   4.545   6.531   5.790
 2408SOL    HW1 8123   4.472   6.500   5.851
 2408SOL    HW2 8124   4.560   6.629   5.804
 2409SOL     OW 8125   1.719   2.650   6.890
 2409SOL    HW1 8126   1.768   2.704   6.822
 2409SOL    HW2 8127   1.779   2.632   6.968
 2410SOL     OW 8128   6.493   2.957   4.944
 2410SOL    HW1 8129   6.407   2.987   4.901
 2410SOL    HW2 8130   6.567   2.960   4.876
 2411SOL     OW 8131   3.185   1.061   0.898
 2411SOL    HW1 8132   3.218   1.117   0.974
 2411SOL    HW2 8133   3.088   1.041   0.912
 2412SOL     OW 8134   3.638   2.615   0.041
 2412SOL    HW1 8135   3.618   2.521   0.067
 2412SOL    HW2 8136   3.598   2.634   6.970
 2413SOL     OW 8137   7.017   3.648   6.419
 2413SOL    HW1 8138   7.009   3.550   6.435
 2413SOL    HW2 8139   6.953   3.697   6.479
 2414SOL     OW 8140   6.430   1.979   5.348
 2414SOL    HW1 8141   6.425   2.022   5.258
 2414SOL    HW2 8142   6.356   1.913   5.357
 2415SOL     OW 8143   3.273   4.001   5.320
 2415SOL    HW1 8144   3.320   4.042   5.398
 2415SOL    HW2 8145   3.316   3.914   5.296
 2416SOL     OW 8146   6.397   3.351   3.145
 2416SOL    HW1 8147   6.328   3.315   3.082
 2416SOL    HW2 8148   6.488   3.330   3.110
 2417SOL     OW 8149   3.505   2.822   1.846
 2417SOL    HW1 8150   3.418   2.797   1.890
 2417SOL    HW2 8151   3.491   2.903   1.790
 2418SOL     OW 8152   6.023   3.480   6.655
 2418SOL    HW1 8153   6.102   3.420   6.641
 2418SOL    HW2 8154   6.016   3.543   6.578
 2419SOL     OW 8155   2.922   1.434   3.049
 2419SOL    HW1 8156   2.908   1.338   3.073
 2419SOL    HW2 8157   2.912   1.490   3.131
 2420SOL     OW 8158   0.601   2.811   1.572
 2420SOL    HW1 8159   0.651   2.896   1.588
 2420SOL    HW2 8160   0.535   2.824   1.498
 2421SOL     OW 8161   2.585   0.336   3.526
 2421SOL    HW1 8162   2.644   0.305   3.451
 2421SOL    HW2 8163   2.641   0.386   3.593
 2422SOL     OW 8164   4.054   0.059   0.284
 2422SOL    HW1 8165   3.961   0.033   0.261
 2422SOL    HW2 8166   4.055   0.152   0.320
 2423SOL     OW 8167   3.792   4.935   4.905
 2423SOL    HW1 8168   3.732   4.925   4.984
 2423SOL    HW2 8169   3.886   4.946   4.935
 2424SOL     OW 8170   5.073   0.259   6.456
 2424SOL    HW1 8171   5.003   0.217   6.515
 2424SOL    HW2 8172   5.087   0.201   6.375
 2425SOL     OW 8173   5.331   5.257   4.642
 2425SOL    HW1 8174   5.317   5.341   4.588
 2425SOL    HW2 8175   5.403   5.202   4.600
 2426SOL     OW 8176   2.965   2.153   5.247
 2426SOL    HW1 8177   3.034   2.221   5.219
 2426SOL    HW2 8178   2.966   2.144   5.346
 2427SOL     OW 8179   5.058   2.605   6.932
 2427SOL    HW1 8180   5.058   2.677   6.862
 2427SOL    HW2 8181   4.985   2.540   6.913
 2428SOL     OW 8182   1.834   1.922   1.925
 2428SOL    HW1 8183   1.848   1.971   2.011
 2428SOL    HW2 8184   1.794   1.984   1.857
 2429SOL     OW 8185   4.837   4.991   1.792
 2429SOL    HW1 8186   4.892   5.040   1.860
 2429SOL    HW2 8187   4.806   5.056   1.722
 2430SOL     OW 8188   6.939   5.967   6.572
 2430SOL    HW1 8189   6.854   5.928   6.608
 2430SOL    HW2 8190   7.017   5.913   6.605
 2431SOL     OW 8191   1.966   2.874   1.359
 2431SOL    HW1 8192   1.910   2.793   1.373
 2431SOL    HW2 8193   1.908   2.955   1.351
 2432SOL     OW 8194   3.180   6.156   2.545
 2432SOL    HW1 8195   3.125   6.116   2.618
 2432SOL    HW2 8196   3.275   6.163   2.575
 2433SOL     OW 8197   0.214   4.454   4.199
 2433SOL    HW1 8198   0.167   4.390   4.138
 2433SOL    HW2 8199   0.206   4.546   4.162
 2434SOL     OW 8200   3.895   2.171   2.906
 2434SOL    HW1 8201   3.986   2.204   2.933
 2434SOL    HW2 8202   3.872   2.090   2.959
 2435SOL     OW 8203   5.748   6.524   5.944
 2435SOL    HW1 8204   5.677   6.594   5.953
 2435SOL    HW2 8205   5.837   6.563   5.969
 2436SOL     OW 8206   0.334   2.954   0.026
 2436SOL    HW1 8207   0.264   2.885   0.007
 2436SOL    HW2 8208   0.327   2.982   0.122
 2437SOL     OW 8209   0.753   4.840   1.504
 2437SOL    HW1 8210   0.682   4.830   1.574
 2437SOL    HW2 8211   0.842   4.846   1.548
 2438SOL     OW 8212   4.032   1.857   4.393
 2438SOL    HW1 8213   4.111   1.916   4.378
 2438SOL    HW2 8214   4.059   1.761   4.378
 2439SOL     OW 8215   0.601   5.891   6.588
 2439SOL    HW1 8216   0.546   5.971   6.565
 2439SOL    HW2 8217   0.686   5.920   6.631
 2440SOL     OW 8218   0.226   2.731   4.959
 2440SOL    HW1 8219   0.244   2.633   4.972
 2440SOL    HW2 8220   0.287   2.784   5.018
 2441SOL     OW 8221   6.584   0.057   0.050
 2441SOL    HW1 8222   6.504   0.117   0.049
 2441SOL    HW2 8223   6.615   0.040   6.975
 2442SOL     OW 8224   5.422   2.981   2.983
 2442SOL    HW1 8225   5.398   2.936   3.069
 2442SOL    HW2 8226   5.365   3.063   2.971
 2443SOL     OW 8227   0.872   3.368   1.171
 2443SOL    HW1 8228   0.805   3.393   1.100
 2443SOL    HW2 8229   0.878   3.269   1.178
 2444SOL     OW 8230   3.217   5.312   2.652
 2444SOL    HW1 8231   3.244   5.217   2.667
 2444SOL    HW2 8232   3.168   5.319   2.565
 2445SOL     OW 8233   0.760   1.905   1.434
 2445SOL    HW1 8234   0.679   1.959   1.412
 2445SOL    HW2 8235   0.750   1.866   1.526
 2446SOL     OW 8236   6.503   5.897   1.067
 2446SOL    HW1 8237   6.414   5.854   1.079
 2446SOL    HW2 8238   6.574   5.827   1.063
 2447SOL     OW 8239   1.947   0.108   6.477
 2447SOL    HW1 8240   1.987   0.026   6.516
 2447SOL    HW2 8241   2.007   0.144   6.405
 2448SOL     OW 8242   5.143   0.792   4.261
 2448SOL    HW1 8243   5.174   0.770   4.168
 2448SOL    HW2 8244   5.043   0.800   4.261
 2449SOL     OW 8245   1.884   3.905   1.173
 2449SOL    HW1 8246   1.849   3.929   1.263
 2449SOL    HW2 8247   1.936   3.820   1.178
 2450SOL     OW 8248   6.807   6.466   5.671
 2450SOL    HW1 8249   6.766   6.380   5.702
 2450SOL    HW2 8250   6.905   6.465   5.689
 2451SOL     OW 8251   1.653   6.983   0.163
 2451SOL    HW1 8252   1.716   6.919   0.120
 2451SOL    HW2 8253   1.702   0.019   0.231
 2452SOL     OW 8254   1.918   2.365   3.878
 2452SOL    HW1 8255   1.923   2.453   3.926
 2452SOL    HW2 8256   1.852   2.372   3.804
 2453SOL     OW 8257   0.786   2.005   6.734
 2453SOL    HW1 8258   0.859   1.968   6.676
 2453SOL    HW2 8259   0.755   2.092   6.695
 2454SOL     OW 8260   2.281   6.544   0.353
 2454SOL    HW1 8261   2.346   6.497   0.292
 2454SOL    HW2 8262   2.330   6.611   0.409
 2455SOL     OW 8263   4.895   1.775   6.639
 2455SOL    HW1 8264   4.902   1.678   6.616
 2455SOL    HW2 8265   4.857   1.825   6.561
 2456SOL     OW 8266   1.133   3.235   5.904
 2456SOL    HW1 8267   1.201   3.295   5.946
 2456SOL    HW2 8268   1.170   3.142   5.899
 2457SOL     OW 8269   5.880   1.384   5.924
 2457SOL    HW1 8270   5.965   1.362   5.972
 2457SOL    HW2 8271   5.829   1.300   5.905
 2458SOL     OW 8272   0.890   0.244   1.885
 2458SOL    HW1 8273   0.877   0.146   1.869
 2458SOL    HW2 8274   0.902   0.261   1.983
 2459SOL     OW 8275   1.616   6.605   1.225
 2459SOL    HW1 8276   1.561   6.532   1.185
 2459SOL    HW2 8277   1.562   6.657   1.290
 2460SOL     OW 8278   0.723   0.548   4.074
 2460SOL    HW1 8279   0.633   0.590   4.075
 2460SOL    HW2 8280   0.714   0.449   4.062
 2461SOL     OW 8281   2.221   1.978   3.384
 2461SOL    HW1 8282   2.290   1.908   3.366
 2461SOL    HW2 8283   2.224   2.004   3.480
 2462SOL     OW 8284   0.297   5.573   0.662
 2462SOL    HW1 8285   0.393   5.581   0.690
 2462SOL    HW2 8286   0.289   5.597   0.566
 2463SOL     OW 8287   6.914   6.065   0.435
 2463SOL    HW1 8288   6.821   6.083   0.466
 2463SOL    HW2 8289   6.975   6.058   0.515
 2464SOL     OW 8290   0.787   2.787   4.682
 2464SOL    HW1 8291   0.737   2.863   4.724
 2464SOL    HW2 8292   0.879   2.817   4.656
 2465SOL     OW 8293   0.060   1.648   0.091
 2465SOL    HW1 8294   0.066   1.590   0.173
 2465SOL    HW2 8295   6.984   1.672   0.073
 2466SOL     OW 8296   1.073   1.802   0.980
 2466SOL    HW1 8297   1.121   1.716   0.965
 2466SOL    HW2 8298   0.976   1.790   0.957
 2467SOL     OW 8299   5.273   2.614   4.876
 2467SOL    HW1 8300   5.253   2.615   4.974
 2467SOL    HW2 8301   5.328   2.694   4.852
 2468SOL     OW 8302   3.384   6.558   4.600
 2468SOL    HW1 8303   3.382   6.612   4.516
 2468SOL    HW2 8304   3.292   6.552   4.639
 2469SOL     OW 8305   2.887   1.686   6.128
 2469SOL    HW1 8306   2.815   1.619   6.145
 2469SOL    HW2 8307   2.846   1.773   6.101
 2470SOL     OW 8308   1.851   5.094   6.283
 2470SOL    HW1 8309   1.946   5.074   6.306
 2470SOL    HW2 8310   1.827   5.185   6.317
 2471SOL     OW 8311   2.401   5.941   2.698
 2471SOL    HW1 8312   2.397   5.919   2.600
 2471SOL    HW2 8313   2.308   5.960   2.732
 2472SOL     OW 8314   5.013   0.431   2.950
 2472SOL    HW1 8315   5.061   0.499   3.005
 2472SOL    HW2 8316   4.936   0.474   2.903
 2473SOL     OW 8317   0.893   4.121   4.750
 2473SOL    HW1 8318   0.846   4.189   4.806
 2473SOL    HW2 8319   0.947   4.060   4.808
 2474SOL     OW 8320   1.923   0.164   1.278
 2474SOL    HW1 8321   1.895   0.259   1.281
 2474SOL    HW2 8322   1.846   0.107   1.247
 2475SOL     OW 8323   5.673   2.034   0.698
 2475SOL    HW1 8324   5.714   2.101   0.759
 2475SOL    HW2 8325   5.595   2.075   0.651
 2476SOL     OW 8326   4.634   6.739   6.947
 2476SOL    HW1 8327   4.703   6.811   6.950
 2476SOL    HW2 8328   4.655   6.676   6.872
 2477SOL     OW 8329   3.803   1.262   3.963
 2477SOL    HW1 8330   3.880   1.275   3.900
 2477SOL    HW2 8331   3.722   1.306   3.925
 2478SOL     OW 8332   3.409   0.393   3.991
 2478SOL    HW1 8333   3.474   0.467   3.973
 2478SOL    HW2 8334   3.392   0.343   3.906
 2479SOL     OW 8335   6.300   4.143   2.000
 2479SOL    HW1 8336   6.279   4.046   1.991
 2479SOL    HW2 8337   6.377   4.155   2.062
 2480SOL     OW 8338   2.984   1.993   1.705
 2480SOL    HW1 8339   3.068   1.978   1.651
 2480SOL    HW2 8340   2.947   2.083   1.684
 2481SOL     OW 8341   3.115   0.242   2.520
 2481SOL    HW1 8342   3.176   0.283   2.452
 2481SOL    HW2 8343   3.107   0.303   2.598
 2482SOL     OW 8344   0.234   3.240   7.008
 2482SOL    HW1 8345   0.176   3.214   6.931
 2482SOL    HW2 8346   0.308   3.172   0.000
 2483SOL     OW 8347   2.526   1.540   1.292
 2483SOL    HW1 8348   2.570   1.610   1.349
 2483SOL    HW2 8349   2.574   1.453   1.304
 2484SOL     OW 8350   4.353   0.801   6.414
 2484SOL    HW1 8351   4.427   0.734   6.422
 2484SOL    HW2 8352   4.388   0.886   6.376
 2485SOL     OW 8353   0.527   1.472   0.028
 2485SOL    HW1 8354   0.499   1.412   0.102
 2485SOL    HW2 8355   0.560   1.559   0.065
 2486SOL     OW 8356   6.466   5.660   2.709
 2486SOL    HW1 8357   6.531   5.727   2.745
 2486SOL    HW2 8358   6.382   5.662   2.764
 2487SOL     OW 8359   4.120   6.303   6.698
 2487SOL    HW1 8360   4.058   6.373   6.734
 2487SOL    HW2 8361   4.122   6.225   6.760
 2488SOL     OW 8362   0.655   3.768   0.293
 2488SOL    HW1 8363   0.666   3.821   0.376
 2488SOL    HW2 8364   0.566   3.722   0.293
 2489SOL     OW 8365   6.134   5.750   4.758
 2489SOL    HW1 8366   6.063   5.683   4.734
 2489SOL    HW2 8367   6.181   5.720   4.841
 2490SOL     OW 8368   3.080   5.945   2.382
 2490SOL    HW1 8369   3.138   5.904   2.311
 2490SOL    HW2 8370   3.138   5.991   2.449
 2491SOL     OW 8371   3.825   4.367   1.710
 2491SOL    HW1 8372   3.725   4.362   1.703
 2491SOL    HW2 8373   3.862   4.275   1.723
 2492SOL     OW 8374   6.764   4.708   2.134
 2492SOL    HW1 8375   6.774   4.802   2.166
 2492SOL    HW2 8376   6.823   4.693   2.055
 2493SOL     OW 8377   5.984   6.342   0.685
 2493SOL    HW1 8378   5.963   6.253   0.645
 2493SOL    HW2 8379   6.048   6.391   0.626
 2494SOL     OW 8380   6.845   3.624   1.441
 2494SOL    HW1 8381   6.792   3.682   1.503
 2494SOL    HW2 8382   6.840   3.662   1.349
 2495SOL     OW 8383   6.792   3.054   2.329
 2495SOL    HW1 8384   6.836   3.072   2.417
 2495SOL    HW2 8385   6.702   3.013   2.344
 2496SOL     OW 8386   5.067   3.755   5.820
 2496SOL    HW1 8387   5.156   3.709   5.829
 2496SOL    HW2 8388   5.070   3.844   5.865
 2497SOL     OW 8389   0.589   0.032   3.797
 2497SOL    HW1 8390   0.526   0.015   3.722
 2497SOL    HW2 8391   0.550   7.017   3.882
 2498SOL     OW 8392   1.971   3.220   4.627
 2498SOL    HW1 8393   1.909   3.286   4.584
 2498SOL    HW2 8394   2.013   3.163   4.556
 2499SOL     OW 8395   5.637   3.181   1.140
 2499SOL    HW1 8396   5.683   3.097   1.112
 2499SOL    HW2 8397   5.538   3.170   1.130
 2500SOL     OW 8398   3.919   3.979   2.306
 2500SOL    HW1 8399   3.967   3.898   2.273
 2500SOL    HW2 8400   3.882   4.029   2.227
 2501SOL     OW 8401   6.580   4.979   4.144
 2501SOL    HW1 8402   6.533   5.013   4.063
 2501SOL    HW2 8403   6.623   5.055   4.193
 2502SOL     OW 8404   2.581   6.196   3.595
 2502SOL    HW1 8405   2.519   6.238   3.662
 2502SOL    HW2 8406   2.670   6.243   3.598
 2503SOL     OW 8407   2.462   0.055   5.218
 2503SOL    HW1 8408   2.368   0.048   5.250
 2503SOL    HW2 8409   2.520   0.087   5.293
 2504SOL     OW 8410   3.922   1.112   3.206
 2504SOL    HW1 8411   3.921   1.036   3.270
 2504SOL    HW2 8412   3.921   1.199   3.257
 2505SOL     OW 8413   5.567   4.589   4.473
 2505SOL    HW1 8414   5.540   4.637   4.557
 2505SOL    HW2 8415   5.666   4.593   4.463
 2506SOL     OW 8416   6.118   4.573   6.369
 2506SOL    HW1 8417   6.196   4.536   6.420
 2506SOL    HW2 8418   6.135   4.565   6.271
 2507SOL     OW 8419   5.869   3.509   3.659
 2507SOL    HW1 8420   5.831   3.430   3.612
 2507SOL    HW2 8421   5.967   3.517   3.638
 2508SOL     OW 8422   5.688   0.818   4.092
 2508SOL    HW1 8423   5.722   0.885   4.025
 2508SOL    HW2 8424   5.688   0.859   4.183
 2509SOL     OW 8425   0.192   3.478   5.935
 2509SOL    HW1 8426   0.195   3.472   5.835
 2509SOL    HW2 8427   0.164   3.390   5.973
 2510SOL     OW 8428   3.156   4.077   2.603
 2510SOL    HW1 8429   3.086   4.019   2.560
 2510SOL    HW2 8430   3.123   4.171   2.608
 2511SOL     OW 8431   2.268   0.915   4.581
 2511SOL    HW1 8432   2.307   0.984   4.644
 2511SOL    HW2 8433   2.272   0.825   4.625
 2512SOL     OW 8434   2.949   4.805   3.754
 2512SOL    HW1 8435   3.044   4.795   3.725
 2512SOL    HW2 8436   2.933   4.899   3.783
 2513SOL     OW 8437   1.905   5.736   6.501
 2513SOL    HW1 8438   1.990   5.749   6.552
 2513SOL    HW2 8439   1.832   5.712   6.564
 2514SOL     OW 8440   1.022   2.735   2.777
 2514SOL    HW1 8441   1.109   2.685   2.781
 2514SOL    HW2 8442   1.004   2.764   2.683
 2515SOL     OW 8443   0.200   1.905   1.117
 2515SOL    HW1 8444   0.118   1.954   1.147
 2515SOL    HW2 8445   0.245   1.956   1.044
 2516SOL     OW 8446   6.819   2.556   4.708
 2516SOL    HW1 8447   6.888   2.483   4.698
 2516SOL    HW2 8448   6.865   2.644   4.713
 2517SOL     OW 8449   0.455   1.204   4.454
 2517SOL    HW1 8450   0.522   1.163   4.393
 2517SOL    HW2 8451   0.402   1.273   4.404
 2518SOL     OW 8452   3.252   3.439   0.923
 2518SOL    HW1 8453   3.276   3.535   0.908
 2518SOL    HW2 8454   3.330   3.392   0.965
 2519SOL     OW 8455   1.371   1.235   0.202
 2519SOL    HW1 8456   1.334   1.185   0.124
 2519SOL    HW2 8457   1.315   1.217   0.283
 2520SOL     OW 8458   2.979   2.808   1.251
 2520SOL    HW1 8459   2.891   2.783   1.291
 2520SOL    HW2 8460   2.969   2.890   1.195
 2521SOL     OW 8461   5.614   1.449   4.783
 2521SOL    HW1 8462   5.615   1.465   4.685
 2521SOL    HW2 8463   5.522   1.423   4.812
 2522SOL     OW 8464   2.113   2.297   0.401
 2522SOL    HW1 8465   2.069   2.293   0.311
 2522SOL    HW2 8466   2.095   2.212   0.450
 2523SOL     OW 8467   0.974   5.761   5.674
 2523SOL    HW1 8468   0.981   5.725   5.582
 2523SOL    HW2 8469   0.895   5.822   5.680
 2524SOL     OW 8470   0.947   2.216   4.822
 2524SOL    HW1 8471   1.009   2.143   4.794
 2524SOL    HW2 8472   0.938   2.283   4.747
 2525SOL     OW 8473   6.703   2.720   6.419
 2525SOL    HW1 8474   6.610   2.684   6.407
 2525SOL    HW2 8475   6.699   2.809   6.465
 2526SOL     OW 8476   2.080   1.124   1.036
 2526SOL    HW1 8477   2.138   1.180   1.096
 2526SOL    HW2 8478   1.986   1.158   1.039
 2527SOL     OW 8479   4.056   5.443   0.024
 2527SOL    HW1 8480   4.120   5.376   0.061
 2527SOL    HW2 8481   4.084   5.535   0.051
 2528SOL     OW 8482   4.301   5.622   6.380
 2528SOL    HW1 8483   4.228   5.651   6.319
 2528SOL    HW2 8484   4.269   5.547   6.438
 2529SOL     OW 8485   0.065   6.046   5.666
 2529SOL    HW1 8486   0.104   5.969   5.615
 2529SOL    HW2 8487   0.122   6.065   5.746
 2530SOL     OW 8488   2.080   5.995   6.980
 2530SOL    HW1 8489   2.093   6.093   6.964
 2530SOL    HW2 8490   2.152   5.943   6.933
 2531SOL     OW 8491   0.391   4.026   6.319
 2531SOL    HW1 8492   0.390   3.968   6.238
 2531SOL    HW2 8493   0.418   4.119   6.292
 2532SOL     OW 8494   5.291   6.056   3.072
 2532SOL    HW1 8495   5.285   6.022   2.978
 2532SOL    HW2 8496   5.365   6.010   3.121
 2533SOL     OW 8497   4.248   0.491   3.706
 2533SOL    HW1 8498   4.214   0.583   3.691
 2533SOL    HW2 8499   4.325   0.493   3.770
 2534SOL     OW 8500   4.358   1.548   2.551
 2534SOL    HW1 8501   4.259   1.545   2.538
 2534SOL    HW2 8502   4.404   1.541   2.463
 2535SOL     OW 8503   3.492   2.776   6.165
 2535SOL    HW1 8504   3.413   2.719   6.145
 2535SOL    HW2 8505   3.497   2.793   6.263
 2536SOL     OW 8506   1.070   0.423   0.929
 2536SOL    HW1 8507   1.013   0.503   0.914
 2536SOL    HW2 8508   1.036   0.372   1.007
 2537SOL     OW 8509   4.470   6.870   4.981
 2537SOL    HW1 8510   4.498   6.923   4.901
 2537SOL    HW2 8511   4.370   6.868   4.986
 2538SOL     OW 8512   6.014   3.902   3.718
 2538SOL    HW1 8513   5.947   3.839   3.678
 2538SOL    HW2 8514   6.103   3.887   3.675
 2539SOL     OW 8515   5.173   2.171   4.825
 2539SOL    HW1 8516   5.235   2.093   4.832
 2539SOL    HW2 8517   5.092   2.145   4.773
 2540SOL     OW 8518   2.558   2.378   1.619
 2540SOL    HW1 8519   2.638   2.402   1.564
 2540SOL    HW2 8520   2.561   2.281   1.642
 2541SOL     OW 8521   2.748   0.118   4.428
 2541SOL    HW1 8522   2.757   0.180   4.350
 2541SOL    HW2 8523   2.815   0.141   4.498
 2542SOL     OW 8524   1.725   5.828   6.106
 2542SOL    HW1 8525   1.641   5.840   6.053
 2542SOL    HW2 8526   1.702   5.794   6.197
 2543SOL     OW 8527   0.899   0.805   3.679
 2543SOL    HW1 8528   0.827   0.779   3.614
 2543SOL    HW2 8529   0.882   0.761   3.767
 2544SOL     OW 8530   0.902   6.048   5.849
 2544SOL    HW1 8531   0.879   6.131   5.899
 2544SOL    HW2 8532   0.882   5.968   5.906
 2545SOL     OW 8533   2.576   6.163   2.756
 2545SOL    HW1 8534   2.522   6.081   2.735
 2545SOL    HW2 8535   2.514   6.240   2.773
 2546SOL     OW 8536   6.833   1.024   1.691
 2546SOL    HW1 8537   6.781   0.942   1.668
 2546SOL    HW2 8538   6.865   1.018   1.785
 2547SOL     OW 8539   0.194   3.864   4.936
 2547SOL    HW1 8540   0.193   3.781   4.993
 2547SOL    HW2 8541   0.101   3.895   4.920
 2548SOL     OW 8542   0.054   0.757   6.063
 2548SOL    HW1 8543   0.081   0.669   6.103
 2548SOL    HW2 8544   0.104   0.831   6.110
 2549SOL     OW 8545   5.592   1.935   3.124
 2549SOL    HW1 8546   5.530   1.933   3.202
 2549SOL    HW2 8547   5.538   1.941   3.039
 2550SOL     OW 8548   5.227   5.293   0.253
 2550SOL    HW1 8549   5.141   5.343   0.259
 2550SOL    HW2 8550   5.209   5.198   0.229
 2551SOL     OW 8551   1.118   4.482   5.979
 2551SOL    HW1 8552   1.055   4.560   5.986
 2551SOL    HW2 8553   1.074   4.400   6.014
 2552SOL     OW 8554   1.451   5.954   3.332
 2552SOL    HW1 8555   1.532   6.004   3.359
 2552SOL    HW2 8556   1.478   5.870   3.284
 2553SOL     OW 8557   4.597   3.146   0.354
 2553SOL    HW1 8558   4.615   3.065   0.297
 2553SOL    HW2 8559   4.530   3.204   0.309
 2554SOL     OW 8560   1.063   1.974   0.785
 2554SOL    HW1 8561   1.149   2.024   0.769
 2554SOL    HW2 8562   1.067   1.928   0.873
 2555SOL     OW 8563   7.013   0.111   6.040
 2555SOL    HW1 8564   6.966   0.075   5.959
 2555SOL    HW2 8565   0.038   0.036   6.090
 2556SOL     OW 8566   4.282   5.186   0.075
 2556SOL    HW1 8567   4.302   5.205   6.998
 2556SOL    HW2 8568   4.292   5.088   0.094
 2557SOL     OW 8569   2.399   4.905   6.791
 2557SOL    HW1 8570   2.495   4.889   6.814
 2557SOL    HW2 8571   2.359   4.968   6.857
 2558SOL     OW 8572   4.212   0.816   5.307
 2558SOL    HW1 8573   4.284   0.796   5.240
 2558SOL    HW2 8574   4.234   0.772   5.394
 2559SOL     OW 8575   0.477   5.086   5.034
 2559SOL    HW1 8576   0.436   4.998   5.008
 2559SOL    HW2 8577   0.521   5.126   4.954
 2560SOL     OW 8578   6.174   0.294   0.443
 2560SOL    HW1 8579   6.271   0.267   0.446
 2560SOL    HW2 8580   6.121   0.218   0.404
 2561SOL     OW 8581   3.189   6.113   4.178
 2561SOL    HW1 8582   3.153   6.021   4.192
 2561SOL    HW2 8583   3.221   6.122   4.083
 2562SOL     OW 8584   1.990   4.018   0.364
 2562SOL    HW1 8585   1.891   4.003   0.359
 2562SOL    HW2 8586   2.016   4.088   0.299
 2563SOL     OW 8587   1.675   0.429   1.846
 2563SOL    HW1 8588   1.707   0.383   1.763
 2563SOL    HW2 8589   1.655   0.525   1.825
 2564SOL     OW 8590   1.675   6.262   2.240
 2564SOL    HW1 8591   1.641   6.356   2.240
 2564SOL    HW2 8592   1.615   6.205   2.296
 2565SOL     OW 8593   1.080   0.786   1.131
 2565SOL    HW1 8594   0.986   0.807   1.160
 2565SOL    HW2 8595   1.139   0.782   1.212
 2566SOL     OW 8596   2.502   6.415   5.051
 2566SOL    HW1 8597   2.546   6.432   5.139
 2566SOL    HW2 8598   2.414   6.463   5.047
 2567SOL     OW 8599   1.291   0.731   0.442
 2567SOL    HW1 8600   1.233   0.773   0.511
 2567SOL    HW2 8601   1.235   0.671   0.384
 2568SOL     OW 8602   5.760   3.696   0.546
 2568SOL    HW1 8603   5.701   3.748   0.484
 2568SOL    HW2 8604   5.706   3.625   0.591
 2569SOL     OW 8605   2.340   0.850   2.260
 2569SOL    HW1 8606   2.339   0.950   2.257
 2569SOL    HW2 8607   2.363   0.814   2.169
 2570SOL     OW 8608   5.960   2.140   6.220
 2570SOL    HW1 8609   5.874   2.109   6.259
 2570SOL    HW2 8610   6.032   2.134   6.289
 2571SOL     OW 8611   1.065   4.541   3.864
 2571SOL    HW1 8612   1.077   4.620   3.803
 2571SOL    HW2 8613   1.119   4.464   3.829
 2572SOL     OW 8614   1.346   5.090   3.399
 2572SOL    HW1 8615   1.420   5.024   3.415
 2572SOL    HW2 8616   1.278   5.081   3.472
 2573SOL     OW 8617   1.282   0.346   6.980
 2573SOL    HW1 8618   1.194   0.302   6.966
 2573SOL    HW2 8619   1.349   0.278   7.011
 2574SOL     OW 8620   6.545   3.411   1.286
 2574SOL    HW1 8621   6.453   3.389   1.255
 2574SOL    HW2 8622   6.541   3.484   1.354
 2575SOL     OW 8623   0.864   6.730   5.217
 2575SOL    HW1 8624   0.836   6.781   5.298
 2575SOL    HW2 8625   0.952   6.765   5.184
 2576SOL     OW 8626   4.348   6.176   5.994
 2576SOL    HW1 8627   4.327   6.272   6.011
 2576SOL    HW2 8628   4.264   6.125   5.976
 2577SOL     OW 8629   1.816   3.482   2.500
 2577SOL    HW1 8630   1.808   3.472   2.599
 2577SOL    HW2 8631   1.829   3.579   2.477
 2578SOL     OW 8632   4.170   1.627   2.039
 2578SOL    HW1 8633   4.116   1.698   1.993
 2578SOL    HW2 8634   4.109   1.563   2.085
 2579SOL     OW 8635   0.529   6.407   2.903
 2579SOL    HW1 8636   0.611   6.350   2.893
 2579SOL    HW2 8637   0.525   6.444   2.995
 2580SOL     OW 8638   3.009   2.055   5.517
 2580SOL    HW1 8639   2.966   2.104   5.592
 2580SOL    HW2 8640   3.054   1.973   5.553
 2581SOL     OW 8641   3.405   0.379   5.825
 2581SOL    HW1 8642   3.360   0.393   5.914
 2581SOL    HW2 8643   3.468   0.455   5.808
 2582SOL     OW 8644   0.133   3.647   0.818
 2582SOL    HW1 8645   0.094   3.687   0.901
 2582SOL    HW2 8646   0.215   3.699   0.791
 2583SOL     OW 8647   5.534   1.058   0.859
 2583SOL    HW1 8648   5.525   1.027   0.954
 2583SOL    HW2 8649   5.630   1.071   0.837
 2584SOL     OW 8650   3.307   4.463   6.608
 2584SOL    HW1 8651   3.341   4.372   6.632
 2584SOL    HW2 8652   3.373   4.509   6.548
 2585SOL     OW 8653   2.299   5.297   0.136
 2585SOL    HW1 8654   2.366   5.274   0.207
 2585SOL    HW2 8655   2.259   5.386   0.155
 2586SOL     OW 8656   2.069   1.411   3.135
 2586SOL    HW1 8657   1.985   1.360   3.121
 2586SOL    HW2 8658   2.068   1.455   3.225
 2587SOL     OW 8659   5.993   1.147   4.175
 2587SOL    HW1 8660   6.017   1.071   4.114
 2587SOL    HW2 8661   5.946   1.111   4.255
 2588SOL     OW 8662   4.845   1.491   6.637
 2588SOL    HW1 8663   4.835   1.445   6.549
 2588SOL    HW2 8664   4.769   1.466   6.697
 2589SOL     OW 8665   1.545   6.050   0.482
 2589SOL    HW1 8666   1.529   5.965   0.532
 2589SOL    HW2 8667   1.617   6.036   0.414
 2590SOL     OW 8668   2.600   5.183   0.797
 2590SOL    HW1 8669   2.544   5.261   0.825
 2590SOL    HW2 8670   2.560   5.098   0.831
 2591SOL     OW 8671   4.972   6.217   3.313
 2591SOL    HW1 8672   4.888   6.250   3.355
 2591SOL    HW2 8673   5.001   6.132   3.357
 2592SOL     OW 8674   3.285   3.527   0.524
 2592SOL    HW1 8675   3.203   3.482   0.489
 2592SOL    HW2 8676   3.263   3.621   0.550
 2593SOL     OW 8677   2.759   4.500   6.151
 2593SOL    HW1 8678   2.850   4.512   6.192
 2593SOL    HW2 8679   2.743   4.402   6.137
 2594SOL     OW 8680   2.345   2.810   3.490
 2594SOL    HW1 8681   2.334   2.801   3.391
 2594SOL    HW2 8682   2.414   2.745   3.522
 2595SOL     OW 8683   1.364   1.037   2.862
 2595SOL    HW1 8684   1.455   1.019   2.824
 2595SOL    HW2 8685   1.321   1.112   2.810
 2596SOL     OW 8686   0.035   1.081   0.857
 2596SOL    HW1 8687   0.129   1.057   0.879
 2596SOL    HW2 8688   7.019   1.145   0.925
 2597SOL     OW 8689   6.382   6.005   0.565
 2597SOL    HW1 8690   6.464   5.955   0.539
 2597SOL    HW2 8691   6.302   5.962   0.525
 2598SOL     OW 8692   4.763   2.786   2.190
 2598SOL    HW1 8693   4.797   2.845   2.263
 2598SOL    HW2 8694   4.719   2.841   2.119
 2599SOL     OW 8695   2.190   5.478   1.720
 2599SOL    HW1 8696   2.235   5.425   1.792
 2599SOL    HW2 8697   2.209   5.575   1.734
 2600SOL     OW 8698   5.526   5.568   4.291
 2600SOL    HW1 8699   5.597   5.542   4.225
 2600SOL    HW2 8700   5.505   5.665   4.280
 2601SOL     OW 8701   6.923   0.755   3.809
 2601SOL    HW1 8702   6.930   0.755   3.908
 2601SOL    HW2 8703   6.915   0.849   3.776
 2602SOL     OW 8704   1.849   4.483   3.379
 2602SOL    HW1 8705   1.908   4.438   3.446
 2602SOL    HW2 8706   1.844   4.427   3.296
 2603SOL     OW 8707   1.452   5.684   1.626
 2603SOL    HW1 8708   1.518   5.667   1.699
 2603SOL    HW2 8709   1.463   5.615   1.555
 2604SOL     OW 8710   4.942   3.548   2.823
 2604SOL    HW1 8711   4.971   3.525   2.916
 2604SOL    HW2 8712   4.859   3.496   2.800
 2605SOL     OW 8713   1.639   2.561   1.000
 2605SOL    HW1 8714   1.567   2.626   0.977
 2605SOL    HW2 8715   1.686   2.532   0.917
 2606SOL     OW 8716   5.074   3.959   1.114
 2606SOL    HW1 8717   5.102   4.021   1.041
 2606SOL    HW2 8718   5.043   4.013   1.193
 2607SOL     OW 8719   2.560   2.879   1.746
 2607SOL    HW1 8720   2.468   2.918   1.737
 2607SOL    HW2 8721   2.553   2.785   1.780
 2608SOL     OW 8722   3.357   4.998   4.803
 2608SOL    HW1 8723   3.294   4.944   4.859
 2608SOL    HW2 8724   3.364   5.090   4.841
 2609SOL     OW 8725   0.403   1.438   1.415
 2609SOL    HW1 8726   0.339   1.373   1.374
 2609SOL    HW2 8727   0.474   1.388   1.466
 2610SOL     OW 8728   1.617   4.767   4.972
 2610SOL    HW1 8729   1.551   4.696   4.949
 2610SOL    HW2 8730   1.622   4.777   5.072
 2611SOL     OW 8731   5.514   2.031   5.462
 2611SOL    HW1 8732   5.610   2.019   5.489
 2611SOL    HW2 8733   5.502   2.123   5.423
 2612SOL     OW 8734   6.734   6.165   0.071
 2612SOL    HW1 8735   6.816   6.222   0.076
 2612SOL    HW2 8736   6.721   6.130   6.997
 2613SOL     OW 8737   2.041   0.198   0.533
 2613SOL    HW1 8738   1.970   0.190   0.603
 2613SOL    HW2 8739   2.018   0.139   0.456
 2614SOL     OW 8740   6.196   1.969   0.834
 2614SOL    HW1 8741   6.167   2.057   0.871
 2614SOL    HW2 8742   6.295   1.960   0.843
 2615SOL     OW 8743   1.305   3.085   6.815
 2615SOL    HW1 8744   1.218   3.116   6.853
 2615SOL    HW2 8745   1.295   2.993   6.779
 2616SOL     OW 8746   0.900   1.585   5.016
 2616SOL    HW1 8747   0.898   1.573   4.917
 2616SOL    HW2 8748   0.923   1.680   5.038
 2617SOL     OW 8749   5.905   0.383   0.088
 2617SOL    HW1 8750   5.942   0.294   0.060
 2617SOL    HW2 8751   5.978   0.451   0.088
 2618SOL     OW 8752   1.837   0.281   0.157
 2618SOL    HW1 8753   1.875   0.270   0.065
 2618SOL    HW2 8754   1.793   0.370   0.164
 2619SOL     OW 8755   4.549   1.245   2.859
 2619SOL    HW1 8756   4.486   1.176   2.825
 2619SOL    HW2 8757   4.518   1.336   2.832
 2620SOL     OW 8758   5.769   2.424   1.890
 2620SOL    HW1 8759   5.866   2.403   1.881
 2620SOL    HW2 8760   5.756   2.523   1.896
 2621SOL     OW 8761   2.679   6.333   0.906
 2621SOL    HW1 8762   2.698   6.365   0.998
 2621SOL    HW2 8763   2.608   6.391   0.864
 2622SOL     OW 8764   2.501   3.465   6.833
 2622SOL    HW1 8765   2.511   3.525   6.912
 2622SOL    HW2 8766   2.507   3.520   6.749
 2623SOL     OW 8767   0.402   1.713   3.781
 2623SOL    HW1 8768   0.359   1.771   3.851
 2623SOL    HW2 8769   0.389   1.617   3.806
 2624SOL     OW 8770   1.341   1.160   5.301
 2624SOL    HW1 8771   1.255   1.109   5.307
 2624SOL    HW2 8772   1.335   1.226   5.226
 2625SOL     OW 8773   2.784   5.306   6.233
 2625SOL    HW1 8774   2.699   5.254   6.229
 2625SOL    HW2 8775   2.797   5.357   6.148
 2626SOL     OW 8776   6.742   6.448   0.420
 2626SOL    HW1 8777   6.686   6.389   0.362
 2626SOL    HW2 8778   6.789   6.392   0.488
 2627SOL     OW 8779   2.442   6.883   5.900
 2627SOL    HW1 8780   2.517   6.859   5.838
 2627SOL    HW2 8781   2.416   6.978   5.886
 2628SOL     OW 8782   6.803   5.344   1.529
 2628SOL    HW1 8783   6.737   5.414   1.503
 2628SOL    HW2 8784   6.837   5.362   1.621
 2629SOL     OW 8785   3.747   3.617   2.684
 2629SOL    HW1 8786   3.836   3.662   2.679
 2629SOL    HW2 8787   3.729   3.568   2.599
 2630SOL     OW 8788   2.929   1.159   4.860
 2630SOL    HW1 8789   2.906   1.204   4.946
 2630SOL    HW2 8790   2.986   1.079   4.878
 2631SOL     OW 8791   5.314   5.789   0.571
 2631SOL    HW1 8792   5.232   5.845   0.581
 2631SOL    HW2 8793   5.394   5.841   0.599
 2632SOL     OW 8794   4.392   5.324   2.093
 2632SOL    HW1 8795   4.328   5.289   2.024
 2632SOL    HW2 8796   4.388   5.265   2.174
 2633SOL     OW 8797   6.714   3.065   5.961
 2633SOL    HW1 8798   6.801   3.058   6.011
 2633SOL    HW2 8799   6.696   3.161   5.939
 2634SOL     OW 8800   2.087   2.099   6.114
 2634SOL    HW1 8801   2.010   2.036   6.098
 2634SOL    HW2 8802   2.051   2.190   6.134
 2635SOL     OW 8803   3.870   5.611   3.146
 2635SOL    HW1 8804   3.875   5.581   3.050
 2635SOL    HW2 8805   3.813   5.693   3.152
 2636SOL     OW 8806   3.225   6.889   5.931
 2636SOL    HW1 8807   3.259   6.902   5.838
 2636SOL    HW2 8808   3.287   6.829   5.982
 2637SOL     OW 8809   6.661   0.964   3.086
 2637SOL    HW1 8810   6.620   0.907   3.015
 2637SOL    HW2 8811   6.653   1.060   3.061
 2638SOL     OW 8812   0.591   6.305   5.010
 2638SOL    HW1 8813   0.560   6.380   5.068
 2638SOL    HW2 8814   0.630   6.343   4.926
 2639SOL     OW 8815   5.306   5.412   4.889
 2639SOL    HW1 8816   5.327   5.502   4.929
 2639SOL    HW2 8817   5.326   5.414   4.791
 2640SOL     OW 8818   1.985   0.853   2.954
 2640SOL    HW1 8819   1.891   0.839   2.985
 2640SOL    HW2 8820   2.039   0.772   2.977
 2641SOL     OW 8821   5.635   2.603   0.732
 2641SOL    HW1 8822   5.713   2.627   0.674
 2641SOL    HW2 8823   5.563   2.563   0.675
 2642SOL     OW 8824   0.083   0.806   2.968
 2642SOL    HW1 8825   0.091   0.904   2.953
 2642SOL    HW2 8826   0.157   0.775   3.027
 2643SOL     OW 8827   1.635   4.653   4.343
 2643SOL    HW1 8828   1.731   4.656   4.371
 2643SOL    HW2 8829   1.626   4.692   4.251
 2644SOL     OW 8830   5.403   5.343   3.378
 2644SOL    HW1 8831   5.397   5.291   3.463
 2644SOL    HW2 8832   5.314   5.341   3.331
 2645SOL     OW 8833   4.576   5.405   2.595
 2645SOL    HW1 8834   4.513   5.449   2.530
 2645SOL    HW2 8835   4.564   5.445   2.686
 2646SOL     OW 8836   1.173   1.493   6.449
 2646SOL    HW1 8837   1.233   1.417   6.421
 2646SOL    HW2 8838   1.104   1.509   6.378
 2647SOL     OW 8839   4.447   7.017   3.202
 2647SOL    HW1 8840   4.531   0.043   3.233
 2647SOL    HW2 8841   4.368   0.039   3.250
 2648SOL     OW 8842   2.329   0.565   6.012
 2648SOL    HW1 8843   2.306   0.661   6.032
 2648SOL    HW2 8844   2.276   0.534   5.934
 2649SOL     OW 8845   5.829   1.774   3.683
 2649SOL    HW1 8846   5.764   1.818   3.620
 2649SOL    HW2 8847   5.915   1.826   3.682
 2650SOL     OW 8848   1.762   7.003   4.546
 2650SOL    HW1 8849   1.809   6.932   4.494
 2650SOL    HW2 8850   1.821   0.066   4.552
 2651SOL     OW 8851   3.415   2.143   2.726
 2651SOL    HW1 8852   3.447   2.154   2.632
 2651SOL    HW2 8853   3.493   2.125   2.786
 2652SOL     OW 8854   4.478   3.468   5.928
 2652SOL    HW1 8855   4.469   3.503   5.835
 2652SOL    HW2 8856   4.387   3.440   5.961
 2653SOL     OW 8857   2.435   6.982   0.284
 2653SOL    HW1 8858   2.374   6.990   0.363
 2653SOL    HW2 8859   2.530   6.993   0.315
 2654SOL     OW 8860   6.631   0.214   1.017
 2654SOL    HW1 8861   6.663   0.297   0.971
 2654SOL    HW2 8862   6.679   0.134   0.981
 2655SOL     OW 8863   5.257   6.551   3.743
 2655SOL    HW1 8864   5.198   6.575   3.667
 2655SOL    HW2 8865   5.297   6.634   3.782
 2656SOL     OW 8866   4.984   0.094   4.835
 2656SOL    HW1 8867   5.022   0.030   4.902
 2656SOL    HW2 8868   4.993   0.054   4.743
 2657SOL     OW 8869   1.729   3.454   5.430
 2657SOL    HW1 8870   1.804   3.438   5.365
 2657SOL    HW2 8871   1.768   3.477   5.519
 2658SOL     OW 8872   3.589   4.308   0.752
 2658SOL    HW1 8873   3.651   4.271   0.821
 2658SOL    HW2 8874   3.501   4.330   0.794
 2659SOL     OW 8875   0.585   2.244   5.622
 2659SOL    HW1 8876   0.536   2.287   5.697
 2659SOL    HW2 8877   0.610   2.314   5.554
 2660SOL     OW 8878   1.126   1.775   0.584
 2660SOL    HW1 8879   1.085   1.802   0.671
 2660SOL    HW2 8880   1.055   1.774   0.513
 2661SOL     OW 8881   2.147   1.157   1.719
 2661SOL    HW1 8882   2.141   1.233   1.784
 2661SOL    HW2 8883   2.060   1.107   1.719
 2662SOL     OW 8884   2.776   1.399   1.698
 2662SOL    HW1 8885   2.757   1.307   1.663
 2662SOL    HW2 8886   2.871   1.423   1.680
 2663SOL     OW 8887   3.916   0.139   0.969
 2663SOL    HW1 8888   3.890   0.066   0.907
 2663SOL    HW2 8889   3.885   0.227   0.933
 2664SOL     OW 8890   4.815   3.352   5.753
 2664SOL    HW1 8891   4.752   3.276   5.771
 2664SOL    HW2 8892   4.882   3.323   5.685
 2665SOL     OW 8893   0.917   3.774   4.571
 2665SOL    HW1 8894   0.879   3.806   4.484
 2665SOL    HW2 8895   0.849   3.716   4.617
 2666SOL     OW 8896   1.916   3.707   1.695
 2666SOL    HW1 8897   1.832   3.744   1.733
 2666SOL    HW2 8898   1.991   3.718   1.761
 2667SOL     OW 8899   6.279   2.209   4.789
 2667SOL    HW1 8900   6.284   2.309   4.788
 2667SOL    HW2 8901   6.227   2.179   4.869
 2668SOL     OW 8902   6.213   0.571   4.050
 2668SOL    HW1 8903   6.188   0.482   4.090
 2668SOL    HW2 8904   6.132   0.616   4.014
 2669SOL     OW 8905   2.372   1.736   1.811
 2669SOL    HW1 8906   2.443   1.718   1.743
 2669SOL    HW2 8907   2.406   1.713   1.902
 2670SOL     OW 8908   0.411   6.838   1.270
 2670SOL    HW1 8909   0.479   6.774   1.235
 2670SOL    HW2 8910   0.447   6.885   1.350
 2671SOL     OW 8911   5.007   4.160   6.476
 2671SOL    HW1 8912   5.102   4.136   6.498
 2671SOL    HW2 8913   4.969   4.092   6.414
 2672SOL     OW 8914   1.953   1.037   2.465
 2672SOL    HW1 8915   1.962   1.048   2.564
 2672SOL    HW2 8916   1.946   0.939   2.443
 2673SOL     OW 8917   3.042   0.933   3.161
 2673SOL    HW1 8918   3.126   0.986   3.155
 2673SOL    HW2 8919   3.046   0.873   3.241
 2674SOL     OW 8920   5.450   5.621   2.992
 2674SOL    HW1 8921   5.477   5.556   2.921
 2674SOL    HW2 8922   5.382   5.579   3.052
 2675SOL     OW 8923   4.841   1.073   3.869
 2675SOL    HW1 8924   4.766   1.026   3.822
 2675SOL    HW2 8925   4.807   1.159   3.908
 2676SOL     OW 8926   3.730   3.672   5.456
 2676SOL    HW1 8927   3.644   3.639   5.492
 2676SOL    HW2 8928   3.720   3.693   5.358
 2677SOL     OW 8929   1.647   5.693   1.279
 2677SOL    HW1 8930   1.583   5.625   1.314
 2677SOL    HW2 8931   1.740   5.656   1.282
 2678SOL     OW 8932   3.643   1.994   1.868
 2678SOL    HW1 8933   3.678   2.069   1.925
 2678SOL    HW2 8934   3.544   1.992   1.874
 2679SOL     OW 8935   2.094   4.235   2.649
 2679SOL    HW1 8936   2.030   4.234   2.572
 2679SOL    HW2 8937   2.158   4.311   2.638
 2680SOL     OW 8938   6.095   1.966   6.767
 2680SOL    HW1 8939   6.102   1.942   6.670
 2680SOL    HW2 8940   6.032   1.904   6.813
 2681SOL     OW 8941   2.297   2.772   3.199
 2681SOL    HW1 8942   2.379   2.715   3.194
 2681SOL    HW2 8943   2.216   2.713   3.206
 2682SOL     OW 8944   3.303   4.093   2.004
 2682SOL    HW1 8945   3.247   4.176   2.004
 2682SOL    HW2 8946   3.303   4.053   1.912
 2683SOL     OW 8947   1.802   3.199   1.061
 2683SOL    HW1 8948   1.740   3.155   1.126
 2683SOL    HW2 8949   1.756   3.212   0.973
 2684SOL     OW 8950   5.477   0.090   3.920
 2684SOL    HW1 8951   5.531   0.022   3.872
 2684SOL    HW2 8952   5.447   0.053   4.008
 2685SOL     OW 8953   1.782   6.905   5.853
 2685SOL    HW1 8954   1.870   6.906   5.804
 2685SOL    HW2 8955   1.711   6.869   5.793
 2686SOL     OW 8956   2.696   1.969   5.752
 2686SOL    HW1 8957   2.719   2.029   5.675
 2686SOL    HW2 8958   2.739   1.880   5.738
 2687SOL     OW 8959   3.719   2.634   1.780
 2687SOL    HW1 8960   3.634   2.681   1.803
 2687SOL    HW2 8961   3.718   2.541   1.817
 2688SOL     OW 8962   4.663   2.255   0.343
 2688SOL    HW1 8963   4.701   2.329   0.400
 2688SOL    HW2 8964   4.564   2.252   0.353
 2689SOL     OW 8965   0.329   4.093   1.960
 2689SOL    HW1 8966   0.364   4.032   2.031
 2689SOL    HW2 8967   0.401   4.158   1.935
 2690SOL     OW 8968   5.537   1.112   4.410
 2690SOL    HW1 8969   5.531   1.211   4.399
 2690SOL    HW2 8970   5.481   1.067   4.341
 2691SOL     OW 8971   5.158   3.522   3.921
 2691SOL    HW1 8972   5.258   3.521   3.920
 2691SOL    HW2 8973   5.126   3.549   4.012
 2692SOL     OW 8974   1.330   5.730   0.792
 2692SOL    HW1 8975   1.337   5.767   0.885
 2692SOL    HW2 8976   1.321   5.631   0.797
 2693SOL     OW 8977   0.982   6.147   2.717
 2693SOL    HW1 8978   0.901   6.173   2.769
 2693SOL    HW2 8979   0.955   6.104   2.631
 2694SOL     OW 8980   2.586   0.745   2.995
 2694SOL    HW1 8981   2.511   0.745   3.061
 2694SOL    HW2 8982   2.667   0.788   3.035
 2695SOL     OW 8983   6.638   6.091   2.961
 2695SOL    HW1 8984   6.635   6.051   3.052
 2695SOL    HW2 8985   6.692   6.175   2.963
 2696SOL     OW 8986   3.618   4.618   6.127
 2696SOL    HW1 8987   3.663   4.672   6.198
 2696SOL    HW2 8988   3.636   4.660   6.038
 2697SOL     OW 8989   4.754   2.886   0.261
 2697SOL    HW1 8990   4.793   2.933   0.182
 2697SOL    HW2 8991   4.723   2.795   0.234
 2698SOL     OW 8992   1.827   5.767   0.463
 2698SOL    HW1 8993   1.878   5.799   0.543
 2698SOL    HW2 8994   1.878   5.695   0.418
 2699SOL     OW 8995   2.860   0.098   2.606
 2699SOL    HW1 8996   2.866   7.017   2.594
 2699SOL    HW2 8997   2.946   0.140   2.578
 2700SOL     OW 8998   5.094   2.092   0.948
 2700SOL    HW1 8999   5.000   2.111   0.919
 2700SOL    HW2 9000   5.099   2.000   0.986
 2701SOL     OW 9001   5.098   4.166   5.680
 2701SOL    HW1 9002   5.173   4.232   5.681
 2701SOL    HW2 9003   5.134   4.073   5.682
 2702SOL     OW 9004   1.521   2.116   5.179
 2702SOL    HW1 9005   1.477   2.071   5.102
 2702SOL    HW2 9006   1.453   2.170   5.229
 2703SOL     OW 9007   2.514   5.944   1.623
 2703SOL    HW1 9008   2.518   5.844   1.622
 2703SOL    HW2 9009   2.516   5.976   1.717
 2704SOL     OW 9010   4.312   0.940   3.460
 2704SOL    HW1 9011   4.306   1.013   3.528
 2704SOL    HW2 9012   4.223   0.895   3.451
 2705SOL     OW 9013   1.270   0.518   5.550
 2705SOL    HW1 9014   1.182   0.545   5.589
 2705SOL    HW2 9015   1.342   0.530   5.618
 2706SOL     OW 9016   1.040   4.607   4.754
 2706SOL    HW1 9017   0.979   4.560   4.691
 2706SOL    HW2 9018   1.133   4.570   4.744
 2707SOL     OW 9019   4.264   0.938   3.067
 2707SOL    HW1 9020   4.170   0.911   3.085
 2707SOL    HW2 9021   4.279   1.031   3.100
 2708SOL     OW 9022   5.518   3.275   5.326
 2708SOL    HW1 9023   5.436   3.232   5.289
 2708SOL    HW2 9024   5.598   3.244   5.275
 2709SOL     OW 9025   4.909   1.374   5.165
 2709SOL    HW1 9026   4.956   1.429   5.096
 2709SOL    HW2 9027   4.906   1.278   5.136
 2710SOL     OW 9028   1.063   3.051   3.830
 2710SOL    HW1 9029   1.028   3.001   3.910
 2710SOL    HW2 9030   1.138   3.111   3.858
 2711SOL     OW 9031   4.641   1.014   1.385
 2711SOL    HW1 9032   4.581   0.998   1.306
 2711SOL    HW2 9033   4.648   0.929   1.438
 2712SOL     OW 9034   5.002   6.140   1.542
 2712SOL    HW1 9035   4.954   6.158   1.456
 2712SOL    HW2 9036   4.936   6.129   1.615
 2713SOL     OW 9037   4.020   4.579   5.330
 2713SOL    HW1 9038   4.096   4.611   5.274
 2713SOL    HW2 9039   3.986   4.653   5.387
 2714SOL     OW 9040   3.159   4.109   6.219
 2714SOL    HW1 9041   3.185   4.187   6.277
 2714SOL    HW2 9042   3.082   4.062   6.260
 2715SOL     OW 9043   4.376   6.735   0.393
 2715SOL    HW1 9044   4.409   6.739   0.299
 2715SOL    HW2 9045   4.284   6.774   0.399
 2716SOL     OW 9046   4.608   1.002   2.036
 2716SOL    HW1 9047   4.633   1.082   2.091
 2716SOL    HW2 9048   4.642   0.919   2.082
 2717SOL     OW 9049   0.376   1.604   2.120
 2717SOL    HW1 9050   0.322   1.524   2.143
 2717SOL    HW2 9051   0.318   1.672   2.076
 2718SOL     OW 9052   6.057   1.340   6.186
 2718SOL    HW1 9053   6.057   1.255   6.132
 2718SOL    HW2 9054   6.110   1.410   6.138
 2719SOL     OW 9055   0.933   4.268   3.990
 2719SOL    HW1 9056   0.913   4.352   3.940
 2719SOL    HW2 9057   0.907   4.188   3.935
 2720SOL     OW 9058   2.092   5.015   6.372
 2720SOL    HW1 9059   2.170   5.016   6.310
 2720SOL    HW2 9060   2.124   4.997   6.465
 2721SOL     OW 9061   2.796   5.863   3.709
 2721SOL    HW1 9062   2.821   5.931   3.778
 2721SOL    HW2 9063   2.704   5.828   3.729
 2722SOL     OW 9064   3.329   4.113   0.154
 2722SOL    HW1 9065   3.409   4.061   0.183
 2722SOL    HW2 9066   3.248   4.054   0.157
 2723SOL     OW 9067   4.731   4.844   0.238
 2723SOL    HW1 9068   4.761   4.888   0.323
 2723SOL    HW2 9069   4.655   4.895   0.199
 2724SOL     OW 9070   0.229   6.029   1.061
 2724SOL    HW1 9071   0.133   6.048   1.082
 2724SOL    HW2 9072   0.243   5.930   1.058
 2725SOL     OW 9073   5.810   3.936   3.171
 2725SOL    HW1 9074   5.776   4.030   3.163
 2725SOL    HW2 9075   5.835   3.917   3.266
 2726SOL     OW 9076   6.282   2.257   2.179
 2726SOL    HW1 9077   6.330   2.344   2.163
 2726SOL    HW2 9078   6.346   2.181   2.166
 2727SOL     OW 9079   1.598   4.638   3.856
 2727SOL    HW1 9080   1.554   4.684   3.779
 2727SOL    HW2 9081   1.543   4.559   3.884
 2728SOL     OW 9082   4.505   4.365   6.558
 2728SOL    HW1 9083   4.419   4.345   6.512
 2728SOL    HW2 9084   4.576   4.383   6.491
 2729SOL     OW 9085   0.508   7.010   0.843
 2729SOL    HW1 9086   0.412   6.981   0.848
 2729SOL    HW2 9087   0.541   0.013   0.935
 2730SOL     OW 9088   0.936   5.072   2.820
 2730SOL    HW1 9089   0.930   5.069   2.920
 2730SOL    HW2 9090   1.012   5.131   2.793
 2731SOL     OW 9091   3.936   3.494   5.448
 2731SOL    HW1 9092   3.877   3.574   5.459
 2731SOL    HW2 9093   4.027   3.523   5.418
 2732SOL     OW 9094   4.360   0.971   2.440
 2732SOL    HW1 9095   4.343   1.047   2.377
 2732SOL    HW2 9096   4.338   0.885   2.396
 2733SOL     OW 9097   0.776   0.246   0.721
 2733SOL    HW1 9098   0.839   0.312   0.681
 2733SOL    HW2 9099   0.813   0.212   0.808
 2734SOL     OW 9100   3.698   0.370   1.855
 2734SOL    HW1 9101   3.794   0.364   1.883
 2734SOL    HW2 9102   3.646   0.421   1.923
 2735SOL     OW 9103   0.875   2.848   2.992
 2735SOL    HW1 9104   0.952   2.807   2.942
 2735SOL    HW2 9105   0.826   2.911   2.932
 2736SOL     OW 9106   5.380   4.190   2.774
 2736SOL    HW1 9107   5.302   4.136   2.806
 2736SOL    HW2 9108   5.389   4.273   2.830
 2737SOL     OW 9109   2.798   0.373   6.258
 2737SOL    HW1 9110   2.820   0.451   6.317
 2737SOL    HW2 9111   2.866   0.301   6.270
 2738SOL     OW 9112   5.171   5.767   1.283
 2738SOL    HW1 9113   5.187   5.836   1.353
 2738SOL    HW2 9114   5.204   5.678   1.316
 2739SOL     OW 9115   0.606   5.145   1.858
 2739SOL    HW1 9116   0.527   5.085   1.869
 2739SOL    HW2 9117   0.683   5.108   1.912
 2740SOL     OW 9118   6.573   5.662   5.293
 2740SOL    HW1 9119   6.525   5.735   5.343
 2740SOL    HW2 9120   6.567   5.680   5.195
 2741SOL     OW 9121   0.059   6.706   0.119
 2741SOL    HW1 9122   6.990   6.681   0.161
 2741SOL    HW2 9123   0.132   6.654   0.162
 2742SOL     OW 9124   2.877   4.950   1.616
 2742SOL    HW1 9125   2.816   4.887   1.663
 2742SOL    HW2 9126   2.967   4.908   1.605
 2743SOL     OW 9127   5.617   1.819   3.384
 2743SOL    HW1 9128   5.644   1.728   3.414
 2743SOL    HW2 9129   5.678   1.851   3.312
 2744SOL     OW 9130   3.299   3.396   3.003
 2744SOL    HW1 9131   3.323   3.465   2.934
 2744SOL    HW2 9132   3.200   3.394   3.014
 2745SOL     OW 9133   0.711   6.251   6.827
 2745SOL    HW1 9134   0.732   6.337   6.873
 2745SOL    HW2 9135   0.758   6.176   6.873
 2746SOL     OW 9136   1.651   1.137   4.338
 2746SOL    HW1 9137   1.648   1.178   4.247
 2746SOL    HW2 9138   1.564   1.155   4.385
 2747SOL     OW 9139   5.141   4.956   0.409
 2747SOL    HW1 9140   5.042   4.947   0.395
 2747SOL    HW2 9141   5.169   4.898   0.485
 2748SOL     OW 9142   4.370   0.262   0.539
 2748SOL    HW1 9143   4.334   0.305   0.456
 2748SOL    HW2 9144   4.447   0.317   0.573
 2749SOL     OW 9145   4.342   0.588   0.255
 2749SOL    HW1 9146   4.311   0.653   0.185
 2749SOL    HW2 9147   4.391   0.638   0.327
 2750SOL     OW 9148   2.131   6.052   1.577
 2750SOL    HW1 9149   2.039   6.075   1.547
 2750SOL    HW2 9150   2.195   6.059   1.500
 2751SOL     OW 9151   6.211   5.540   1.724
 2751SOL    HW1 9152   6.299   5.494   1.708
 2751SOL    HW2 9153   6.228   5.637   1.742
 2752SOL     OW 9154   4.155   5.176   6.474
 2752SOL    HW1 9155   4.202   5.099   6.431
 2752SOL    HW2 9156   4.120   5.148   6.563
 2753SOL     OW 9157   4.443   4.989   5.766
 2753SOL    HW1 9158   4.484   5.072   5.729
 2753SOL    HW2 9159   4.438   4.995   5.865
 2754SOL     OW 9160   0.864   0.852   4.526
 2754SOL    HW1 9161   0.851   0.932   4.467
 2754SOL    HW2 9162   0.937   0.871   4.591
 2755SOL     OW 9163   3.694   0.352   2.237
 2755SOL    HW1 9164   3.618   0.411   2.211
 2755SOL    HW2 9165   3.674   0.306   2.323
 2756SOL     OW 9166   4.586   5.370   6.145
 2756SOL    HW1 9167   4.505   5.331   6.188
 2756SOL    HW2 9168   4.562   5.455   6.098
 2757SOL     OW 9169   1.061   4.744   0.404
 2757SOL    HW1 9170   1.015   4.679   0.345
 2757SOL    HW2 9171   0.994   4.794   0.459
 2758SOL     OW 9172   5.101   0.195   5.930
 2758SOL    HW1 9173   5.033   0.154   5.990
 2758SOL    HW2 9174   5.168   0.125   5.904
 2759SOL     OW 9175   4.499   4.898   3.000
 2759SOL    HW1 9176   4.591   4.920   3.032
 2759SOL    HW2 9177   4.433   4.919   3.072
 2760SOL     OW 9178   0.550   6.437   3.393
 2760SOL    HW1 9179   0.514   6.471   3.480
 2760SOL    HW2 9180   0.649   6.452   3.389
 2761SOL     OW 9181   2.553   4.663   5.111
 2761SOL    HW1 9182   2.634   4.650   5.055
 2761SOL    HW2 9183   2.555   4.599   5.188
 2762SOL     OW 9184   1.493   1.917   5.753
 2762SOL    HW1 9185   1.445   1.922   5.841
 2762SOL    HW2 9186   1.427   1.915   5.678
 2763SOL     OW 9187   5.570   0.250   2.058
 2763SOL    HW1 9188   5.641   0.272   2.125
 2763SOL    HW2 9189   5.599   0.279   1.967
 2764SOL     OW 9190   6.311   0.568   1.573
 2764SOL    HW1 9191   6.302   0.601   1.479
 2764SOL    HW2 9192   6.220   0.561   1.614
 2765SOL     OW 9193   5.319   1.456   3.724
 2765SOL    HW1 9194   5.293   1.532   3.665
 2765SOL    HW2 9195   5.237   1.410   3.758
 2766SOL     OW 9196   5.258   6.292   2.661
 2766SOL    HW1 9197   5.297   6.307   2.570
 2766SOL    HW2 9198   5.302   6.213   2.703
 2767SOL     OW 9199   6.887   3.925   5.289
 2767SOL    HW1 9200   6.921   4.013   5.258
 2767SOL    HW2 9201   6.787   3.927   5.292
 2768SOL     OW 9202   5.480   0.516   5.974
 2768SOL    HW1 9203   5.417   0.464   6.031
 2768SOL    HW2 9204   5.429   0.583   5.919
 2769SOL     OW 9205   1.452   3.990   1.476
 2769SOL    HW1 9206   1.413   4.045   1.549
 2769SOL    HW2 9207   1.455   4.044   1.392
 2770SOL     OW 9208   4.560   6.576   2.376
 2770SOL    HW1 9209   4.492   6.557   2.447
 2770SOL    HW2 9210   4.651   6.554   2.411
 2771SOL     OW 9211   4.599   0.828   1.603
 2771SOL    HW1 9212   4.596   0.737   1.563
 2771SOL    HW2 9213   4.528   0.836   1.674
 2772SOL     OW 9214   3.456   0.989   0.724
 2772SOL    HW1 9215   3.473   0.939   0.639
 2772SOL    HW2 9216   3.414   1.077   0.702
 2773SOL     OW 9217   3.368   4.868   1.578
 2773SOL    HW1 9218   3.401   4.918   1.498
 2773SOL    HW2 9219   3.374   4.770   1.562
 2774SOL     OW 9220   5.081   2.847   1.976
 2774SOL    HW1 9221   4.991   2.886   1.955
 2774SOL    HW2 9222   5.082   2.812   2.069
 2775SOL     OW 9223   0.501   0.173   2.169
 2775SOL    HW1 9224   0.454   0.085   2.174
 2775SOL    HW2 9225   0.499   0.216   2.259
 2776SOL     OW 9226   2.883   5.898   0.005
 2776SOL    HW1 9227   2.904   5.848   6.939
 2776SOL    HW2 9228   2.928   5.853   0.082
 2777SOL     OW 9229   1.293   2.819   4.053
 2777SOL    HW1 9230   1.281   2.796   3.956
 2777SOL    HW2 9231   1.279   2.917   4.066
 2778SOL     OW 9232   3.347   2.214   5.313
 2778SOL    HW1 9233   3.271   2.266   5.275
 2778SOL    HW2 9234   3.355   2.127   5.265
 2779SOL     OW 9235   6.437   0.477   0.180
 2779SOL    HW1 9236   6.475   0.512   0.265
 2779SOL    HW2 9237   6.344   0.511   0.168
 2780SOL     OW 9238   3.371   6.437   6.537
 2780SOL    HW1 9239   3.447   6.468   6.594
 2780SOL    HW2 9240   3.347   6.343   6.562
 2781SOL     OW 9241   5.490   3.791   6.756
 2781SOL    HW1 9242   5.453   3.761   6.844
 2781SOL    HW2 9243   5.589   3.796   6.761
 2782SOL     OW 9244   3.457   0.708   6.179
 2782SOL    HW1 9245   3.406   0.624   6.193
 2782SOL    HW2 9246   3.426   0.778   6.244
 2783SOL     OW 9247   0.426   3.777   5.252
 2783SOL    HW1 9248   0.472   3.860   5.220
 2783SOL    HW2 9249   0.395   3.790   5.346
 2784SOL     OW 9250   2.625   1.813   1.395
 2784SOL    HW1 9251   2.604   1.819   1.298
 2784SOL    HW2 9252   2.569   1.879   1.446
 2785SOL     OW 9253   5.480   2.415   2.379
 2785SOL    HW1 9254   5.516   2.434   2.470
 2785SOL    HW2 9255   5.475   2.316   2.365
 2786SOL     OW 9256   3.580   0.487   1.344
 2786SOL    HW1 9257   3.633   0.502   1.427
 2786SOL    HW2 9258   3.620   0.540   1.269
 2787SOL     OW 9259   1.629   4.483   5.900
 2787SOL    HW1 9260   1.542   4.463   5.945
 2787SOL    HW2 9261   1.619   4.564   5.842
 2788SOL     OW 9262   1.735   2.559   0.421
 2788SOL    HW1 9263   1.637   2.564   0.439
 2788SOL    HW2 9264   1.785   2.594   0.500
 2789SOL     OW 9265   6.845   3.343   3.219
 2789SOL    HW1 9266   6.845   3.426   3.163
 2789SOL    HW2 9267   6.826   3.264   3.161
 2790SOL     OW 9268   3.058   6.208   4.806
 2790SOL    HW1 9269   3.104   6.129   4.846
 2790SOL    HW2 9270   2.981   6.177   4.751
 2791SOL     OW 9271   2.089   3.396   2.139
 2791SOL    HW1 9272   2.151   3.418   2.063
 2791SOL    HW2 9273   1.998   3.434   2.119
 2792SOL     OW 9274   0.222   1.985   5.978
 2792SOL    HW1 9275   0.304   1.928   5.968
 2792SOL    HW2 9276   0.223   2.028   6.068
 2793SOL     OW 9277   5.126   0.483   4.935
 2793SOL    HW1 9278   5.151   0.491   4.838
 2793SOL    HW2 9279   5.084   0.568   4.966
 2794SOL     OW 9280   1.071   1.275   2.162
 2794SOL    HW1 9281   0.986   1.252   2.210
 2794SOL    HW2 9282   1.123   1.341   2.217
 2795SOL     OW 9283   1.159   3.563   0.429
 2795SOL    HW1 9284   1.129   3.651   0.392
 2795SOL    HW2 9285   1.254   3.569   0.458
 2796SOL     OW 9286   4.121   5.001   2.040
 2796SOL    HW1 9287   4.196   5.045   1.991
 2796SOL    HW2 9288   4.093   4.918   1.990
 2797SOL     OW 9289   4.975   4.495   5.115
 2797SOL    HW1 9290   4.946   4.402   5.136
 2797SOL    HW2 9291   5.070   4.508   5.142
 2798SOL     OW 9292   2.112   3.676   3.176
 2798SOL    HW1 9293   2.123   3.655   3.079
 2798SOL    HW2 9294   2.109   3.775   3.189
 2799SOL     OW 9295   6.632   5.538   6.642
 2799SOL    HW1 9296   6.730   5.540   6.661
 2799SOL    HW2 9297   6.581   5.540   6.728
 2800SOL     OW 9298   2.898   0.593   6.418
 2800SOL    HW1 9299   2.850   0.561   6.499
 2800SOL    HW2 9300   2.860   0.681   6.389
 2801SOL     OW 9301   4.048   5.391   2.005
 2801SOL    HW1 9302   4.032   5.339   1.920
 2801SOL    HW2 9303   3.990   5.473   2.005
 2802SOL     OW 9304   6.425   0.176   6.540
 2802SOL    HW1 9305   6.500   0.118   6.510
 2802SOL    HW2 9306   6.428   0.186   6.639
 2803SOL     OW 9307   2.605   5.988   4.681
 2803SOL    HW1 9308   2.571   5.896   4.703
 2803SOL    HW2 9309   2.631   5.991   4.584
 2804SOL     OW 9310   0.803   5.384   2.413
 2804SOL    HW1 9311   0.732   5.410   2.347
 2804SOL    HW2 9312   0.838   5.293   2.390
 2805SOL     OW 9313   6.637   4.366   6.424
 2805SOL    HW1 9314   6.556   4.332   6.376
 2805SOL    HW2 9315   6.717   4.358   6.364
 2806SOL     OW 9316   5.761   4.300   2.850
 2806SOL    HW1 9317   5.804   4.261   2.769
 2806SOL    HW2 9318   5.772   4.399   2.850
 2807SOL     OW 9319   3.749   4.909   3.888
 2807SOL    HW1 9320   3.666   4.914   3.833
 2807SOL    HW2 9321   3.824   4.873   3.831
 2808SOL     OW 9322   4.649   6.913   4.329
 2808SOL    HW1 9323   4.608   6.886   4.416
 2808SOL    HW2 9324   4.716   6.987   4.346
 2809SOL     OW 9325   5.129   1.996   0.564
 2809SOL    HW1 9326   5.217   1.984   0.609
 2809SOL    HW2 9327   5.074   1.913   0.575
 2810SOL     OW 9328   2.640   1.263   6.157
 2810SOL    HW1 9329   2.630   1.201   6.235
 2810SOL    HW2 9330   2.618   1.213   6.073
 2811SOL     OW 9331   0.270   0.285   4.174
 2811SOL    HW1 9332   0.187   0.308   4.224
 2811SOL    HW2 9333   0.350   0.319   4.224
 2812SOL     OW 9334   4.860   4.612   2.814
 2812SOL    HW1 9335   4.918   4.551   2.760
 2812SOL    HW2 9336   4.800   4.558   2.873
 2813SOL     OW 9337   6.241   1.863   5.895
 2813SOL    HW1 9338   6.340   1.852   5.891
 2813SOL    HW2 9339   6.219   1.946   5.948
 2814SOL     OW 9340   5.695   4.663   5.700
 2814SOL    HW1 9341   5.702   4.687   5.603
 2814SOL    HW2 9342   5.612   4.703   5.738
 2815SOL     OW 9343   1.541   1.251   4.085
 2815SOL    HW1 9344   1.490   1.168   4.061
 2815SOL    HW2 9345   1.493   1.301   4.156
 2816SOL     OW 9346   4.321   6.297   3.558
 2816SOL    HW1 9347   4.303   6.279   3.462
 2816SOL    HW2 9348   4.330   6.210   3.607
 2817SOL     OW 9349   1.238   1.179   1.136
 2817SOL    HW1 9350   1.171   1.162   1.208
 2817SOL    HW2 9351   1.330   1.159   1.171
 2818SOL     OW 9352   1.542   1.997   6.665
 2818SOL    HW1 9353   1.620   2.024   6.721
 2818SOL    HW2 9354   1.508   2.076   6.615
 2819SOL     OW 9355   6.335   3.513   2.087
 2819SOL    HW1 9356   6.248   3.495   2.040
 2819SOL    HW2 9357   6.319   3.573   2.165
 2820SOL     OW 9358   5.396   3.239   4.015
 2820SOL    HW1 9359   5.408   3.330   3.974
 2820SOL    HW2 9360   5.425   3.170   3.949
 2821SOL     OW 9361   1.657   3.407   2.721
 2821SOL    HW1 9362   1.622   3.318   2.752
 2821SOL    HW2 9363   1.587   3.452   2.665
 2822SOL     OW 9364   3.654   2.547   0.787
 2822SOL    HW1 9365   3.754   2.542   0.781
 2822SOL    HW2 9366   3.619   2.600   0.710
 2823SOL     OW 9367   1.255   0.755   4.179
 2823SOL    HW1 9368   1.179   0.692   4.186
 2823SOL    HW2 9369   1.224   0.848   4.197
 2824SOL     OW 9370   3.689   2.766   5.972
 2824SOL    HW1 9371   3.722   2.676   5.999
 2824SOL    HW2 9372   3.603   2.786   6.019
 2825SOL     OW 9373   5.591   6.196   1.249
 2825SOL    HW1 9374   5.622   6.289   1.265
 2825SOL    HW2 9375   5.642   6.156   1.173
 2826SOL     OW 9376   5.427   4.059   5.058
 2826SOL    HW1 9377   5.483   4.020   5.131
 2826SOL    HW2 9378   5.398   3.986   4.996
 2827SOL     OW 9379   0.154   6.905   6.138
 2827SOL    HW1 9380   0.201   6.886   6.223
 2827SOL    HW2 9381   0.219   6.902   6.062
 2828SOL     OW 9382   3.389   2.314   6.097
 2828SOL    HW1 9383   3.304   2.263   6.086
 2828SOL    HW2 9384   3.440   2.313   6.011
 2829SOL     OW 9385   2.773   1.476   0.018
 2829SOL    HW1 9386   2.763   1.398   6.974
 2829SOL    HW2 9387   2.727   1.455   0.104
 2830SOL     OW 9388   3.180   3.887   0.158
 2830SOL    HW1 9389   3.124   3.867   0.239
 2830SOL    HW2 9390   3.143   3.839   0.079
 2831SOL     OW 9391   6.098   6.356   4.253
 2831SOL    HW1 9392   6.139   6.355   4.345
 2831SOL    HW2 9393   6.023   6.422   4.252
 2832SOL     OW 9394   0.581   0.898   2.327
 2832SOL    HW1 9395   0.643   0.947   2.388
 2832SOL    HW2 9396   0.626   0.816   2.292
 2833SOL     OW 9397   5.636   2.977   2.534
 2833SOL    HW1 9398   5.588   2.959   2.620
 2833SOL    HW2 9399   5.734   2.959   2.547
 2834SOL     OW 9400   4.530   1.250   4.971
 2834SOL    HW1 9401   4.616   1.211   4.937
 2834SOL    HW2 9402   4.478   1.286   4.894
 2835SOL     OW 9403   6.007   6.397   2.939
 2835SOL    HW1 9404   6.026   6.494   2.950
 2835SOL    HW2 9405   6.069   6.343   2.996
 2836SOL     OW 9406   6.366   7.005   1.316
 2836SOL    HW1 9407   6.357   6.961   1.227
 2836SOL    HW2 9408   6.346   6.940   1.389
 2837SOL     OW 9409   5.951   2.024   3.877
 2837SOL    HW1 9410   5.881   2.083   3.836
 2837SOL    HW2 9411   6.018   1.998   3.807
 2838SOL     OW 9412   1.917   4.775   4.020
 2838SOL    HW1 9413   1.820   4.783   4.044
 2838SOL    HW2 9414   1.973   4.803   4.098
 2839SOL     OW 9415   5.264   2.959   1.277
 2839SOL    HW1 9416   5.360   2.933   1.285
 2839SOL    HW2 9417   5.208   2.877   1.264
 2840SOL     OW 9418   0.726   2.685   5.030
 2840SOL    HW1 9419   0.664   2.608   5.042
 2840SOL    HW2 9420   0.802   2.658   4.971
 2841SOL     OW 9421   0.032   5.947   0.090
 2841SOL    HW1 9422   6.971   5.917   0.037
 2841SOL    HW2 9423   0.048   5.883   0.166
 2842SOL     OW 9424   5.338   3.001   2.670
 2842SOL    HW1 9425   5.305   2.909   2.651
 2842SOL    HW2 9426   5.315   3.062   2.594
 2843SOL     OW 9427   3.749   0.448   3.555
 2843SOL    HW1 9428   3.796   0.369   3.517
 2843SOL    HW2 9429   3.655   0.451   3.522
 2844SOL     OW 9430   1.290   4.040   5.101
 2844SOL    HW1 9431   1.382   4.080   5.096
 2844SOL    HW2 9432   1.296   3.947   5.138
 2845SOL     OW 9433   0.685   4.156   6.429
 2845SOL    HW1 9434   0.639   4.238   6.464
 2845SOL    HW2 9435   0.636   4.075   6.460
 2846SOL     OW 9436   5.279   0.873   5.789
 2846SOL    HW1 9437   5.184   0.846   5.774
 2846SOL    HW2 9438   5.289   0.910   5.882
 2847SOL     OW 9439   4.002   4.876   4.421
 2847SOL    HW1 9440   3.943   4.862   4.342
 2847SOL    HW2 9441   3.951   4.860   4.505
 2848SOL     OW 9442   1.975   0.100   6.014
 2848SOL    HW1 9443   2.049   0.032   6.013
 2848SOL    HW2 9444   1.890   0.058   5.983
 2849SOL     OW 9445   2.333   2.697   1.444
 2849SOL    HW1 9446   2.297   2.669   1.355
 2849SOL    HW2 9447   2.432   2.713   1.436
 2850SOL     OW 9448   4.161   1.523   0.461
 2850SOL    HW1 9449   4.254   1.529   0.425
 2850SOL    HW2 9450   4.137   1.608   0.507
 2851SOL     OW 9451   3.460   5.894   5.046
 2851SOL    HW1 9452   3.548   5.912   5.089
 2851SOL    HW2 9453   3.388   5.942   5.095
 2852SOL     OW 9454   0.021   2.059   6.653
 2852SOL    HW1 9455   0.101   2.001   6.669
 2852SOL    HW2 9456   6.963   2.004   6.620
 2853SOL     OW 9457   3.897   2.817   1.429
 2853SOL    HW1 9458   3.880   2.889   1.496
 2853SOL    HW2 9459   3.883   2.853   1.337
 2854SOL     OW 9460   0.349   1.182   3.528
 2854SOL    HW1 9461   0.267   1.149   3.574
 2854SOL    HW2 9462   0.430   1.159   3.582
 2855SOL     OW 9463   2.989   1.606   3.718
 2855SOL    HW1 9464   2.987   1.530   3.653
 2855SOL    HW2 9465   3.036   1.577   3.802
 2856SOL     OW 9466   3.236   1.352   5.289
 2856SOL    HW1 9467   3.285   1.429   5.330
 2856SOL    HW2 9468   3.279   1.329   5.202
 2857SOL     OW 9469   3.081   3.207   5.377
 2857SOL    HW1 9470   3.151   3.178   5.442
 2857SOL    HW2 9471   2.991   3.180   5.411
 2858SOL     OW 9472   5.244   2.655   2.966
 2858SOL    HW1 9473   5.338   2.688   2.975
 2858SOL    HW2 9474   5.196   2.668   3.053
 2859SOL     OW 9475   5.948   5.378   6.908
 2859SOL    HW1 9476   6.022   5.334   6.960
 2859SOL    HW2 9477   5.904   5.310   6.849
 2860SOL     OW 9478   4.394   2.316   0.624
 2860SOL    HW1 9479   4.327   2.325   0.697
 2860SOL    HW2 9480   4.486   2.335   0.659
 2861SOL     OW 9481   4.682   4.368   5.874
 2861SOL    HW1 9482   4.676   4.281   5.922
 2861SOL    HW2 9483   4.625   4.436   5.921
 2862SOL     OW 9484   6.901   6.455   3.579
 2862SOL    HW1 9485   6.950   6.415   3.501
 2862SOL    HW2 9486   6.897   6.554   3.568
 2863SOL     OW 9487   6.182   6.446   6.963
 2863SOL    HW1 9488   6.221   6.390   0.018
 2863SOL    HW2 9489   6.093   6.481   6.993
 2864SOL     OW 9490   4.210   2.274   0.162
 2864SOL    HW1 9491   4.275   2.259   0.237
 2864SOL    HW2 9492   4.214   2.369   0.133
 2865SOL     OW 9493   4.910   4.851   5.071
 2865SOL    HW1 9494   4.952   4.903   5.145
 2865SOL    HW2 9495   4.975   4.843   4.995
 2866SOL     OW 9496   0.791   0.231   6.467
 2866SOL    HW1 9497   0.816   0.289   6.389
 2866SOL    HW2 9498   0.772   0.138   6.434
 2867SOL     OW 9499   6.350   4.111   4.813
 2867SOL    HW1 9500   6.313   4.190   4.860
 2867SOL    HW2 9501   6.303   4.028   4.845
 2868SOL     OW 9502   1.988   5.350   5.142
 2868SOL    HW1 9503   2.033   5.304   5.218
 2868SOL    HW2 9504   2.006   5.299   5.057
 2869SOL     OW 9505   5.873   1.622   2.682
 2869SOL    HW1 9506   5.902   1.627   2.587
 2869SOL    HW2 9507   5.867   1.526   2.710
 2870SOL     OW 9508   4.552   1.972   1.535
 2870SOL    HW1 9509   4.472   1.942   1.586
 2870SOL    HW2 9510   4.590   1.895   1.484
 2871SOL     OW 9511   1.276   1.379   5.768
 2871SOL    HW1 9512   1.227   1.465   5.752
 2871SOL    HW2 9513   1.336   1.361   5.691
 2872SOL     OW 9514   1.286   0.607   3.881
 2872SOL    HW1 9515   1.253   0.516   3.856
 2872SOL    HW2 9516   1.351   0.599   3.956
 2873SOL     OW 9517   6.214   4.980   2.403
 2873SOL    HW1 9518   6.132   5.021   2.363
 2873SOL    HW2 9519   6.258   5.046   2.464
 2874SOL     OW 9520   5.161   2.013   1.671
 2874SOL    HW1 9521   5.122   2.040   1.759
 2874SOL    HW2 9522   5.146   1.916   1.656
 2875SOL     OW 9523   2.775   5.222   0.415
 2875SOL    HW1 9524   2.839   5.180   0.350
 2875SOL    HW2 9525   2.682   5.196   0.390
 2876SOL     OW 9526   5.857   1.941   1.876
 2876SOL    HW1 9527   5.910   2.020   1.844
 2876SOL    HW2 9528   5.760   1.957   1.858
 2877SOL     OW 9529   1.533   3.646   5.256
 2877SOL    HW1 9530   1.616   3.702   5.250
 2877SOL    HW2 9531   1.542   3.567   5.195
 2878SOL     OW 9532   4.861   4.944   0.428
 2878SOL    HW1 9533   4.817   5.033   0.424
 2878SOL    HW2 9534   4.845   4.903   0.518
 2879SOL     OW 9535   5.140   4.797   6.842
 2879SOL    HW1 9536   5.198   4.765   6.767
 2879SOL    HW2 9537   5.105   4.718   6.893
 2880SOL     OW 9538   1.415   6.718   3.546
 2880SOL    HW1 9539   1.481   6.645   3.532
 2880SOL    HW2 9540   1.404   6.769   3.460
 2881SOL     OW 9541   6.703   0.226   0.299
 2881SOL    HW1 9542   6.707   0.317   0.258
 2881SOL    HW2 9543   6.767   0.165   0.251
 2882SOL     OW 9544   6.442   4.318   3.234
 2882SOL    HW1 9545   6.440   4.322   3.334
 2882SOL    HW2 9546   6.355   4.352   3.198
 2883SOL     OW 9547   3.511   6.722   2.513
 2883SOL    HW1 9548   3.577   6.647   2.519
 2883SOL    HW2 9549   3.430   6.692   2.461
 2884SOL     OW 9550   2.116   4.967   2.956
 2884SOL    HW1 9551   2.136   5.041   2.891
 2884SOL    HW2 9552   2.201   4.938   3.000
 2885SOL     OW 9553   0.972   2.290   4.564
 2885SOL    HW1 9554   1.056   2.262   4.515
 2885SOL    HW2 9555   0.946   2.382   4.535
 2886SOL     OW 9556   2.773   2.771   6.364
 2886SOL    HW1 9557   2.716   2.821   6.429
 2886SOL    HW2 9558   2.745   2.794   6.270
 2887SOL     OW 9559   2.855   0.408   5.331
 2887SOL    HW1 9560   2.838   0.429   5.235
 2887SOL    HW2 9561   2.862   0.494   5.383
 2888SOL     OW 9562   0.142   5.652   7.013
 2888SOL    HW1 9563   0.145   5.566   6.963
 2888SOL    HW2 9564   0.047   5.683   0.003
 2889SOL     OW 9565   1.441   0.983   0.838
 2889SOL    HW1 9566   1.415   0.966   0.933
 2889SOL    HW2 9567   1.459   0.896   0.792
 2890SOL     OW 9568   2.425   0.532   0.394
 2890SOL    HW1 9569   2.365   0.570   0.465
 2890SOL    HW2 9570   2.388   0.554   0.304
 2891SOL     OW 9571   3.078   4.669   5.300
 2891SOL    HW1 9572   3.001   4.647   5.240
 2891SOL    HW2 9573   3.068   4.619   5.386
 2892SOL     OW 9574   4.188   3.977   5.323
 2892SOL    HW1 9575   4.180   4.075   5.307
 2892SOL    HW2 9576   4.146   3.927   5.248
 2893SOL     OW 9577   2.795   0.442   5.070
 2893SOL    HW1 9578   2.836   0.388   4.996
 2893SOL    HW2 9579   2.766   0.530   5.035
 2894SOL     OW 9580   3.998   3.168   2.464
 2894SOL    HW1 9581   3.960   3.217   2.386
 2894SOL    HW2 9582   4.063   3.099   2.433
 2895SOL     OW 9583   3.907   2.755   0.067
 2895SOL    HW1 9584   3.909   2.678   0.003
 2895SOL    HW2 9585   3.818   2.800   0.062
 2896SOL     OW 9586   1.134   4.637   6.945
 2896SOL    HW1 9587   1.182   4.701   7.005
 2896SOL    HW2 9588   1.173   4.643   6.853
 2897SOL     OW 9589   0.154   6.917   3.050
 2897SOL    HW1 9590   0.122   6.936   3.143
 2897SOL    HW2 9591   0.216   6.839   3.051
 2898SOL     OW 9592   1.803   5.257   2.802
 2898SOL    HW1 9593   1.715   5.297   2.775
 2898SOL    HW2 9594   1.788   5.165   2.838
 2899SOL     OW 9595   5.908   0.894   0.895
 2899SOL    HW1 9596   5.871   0.942   0.815
 2899SOL    HW2 9597   5.877   0.939   0.979
 2900SOL     OW 9598   2.415   5.564   6.539
 2900SOL    HW1 9599   2.420   5.483   6.482
 2900SOL    HW2 9600   2.395   5.644   6.483
 2901SOL     OW 9601   2.780   6.769   1.567
 2901SOL    HW1 9602   2.820   6.684   1.534
 2901SOL    HW2 9603   2.844   6.815   1.629
 2902SOL     OW 9604   4.528   5.364   1.278
 2902SOL    HW1 9605   4.623   5.339   1.259
 2902SOL    HW2 9606   4.498   5.434   1.213
 2903SOL     OW 9607   3.091   2.490   1.695
 2903SOL    HW1 9608   3.020   2.498   1.765
 2903SOL    HW2 9609   3.152   2.414   1.718
 2904SOL     OW 9610   2.836   1.947   4.585
 2904SOL    HW1 9611   2.810   1.926   4.491
 2904SOL    HW2 9612   2.828   2.045   4.600
 2905SOL     OW 9613   1.137   2.680   2.033
 2905SOL    HW1 9614   1.210   2.611   2.043
 2905SOL    HW2 9615   1.171   2.756   1.977
 2906SOL     OW 9616   4.953   5.281   2.917
 2906SOL    HW1 9617   4.996   5.196   2.885
 2906SOL    HW2 9618   4.871   5.260   2.969
 2907SOL     OW 9619   5.874   0.304   4.905
 2907SOL    HW1 9620   5.787   0.331   4.945
 2907SOL    HW2 9621   5.858   0.234   4.835
 2908SOL     OW 9622   4.344   6.106   4.792
 2908SOL    HW1 9623   4.345   6.182   4.727
 2908SOL    HW2 9624   4.332   6.141   4.884
 2909SOL     OW 9625   2.208   5.917   6.143
 2909SOL    HW1 9626   2.200   5.832   6.091
 2909SOL    HW2 9627   2.123   5.933   6.193
 2910SOL     OW 9628   3.922   5.189   5.156
 2910SOL    HW1 9629   3.936   5.199   5.255
 2910SOL    HW2 9630   3.909   5.092   5.134
 2911SOL     OW 9631   2.580   4.830   2.901
 2911SOL    HW1 9632   2.584   4.772   2.982
 2911SOL    HW2 9633   2.673   4.845   2.867
 2912SOL     OW 9634   2.885   5.123   1.403
 2912SOL    HW1 9635   2.863   5.085   1.493
 2912SOL    HW2 9636   2.800   5.136   1.352
 2913SOL     OW 9637   0.401   2.845   1.356
 2913SOL    HW1 9638   0.421   2.812   1.264
 2913SOL    HW2 9639   0.404   2.945   1.356
 2914SOL     OW 9640   5.119   4.629   6.406
 2914SOL    HW1 9641   5.055   4.632   6.482
 2914SOL    HW2 9642   5.088   4.562   6.339
 2915SOL     OW 9643   4.828   1.034   3.148
 2915SOL    HW1 9644   4.840   1.130   3.173
 2915SOL    HW2 9645   4.916   0.987   3.154
 2916SOL     OW 9646   5.048   0.366   4.376
 2916SOL    HW1 9647   5.133   0.397   4.333
 2916SOL    HW2 9648   4.976   0.361   4.307
 2917SOL     OW 9649   4.083   0.476   2.437
 2917SOL    HW1 9650   4.027   0.542   2.486
 2917SOL    HW2 9651   4.038   0.450   2.352
 2918SOL     OW 9652   1.210   3.304   4.732
 2918SOL    HW1 9653   1.219   3.292   4.831
 2918SOL    HW2 9654   1.259   3.386   4.704
 2919SOL     OW 9655   5.660   5.386   0.437
 2919SOL    HW1 9656   5.658   5.295   0.479
 2919SOL    HW2 9657   5.624   5.381   0.344
 2920SOL     OW 9658   4.346   1.410   2.775
 2920SOL    HW1 9659   4.251   1.384   2.793
 2920SOL    HW2 9660   4.350   1.463   2.690
 2921SOL     OW 9661   6.598   1.075   0.143
 2921SOL    HW1 9662   6.690   1.090   0.106
 2921SOL    HW2 9663   6.554   1.163   0.160
 2922SOL     OW 9664   4.977   0.450   4.606
 2922SOL    HW1 9665   5.001   0.413   4.517
 2922SOL    HW2 9666   4.880   0.435   4.624
 2923SOL     OW 9667   0.067   4.517   0.238
 2923SOL    HW1 9668   0.115   4.600   0.211
 2923SOL    HW2 9669   0.115   4.437   0.200
 2924SOL     OW 9670   5.889   6.533   6.543
 2924SOL    HW1 9671   5.871   6.599   6.470
 2924SOL    HW2 9672   5.945   6.575   6.614
 2925SOL     OW 9673   6.525   4.419   0.560
 2925SOL    HW1 9674   6.614   4.456   0.584
 2925SOL    HW2 9675   6.496   4.459   0.472
 2926SOL     OW 9676   0.235   1.365   2.872
 2926SOL    HW1 9677   0.307   1.403   2.929
 2926SOL    HW2 9678   0.217   1.426   2.795
 2927SOL     OW 9679   6.521   3.115   2.740
 2927SOL    HW1 9680   6.448   3.171   2.700
 2927SOL    HW2 9681   6.560   3.163   2.819
 2928SOL     OW 9682   5.398   6.217   0.931
 2928SOL    HW1 9683   5.388   6.168   0.844
 2928SOL    HW2 9684   5.466   6.171   0.988
 2929SOL     OW 9685   0.046   0.760   5.794
 2929SOL    HW1 9686   6.973   0.723   5.780
 2929SOL    HW2 9687   0.065   0.766   5.892
 2930SOL     OW 9688   2.164   0.044   4.114
 2930SOL    HW1 9689   2.164   0.017   4.210
 2930SOL    HW2 9690   2.242   0.103   4.095
 2931SOL     OW 9691   4.649   4.435   6.354
 2931SOL    HW1 9692   4.699   4.371   6.295
 2931SOL    HW2 9693   4.576   4.479   6.302
 2932SOL     OW 9694   0.674   4.806   1.950
 2932SOL    HW1 9695   0.683   4.724   2.006
 2932SOL    HW2 9696   0.740   4.874   1.980
 2933SOL     OW 9697   4.685   2.280   3.112
 2933SOL    HW1 9698   4.606   2.335   3.140
 2933SOL    HW2 9699   4.762   2.340   3.092
 2934SOL     OW 9700   1.860   1.053   1.808
 2934SOL    HW1 9701   1.830   1.117   1.878
 2934SOL    HW2 9702   1.811   1.071   1.723
 2935SOL     OW 9703   0.228   1.238   1.241
 2935SOL    HW1 9704   0.171   1.319   1.254
 2935SOL    HW2 9705   0.188   1.161   1.291
 2936SOL     OW 9706   4.204   4.728   1.635
 2936SOL    HW1 9707   4.108   4.701   1.627
 2936SOL    HW2 9708   4.219   4.811   1.581
 2937SOL     OW 9709   2.515   4.440   0.537
 2937SOL    HW1 9710   2.434   4.392   0.571
 2937SOL    HW2 9711   2.589   4.432   0.604
 2938SOL     OW 9712   4.482   5.671   6.992
 2938SOL    HW1 9713   4.421   5.750   6.999
 2938SOL    HW2 9714   4.549   5.685   6.919
 2939SOL     OW 9715   6.844   6.402   6.352
 2939SOL    HW1 9716   6.803   6.391   6.442
 2939SOL    HW2 9717   6.775   6.386   6.282
 2940SOL     OW 9718   3.549   0.166   5.476
 2940SOL    HW1 9719   3.605   0.233   5.426
 2940SOL    HW2 9720   3.459   0.204   5.494
 2941SOL     OW 9721   3.901   1.021   5.476
 2941SOL    HW1 9722   3.875   1.101   5.530
 2941SOL    HW2 9723   3.820   0.981   5.435
 2942SOL     OW 9724   3.107   6.720   3.919
 2942SOL    HW1 9725   3.165   6.789   3.875
 2942SOL    HW2 9726   3.140   6.629   3.897
 2943SOL     OW 9727   5.505   4.405   2.941
 2943SOL    HW1 9728   5.570   4.333   2.917
 2943SOL    HW2 9729   5.506   4.418   3.040
 2944SOL     OW 9730   5.382   5.545   0.641
 2944SOL    HW1 9731   5.358   5.507   0.551
 2944SOL    HW2 9732   5.353   5.641   0.645
 2945SOL     OW 9733   3.307   3.616   4.574
 2945SOL    HW1 9734   3.301   3.549   4.647
 2945SOL    HW2 9735   3.242   3.690   4.591
 2946SOL     OW 9736   1.411   6.237   5.222
 2946SOL    HW1 9737   1.347   6.251   5.298
 2946SOL    HW2 9738   1.363   6.248   5.135
 2947SOL     OW 9739   7.006   5.229   6.882
 2947SOL    HW1 9740   0.039   5.216   6.967
 2947SOL    HW2 9741   6.928   5.288   6.900
 2948SOL     OW 9742   6.400   3.203   5.183
 2948SOL    HW1 9743   6.436   3.213   5.090
 2948SOL    HW2 9744   6.388   3.106   5.204
 2949SOL     OW 9745   0.812   6.656   1.047
 2949SOL    HW1 9746   0.802   6.704   0.960
 2949SOL    HW2 9747   0.887   6.590   1.040
 2950SOL     OW 9748   5.117   3.740   4.924
 2950SOL    HW1 9749   5.187   3.789   4.871
 2950SOL    HW2 9750   5.048   3.804   4.957
 2951SOL     OW 9751   6.645   0.445   0.007
 2951SOL    HW1 9752   6.724   0.482   0.057
 2951SOL    HW2 9753   6.562   0.460   0.059
 2952SOL     OW 9754   0.620   3.626   2.147
 2952SOL    HW1 9755   0.664   3.694   2.088
 2952SOL    HW2 9756   0.527   3.608   2.114
 2953SOL     OW 9757   5.874   1.643   1.829
 2953SOL    HW1 9758   5.786   1.651   1.875
 2953SOL    HW2 9759   5.913   1.734   1.816
 2954SOL     OW 9760   4.770   6.270   2.074
 2954SOL    HW1 9761   4.758   6.347   2.011
 2954SOL    HW2 9762   4.808   6.192   2.025
 2955SOL     OW 9763   5.777   1.638   1.524
 2955SOL    HW1 9764   5.855   1.585   1.556
 2955SOL    HW2 9765   5.720   1.663   1.602
 2956SOL     OW 9766   5.557   5.975   3.244
 2956SOL    HW1 9767   5.609   6.060   3.253
 2956SOL    HW2 9768   5.620   5.898   3.233
 2957SOL     OW 9769   1.459   4.855   1.708
 2957SOL    HW1 9770   1.487   4.835   1.614
 2957SOL    HW2 9771   1.430   4.771   1.753
 2958SOL     OW 9772   2.454   4.761   6.419
 2958SOL    HW1 9773   2.461   4.861   6.416
 2958SOL    HW2 9774   2.420   4.733   6.509
 2959SOL     OW 9775   3.493   5.643   6.899
 2959SOL    HW1 9776   3.523   5.738   6.901
 2959SOL    HW2 9777   3.503   5.603   6.990
 2960SOL     OW 9778   3.019   1.587   0.093
 2960SOL    HW1 9779   2.930   1.546   0.072
 2960SOL    HW2 9780   3.082   1.569   0.018
 2961SOL     OW 9781   5.290   1.223   4.138
 2961SOL    HW1 9782   5.203   1.212   4.088
 2961SOL    HW2 9783   5.341   1.299   4.099
 2962SOL     OW 9784   4.295   0.010   2.352
 2962SOL    HW1 9785   4.224   7.007   2.419
 2962SOL    HW2 9786   4.342   0.094   2.379
 2963SOL     OW 9787   2.210   2.937   4.835
 2963SOL    HW1 9788   2.234   3.003   4.764
 2963SOL    HW2 9789   2.250   2.965   4.922
 2964SOL     OW 9790   2.401   5.854   6.942
 2964SOL    HW1 9791   2.471   5.891   7.002
 2964SOL    HW2 9792   2.440   5.781   6.885
 2965SOL     OW 9793   0.918   2.891   6.077
 2965SOL    HW1 9794   0.858   2.960   6.035
 2965SOL    HW2 9795   0.959   2.930   6.160
 2966SOL     OW 9796   4.429   5.099   2.827
 2966SOL    HW1 9797   4.468   5.031   2.890
 2966SOL    HW2 9798   4.475   5.092   2.738
 2967SOL     OW 9799   5.714   2.847   4.322
 2967SOL    HW1 9800   5.665   2.825   4.406
 2967SOL    HW2 9801   5.747   2.763   4.279
 2968SOL     OW 9802   6.770   4.387   4.430
 2968SOL    HW1 9803   6.698   4.325   4.398
 2968SOL    HW2 9804   6.860   4.346   4.412
 2969SOL     OW 9805   3.603   1.409   5.108
 2969SOL    HW1 9806   3.534   1.417   5.036
 2969SOL    HW2 9807   3.601   1.491   5.165
 2970SOL     OW 9808   1.014   4.236   6.070
 2970SOL    HW1 9809   1.016   4.139   6.048
 2970SOL    HW2 9810   1.005   4.248   6.169
 2971SOL     OW 9811   5.847   2.736   1.881
 2971SOL    HW1 9812   5.923   2.761   1.822
 2971SOL    HW2 9813   5.761   2.748   1.831
 2972SOL     OW 9814   0.576   4.329   4.381
 2972SOL    HW1 9815   0.639   4.356   4.309
 2972SOL    HW2 9816   0.512   4.404   4.400
 2973SOL     OW 9817   5.658   0.016   4.193
 2973SOL    HW1 9818   5.652   6.943   4.153
 2973SOL    HW2 9819   5.754   0.046   4.191
 2974SOL     OW 9820   6.110   4.030   1.147
 2974SOL    HW1 9821   6.085   3.949   1.096
 2974SOL    HW2 9822   6.033   4.060   1.203
 2975SOL     OW 9823   6.081   1.614   4.124
 2975SOL    HW1 9824   6.032   1.692   4.087
 2975SOL    HW2 9825   6.179   1.623   4.102
 2976SOL     OW 9826   2.557   5.637   0.841
 2976SOL    HW1 9827   2.541   5.723   0.890
 2976SOL    HW2 9828   2.536   5.650   0.744
 2977SOL     OW 9829   2.437   7.013   3.216
 2977SOL    HW1 9830   2.432   6.951   3.139
 2977SOL    HW2 9831   2.347   0.003   3.259
 2978SOL     OW 9832   2.177   0.327   6.572
 2978SOL    HW1 9833   2.243   0.394   6.536
 2978SOL    HW2 9834   2.089   0.340   6.527
 2979SOL     OW 9835   2.635   1.443   3.241
 2979SOL    HW1 9836   2.603   1.420   3.333
 2979SOL    HW2 9837   2.694   1.368   3.207
 2980SOL     OW 9838   5.800   0.226   3.439
 2980SOL    HW1 9839   5.846   0.213   3.351
 2980SOL    HW2 9840   5.781   0.137   3.480
 2981SOL     OW 9841   1.325   0.927   5.602
 2981SOL    HW1 9842   1.347   1.024   5.590
 2981SOL    HW2 9843   1.301   0.910   5.697
 2982SOL     OW 9844   5.137   5.770   2.168
 2982SOL    HW1 9845   5.194   5.851   2.184
 2982SOL    HW2 9846   5.098   5.774   2.076
 2983SOL     OW 9847   0.717   1.329   2.745
 2983SOL    HW1 9848   0.675   1.334   2.836
 2983SOL    HW2 9849   0.674   1.255   2.693
 2984SOL     OW 9850   6.485   4.230   1.657
 2984SOL    HW1 9851   6.569   4.254   1.607
 2984SOL    HW2 9852   6.494   4.137   1.692
 2985SOL     OW 9853   6.532   2.153   2.859
 2985SOL    HW1 9854   6.435   2.136   2.875
 2985SOL    HW2 9855   6.567   2.214   2.930
 2986SOL     OW 9856   1.787   3.417   4.581
 2986SOL    HW1 9857   1.774   3.495   4.641
 2986SOL    HW2 9858   1.699   3.394   4.537
 2987SOL     OW 9859   5.101   1.835   4.612
 2987SOL    HW1 9860   5.021   1.860   4.558
 2987SOL    HW2 9861   5.074   1.824   4.708
 2988SOL     OW 9862   0.647   1.118   2.510
 2988SOL    HW1 9863   0.624   1.213   2.490
 2988SOL    HW2 9864   0.571   1.074   2.557
 2989SOL     OW 9865   0.036   5.149   0.613
 2989SOL    HW1 9866   6.960   5.116   0.613
 2989SOL    HW2 9867   0.040   5.238   0.659
 2990SOL     OW 9868   2.645   1.270   1.377
 2990SOL    HW1 9869   2.727   1.303   1.331
 2990SOL    HW2 9870   2.662   1.263   1.475
 2991SOL     OW 9871   5.981   4.479   0.159
 2991SOL    HW1 9872   6.009   4.574   0.163
 2991SOL    HW2 9873   5.971   4.451   0.063
 2992SOL     OW 9874   4.145   4.737   6.605
 2992SOL    HW1 9875   4.055   4.766   6.575
 2992SOL    HW2 9876   4.144   4.724   6.705
 2993SOL     OW 9877   1.205   4.137   0.118
 2993SOL    HW1 9878   1.214   4.080   0.036
 2993SOL    HW2 9879   1.259   4.097   0.193
 2994SOL     OW 9880   4.200   6.722   6.444
 2994SOL    HW1 9881   4.103   6.740   6.459
 2994SOL    HW2 9882   4.254   6.803   6.468
 2995SOL     OW 9883   2.739   0.616   5.493
 2995SOL    HW1 9884   2.657   0.656   5.533
 2995SOL    HW2 9885   2.794   0.574   5.564
 2996SOL     OW 9886   4.665   6.381   6.070
 2996SOL    HW1 9887   4.665   6.326   5.987
 2996SOL    HW2 9888   4.740   6.447   6.066
 2997SOL     OW 9889   3.762   5.701   0.432
 2997SOL    HW1 9890   3.668   5.698   0.399
 2997SOL    HW2 9891   3.813   5.771   0.381
 2998SOL     OW 9892   6.518   3.812   6.251
 2998SOL    HW1 9893   6.482   3.859   6.332
 2998SOL    HW2 9894   6.598   3.861   6.217
 2999SOL     OW 9895   2.604   1.650   1.699
 2999SOL    HW1 9896   2.675   1.581   1.711
 2999SOL    HW2 9897   2.645   1.735   1.666
 3000SOL     OW 9898   1.400   1.946   4.966
 3000SOL    HW1 9899   1.463   2.005   4.917
 3000SOL    HW2 9900   1.364   1.876   4.904
 3001SOL     OW 9901   4.770   5.721   6.039
 3001SOL    HW1 9902   4.717   5.696   5.958
 3001SOL    HW2 9903   4.795   5.639   6.089
 3002SOL     OW 9904   3.587   6.885   5.481
 3002SOL    HW1 9905   3.602   6.867   5.383
 3002SOL    HW2 9906   3.566   6.982   5.495
 3003SOL     OW 9907   1.475   0.276   5.574
 3003SOL    HW1 9908   1.542   0.350   5.581
 3003SOL    HW2 9909   1.393   0.311   5.528
 3004SOL     OW 9910   0.121   3.239   6.002
 3004SOL    HW1 9911   0.182   3.228   6.082
 3004SOL    HW2 9912   0.041   3.181   6.014
 3005SOL     OW 9913   4.720   1.972   0.745
 3005SOL    HW1 9914   4.656   1.956   0.671
 3005SOL    HW2 9915   4.705   2.064   0.782
 3006SOL     OW 9916   4.423   6.264   1.880
 3006SOL    HW1 9917   4.437   6.271   1.979
 3006SOL    HW2 9918   4.327   6.244   1.861
 3007SOL     OW 9919   5.683   5.429   1.654
 3007SOL    HW1 9920   5.667   5.439   1.752
 3007SOL    HW2 9921   5.644   5.343   1.622
 3008SOL     OW 9922   4.652   5.177   5.767
 3008SOL    HW1 9923   4.660   5.269   5.804
 3008SOL    HW2 9924   4.711   5.168   5.686
 3009SOL     OW 9925   1.772   0.350   2.069
 3009SOL    HW1 9926   1.728   0.373   1.982
 3009SOL    HW2 9927   1.766   0.252   2.085
 3010SOL     OW 9928   3.237   0.505   3.639
 3010SOL    HW1 9929   3.244   0.494   3.540
 3010SOL    HW2 9930   3.281   0.427   3.685
 3011SOL     OW 9931   5.147   0.381   0.393
 3011SOL    HW1 9932   5.144   0.458   0.329
 3011SOL    HW2 9933   5.077   0.314   0.368
 3012SOL     OW 9934   0.076   4.911   1.743
 3012SOL    HW1 9935   0.151   4.977   1.739
 3012SOL    HW2 9936   7.015   4.948   1.697
 3013SOL     OW 9937   5.613   4.697   1.620
 3013SOL    HW1 9938   5.675   4.770   1.593
 3013SOL    HW2 9939   5.519   4.731   1.617
 3014SOL     OW 9940   5.778   5.517   5.402
 3014SOL    HW1 9941   5.782   5.600   5.348
 3014SOL    HW2 9942   5.863   5.464   5.388
 3015SOL     OW 9943   3.188   1.227   0.318
 3015SOL    HW1 9944   3.268   1.280   0.347
 3015SOL    HW2 9945   3.140   1.276   0.245
 3016SOL     OW 9946   4.256   6.214   4.248
 3016SOL    HW1 9947   4.225   6.297   4.295
 3016SOL    HW2 9948   4.220   6.213   4.155
 3017SOL     OW 9949   0.895   6.800   2.127
 3017SOL    HW1 9950   0.845   6.737   2.067
 3017SOL    HW2 9951   0.985   6.818   2.088
 3018SOL     OW 9952   4.549   6.810   5.877
 3018SOL    HW1 9953   4.563   6.902   5.841
 3018SOL    HW2 9954   4.456   6.801   5.910
 3019SOL     OW 9955   4.856   0.876   1.646
 3019SOL    HW1 9956   4.869   0.921   1.734
 3019SOL    HW2 9957   4.758   0.857   1.633
 3020SOL     OW 9958   1.764   0.301   1.603
 3020SOL    HW1 9959   1.817   0.344   1.530
 3020SOL    HW2 9960   1.789   0.204   1.610
 3021SOL     OW 9961   4.136   0.495   6.175
 3021SOL    HW1 9962   4.059   0.436   6.200
 3021SOL    HW2 9963   4.192   0.513   6.257
 3022SOL     OW 9964   6.956   0.471   3.164
 3022SOL    HW1 9965   0.022   0.425   3.189
 3022SOL    HW2 9966   6.882   0.404   3.159
 3023SOL     OW 9967   5.725   0.315   1.844
 3023SOL    HW1 9968   5.818   0.326   1.881
 3023SOL    HW2 9969   5.718   0.227   1.799
 3024SOL     OW 9970   2.021   6.915   6.810
 3024SOL    HW1 9971   2.045   7.011   6.793
 3024SOL    HW2 9972   1.985   6.906   6.903
 3025SOL     OW 9973   2.080   2.604   2.341
 3025SOL    HW1 9974   2.127   2.647   2.264
 3025SOL    HW2 9975   2.046   2.675   2.403
 3026SOL     OW 9976   3.086   5.859   0.593
 3026SOL    HW1 9977   2.988   5.854   0.578
 3026SOL    HW2 9978   3.133   5.872   0.506
 3027SOL     OW 9979   1.459   2.143   3.974
 3027SOL    HW1 9980   1.441   2.141   3.876
 3027SOL    HW2 9981   1.455   2.237   4.007
 3028SOL     OW 9982   1.676   0.868   4.421
 3028SOL    HW1 9983   1.648   0.964   4.416
 3028SOL    HW2 9984   1.774   0.860   4.408
 3029SOL     OW 9985   6.465   4.878   5.713
 3029SOL    HW1 9986   6.417   4.895   5.627
 3029SOL    HW2 9987   6.441   4.788   5.748
 3030SOL     OW 9988   0.671   0.908   5.628
 3030SOL    HW1 9989   0.760   0.930   5.669
 3030SOL    HW2 9990   0.683   0.888   5.531
 3031SOL     OW 9991   6.900   5.334   6.034
 3031SOL    HW1 9992   6.805   5.326   6.002
 3031SOL    HW2 9993   6.962   5.307   5.960
 3032SOL     OW 9994   4.029   6.752   6.004
 3032SOL    HW1 9995   4.015   6.797   5.916
 3032SOL    HW2 9996   4.005   6.655   5.997
 3033SOL     OW 9997   5.173   4.271   6.026
 3033SOL    HW1 9998   5.180   4.187   6.080
 3033SOL    HW2 9999   5.090   4.268   5.970
 3034SOL     OW10000   2.681   6.706   5.127
 3034SOL    HW110001   2.705   6.620   5.172
 3034SOL    HW210002   2.616   6.756   5.185
 3035SOL     OW10003   5.953   6.612   7.009
 3035SOL    HW110004   5.855   6.612   6.990
 3035SOL    HW210005   5.971   6.671   0.069
 3036SOL     OW10006   0.648   5.246   5.440
 3036SOL    HW110007   0.625   5.157   5.402
 3036SOL    HW210008   0.597   5.260   5.525
 3037SOL     OW10009   5.065   6.154   6.469
 3037SOL    HW110010   5.062   6.097   6.388
 3037SOL    HW210011   5.130   6.229   6.455
 3038SOL     OW10012   5.817   5.841   5.518
 3038SOL    HW110013   5.876   5.849   5.598
 3038SOL    HW210014   5.736   5.898   5.530
 3039SOL     OW10015   0.469   4.625   0.579
 3039SOL    HW110016   0.494   4.530   0.562
 3039SOL    HW210017   0.508   4.655   0.666
 3040SOL     OW10018   2.573   1.023   0.260
 3040SOL    HW110019   2.508   1.094   0.233
 3040SOL    HW210020   2.589   1.029   0.359
 3041SOL     OW10021   1.774   2.081   6.108
 3041SOL    HW110022   1.808   2.112   6.018
 3041SOL    HW210023   1.759   1.982   6.106
 3042SOL     OW10024   5.507   0.279   1.178
 3042SOL    HW110025   5.574   0.338   1.133
 3042SOL    HW210026   5.550   0.193   1.204
 3043SOL     OW10027   0.480   5.011   6.687
 3043SOL    HW110028   0.425   5.084   6.726
 3043SOL    HW210029   0.436   4.976   6.604
 3044SOL     OW10030   2.644   3.035   6.687
 3044SOL    HW110031   2.608   2.982   6.610
 3044SOL    HW210032   2.569   3.080   6.734
 3045SOL     OW10033   4.841   2.604   4.527
 3045SOL    HW110034   4.851   2.505   4.541
 3045SOL    HW210035   4.780   2.620   4.449
 3046SOL     OW10036   2.886   2.217   5.724
 3046SOL    HW110037   2.959   2.262   5.775
 3046SOL    HW210038   2.811   2.281   5.709
 3047SOL     OW10039   6.711   5.136   2.013
 3047SOL    HW110040   6.807   5.163   2.012
 3047SOL    HW210041   6.654   5.214   1.988
 3048SOL     OW10042   3.366   2.802   2.204
 3048SOL    HW110043   3.339   2.710   2.172
 3048SOL    HW210044   3.451   2.829   2.159
 3049SOL     OW10045   1.066   0.818   0.611
 3049SOL    HW110046   1.077   0.774   0.700
 3049SOL    HW210047   1.007   0.762   0.554
 3050SOL     OW10048   1.512   0.694   4.216
 3050SOL    HW110049   1.418   0.724   4.200
 3050SOL    HW210050   1.553   0.748   4.290
 3051SOL     OW10051   2.981   4.915   5.533
 3051SOL    HW110052   2.994   4.816   5.544
 3051SOL    HW210053   3.047   4.963   5.591
 3052SOL     OW10054   4.955   6.276   2.727
 3052SOL    HW110055   5.052   6.297   2.732
 3052SOL    HW210056   4.906   6.327   2.798
 3053SOL     OW10057   3.570   6.070   1.921
 3053SOL    HW110058   3.564   6.027   2.011
 3053SOL    HW210059   3.589   6.168   1.932
 3054SOL     OW10060   1.667   4.549   5.182
 3054SOL    HW110061   1.596   4.518   5.245
 3054SOL    HW210062   1.664   4.494   5.098
 3055SOL     OW10063   6.296   6.770   2.486
 3055SOL    HW110064   6.251   6.847   2.531
 3055SOL    HW210065   6.363   6.729   2.549
 3056SOL     OW10066   4.720   0.899   2.575
 3056SOL    HW110067   4.786   0.848   2.631
 3056SOL    HW210068   4.638   0.918   2.628
 3057SOL     OW10069   6.994   4.874   2.681
 3057SOL    HW110070   6.984   4.972   2.697
 3057SOL    HW210071   0.072   4.849   2.688
 3058SOL     OW10072   6.062   6.595   1.388
 3058SOL    HW110073   6.076   6.673   1.327
 3058SOL    HW210074   6.118   6.518   1.358
 3059SOL     OW10075   2.657   2.450   6.764
 3059SOL    HW110076   2.605   2.536   6.771
 3059SOL    HW210077   2.675   2.415   6.856
 3060SOL     OW10078   0.335   6.042   6.511
 3060SOL    HW110079   0.323   6.123   6.567
 3060SOL    HW210080   0.331   6.067   6.414
 3061SOL     OW10081   6.511   0.738   5.715
 3061SOL    HW110082   6.483   0.780   5.629
 3061SOL    HW210083   6.473   0.645   5.720
 3062SOL     OW10084   3.446   5.273   6.288
 3062SOL    HW110085   3.389   5.341   6.334
 3062SOL    HW210086   3.447   5.189   6.342
 3063SOL     OW10087   3.125   6.195   1.156
 3063SOL    HW110088   3.219   6.164   1.142
 3063SOL    HW210089   3.063   6.116   1.155
 3064SOL     OW10090   6.920   4.659   3.199
 3064SOL    HW110091   6.894   4.588   3.133
 3064SOL    HW210092   6.886   4.633   3.290
 3065SOL     OW10093   3.442   1.986   1.615
 3065SOL    HW110094   3.541   1.980   1.601
 3065SOL    HW210095   3.409   1.901   1.658
 3066SOL     OW10096   5.674   4.962   0.918
 3066SOL    HW110097   5.708   4.958   0.824
 3066SOL    HW210098   5.732   5.022   0.973
 3067SOL     OW10099   4.063   6.988   2.990
 3067SOL    HW110100   4.144   6.930   3.001
 3067SOL    HW210101   4.006   6.951   2.917
 3068SOL     OW10102   6.131   4.334   6.849
 3068SOL    HW110103   6.212   4.350   6.793
 3068SOL    HW210104   6.081   4.420   6.862
 3069SOL     OW10105   1.180   4.947   3.175
 3069SOL    HW110106   1.266   4.988   3.205
 3069SOL    HW210107   1.119   5.018   3.141
 3070SOL     OW10108   4.676   1.828   3.655
 3070SOL    HW110109   4.655   1.776   3.572
 3070SOL    HW210110   4.731   1.908   3.631
 3071SOL     OW10111   5.901   0.244   3.753
 3071SOL    HW110112   5.892   0.146   3.768
 3071SOL    HW210113   5.852   0.270   3.670
 3072SOL     OW10114   6.931   0.655   1.701
 3072SOL    HW110115   6.863   0.700   1.643
 3072SOL    HW210116   6.979   0.585   1.648
 3073SOL     OW10117   1.470   1.532   5.164
 3073SOL    HW110118   1.462   1.565   5.258
 3073SOL    HW210119   1.526   1.597   5.111
 3074SOL     OW10120   4.663   3.721   5.737
 3074SOL    HW110121   4.610   3.805   5.730
 3074SOL    HW210122   4.748   3.731   5.686
 3075SOL     OW10123   0.018   4.927   1.289
 3075SOL    HW110124   0.031   4.882   1.201
 3075SOL    HW210125   6.940   4.943   1.304
 3076SOL     OW10126   0.707   0.802   5.349
 3076SOL    HW110127   0.735   0.718   5.396
 3076SOL    HW210128   0.615   0.791   5.312
 3077SOL     OW10129   4.135   4.801   3.465
 3077SOL    HW110130   4.189   4.737   3.518
 3077SOL    HW210131   4.138   4.776   3.368
 3078SOL     OW10132   2.154   3.012   0.756
 3078SOL    HW110133   2.097   2.955   0.698
 3078SOL    HW210134   2.250   2.988   0.743
 3079SOL     OW10135   5.218   3.320   5.763
 3079SOL    HW110136   5.296   3.320   5.700
 3079SOL    HW210137   5.133   3.327   5.710
 3080SOL     OW10138   6.057   0.099   2.160
 3080SOL    HW110139   6.093   0.040   2.232
 3080SOL    HW210140   6.108   0.185   2.160
 3081SOL     OW10141   0.990   4.727   6.024
 3081SOL    HW110142   1.057   4.787   6.066
 3081SOL    HW210143   0.944   4.774   5.949
 3082SOL     OW10144   3.707   6.506   2.558
 3082SOL    HW110145   3.615   6.486   2.592
 3082SOL    HW210146   3.767   6.428   2.575
 3083SOL     OW10147   3.917   6.702   2.583
 3083SOL    HW110148   3.870   6.735   2.500
 3083SOL    HW210149   3.851   6.656   2.642
 3084SOL     OW10150   4.572   6.734   3.942
 3084SOL    HW110151   4.485   6.775   3.914
 3084SOL    HW210152   4.577   6.731   4.041
 3085SOL     OW10153   1.102   4.798   2.358
 3085SOL    HW110154   1.083   4.778   2.262
 3085SOL    HW210155   1.188   4.754   2.385
 3086SOL     OW10156   6.283   1.413   4.687
 3086SOL    HW110157   6.273   1.326   4.734
 3086SOL    HW210158   6.196   1.437   4.643
 3087SOL     OW10159   5.648   3.438   1.229
 3087SOL    HW110160   5.738   3.482   1.233
 3087SOL    HW210161   5.659   3.344   1.198
 3088SOL     OW10162   2.997   3.813   6.530
 3088SOL    HW110163   3.060   3.833   6.605
 3088SOL    HW210164   2.978   3.715   6.528
 3089SOL     OW10165   3.292   2.256   1.739
 3089SOL    HW110166   3.209   2.230   1.787
 3089SOL    HW210167   3.356   2.179   1.738
 3090SOL     OW10168   6.201   1.587   1.070
 3090SOL    HW110169   6.184   1.495   1.034
 3090SOL    HW210170   6.146   1.601   1.152
 3091SOL     OW10171   2.093   6.382   6.633
 3091SOL    HW110172   2.158   6.368   6.558
 3091SOL    HW210173   2.010   6.329   6.617
 3092SOL     OW10174   4.293   4.932   0.119
 3092SOL    HW110175   4.381   4.947   0.075
 3092SOL    HW210176   4.272   4.834   0.119
 3093SOL     OW10177   4.398   6.618   2.932
 3093SOL    HW110178   4.365   6.541   2.987
 3093SOL    HW210179   4.497   6.612   2.921
 3094SOL     OW10180   3.916   5.620   4.455
 3094SOL    HW110181   3.839   5.560   4.434
 3094SOL    HW210182   3.960   5.650   4.371
 3095SOL     OW10183   1.756   5.541   4.965
 3095SOL    HW110184   1.673   5.493   4.992
 3095SOL    HW210185   1.812   5.481   4.907
 3096SOL     OW10186   0.607   2.172   5.954
 3096SOL    HW110187   0.637   2.238   5.885
 3096SOL    HW210188   0.534   2.212   6.009
 3097SOL     OW10189   1.648   0.857   6.754
 3097SOL    HW110190   1.656   0.766   6.712
 3097SOL    HW210191   1.728   0.912   6.731
 3098SOL     OW10192   3.834   2.852   0.762
 3098SOL    HW110193   3.919   2.834   0.811
 3098SOL    HW210194   3.757   2.841   0.824
 3099SOL     OW10195   1.353   6.015   5.600
 3099SOL    HW110196   1.277   6.002   5.663
 3099SOL    HW210197   1.439   6.010   5.650
 3100SOL     OW10198   6.248   0.034   6.384
 3100SOL    HW110199   6.203   0.117   6.353
 3100SOL    HW210200   6.303   0.054   6.465
 3101SOL     OW10201   3.065   0.766   1.253
 3101SOL    HW110202   2.984   0.820   1.275
 3101SOL    HW210203   3.070   0.753   1.154
 3102SOL     OW10204   1.082   6.056   0.892
 3102SOL    HW110205   1.157   6.106   0.848
 3102SOL    HW210206   1.073   5.966   0.849
 3103SOL     OW10207   4.216   4.319   1.695
 3103SOL    HW110208   4.276   4.271   1.759
 3103SOL    HW210209   4.164   4.253   1.641
 3104SOL     OW10210   5.876   5.913   3.492
 3104SOL    HW110211   5.793   5.860   3.508
 3104SOL    HW210212   5.948   5.882   3.554
 3105SOL     OW10213   5.467   6.019   4.083
 3105SOL    HW110214   5.461   6.073   3.999
 3105SOL    HW210215   5.563   6.006   4.107
 3106SOL     OW10216   6.762   3.399   4.570
 3106SOL    HW110217   6.818   3.438   4.643
 3106SOL    HW210218   6.817   3.392   4.486
 3107SOL     OW10219   2.515   6.927   4.170
 3107SOL    HW110220   2.562   7.010   4.199
 3107SOL    HW210221   2.427   6.920   4.217
 3108SOL     OW10222   1.880   6.882   2.889
 3108SOL    HW110223   1.965   6.917   2.928
 3108SOL    HW210224   1.882   6.782   2.890
 3109SOL     OW10225   4.261   5.586   3.643
 3109SOL    HW110226   4.165   5.566   3.661
 3109SOL    HW210227   4.317   5.548   3.717
 3110SOL     OW10228   0.475   2.660   1.775
 3110SOL    HW110229   0.509   2.699   1.689
 3110SOL    HW210230   0.479   2.729   1.847
 3111SOL     OW10231   0.338   4.959   2.240
 3111SOL    HW110232   0.339   5.016   2.322
 3111SOL    HW210233   0.279   4.880   2.255
 3112SOL     OW10234   3.328   3.360   6.182
 3112SOL    HW110235   3.335   3.386   6.086
 3112SOL    HW210236   3.396   3.289   6.202
 3113SOL     OW10237   4.118   0.191   3.985
 3113SOL    HW110238   4.084   0.192   4.079
 3113SOL    HW210239   4.161   0.102   3.967
 3114SOL     OW10240   5.345   5.397   0.867
 3114SOL    HW110241   5.357   5.310   0.819
 3114SOL    HW210242   5.356   5.473   0.802
 3115SOL     OW10243   3.333   3.266   2.756
 3115SOL    HW110244   3.292   3.332   2.692
 3115SOL    HW210245   3.332   3.303   2.848
 3116SOL     OW10246   0.383   1.505   6.767
 3116SOL    HW110247   0.471   1.482   6.809
 3116SOL    HW210248   0.399   1.539   6.675
 3117SOL     OW10249   3.152   4.311   6.418
 3117SOL    HW110250   3.238   4.358   6.436
 3117SOL    HW210251   3.113   4.279   6.505
 3118SOL     OW10252   6.105   5.221   0.036
 3118SOL    HW110253   6.054   5.138   0.059
 3118SOL    HW210254   6.142   5.262   0.119
 3119SOL     OW10255   2.081   4.064   6.745
 3119SOL    HW110256   2.113   3.997   6.678
 3119SOL    HW210257   1.983   4.076   6.736
 3120SOL     OW10258   2.613   5.289   6.720
 3120SOL    HW110259   2.662   5.221   6.774
 3120SOL    HW210260   2.669   5.318   6.642
 3121SOL     OW10261   6.653   5.956   3.769
 3121SOL    HW110262   6.687   5.876   3.817
 3121SOL    HW210263   6.699   5.965   3.681
 3122SOL     OW10264   3.542   5.923   1.510
 3122SOL    HW110265   3.508   5.875   1.591
 3122SOL    HW210266   3.472   5.923   1.439
 3123SOL     OW10267   3.041   7.002   3.668
 3123SOL    HW110268   2.974   6.929   3.678
 3123SOL    HW210269   3.002   0.058   3.614
 3124SOL     OW10270   3.920   6.778   5.551
 3124SOL    HW110271   3.942   6.681   5.550
 3124SOL    HW210272   3.828   6.792   5.513
 3125SOL     OW10273   6.896   1.955   5.975
 3125SOL    HW110274   6.854   2.021   5.913
 3125SOL    HW210275   6.988   1.932   5.942
 3126SOL     OW10276   3.803   5.946   6.527
 3126SOL    HW110277   3.877   6.012   6.520
 3126SOL    HW210278   3.840   5.853   6.525
 3127SOL     OW10279   0.913   1.108   4.354
 3127SOL    HW110280   0.978   1.174   4.391
 3127SOL    HW210281   0.958   1.054   4.283
 3128SOL     OW10282   1.839   0.851   1.125
 3128SOL    HW110283   1.771   0.868   1.055
 3128SOL    HW210284   1.925   0.823   1.083
 3129SOL     OW10285   1.468   3.583   2.649
 3129SOL    HW110286   1.419   3.629   2.575
 3129SOL    HW210287   1.518   3.650   2.704
 3130SOL     OW10288   2.439   5.464   2.750
 3130SOL    HW110289   2.505   5.448   2.677
 3130SOL    HW210290   2.393   5.552   2.735
 3131SOL     OW10291   0.542   3.380   3.644
 3131SOL    HW110292   0.470   3.318   3.615
 3131SOL    HW210293   0.573   3.355   3.736
 3132SOL     OW10294   4.580   3.487   5.639
 3132SOL    HW110295   4.598   3.569   5.694
 3132SOL    HW210296   4.662   3.429   5.639
 3133SOL     OW10297   2.234   1.508   4.021
 3133SOL    HW110298   2.260   1.429   3.965
 3133SOL    HW210299   2.142   1.537   3.997
 3134SOL     OW10300   5.577   2.021   1.896
 3134SOL    HW110301   5.561   2.115   1.926
 3134SOL    HW210302   5.490   1.977   1.875
 3135SOL     OW10303   1.140   2.667   3.168
 3135SOL    HW110304   1.146   2.741   3.102
 3135SOL    HW210305   1.066   2.605   3.142
 3136SOL     OW10306   6.581   0.778   4.617
 3136SOL    HW110307   6.569   0.703   4.552
 3136SOL    HW210308   6.646   0.845   4.580
 3137SOL     OW10309   0.622   1.646   4.305
 3137SOL    HW110310   0.560   1.718   4.274
 3137SOL    HW210311   0.593   1.611   4.394
 3138SOL     OW10312   6.294   2.247   4.228
 3138SOL    HW110313   6.365   2.284   4.287
 3138SOL    HW210314   6.322   2.256   4.132
 3139SOL     OW10315   5.358   5.815   5.306
 3139SOL    HW110316   5.295   5.810   5.229
 3139SOL    HW210317   5.387   5.910   5.320
 3140SOL     OW10318   6.250   6.072   5.491
 3140SOL    HW110319   6.291   6.128   5.563
 3140SOL    HW210320   6.194   6.130   5.431
 3141SOL     OW10321   1.060   0.443   1.797
 3141SOL    HW110322   1.008   0.369   1.839
 3141SOL    HW210323   1.005   0.488   1.727
 3142SOL     OW10324   3.571   0.137   0.964
 3142SOL    HW110325   3.651   0.079   0.950
 3142SOL    HW210326   3.488   0.082   0.956
 3143SOL     OW10327   0.103   1.480   0.625
 3143SOL    HW110328   0.196   1.508   0.600
 3143SOL    HW210329   0.092   1.489   0.724
 3144SOL     OW10330   2.938   2.940   0.221
 3144SOL    HW110331   2.914   2.844   0.208
 3144SOL    HW210332   3.038   2.950   0.222
 3145SOL     OW10333   1.803   5.271   2.422
 3145SOL    HW110334   1.863   5.345   2.389
 3145SOL    HW210335   1.725   5.311   2.469
 3146SOL     OW10336   2.124   7.004   4.394
 3146SOL    HW110337   2.209   6.961   4.426
 3146SOL    HW210338   2.048   6.941   4.409
 3147SOL     OW10339   4.272   4.184   1.055
 3147SOL    HW110340   4.186   4.137   1.039
 3147SOL    HW210341   4.334   4.125   1.105
 3148SOL     OW10342   2.748   5.805   4.473
 3148SOL    HW110343   2.676   5.744   4.438
 3148SOL    HW210344   2.809   5.753   4.533
 3149SOL     OW10345   1.990   6.503   5.964
 3149SOL    HW110346   1.922   6.559   6.012
 3149SOL    HW210347   1.949   6.414   5.942
 3150SOL     OW10348   6.363   0.503   4.665
 3150SOL    HW110349   6.338   0.599   4.678
 3150SOL    HW210350   6.441   0.498   4.601
 3151SOL     OW10351   3.830   6.580   1.572
 3151SOL    HW110352   3.874   6.657   1.618
 3151SOL    HW210353   3.882   6.496   1.590
 3152SOL     OW10354   1.586   5.004   6.610
 3152SOL    HW110355   1.674   5.026   6.653
 3152SOL    HW210356   1.587   5.032   6.515
 3153SOL     OW10357   0.112   3.997   3.244
 3153SOL    HW110358   0.059   4.051   3.309
 3153SOL    HW210359   0.082   4.019   3.151
 3154SOL     OW10360   5.958   2.695   6.437
 3154SOL    HW110361   5.945   2.785   6.479
 3154SOL    HW210362   6.020   2.640   6.493
 3155SOL     OW10363   4.534   5.790   0.316
 3155SOL    HW110364   4.605   5.719   0.319
 3155SOL    HW210365   4.568   5.872   0.361
 3156SOL     OW10366   3.398   3.784   3.812
 3156SOL    HW110367   3.440   3.705   3.856
 3156SOL    HW210368   3.345   3.753   3.732
 3157SOL     OW10369   2.018   2.067   4.964
 3157SOL    HW110370   2.040   2.151   5.013
 3157SOL    HW210371   2.098   2.037   4.912
 3158SOL     OW10372   4.622   6.827   1.978
 3158SOL    HW110373   4.568   6.817   2.061
 3158SOL    HW210374   4.591   6.760   1.910
 3159SOL     OW10375   5.624   4.467   0.677
 3159SOL    HW110376   5.669   4.442   0.763
 3159SOL    HW210377   5.562   4.394   0.649
 3160SOL     OW10378   6.098   4.526   0.444
 3160SOL    HW110379   6.046   4.549   0.362
 3160SOL    HW210380   6.042   4.468   0.504
 3161SOL     OW10381   0.664   1.773   3.762
 3161SOL    HW110382   0.566   1.765   3.743
 3161SOL    HW210383   0.677   1.821   3.848
 3162SOL     OW10384   0.365   0.735   6.272
 3162SOL    HW110385   0.346   0.760   6.177
 3162SOL    HW210386   0.288   0.763   6.330
 3163SOL     OW10387   1.809   4.347   5.418
 3163SOL    HW110388   1.722   4.389   5.392
 3163SOL    HW210389   1.884   4.409   5.393
 3164SOL     OW10390   6.405   5.166   5.872
 3164SOL    HW110391   6.369   5.259   5.857
 3164SOL    HW210392   6.480   5.149   5.809
 3165SOL     OW10393   6.868   2.559   1.623
 3165SOL    HW110394   6.922   2.603   1.551
 3165SOL    HW210395   6.925   2.550   1.705
 3166SOL     OW10396   3.691   3.224   6.509
 3166SOL    HW110397   3.681   3.318   6.478
 3166SOL    HW210398   3.601   3.180   6.514
 3167SOL     OW10399   0.191   4.742   2.222
 3167SOL    HW110400   0.116   4.684   2.254
 3167SOL    HW210401   0.179   4.761   2.124
 3168SOL     OW10402   6.718   3.389   0.416
 3168SOL    HW110403   6.720   3.290   0.406
 3168SOL    HW210404   6.624   3.419   0.436
 3169SOL     OW10405   3.092   2.338   5.844
 3169SOL    HW110406   3.124   2.395   5.768
 3169SOL    HW210407   3.049   2.396   5.913
 3170SOL     OW10408   3.210   0.353   4.597
 3170SOL    HW110409   3.251   0.444   4.604
 3170SOL    HW210410   3.150   0.349   4.518
 3171SOL     OW10411   6.168   5.683   2.814
 3171SOL    HW110412   6.129   5.594   2.836
 3171SOL    HW210413   6.120   5.755   2.865
 3172SOL     OW10414   5.271   6.687   5.084
 3172SOL    HW110415   5.338   6.727   5.022
 3172SOL    HW210416   5.302   6.596   5.112
 3173SOL     OW10417   1.429   0.836   1.668
 3173SOL    HW110418   1.483   0.841   1.583
 3173SOL    HW210419   1.486   0.866   1.744
 3174SOL     OW10420   2.631   3.079   0.085
 3174SOL    HW110421   2.545   3.080   0.135
 3174SOL    HW210422   2.707   3.089   0.149
 3175SOL     OW10423   7.016   5.831   0.331
 3175SOL    HW110424   6.996   5.921   0.370
 3175SOL    HW210425   6.940   5.769   0.350
 3176SOL     OW10426   0.733   5.286   6.913
 3176SOL    HW110427   0.746   5.385   6.900
 3176SOL    HW210428   0.814   5.238   6.879
 3177SOL     OW10429   0.698   0.081   3.398
 3177SOL    HW110430   0.600   0.097   3.383
 3177SOL    HW210431   0.745   0.080   3.310
 3178SOL     OW10432   3.958   3.532   0.185
 3178SOL    HW110433   3.925   3.515   0.092
 3178SOL    HW210434   3.916   3.467   0.248
 3179SOL     OW10435   1.415   2.893   4.729
 3179SOL    HW110436   1.373   2.836   4.800
 3179SOL    HW210437   1.395   2.990   4.748
 3180SOL     OW10438   6.672   1.421   6.915
 3180SOL    HW110439   6.584   1.373   6.905
 3180SOL    HW210440   6.747   1.357   6.896
 3181SOL     OW10441   0.228   1.392   2.175
 3181SOL    HW110442   0.251   1.334   2.254
 3181SOL    HW210443   0.199   1.335   2.099
 3182SOL     OW10444   1.521   6.202   5.962
 3182SOL    HW110445   1.510   6.290   5.916
 3182SOL    HW210446   1.582   6.144   5.909
 3183SOL     OW10447   4.654   3.706   1.141
 3183SOL    HW110448   4.742   3.754   1.130
 3183SOL    HW210449   4.593   3.762   1.196
 3184SOL     OW10450   0.042   1.989   2.913
 3184SOL    HW110451   0.001   1.906   2.949
 3184SOL    HW210452   6.998   2.033   2.849
 3185SOL     OW10453   0.380   6.308   0.045
 3185SOL    HW110454   0.386   6.296   6.965
 3185SOL    HW210455   0.313   6.244   0.082
 3186SOL     OW10456   3.494   0.559   1.717
 3186SOL    HW110457   3.507   0.646   1.670
 3186SOL    HW210458   3.549   0.557   1.800
 3187SOL     OW10459   3.807   4.480   0.750
 3187SOL    HW110460   3.727   4.424   0.729
 3187SOL    HW210461   3.851   4.446   0.833
 3188SOL     OW10462   3.577   0.104   3.770
 3188SOL    HW110463   3.672   0.098   3.738
 3188SOL    HW210464   3.574   0.092   3.869
 3189SOL     OW10465   6.023   6.210   2.024
 3189SOL    HW110466   5.989   6.211   2.118
 3189SOL    HW210467   5.980   6.285   1.973
 3190SOL     OW10468   1.201   0.433   2.193
 3190SOL    HW110469   1.274   0.438   2.261
 3190SOL    HW210470   1.240   0.443   2.101
 3191SOL     OW10471   3.317   1.449   0.827
 3191SOL    HW110472   3.379   1.383   0.786
 3191SOL    HW210473   3.369   1.527   0.861
 3192SOL     OW10474   5.616   3.393   4.772
 3192SOL    HW110475   5.689   3.406   4.705
 3192SOL    HW210476   5.555   3.472   4.771
 3193SOL     OW10477   5.353   4.448   1.669
 3193SOL    HW110478   5.401   4.361   1.685
 3193SOL    HW210479   5.359   4.471   1.572
 3194SOL     OW10480   3.234   5.374   4.732
 3194SOL    HW110481   3.139   5.346   4.742
 3194SOL    HW210482   3.247   5.464   4.773
 3195SOL     OW10483   6.406   4.073   4.273
 3195SOL    HW110484   6.335   4.106   4.211
 3195SOL    HW210485   6.375   4.083   4.367
 3196SOL     OW10486   6.857   5.980   6.300
 3196SOL    HW110487   6.910   5.958   6.382
 3196SOL    HW210488   6.795   6.056   6.319
 3197SOL     OW10489   0.624   4.592   5.615
 3197SOL    HW110490   0.530   4.562   5.599
 3197SOL    HW210491   0.625   4.668   5.679
 3198SOL     OW10492   5.952   0.493   1.186
 3198SOL    HW110493   5.946   0.412   1.245
 3198SOL    HW210494   6.001   0.565   1.234
 3199SOL     OW10495   2.748   1.937   3.260
 3199SOL    HW110496   2.805   1.986   3.195
 3199SOL    HW210497   2.715   1.852   3.220
 3200SOL     OW10498   6.525   1.671   0.220
 3200SOL    HW110499   6.459   1.599   0.242
 3200SOL    HW210500   6.476   1.757   0.205
 3201SOL     OW10501   3.704   5.183   3.078
 3201SOL    HW110502   3.763   5.171   2.998
 3201SOL    HW210503   3.611   5.207   3.048
 3202SOL     OW10504   1.320   4.976   2.141
 3202SOL    HW110505   1.341   5.021   2.054
 3202SOL    HW210506   1.385   5.006   2.211
 3203SOL     OW10507   4.988   0.075   1.055
 3203SOL    HW110508   4.971   0.159   1.002
 3203SOL    HW210509   4.911   0.060   1.117
 3204SOL     OW10510   6.256   6.515   2.159
 3204SOL    HW110511   6.281   6.420   2.141
 3204SOL    HW210512   6.158   6.522   2.175
 3205SOL     OW10513   1.390   4.273   4.393
 3205SOL    HW110514   1.345   4.261   4.482
 3205SOL    HW210515   1.321   4.270   4.321
 3206SOL     OW10516   2.110   6.300   0.213
 3206SOL    HW110517   2.092   6.266   0.306
 3206SOL    HW210518   2.116   6.399   0.215
 3207SOL     OW10519   1.437   0.898   3.139
 3207SOL    HW110520   1.356   0.840   3.150
 3207SOL    HW210521   1.408   0.994   3.133
 3208SOL     OW10522   5.987   6.451   6.204
 3208SOL    HW110523   5.986   6.351   6.200
 3208SOL    HW210524   5.995   6.488   6.112
 3209SOL     OW10525   1.025   6.574   3.167
 3209SOL    HW110526   1.100   6.550   3.228
 3209SOL    HW210527   1.019   6.674   3.159
 3210SOL     OW10528   0.373   6.159   2.193
 3210SOL    HW110529   0.320   6.121   2.117
 3210SOL    HW210530   0.426   6.237   2.161
 3211SOL     OW10531   0.064   4.628   3.912
 3211SOL    HW110532   0.138   4.633   3.844
 3211SOL    HW210533   0.102   4.631   4.004
 3212SOL     OW10534   4.531   2.533   4.856
 3212SOL    HW110535   4.456   2.482   4.814
 3212SOL    HW210536   4.600   2.470   4.890
 3213SOL     OW10537   5.194   0.016   2.006
 3213SOL    HW110538   5.159   0.109   2.018
 3213SOL    HW210539   5.119   6.973   1.986
 3214SOL     OW10540   4.678   3.677   0.236
 3214SOL    HW110541   4.674   3.774   0.212
 3214SOL    HW210542   4.749   3.662   0.305
 3215SOL     OW10543   6.768   1.587   0.102
 3215SOL    HW110544   6.678   1.592   0.145
 3215SOL    HW210545   6.760   1.544   0.013
 3216SOL     OW10546   5.167   6.905   5.805
 3216SOL    HW110547   5.080   6.915   5.757
 3216SOL    HW210548   5.164   6.823   5.863
 3217SOL     OW10549   0.530   4.670   6.500
 3217SOL    HW110550   0.520   4.673   6.600
 3217SOL    HW210551   0.467   4.735   6.458
 3218SOL     OW10552   4.205   2.793   1.434
 3218SOL    HW110553   4.153   2.713   1.406
 3218SOL    HW210554   4.296   2.765   1.465
 3219SOL     OW10555   0.686   2.341   3.050
 3219SOL    HW110556   0.738   2.418   3.085
 3219SOL    HW210557   0.699   2.333   2.952
 3220SOL     OW10558   6.869   2.559   6.581
 3220SOL    HW110559   6.960   2.523   6.562
 3220SOL    HW210560   6.834   2.606   6.499
 3221SOL     OW10561   4.201   0.201   1.537
 3221SOL    HW110562   4.160   0.287   1.566
 3221SOL    HW210563   4.130   0.139   1.506
 3222SOL     OW10564   6.093   3.725   1.946
 3222SOL    HW110565   6.119   3.630   1.935
 3222SOL    HW210566   6.024   3.749   1.877
 3223SOL     OW10567   0.954   4.257   5.496
 3223SOL    HW110568   1.017   4.325   5.458
 3223SOL    HW210569   0.906   4.295   5.575
 3224SOL     OW10570   2.771   6.429   1.214
 3224SOL    HW110571   2.672   6.448   1.210
 3224SOL    HW210572   2.790   6.373   1.295
 3225SOL     OW10573   1.423   1.739   0.566
 3225SOL    HW110574   1.337   1.789   0.561
 3225SOL    HW210575   1.440   1.694   0.478
 3226SOL     OW10576   6.605   1.240   3.947
 3226SOL    HW110577   6.527   1.202   3.898
 3226SOL    HW210578   6.638   1.322   3.900
 3227SOL     OW10579   2.492   1.833   4.937
 3227SOL    HW110580   2.531   1.841   4.845
 3227SOL    HW210581   2.467   1.738   4.955
 3228SOL     OW10582   4.886   3.096   4.927
 3228SOL    HW110583   4.851   3.188   4.945
 3228SOL    HW210584   4.858   3.066   4.836
 3229SOL     OW10585   4.670   1.403   4.489
 3229SOL    HW110586   4.578   1.368   4.470
 3229SOL    HW210587   4.698   1.373   4.580
 3230SOL     OW10588   1.283   6.947   3.971
 3230SOL    HW110589   1.258   6.919   3.878
 3230SOL    HW210590   1.328   0.018   3.968
 3231SOL     OW10591   4.370   4.675   0.107
 3231SOL    HW110592   4.438   4.683   0.180
 3231SOL    HW210593   4.326   4.585   0.113
 3232SOL     OW10594   0.870   4.057   3.852
 3232SOL    HW110595   0.885   3.983   3.917
 3232SOL    HW210596   0.843   4.019   3.764
 3233SOL     OW10597   1.992   4.447   0.323
 3233SOL    HW110598   2.081   4.402   0.314
 3233SOL    HW210599   1.987   4.491   0.413
 3234SOL     OW10600   6.919   1.384   3.851
 3234SOL    HW110601   6.909   1.397   3.949
 3234SOL    HW210602   7.007   1.424   3.821
 3235SOL     OW10603   6.281   0.987   2.214
 3235SOL    HW110604   6.209   1.056   2.225
 3235SOL    HW210605   6.364   1.018   2.261
 3236SOL     OW10606   0.072   1.663   1.497
 3236SOL    HW110607   0.081   1.640   1.400
 3236SOL    HW210608   0.022   1.590   1.544
 3237SOL     OW10609   3.001   5.602   4.881
 3237SOL    HW110610   2.963   5.552   4.960
 3237SOL    HW210611   3.099   5.615   4.894
 3238SOL     OW10612   0.016   6.224   6.410
 3238SOL    HW110613   6.969   6.299   6.410
 3238SOL    HW210614   6.999   6.148   6.465
 3239SOL     OW10615   2.159   6.361   6.138
 3239SOL    HW110616   2.067   6.339   6.171
 3239SOL    HW210617   2.156   6.448   6.088
 3240SOL     OW10618   1.136   2.468   4.775
 3240SOL    HW110619   1.201   2.391   4.774
 3240SOL    HW210620   1.162   2.534   4.705
 3241SOL     OW10621   4.377   6.104   5.317
 3241SOL    HW110622   4.347   6.057   5.234
 3241SOL    HW210623   4.453   6.165   5.295
 3242SOL     OW10624   2.897   1.183   1.220
 3242SOL    HW110625   2.818   1.165   1.162
 3242SOL    HW210626   2.971   1.221   1.165
 3243SOL     OW10627   3.575   5.762   2.335
 3243SOL    HW110628   3.639   5.685   2.337
 3243SOL    HW210629   3.487   5.732   2.297
 3244SOL     OW10630   1.460   0.260   5.166
 3244SOL    HW110631   1.382   0.288   5.111
 3244SOL    HW210632   1.533   0.227   5.106
 3245SOL     OW10633   3.477   2.397   5.852
 3245SOL    HW110634   3.421   2.388   5.769
 3245SOL    HW210635   3.572   2.416   5.826
 3246SOL     OW10636   5.927   6.710   1.944
 3246SOL    HW110637   6.012   6.762   1.936
 3246SOL    HW210638   5.861   6.743   1.877
 3247SOL     OW10639   6.155   2.719   4.816
 3247SOL    HW110640   6.159   2.661   4.898
 3247SOL    HW210641   6.060   2.748   4.801
 3248SOL     OW10642   5.212   4.219   3.264
 3248SOL    HW110643   5.155   4.300   3.249
 3248SOL    HW210644   5.154   4.143   3.293
 3249SOL     OW10645   3.741   4.965   5.690
 3249SOL    HW110646   3.694   4.883   5.655
 3249SOL    HW210647   3.834   4.968   5.654
 3250SOL     OW10648   4.829   4.853   0.669
 3250SOL    HW110649   4.733   4.831   0.686
 3250SOL    HW210650   4.885   4.816   0.743
 3251SOL     OW10651   2.583   1.750   3.612
 3251SOL    HW110652   2.642   1.698   3.550
 3251SOL    HW210653   2.535   1.687   3.673
 3252SOL     OW10654   3.160   2.112   2.847
 3252SOL    HW110655   3.255   2.130   2.822
 3252SOL    HW210656   3.100   2.174   2.796
 3253SOL     OW10657   5.137   4.474   1.989
 3253SOL    HW110658   5.151   4.572   2.001
 3253SOL    HW210659   5.098   4.435   2.073
 3254SOL     OW10660   5.715   3.682   3.060
 3254SOL    HW110661   5.746   3.769   3.098
 3254SOL    HW210662   5.763   3.607   3.107
 3255SOL     OW10663   2.840   4.806   0.417
 3255SOL    HW110664   2.818   4.709   0.432
 3255SOL    HW210665   2.772   4.846   0.356
 3256SOL     OW10666   6.582   6.961   5.554
 3256SOL    HW110667   6.594   6.863   5.566
 3256SOL    HW210668   6.489   6.987   5.582
 3257SOL     OW10669   2.722   0.902   1.837
 3257SOL    HW110670   2.808   0.925   1.882
 3257SOL    HW210671   2.708   0.804   1.840
 3258SOL     OW10672   4.571   6.915   2.592
 3258SOL    HW110673   4.498   6.960   2.643
 3258SOL    HW210674   4.548   6.912   2.495
 3259SOL     OW10675   5.714   5.448   3.021
 3259SOL    HW110676   5.681   5.373   3.078
 3259SOL    HW210677   5.647   5.522   3.021
 3260SOL     OW10678   2.057   1.845   1.327
 3260SOL    HW110679   1.983   1.899   1.367
 3260SOL    HW210680   2.144   1.890   1.343
 3261SOL     OW10681   4.770   6.679   4.252
 3261SOL    HW110682   4.753   6.630   4.337
 3261SOL    HW210683   4.743   6.774   4.262
 3262SOL     OW10684   4.903   2.238   3.410
 3262SOL    HW110685   4.857   2.325   3.389
 3262SOL    HW210686   4.863   2.165   3.356
 3263SOL     OW10687   2.978   5.049   2.810
 3263SOL    HW110688   2.940   4.962   2.840
 3263SOL    HW210689   3.025   5.036   2.722
 3264SOL     OW10690   4.962   3.873   6.601
 3264SOL    HW110691   4.882   3.912   6.556
 3264SOL    HW210692   4.933   3.812   6.674
 3265SOL     OW10693   5.452   0.077   6.108
 3265SOL    HW110694   5.430   7.017   6.166
 3265SOL    HW210695   5.459   0.047   6.013
 3266SOL     OW10696   0.990   2.375   6.018
 3266SOL    HW110697   1.087   2.370   5.995
 3266SOL    HW210698   0.978   2.429   6.101
 3267SOL     OW10699   5.597   4.167   0.866
 3267SOL    HW110700   5.577   4.119   0.780
 3267SOL    HW210701   5.521   4.153   0.930
 3268SOL     OW10702   2.247   5.564   0.659
 3268SOL    HW110703   2.261   5.635   0.728
 3268SOL    HW210704   2.157   5.576   0.616
 3269SOL     OW10705   4.094   3.336   1.224
 3269SOL    HW110706   4.190   3.363   1.230
 3269SOL    HW210707   4.053   3.334   1.316
 3270SOL     OW10708   6.610   5.490   3.164
 3270SOL    HW110709   6.531   5.528   3.212
 3270SOL    HW210710   6.612   5.391   3.178
 3271SOL     OW10711   4.797   0.143   0.656
 3271SOL    HW110712   4.766   0.177   0.745
 3271SOL    HW210713   4.746   0.189   0.584
 3272SOL     OW10714   4.164   5.661   6.068
 3272SOL    HW110715   4.187   5.569   6.099
 3272SOL    HW210716   4.100   5.656   5.991
 3273SOL     OW10717   6.910   0.028   3.054
 3273SOL    HW110718   6.869   0.043   2.965
 3273SOL    HW210719   7.008   0.007   3.043
 3274SOL     OW10720   3.219   0.505   1.661
 3274SOL    HW110721   3.317   0.502   1.681
 3274SOL    HW210722   3.179   0.415   1.679
 3275SOL     OW10723   4.656   0.634   5.653
 3275SOL    HW110724   4.714   0.568   5.700
 3275SOL    HW210725   4.573   0.651   5.706
 3276SOL     OW10726   2.075   5.131   1.155
 3276SOL    HW110727   2.002   5.200   1.157
 3276SOL    HW210728   2.113   5.120   1.247
 3277SOL     OW10729   0.455   5.848   6.317
 3277SOL    HW110730   0.406   5.873   6.400
 3277SOL    HW210731   0.535   5.794   6.341
 3278SOL     OW10732   1.468   6.766   0.088
 3278SOL    HW110733   1.514   6.852   0.113
 3278SOL    HW210734   1.536   6.694   0.076
 3279SOL     OW10735   1.979   6.610   1.811
 3279SOL    HW110736   1.898   6.553   1.801
 3279SOL    HW210737   1.995   6.661   1.726
 3280SOL     OW10738   2.785   5.889   3.389
 3280SOL    HW110739   2.688   5.908   3.375
 3280SOL    HW210740   2.797   5.832   3.470
 3281SOL     OW10741   1.622   6.903   1.059
 3281SOL    HW110742   1.709   6.951   1.070
 3281SOL    HW210743   1.625   6.817   1.111
 3282SOL     OW10744   1.587   4.597   1.933
 3282SOL    HW110745   1.498   4.564   1.899
 3282SOL    HW210746   1.647   4.519   1.951
 3283SOL     OW10747   1.228   0.582   3.086
 3283SOL    HW110748   1.243   0.497   3.036
 3283SOL    HW210749   1.212   0.657   3.022
 3284SOL     OW10750   2.437   6.189   5.632
 3284SOL    HW110751   2.337   6.185   5.635
 3284SOL    HW210752   2.473   6.174   5.724
 3285SOL     OW10753   0.413   3.640   4.309
 3285SOL    HW110754   0.437   3.626   4.405
 3285SOL    HW210755   0.496   3.661   4.257
 3286SOL     OW10756   5.076   4.834   0.104
 3286SOL    HW110757   5.017   4.758   0.131
 3286SOL    HW210758   5.063   4.854   0.007
 3287SOL     OW10759   0.735   2.149   1.193
 3287SOL    HW110760   0.659   2.123   1.253
 3287SOL    HW210761   0.722   2.107   1.103
 3288SOL     OW10762   0.733   6.878   0.479
 3288SOL    HW110763   0.697   6.965   0.512
 3288SOL    HW210764   0.658   6.824   0.440
 3289SOL     OW10765   1.703   0.782   3.959
 3289SOL    HW110766   1.622   0.750   4.009
 3289SOL    HW210767   1.785   0.752   4.007
 3290SOL     OW10768   6.872   4.782   4.614
 3290SOL    HW110769   6.849   4.697   4.662
 3290SOL    HW210770   6.788   4.824   4.580
 3291SOL     OW10771   1.358   1.645   1.585
 3291SOL    HW110772   1.435   1.639   1.648
 3291SOL    HW210773   1.319   1.554   1.570
 3292SOL     OW10774   1.175   6.820   3.755
 3292SOL    HW110775   1.218   6.841   3.667
 3292SOL    HW210776   1.077   6.835   3.749
 3293SOL     OW10777   5.787   0.744   3.037
 3293SOL    HW110778   5.766   0.735   2.940
 3293SOL    HW210779   5.797   0.840   3.061
 3294SOL     OW10780   6.821   6.486   1.523
 3294SOL    HW110781   6.816   6.389   1.547
 3294SOL    HW210782   6.769   6.502   1.438
 3295SOL     OW10783   2.876   3.118   6.447
 3295SOL    HW110784   2.893   3.114   6.546
 3295SOL    HW210785   2.779   3.137   6.431
 3296SOL     OW10786   0.884   6.990   1.782
 3296SOL    HW110787   0.785   7.006   1.776
 3296SOL    HW210788   0.905   6.899   1.745
 3297SOL     OW10789   3.766   0.159   5.283
 3297SOL    HW110790   3.777   0.070   5.241
 3297SOL    HW210791   3.709   0.217   5.225
 3298SOL     OW10792   6.891   5.693   3.318
 3298SOL    HW110793   6.880   5.697   3.219
 3298SOL    HW210794   6.805   5.720   3.362
 3299SOL     OW10795   2.033   1.418   4.345
 3299SOL    HW110796   2.126   1.391   4.319
 3299SOL    HW210797   1.969   1.348   4.315
 3300SOL     OW10798   0.313   6.640   4.853
 3300SOL    HW110799   0.351   6.601   4.769
 3300SOL    HW210800   0.387   6.680   4.907
 3301SOL     OW10801   6.297   4.227   2.460
 3301SOL    HW110802   6.324   4.314   2.417
 3301SOL    HW210803   6.273   4.244   2.556
 3302SOL     OW10804   1.800   5.831   5.729
 3302SOL    HW110805   1.743   5.772   5.672
 3302SOL    HW210806   1.843   5.777   5.802
 3303SOL     OW10807   3.487   3.388   5.275
 3303SOL    HW110808   3.585   3.406   5.278
 3303SOL    HW210809   3.457   3.355   5.364
 3304SOL     OW10810   1.790   1.019   3.924
 3304SOL    HW110811   1.741   0.932   3.922
 3304SOL    HW210812   1.866   1.013   3.988
 3305SOL     OW10813   1.746   2.129   0.393
 3305SOL    HW110814   1.804   2.050   0.417
 3305SOL    HW210815   1.650   2.105   0.409
 3306SOL     OW10816   1.154   1.377   0.714
 3306SOL    HW110817   1.215   1.409   0.641
 3306SOL    HW210818   1.196   1.298   0.759
 3307SOL     OW10819   0.308   6.565   0.169
 3307SOL    HW110820   0.332   6.480   0.122
 3307SOL    HW210821   0.386   6.627   0.168
 3308SOL     OW10822   5.238   5.646   7.001
 3308SOL    HW110823   5.280   5.691   0.060
 3308SOL    HW210824   5.308   5.602   6.945
 3309SOL     OW10825   0.469   4.644   2.173
 3309SOL    HW110826   0.499   4.624   2.266
 3309SOL    HW210827   0.379   4.688   2.176
 3310SOL     OW10828   2.527   6.726   2.001
 3310SOL    HW110829   2.447   6.772   1.963
 3310SOL    HW210830   2.507   6.629   2.015
 3311SOL     OW10831   4.588   5.120   0.728
 3311SOL    HW110832   4.508   5.136   0.671
 3311SOL    HW210833   4.588   5.184   0.805
 3312SOL     OW10834   1.926   2.551   5.833
 3312SOL    HW110835   1.969   2.463   5.850
 3312SOL    HW210836   1.935   2.574   5.736
 3313SOL     OW10837   5.366   6.437   5.151
 3313SOL    HW110838   5.333   6.410   5.242
 3313SOL    HW210839   5.463   6.416   5.143
 3314SOL     OW10840   0.579   3.934   6.538
 3314SOL    HW110841   0.625   3.879   6.467
 3314SOL    HW210842   0.491   3.892   6.560
 3315SOL     OW10843   6.449   3.567   3.304
 3315SOL    HW110844   6.420   3.494   3.242
 3315SOL    HW210845   6.476   3.647   3.251
 3316SOL     OW10846   3.669   0.463   6.149
 3316SOL    HW110847   3.589   0.516   6.176
 3316SOL    HW210848   3.752   0.510   6.178
 3317SOL     OW10849   6.443   2.584   1.076
 3317SOL    HW110850   6.385   2.646   1.129
 3317SOL    HW210851   6.412   2.582   0.981
 3318SOL     OW10852   2.695   4.775   6.129
 3318SOL    HW110853   2.600   4.800   6.147
 3318SOL    HW210854   2.703   4.676   6.120
 3319SOL     OW10855   1.054   6.111   6.155
 3319SOL    HW110856   1.132   6.173   6.163
 3319SOL    HW210857   1.086   6.018   6.140
 3320SOL     OW10858   1.502   0.645   1.150
 3320SOL    HW110859   1.456   0.725   1.111
 3320SOL    HW210860   1.511   0.575   1.079
 3321SOL     OW10861   3.858   4.039   4.172
 3321SOL    HW110862   3.935   3.990   4.213
 3321SOL    HW210863   3.837   3.999   4.083
 3322SOL     OW10864   5.200   3.632   2.700
 3322SOL    HW110865   5.184   3.686   2.617
 3322SOL    HW210866   5.113   3.619   2.748
 3323SOL     OW10867   1.435   4.264   0.446
 3323SOL    HW110868   1.497   4.262   0.524
 3323SOL    HW210869   1.465   4.333   0.380
 3324SOL     OW10870   6.499   2.997   2.123
 3324SOL    HW110871   6.584   3.005   2.070
 3324SOL    HW210872   6.443   3.078   2.108
 3325SOL     OW10873   1.152   4.856   5.695
 3325SOL    HW110874   1.064   4.823   5.729
 3325SOL    HW210875   1.138   4.906   5.609
 3326SOL     OW10876   4.523   6.857   2.339
 3326SOL    HW110877   4.484   6.768   2.360
 3326SOL    HW210878   4.456   6.913   2.290
 3327SOL     OW10879   4.708   5.962   2.242
 3327SOL    HW110880   4.648   5.996   2.169
 3327SOL    HW210881   4.757   6.039   2.283
 3328SOL     OW10882   6.386   5.963   3.299
 3328SOL    HW110883   6.326   5.904   3.245
 3328SOL    HW210884   6.331   6.023   3.356
 3329SOL     OW10885   5.754   0.331   6.198
 3329SOL    HW110886   5.771   0.247   6.251
 3329SOL    HW210887   5.782   0.316   6.103
 3330SOL     OW10888   5.696   0.467   3.761
 3330SOL    HW110889   5.758   0.393   3.787
 3330SOL    HW210890   5.741   0.525   3.693
 3331SOL     OW10891   0.272   3.342   2.385
 3331SOL    HW110892   0.271   3.246   2.358
 3331SOL    HW210893   0.341   3.357   2.456
 3332SOL     OW10894   4.486   4.918   1.128
 3332SOL    HW110895   4.467   4.924   1.226
 3332SOL    HW210896   4.497   4.822   1.101
 3333SOL     OW10897   2.143   3.951   0.847
 3333SOL    HW110898   2.136   4.012   0.925
 3333SOL    HW210899   2.078   3.979   0.777
 3334SOL     OW10900   2.280   2.747   2.236
 3334SOL    HW110901   2.315   2.839   2.220
 3334SOL    HW210902   2.350   2.691   2.280
 3335SOL     OW10903   4.719   4.260   6.733
 3335SOL    HW110904   4.805   4.281   6.686
 3335SOL    HW210905   4.642   4.287   6.676
 3336SOL     OW10906   3.528   5.964   6.482
 3336SOL    HW110907   3.505   5.868   6.498
 3336SOL    HW210908   3.627   5.972   6.468
 3337SOL     OW10909   3.002   3.820   4.290
 3337SOL    HW110910   2.953   3.795   4.374
 3337SOL    HW210911   3.038   3.913   4.300
 3338SOL     OW10912   3.450   3.009   1.652
 3338SOL    HW110913   3.465   3.011   1.553
 3338SOL    HW210914   3.415   3.097   1.683
 3339SOL     OW10915   0.822   0.383   5.794
 3339SOL    HW110916   0.723   0.397   5.781
 3339SOL    HW210917   0.848   0.295   5.754
 3340SOL     OW10918   5.144   1.864   6.361
 3340SOL    HW110919   5.067   1.919   6.395
 3340SOL    HW210920   5.108   1.789   6.305
 3341SOL     OW10921   1.293   3.529   1.416
 3341SOL    HW110922   1.247   3.577   1.342
 3341SOL    HW210923   1.385   3.566   1.428
 3342SOL     OW10924   5.969   0.455   3.463
 3342SOL    HW110925   5.912   0.514   3.406
 3342SOL    HW210926   5.939   0.360   3.453
 3343SOL     OW10927   3.548   5.083   0.157
 3343SOL    HW110928   3.521   5.171   0.195
 3343SOL    HW210929   3.604   5.097   0.075
 3344SOL     OW10930   1.732   3.774   0.831
 3344SOL    HW110931   1.680   3.725   0.901
 3344SOL    HW210932   1.775   3.854   0.872
 3345SOL     OW10933   4.341   5.113   0.589
 3345SOL    HW110934   4.281   5.179   0.542
 3345SOL    HW210935   4.361   5.037   0.527
 3346SOL     OW10936   0.887   0.681   0.461
 3346SOL    HW110937   0.858   0.774   0.438
 3346SOL    HW210938   0.872   0.622   0.382
 3347SOL     OW10939   1.069   3.188   5.635
 3347SOL    HW110940   1.074   3.194   5.734
 3347SOL    HW210941   1.047   3.094   5.608
 3348SOL     OW10942   3.189   4.127   5.681
 3348SOL    HW110943   3.187   4.030   5.658
 3348SOL    HW210944   3.221   4.138   5.776
 3349SOL     OW10945   2.465   5.189   1.721
 3349SOL    HW110946   2.562   5.180   1.745
 3349SOL    HW210947   2.455   5.255   1.647
 3350SOL     OW10948   3.001   5.111   4.460
 3350SOL    HW110949   3.090   5.089   4.500
 3350SOL    HW210950   2.934   5.123   4.533
 3351SOL     OW10951   4.325   0.137   2.049
 3351SOL    HW110952   4.357   0.148   2.144
 3351SOL    HW210953   4.318   0.227   2.006
 3352SOL     OW10954   6.391   0.780   0.378
 3352SOL    HW110955   6.343   0.786   0.290
 3352SOL    HW210956   6.355   0.702   0.430
 3353SOL     OW10957   4.688   0.198   6.181
 3353SOL    HW110958   4.632   0.208   6.099
 3353SOL    HW210959   4.646   0.130   6.242
 3354SOL     OW10960   3.673   1.638   0.432
 3354SOL    HW110961   3.719   1.722   0.463
 3354SOL    HW210962   3.741   1.565   0.421
 3355SOL     OW10963   0.898   2.133   5.960
 3355SOL    HW110964   0.946   2.214   5.993
 3355SOL    HW210965   0.817   2.116   6.017
 3356SOL     OW10966   2.918   0.184   5.208
 3356SOL    HW110967   2.903   0.274   5.249
 3356SOL    HW210968   2.885   0.184   5.114
 3357SOL     OW10969   3.284   3.462   4.318
 3357SOL    HW110970   3.290   3.506   4.229
 3357SOL    HW210971   3.288   3.531   4.390
 3358SOL     OW10972   6.930   2.189   1.629
 3358SOL    HW110973   6.832   2.186   1.609
 3358SOL    HW210974   6.980   2.214   1.546
 3359SOL     OW10975   0.716   6.746   3.186
 3359SOL    HW110976   0.739   6.823   3.127
 3359SOL    HW210977   0.759   6.759   3.276
 3360SOL     OW10978   1.562   5.885   4.808
 3360SOL    HW110979   1.480   5.863   4.859
 3360SOL    HW210980   1.603   5.801   4.771
 3361SOL     OW10981   0.554   6.941   4.726
 3361SOL    HW110982   0.647   6.953   4.692
 3361SOL    HW210983   0.502   6.885   4.662
 3362SOL     OW10984   3.597   0.342   5.121
 3362SOL    HW110985   3.497   0.339   5.115
 3362SOL    HW210986   3.627   0.436   5.138
 3363SOL     OW10987   5.141   3.358   0.647
 3363SOL    HW110988   5.138   3.375   0.746
 3363SOL    HW210989   5.050   3.371   0.608
 3364SOL     OW10990   2.403   3.140   1.108
 3364SOL    HW110991   2.400   3.210   1.036
 3364SOL    HW210992   2.495   3.139   1.149
 3365SOL     OW10993   0.371   3.265   2.824
 3365SOL    HW110994   0.280   3.259   2.863
 3365SOL    HW210995   0.439   3.263   2.897
 3366SOL     OW10996   5.364   2.926   3.260
 3366SOL    HW110997   5.447   2.872   3.277
 3366SOL    HW210998   5.377   3.019   3.292
 3367SOL     OW10999   3.292   3.717   3.493
 3367SOL    HW111000   3.202   3.760   3.494
 3367SOL    HW211001   3.289   3.630   3.543
 3368SOL     OW11002   1.416   1.168   3.744
 3368SOL    HW111003   1.510   1.197   3.729
 3368SOL    HW211004   1.358   1.248   3.755
 3369SOL     OW11005   6.146   3.178   0.718
 3369SOL    HW111006   6.063   3.196   0.771
 3369SOL    HW211007   6.122   3.123   0.638
 3370SOL     OW11008   0.020   6.033   3.549
 3370SOL    HW111009   0.074   5.980   3.483
 3370SOL    HW211010   0.050   6.013   3.642
 3371SOL     OW11011   3.146   2.746   1.648
 3371SOL    HW111012   3.206   2.764   1.569
 3371SOL    HW211013   3.137   2.647   1.660
 3372SOL     OW11014   5.595   2.765   3.322
 3372SOL    HW111015   5.591   2.725   3.414
 3372SOL    HW211016   5.669   2.832   3.319
 3373SOL     OW11017   0.793   4.842   0.966
 3373SOL    HW111018   0.740   4.907   0.911
 3373SOL    HW211019   0.767   4.851   1.062
 3374SOL     OW11020   0.918   5.532   3.925
 3374SOL    HW111021   0.860   5.581   3.989
 3374SOL    HW211022   0.956   5.451   3.970
 3375SOL     OW11023   6.976   6.902   5.466
 3375SOL    HW111024   7.004   6.878   5.559
 3375SOL    HW211025   7.010   6.833   5.402
 3376SOL     OW11026   3.168   3.768   4.980
 3376SOL    HW111027   3.160   3.736   5.075
 3376SOL    HW211028   3.111   3.849   4.968
 3377SOL     OW11029   6.115   5.404   4.481
 3377SOL    HW111030   6.186   5.473   4.468
 3377SOL    HW211031   6.057   5.430   4.558
 3378SOL     OW11032   0.867   6.088   7.001
 3378SOL    HW111033   0.947   6.128   0.026
 3378SOL    HW211034   0.869   5.989   7.012
 3379SOL     OW11035   5.659   4.964   3.859
 3379SOL    HW111036   5.582   4.907   3.886
 3379SOL    HW211037   5.684   5.024   3.935
 3380SOL     OW11038   1.371   4.537   1.776
 3380SOL    HW111039   1.284   4.524   1.825
 3380SOL    HW211040   1.370   4.484   1.691
 3381SOL     OW11041   3.089   4.529   0.204
 3381SOL    HW111042   3.071   4.432   0.194
 3381SOL    HW211043   3.179   4.543   0.245
 3382SOL     OW11044   0.185   3.500   6.642
 3382SOL    HW111045   0.245   3.567   6.597
 3382SOL    HW211046   0.145   3.541   6.724
 3383SOL     OW11047   3.727   5.816   0.082
 3383SOL    HW111048   3.718   5.858   7.010
 3383SOL    HW211049   3.724   5.887   0.152
 3384SOL     OW11050   3.324   2.651   6.536
 3384SOL    HW111051   3.249   2.617   6.479
 3384SOL    HW211052   3.297   2.647   6.632
 3385SOL     OW11053   6.022   1.910   4.594
 3385SOL    HW111054   6.119   1.933   4.592
 3385SOL    HW211055   5.969   1.985   4.556
 3386SOL     OW11056   6.754   4.576   5.145
 3386SOL    HW111057   6.698   4.610   5.220
 3386SOL    HW211058   6.699   4.568   5.062
 3387SOL     OW11059   6.024   0.769   2.720
 3387SOL    HW111060   6.041   0.790   2.624
 3387SOL    HW211061   5.972   0.844   2.762
 3388SOL     OW11062   1.090   3.909   1.040
 3388SOL    HW111063   1.020   3.975   1.067
 3388SOL    HW211064   1.114   3.924   0.944
 3389SOL     OW11065   6.305   5.091   6.307
 3389SOL    HW111066   6.394   5.076   6.352
 3389SOL    HW211067   6.233   5.087   6.376
 3390SOL     OW11068   3.228   4.254   1.079
 3390SOL    HW111069   3.138   4.296   1.083
 3390SOL    HW211070   3.227   4.178   1.014
 3391SOL     OW11071   5.688   4.149   5.558
 3391SOL    HW111072   5.601   4.165   5.510
 3391SOL    HW211073   5.759   4.206   5.517
 3392SOL     OW11074   5.051   5.515   5.696
 3392SOL    HW111075   5.091   5.481   5.780
 3392SOL    HW211076   5.047   5.615   5.699
 3393SOL     OW11077   3.412   0.834   0.490
 3393SOL    HW111078   3.342   0.786   0.543
 3393SOL    HW211079   3.368   0.885   0.415
 3394SOL     OW11080   3.189   5.737   1.739
 3394SOL    HW111081   3.219   5.737   1.835
 3394SOL    HW211082   3.122   5.664   1.725
 3395SOL     OW11083   1.670   6.038   3.051
 3395SOL    HW111084   1.737   5.976   3.090
 3395SOL    HW211085   1.591   5.986   3.018
 3396SOL     OW11086   3.620   0.094   4.219
 3396SOL    HW111087   3.603   0.029   4.145
 3396SOL    HW211088   3.623   0.045   4.306
 3397SOL     OW11089   3.615   5.974   2.170
 3397SOL    HW111090   3.618   6.058   2.224
 3397SOL    HW211091   3.628   5.895   2.229
 3398SOL     OW11092   6.364   0.278   1.098
 3398SOL    HW111093   6.377   0.255   1.195
 3398SOL    HW211094   6.440   0.240   1.045
 3399SOL     OW11095   5.902   6.461   2.562
 3399SOL    HW111096   5.913   6.380   2.620
 3399SOL    HW211097   5.805   6.485   2.558
 3400SOL     OW11098   3.526   3.195   5.870
 3400SOL    HW111099   3.578   3.111   5.861
 3400SOL    HW211100   3.430   3.174   5.884
 3401SOL     OW11101   6.334   3.506   3.826
 3401SOL    HW111102   6.293   3.580   3.881
 3401SOL    HW211103   6.392   3.450   3.885
 3402SOL     OW11104   6.904   4.060   0.204
 3402SOL    HW111105   6.870   3.979   0.154
 3402SOL    HW211106   7.002   4.071   0.186
 3403SOL     OW11107   5.126   6.882   4.064
 3403SOL    HW111108   5.047   6.849   4.013
 3403SOL    HW211109   5.109   6.975   4.097
 3404SOL     OW11110   5.126   4.700   3.137
 3404SOL    HW111111   5.175   4.717   3.052
 3404SOL    HW211112   5.180   4.639   3.195
 3405SOL     OW11113   4.677   0.221   0.423
 3405SOL    HW111114   4.718   0.186   0.339
 3405SOL    HW211115   4.581   0.196   0.426
 3406SOL     OW11116   4.818   4.622   1.111
 3406SOL    HW111117   4.802   4.672   1.196
 3406SOL    HW211118   4.847   4.686   1.040
 3407SOL     OW11119   2.295   1.775   0.696
 3407SOL    HW111120   2.391   1.746   0.686
 3407SOL    HW211121   2.287   1.834   0.776
 3408SOL     OW11122   2.754   6.653   4.582
 3408SOL    HW111123   2.820   6.718   4.546
 3408SOL    HW211124   2.775   6.633   4.678
 3409SOL     OW11125   4.746   2.194   0.084
 3409SOL    HW111126   4.690   2.112   0.075
 3409SOL    HW211127   4.734   2.232   0.176
 3410SOL     OW11128   6.377   1.859   2.432
 3410SOL    HW111129   6.327   1.773   2.435
 3410SOL    HW211130   6.467   1.848   2.475
 3411SOL     OW11131   5.177   3.477   6.663
 3411SOL    HW111132   5.262   3.513   6.624
 3411SOL    HW211133   5.149   3.395   6.613
 3412SOL     OW11134   4.844   3.830   2.510
 3412SOL    HW111135   4.822   3.784   2.424
 3412SOL    HW211136   4.857   3.928   2.494
 3413SOL     OW11137   1.376   2.501   0.753
 3413SOL    HW111138   1.426   2.585   0.773
 3413SOL    HW211139   1.314   2.480   0.828
 3414SOL     OW11140   3.234   3.292   1.899
 3414SOL    HW111141   3.142   3.254   1.905
 3414SOL    HW211142   3.233   3.387   1.930
 3415SOL     OW11143   2.735   1.179   0.041
 3415SOL    HW111144   2.727   1.196   0.139
 3415SOL    HW211145   2.746   1.081   0.025
 3416SOL     OW11146   5.454   6.046   6.449
 3416SOL    HW111147   5.543   6.048   6.495
 3416SOL    HW211148   5.407   6.133   6.464
 3417SOL     OW11149   5.982   0.111   2.754
 3417SOL    HW111150   5.995   0.128   2.852
 3417SOL    HW211151   5.990   0.198   2.705
 3418SOL     OW11152   4.516   6.111   1.481
 3418SOL    HW111153   4.575   6.191   1.477
 3418SOL    HW211154   4.550   6.041   1.419
 3419SOL     OW11155   2.728   4.625   5.402
 3419SOL    HW111156   2.777   4.618   5.315
 3419SOL    HW211157   2.794   4.642   5.476
 3420SOL     OW11158   5.076   0.236   2.771
 3420SOL    HW111159   5.025   0.269   2.691
 3420SOL    HW211160   5.062   0.300   2.847
 3421SOL     OW11161   0.572   1.535   4.544
 3421SOL    HW111162   0.501   1.534   4.615
 3421SOL    HW211163   0.622   1.449   4.545
 3422SOL     OW11164   3.186   4.986   1.722
 3422SOL    HW111165   3.208   4.956   1.815
 3422SOL    HW211166   3.247   4.941   1.657
 3423SOL     OW11167   1.604   6.019   5.728
 3423SOL    HW111168   1.639   6.069   5.649
 3423SOL    HW211169   1.669   5.947   5.753
 3424SOL     OW11170   5.887   5.551   2.823
 3424SOL    HW111171   5.820   5.507   2.883
 3424SOL    HW211172   5.856   5.643   2.800
 3425SOL     OW11173   6.050   3.282   6.357
 3425SOL    HW111174   5.994   3.291   6.275
 3425SOL    HW211175   6.098   3.368   6.374
 3426SOL     OW11176   6.608   5.214   6.071
 3426SOL    HW111177   6.669   5.173   6.003
 3426SOL    HW211178   6.517   5.174   6.061
 3427SOL     OW11179   1.723   1.142   6.394
 3427SOL    HW111180   1.733   1.070   6.462
 3427SOL    HW211181   1.766   1.114   6.308
 3428SOL     OW11182   4.156   1.147   3.950
 3428SOL    HW111183   4.094   1.177   3.878
 3428SOL    HW211184   4.132   1.192   4.036
 3429SOL     OW11185   5.526   5.656   0.268
 3429SOL    HW111186   5.540   5.563   0.302
 3429SOL    HW211187   5.429   5.669   0.247
 3430SOL     OW11188   2.786   4.392   6.956
 3430SOL    HW111189   2.774   4.425   0.031
 3430SOL    HW211190   2.853   4.318   6.955
 3431SOL     OW11191   1.535   3.544   1.814
 3431SOL    HW111192   1.508   3.574   1.906
 3431SOL    HW211193   1.573   3.452   1.818
 3432SOL     OW11194   6.922   5.705   6.700
 3432SOL    HW111195   6.913   5.716   6.601
 3432SOL    HW211196   6.961   5.614   6.720
 3433SOL     OW11197   0.871   1.044   0.180
 3433SOL    HW111198   0.862   1.144   0.183
 3433SOL    HW211199   0.885   1.015   0.085
 3434SOL     OW11200   4.450   3.059   1.372
 3434SOL    HW111201   4.460   3.062   1.471
 3434SOL    HW211202   4.367   3.009   1.349
 3435SOL     OW11203   3.214   2.649   1.234
 3435SOL    HW111204   3.263   2.620   1.316
 3435SOL    HW211205   3.125   2.687   1.261
 3436SOL     OW11206   4.732   5.460   4.942
 3436SOL    HW111207   4.826   5.438   4.914
 3436SOL    HW211208   4.694   5.383   4.994
 3437SOL     OW11209   2.755   5.506   0.524
 3437SOL    HW111210   2.717   5.421   0.488
 3437SOL    HW211211   2.780   5.493   0.620
 3438SOL     OW11212   2.289   4.237   0.606
 3438SOL    HW111213   2.337   4.151   0.626
 3438SOL    HW211214   2.272   4.286   0.691
 3439SOL     OW11215   3.061   5.573   0.913
 3439SOL    HW111216   3.042   5.513   0.991
 3439SOL    HW211217   3.118   5.650   0.944
 3440SOL     OW11218   4.328   4.801   5.583
 3440SOL    HW111219   4.382   4.864   5.639
 3440SOL    HW211220   4.256   4.760   5.638
 3441SOL     OW11221   0.470   5.582   5.702
 3441SOL    HW111222   0.384   5.614   5.663
 3441SOL    HW211223   0.542   5.649   5.683
 3442SOL     OW11224   1.934   1.922   0.340
 3442SOL    HW111225   2.011   1.929   0.276
 3442SOL    HW211226   1.859   1.873   0.296
 3443SOL     OW11227   6.906   5.620   1.994
 3443SOL    HW111228   6.863   5.698   2.039
 3443SOL    HW211229   6.926   5.549   2.062
 3444SOL     OW11230   1.611   3.961   5.676
 3444SOL    HW111231   1.616   3.954   5.775
 3444SOL    HW211232   1.657   3.883   5.634
 3445SOL     OW11233   5.695   4.637   4.001
 3445SOL    HW111234   5.646   4.703   4.058
 3445SOL    HW211235   5.785   4.618   4.041
 3446SOL     OW11236   5.510   1.183   6.836
 3446SOL    HW111237   5.544   1.249   6.904
 3446SOL    HW211238   5.420   1.211   6.804
 3447SOL     OW11239   5.631   1.591   6.227
 3447SOL    HW111240   5.623   1.499   6.187
 3447SOL    HW211241   5.700   1.642   6.177
 3448SOL     OW11242   0.577   5.533   4.676
 3448SOL    HW111243   0.594   5.599   4.749
 3448SOL    HW211244   0.493   5.557   4.628
 3449SOL     OW11245   1.049   4.258   4.538
 3449SOL    HW111246   1.035   4.355   4.559
 3449SOL    HW211247   1.012   4.202   4.613
 3450SOL     OW11248   1.970   6.685   3.195
 3450SOL    HW111249   1.932   6.605   3.149
 3450SOL    HW211250   2.070   6.685   3.185
 3451SOL     OW11251   2.290   1.517   1.054
 3451SOL    HW111252   2.381   1.555   1.068
 3451SOL    HW211253   2.263   1.528   0.959
 3452SOL     OW11254   4.338   1.108   5.359
 3452SOL    HW111255   4.300   1.021   5.328
 3452SOL    HW211256   4.320   1.179   5.290
 3453SOL     OW11257   4.301   6.746   5.625
 3453SOL    HW111258   4.253   6.832   5.643
 3453SOL    HW211259   4.256   6.671   5.674
 3454SOL     OW11260   1.368   3.469   3.993
 3454SOL    HW111261   1.342   3.565   3.984
 3454SOL    HW211262   1.452   3.452   3.941
 3455SOL     OW11263   1.822   3.685   6.064
 3455SOL    HW111264   1.791   3.745   5.990
 3455SOL    HW211265   1.742   3.649   6.113
 3456SOL     OW11266   4.650   4.950   2.695
 3456SOL    HW111267   4.684   4.945   2.789
 3456SOL    HW211268   4.715   5.003   2.639
 3457SOL     OW11269   4.403   4.029   0.279
 3457SOL    HW111270   4.313   3.993   0.305
 3457SOL    HW211271   4.398   4.128   0.272
 3458SOL     OW11272   4.475   1.495   1.060
 3458SOL    HW111273   4.437   1.467   1.148
 3458SOL    HW211274   4.567   1.456   1.049
 3459SOL     OW11275   6.285   0.710   3.088
 3459SOL    HW111276   6.302   0.705   2.989
 3459SOL    HW211277   6.263   0.804   3.112
 3460SOL     OW11278   5.013   1.735   4.863
 3460SOL    HW111279   5.015   1.831   4.894
 3460SOL    HW211280   4.918   1.707   4.851
 3461SOL     OW11281   4.949   4.574   4.842
 3461SOL    HW111282   4.969   4.541   4.934
 3461SOL    HW211283   5.031   4.618   4.804
 3462SOL     OW11284   1.166   3.716   6.870
 3462SOL    HW111285   1.250   3.697   6.819
 3462SOL    HW211286   1.103   3.639   6.860
 3463SOL     OW11287   6.596   3.479   6.857
 3463SOL    HW111288   6.583   3.566   6.809
 3463SOL    HW211289   6.530   3.412   6.823
 3464SOL     OW11290   0.412   4.819   4.973
 3464SOL    HW111291   0.351   4.766   4.914
 3464SOL    HW211292   0.506   4.812   4.939
 3465SOL     OW11293   1.159   2.533   0.959
 3465SOL    HW111294   1.111   2.617   0.934
 3465SOL    HW211295   1.106   2.454   0.929
 3466SOL     OW11296   4.705   4.253   3.336
 3466SOL    HW111297   4.696   4.260   3.237
 3466SOL    HW211298   4.772   4.182   3.359
 3467SOL     OW11299   1.993   1.478   6.105
 3467SOL    HW111300   1.927   1.467   6.180
 3467SOL    HW211301   2.023   1.388   6.074
 3468SOL     OW11302   5.530   5.081   1.827
 3468SOL    HW111303   5.569   5.134   1.902
 3468SOL    HW211304   5.543   4.983   1.844
 3469SOL     OW11305   5.831   3.179   0.791
 3469SOL    HW111306   5.894   3.244   0.832
 3469SOL    HW211307   5.809   3.207   0.698
 3470SOL     OW11308   6.286   6.106   6.543
 3470SOL    HW111309   6.337   6.114   6.457
 3470SOL    HW211310   6.195   6.071   6.524
 3471SOL     OW11311   3.816   6.761   4.435
 3471SOL    HW111312   3.902   6.787   4.478
 3471SOL    HW211313   3.801   6.663   4.447
 3472SOL     OW11314   3.188   0.757   3.923
 3472SOL    HW111315   3.104   0.742   3.872
 3472SOL    HW211316   3.217   0.672   3.967
 3473SOL     OW11317   4.867   6.642   3.407
 3473SOL    HW111318   4.805   6.649   3.485
 3473SOL    HW211319   4.821   6.674   3.324
 3474SOL     OW11320   6.196   5.190   0.834
 3474SOL    HW111321   6.282   5.242   0.837
 3474SOL    HW211322   6.136   5.220   0.909
 3475SOL     OW11323   1.756   5.867   5.271
 3475SOL    HW111324   1.795   5.957   5.290
 3475SOL    HW211325   1.780   5.839   5.178
 3476SOL     OW11326   2.561   2.052   2.975
 3476SOL    HW111327   2.648   2.078   3.017
 3476SOL    HW211328   2.578   1.991   2.898
 3477SOL     OW11329   4.876   5.623   2.467
 3477SOL    HW111330   4.882   5.545   2.530
 3477SOL    HW211331   4.968   5.654   2.445
 3478SOL     OW11332   3.774   5.383   0.066
 3478SOL    HW111333   3.862   5.390   0.018
 3478SOL    HW211334   3.788   5.339   0.154
 3479SOL     OW11335   1.934   1.097   0.570
 3479SOL    HW111336   1.978   1.066   0.486
 3479SOL    HW211337   2.002   1.136   0.632
 3480SOL     OW11338   2.065   6.834   4.730
 3480SOL    HW111339   2.156   6.799   4.753
 3480SOL    HW211340   2.071   6.932   4.713
 3481SOL     OW11341   1.783   4.734   0.512
 3481SOL    HW111342   1.871   4.687   0.509
 3481SOL    HW211343   1.715   4.675   0.555
 3482SOL     OW11344   7.000   2.083   1.195
 3482SOL    HW111345   6.912   2.075   1.241
 3482SOL    HW211346   0.042   2.142   1.249
 3483SOL     OW11347   4.152   1.757   1.082
 3483SOL    HW111348   4.236   1.789   1.037
 3483SOL    HW211349   4.073   1.788   1.029
 3484SOL     OW11350   3.444   4.062   3.775
 3484SOL    HW111351   3.471   4.102   3.862
 3484SOL    HW211352   3.446   3.962   3.781
 3485SOL     OW11353   6.215   2.799   3.951
 3485SOL    HW111354   6.284   2.857   3.907
 3485SOL    HW211355   6.217   2.813   4.050
 3486SOL     OW11356   6.330   1.715   2.928
 3486SOL    HW111357   6.285   1.716   2.839
 3486SOL    HW211358   6.429   1.716   2.916
 3487SOL     OW11359   1.542   6.351   1.597
 3487SOL    HW111360   1.507   6.314   1.683
 3487SOL    HW211361   1.558   6.276   1.532
 3488SOL     OW11362   6.587   2.645   5.160
 3488SOL    HW111363   6.686   2.644   5.174
 3488SOL    HW211364   6.567   2.659   5.063
 3489SOL     OW11365   2.112   5.515   0.153
 3489SOL    HW111366   2.104   5.549   0.059
 3489SOL    HW211367   2.168   5.578   0.206
 3490SOL     OW11368   5.393   3.559   0.348
 3490SOL    HW111369   5.452   3.587   0.423
 3490SOL    HW211370   5.447   3.547   0.265
 3491SOL     OW11371   6.014   2.579   5.251
 3491SOL    HW111372   5.934   2.519   5.248
 3491SOL    HW211373   6.006   2.640   5.330
 3492SOL     OW11374   0.966   4.221   6.348
 3492SOL    HW111375   1.017   4.227   6.434
 3492SOL    HW211376   0.869   4.237   6.366
 3493SOL     OW11377   0.410   4.771   1.175
 3493SOL    HW111378   0.393   4.855   1.226
 3493SOL    HW211379   0.331   4.711   1.182
 3494SOL     OW11380   3.133   6.900   1.140
 3494SOL    HW111381   3.102   6.825   1.200
 3494SOL    HW211382   3.107   6.987   1.180
 3495SOL     OW11383   5.504   4.153   6.096
 3495SOL    HW111384   5.514   4.170   5.998
 3495SOL    HW211385   5.521   4.237   6.147
 3496SOL     OW11386   0.938   6.569   1.425
 3496SOL    HW111387   0.943   6.652   1.369
 3496SOL    HW211388   1.030   6.542   1.453
 3497SOL     OW11389   3.055   0.074   4.799
 3497SOL    HW111390   3.122   0.014   4.757
 3497SOL    HW211391   3.087   0.101   4.890
 3498SOL     OW11392   1.734   1.630   0.823
 3498SOL    HW111393   1.788   1.565   0.875
 3498SOL    HW211394   1.645   1.591   0.802
 3499SOL     OW11395   6.963   4.166   3.064
 3499SOL    HW111396   6.920   4.124   2.984
 3499SOL    HW211397   0.017   4.228   3.034
 3500SOL     OW11398   6.830   2.714   0.302
 3500SOL    HW111399   6.811   2.620   0.329
 3500SOL    HW211400   6.842   2.720   0.203
 3501SOL     OW11401   6.999   5.118   3.034
 3501SOL    HW111402   6.986   5.208   3.077
 3501SOL    HW211403   7.010   5.129   2.936
 3502SOL     OW11404   1.323   6.450   1.426
 3502SOL    HW111405   1.241   6.452   1.483
 3502SOL    HW211406   1.402   6.421   1.481
 3503SOL     OW11407   3.063   1.193   3.358
 3503SOL    HW111408   3.122   1.122   3.318
 3503SOL    HW211409   3.117   1.276   3.374
 3504SOL     OW11410   2.013   2.251   2.249
 3504SOL    HW111411   1.969   2.335   2.281
 3504SOL    HW211412   2.027   2.189   2.326
 3505SOL     OW11413   4.203   0.173   4.445
 3505SOL    HW111414   4.213   0.074   4.437
 3505SOL    HW211415   4.113   0.194   4.482
 3506SOL     OW11416   6.179   3.182   3.408
 3506SOL    HW111417   6.260   3.216   3.360
 3506SOL    HW211418   6.204   3.103   3.464
 3507SOL     OW11419   0.034   6.737   5.253
 3507SOL    HW111420   0.079   6.649   5.238
 3507SOL    HW211421   0.072   6.805   5.190
 3508SOL     OW11422   0.463   4.706   6.794
 3508SOL    HW111423   0.364   4.711   6.779
 3508SOL    HW211424   0.482   4.704   6.892
 3509SOL     OW11425   3.407   6.662   0.422
 3509SOL    HW111426   3.376   6.568   0.405
 3509SOL    HW211427   3.496   6.676   0.378
 3510SOL     OW11428   2.433   1.794   3.331
 3510SOL    HW111429   2.377   1.788   3.249
 3510SOL    HW211430   2.528   1.770   3.310
 3511SOL     OW11431   0.929   1.141   3.941
 3511SOL    HW111432   0.895   1.065   3.997
 3511SOL    HW211433   0.852   1.187   3.897
 3512SOL     OW11434   3.085   3.032   2.163
 3512SOL    HW111435   3.110   2.935   2.167
 3512SOL    HW211436   3.042   3.052   2.075
 3513SOL     OW11437   6.853   4.838   0.376
 3513SOL    HW111438   6.851   4.755   0.320
 3513SOL    HW211439   6.769   4.844   0.430
 3514SOL     OW11440   3.232   5.799   3.448
 3514SOL    HW111441   3.197   5.848   3.368
 3514SOL    HW211442   3.200   5.705   3.446
 3515SOL     OW11443   3.724   5.507   4.251
 3515SOL    HW111444   3.676   5.493   4.338
 3515SOL    HW211445   3.759   5.419   4.218
 3516SOL     OW11446   1.705   1.421   0.600
 3516SOL    HW111447   1.792   1.408   0.648
 3516SOL    HW211448   1.653   1.335   0.601
 3517SOL     OW11449   0.501   1.292   6.556
 3517SOL    HW111450   0.431   1.300   6.627
 3517SOL    HW211451   0.567   1.222   6.583
 3518SOL     OW11452   4.431   3.879   6.150
 3518SOL    HW111453   4.517   3.889   6.100
 3518SOL    HW211454   4.357   3.859   6.086
 3519SOL     OW11455   4.584   0.613   6.100
 3519SOL    HW111456   4.614   0.541   6.038
 3519SOL    HW211457   4.526   0.678   6.050
 3520SOL     OW11458   4.454   5.055   1.374
 3520SOL    HW111459   4.520   5.028   1.444
 3520SOL    HW211460   4.494   5.128   1.318
 3521SOL     OW11461   0.369   1.761   5.570
 3521SOL    HW111462   0.461   1.721   5.570
 3521SOL    HW211463   0.371   1.849   5.618
 3522SOL     OW11464   2.516   0.352   0.967
 3522SOL    HW111465   2.571   0.348   0.884
 3522SOL    HW211466   2.479   0.444   0.979
 3523SOL     OW11467   2.126   4.643   4.394
 3523SOL    HW111468   2.177   4.593   4.324
 3523SOL    HW211469   2.183   4.715   4.432
 3524SOL     OW11470   2.912   1.576   3.288
 3524SOL    HW111471   2.910   1.676   3.279
 3524SOL    HW211472   2.834   1.546   3.344
 3525SOL     OW11473   2.133   3.357   3.780
 3525SOL    HW111474   2.110   3.446   3.741
 3525SOL    HW211475   2.118   3.359   3.879
 3526SOL     OW11476   3.470   5.711   4.002
 3526SOL    HW111477   3.497   5.682   3.910
 3526SOL    HW211478   3.450   5.630   4.057
 3527SOL     OW11479   6.734   4.186   6.871
 3527SOL    HW111480   6.643   4.149   6.858
 3527SOL    HW211481   6.739   4.231   6.960
 3528SOL     OW11482   0.652   6.244   3.747
 3528SOL    HW111483   0.689   6.242   3.654
 3528SOL    HW211484   0.553   6.259   3.743
 3529SOL     OW11485   3.792   6.988   0.171
 3529SOL    HW111486   3.815   0.042   0.107
 3529SOL    HW211487   3.806   6.899   0.127
 3530SOL     OW11488   2.011   5.080   2.191
 3530SOL    HW111489   1.955   5.143   2.136
 3530SOL    HW211490   2.007   5.108   2.287
 3531SOL     OW11491   5.221   3.979   7.002
 3531SOL    HW111492   5.146   4.025   6.955
 3531SOL    HW211493   5.290   3.951   6.934
 3532SOL     OW11494   2.542   0.298   6.278
 3532SOL    HW111495   2.639   0.302   6.255
 3532SOL    HW211496   2.528   0.236   6.355
 3533SOL     OW11497   1.436   1.374   2.916
 3533SOL    HW111498   1.523   1.387   2.868
 3533SOL    HW211499   1.383   1.303   2.869
 3534SOL     OW11500   4.534   6.771   4.577
 3534SOL    HW111501   4.600   6.725   4.637
 3534SOL    HW211502   4.511   6.860   4.616
 3535SOL     OW11503   3.774   4.593   7.004
 3535SOL    HW111504   3.718   4.521   6.962
 3535SOL    HW211505   3.715   4.659   0.031
 3536SOL     OW11506   2.172   3.130   2.484
 3536SOL    HW111507   2.146   3.226   2.479
 3536SOL    HW211508   2.176   3.102   2.580
 3537SOL     OW11509   3.146   5.034   1.340
 3537SOL    HW111510   3.176   5.010   1.432
 3537SOL    HW211511   3.050   5.063   1.343
 3538SOL     OW11512   2.799   0.117   3.851
 3538SOL    HW111513   2.886   0.090   3.892
 3538SOL    HW211514   2.768   0.045   3.789
 3539SOL     OW11515   5.213   5.266   6.232
 3539SOL    HW111516   5.232   5.297   6.325
 3539SOL    HW211517   5.159   5.182   6.235
 3540SOL     OW11518   5.411   3.722   6.998
 3540SOL    HW111519   5.390   3.627   0.004
 3540SOL    HW211520   5.397   3.781   0.058
 3541SOL     OW11521   0.239   3.018   2.393
 3541SOL    HW111522   0.299   3.056   2.323
 3541SOL    HW211523   0.265   2.923   2.411
 3542SOL     OW11524   6.189   0.575   6.953
 3542SOL    HW111525   6.104   0.617   6.921
 3542SOL    HW211526   6.229   0.520   6.879
 3543SOL     OW11527   0.509   2.895   4.860
 3543SOL    HW111528   0.438   2.964   4.867
 3543SOL    HW211529   0.561   2.892   4.945
 3544SOL     OW11530   4.152   4.688   5.734
 3544SOL    HW111531   4.056   4.663   5.744
 3544SOL    HW211532   4.210   4.614   5.767
 3545SOL     OW11533   2.714   6.389   1.739
 3545SOL    HW111534   2.685   6.329   1.813
 3545SOL    HW211535   2.679   6.481   1.756
 3546SOL     OW11536   6.738   4.009   1.323
 3546SOL    HW111537   6.650   4.055   1.309
 3546SOL    HW211538   6.801   4.033   1.249
 3547SOL     OW11539   1.830   4.195   4.163
 3547SOL    HW111540   1.802   4.290   4.146
 3547SOL    HW211541   1.886   4.192   4.246
 3548SOL     OW11542   6.174   6.712   5.449
 3548SOL    HW111543   6.225   6.630   5.474
 3548SOL    HW211544   6.078   6.701   5.477
 3549SOL     OW11545   1.458   0.247   6.596
 3549SOL    HW111546   1.486   0.290   6.682
 3549SOL    HW211547   1.533   0.191   6.561
 3550SOL     OW11548   6.681   2.440   4.469
 3550SOL    HW111549   6.709   2.482   4.555
 3550SOL    HW211550   6.681   2.340   4.478
 3551SOL     OW11551   6.656   1.855   5.644
 3551SOL    HW111552   6.607   1.780   5.599
 3551SOL    HW211553   6.743   1.872   5.597
 3552SOL     OW11554   6.145   0.883   4.077
 3552SOL    HW111555   6.111   0.809   4.019
 3552SOL    HW211556   6.140   0.855   4.173
 3553SOL     OW11557   5.703   6.017   6.556
 3553SOL    HW111558   5.683   6.069   6.640
 3553SOL    HW211559   5.759   5.938   6.579
 3554SOL     OW11560   5.986   3.149   6.915
 3554SOL    HW111561   5.935   3.164   6.830
 3554SOL    HW211562   6.015   3.237   6.952
 3555SOL     OW11563   2.684   0.969   4.954
 3555SOL    HW111564   2.722   0.946   4.864
 3555SOL    HW211565   2.642   1.060   4.950
 3556SOL     OW11566   5.330   1.561   0.684
 3556SOL    HW111567   5.385   1.496   0.735
 3556SOL    HW211568   5.387   1.609   0.617
 3557SOL     OW11569   5.034   0.526   1.055
 3557SOL    HW111570   4.987   0.610   1.081
 3557SOL    HW211571   5.106   0.506   1.121
 3558SOL     OW11572   4.440   5.812   3.631
 3558SOL    HW111573   4.415   5.734   3.689
 3558SOL    HW211574   4.371   5.823   3.559
 3559SOL     OW11575   4.436   6.140   6.997
 3559SOL    HW111576   4.432   6.068   6.928
 3559SOL    HW211577   4.358   6.202   6.986
 3560SOL     OW11578   1.927   5.579   4.125
 3560SOL    HW111579   1.837   5.581   4.083
 3560SOL    HW211580   1.930   5.644   4.202
 3561SOL     OW11581   4.363   3.185   6.291
 3561SOL    HW111582   4.317   3.097   6.281
 3561SOL    HW211583   4.408   3.190   6.380
 3562SOL     OW11584   2.778   0.993   0.711
 3562SOL    HW111585   2.826   1.077   0.686
 3562SOL    HW211586   2.823   0.951   0.790
 3563SOL     OW11587   6.130   2.105   6.013
 3563SOL    HW111588   6.119   2.191   5.963
 3563SOL    HW211589   6.058   2.097   6.082
 3564SOL     OW11590   5.903   2.931   2.864
 3564SOL    HW111591   5.812   2.890   2.854
 3564SOL    HW211592   5.907   3.017   2.813
 3565SOL     OW11593   5.014   6.468   5.335
 3565SOL    HW111594   4.986   6.549   5.285
 3565SOL    HW211595   5.083   6.492   5.403
 3566SOL     OW11596   0.618   0.995   4.721
 3566SOL    HW111597   0.536   0.952   4.684
 3566SOL    HW211598   0.699   0.951   4.682
 3567SOL     OW11599   1.460   4.296   6.851
 3567SOL    HW111600   1.464   4.201   6.884
 3567SOL    HW211601   1.385   4.343   6.897
 3568SOL     OW11602   2.005   3.989   5.331
 3568SOL    HW111603   2.100   3.970   5.354
 3568SOL    HW211604   1.945   3.923   5.377
 3569SOL     OW11605   0.388   0.180   3.361
 3569SOL    HW111606   0.406   0.261   3.305
 3569SOL    HW211607   0.310   0.130   3.324
 3570SOL     OW11608   0.248   1.701   4.405
 3570SOL    HW111609   0.188   1.774   4.438
 3570SOL    HW211610   0.343   1.734   4.405
 3571SOL     OW11611   0.062   5.480   4.975
 3571SOL    HW111612   0.039   5.567   5.019
 3571SOL    HW211613   0.041   5.405   5.038
 3572SOL     OW11614   5.027   6.885   5.493
 3572SOL    HW111615   5.076   6.969   5.518
 3572SOL    HW211616   5.077   6.838   5.420
 3573SOL     OW11617   0.141   2.872   2.130
 3573SOL    HW111618   0.074   2.826   2.073
 3573SOL    HW211619   0.098   2.949   2.178
 3574SOL     OW11620   1.274   3.731   0.168
 3574SOL    HW111621   1.216   3.783   0.104
 3574SOL    HW211622   1.249   3.634   0.164
 3575SOL     OW11623   6.939   0.666   2.348
 3575SOL    HW111624   0.011   0.675   2.306
 3575SOL    HW211625   6.878   0.619   2.284
 3576SOL     OW11626   0.791   0.909   0.851
 3576SOL    HW111627   0.857   0.976   0.816
 3576SOL    HW211628   0.752   0.858   0.775
 3577SOL     OW11629   2.025   4.560   0.581
 3577SOL    HW111630   1.983   4.488   0.636
 3577SOL    HW211631   2.056   4.633   0.641
 3578SOL     OW11632   3.574   4.947   1.755
 3578SOL    HW111633   3.568   4.880   1.830
 3578SOL    HW211634   3.522   4.913   1.676
 3579SOL     OW11635   2.554   2.711   6.783
 3579SOL    HW111636   2.481   2.779   6.790
 3579SOL    HW211637   2.628   2.735   6.844
 3580SOL     OW11638   5.551   0.785   2.401
 3580SOL    HW111639   5.514   0.770   2.493
 3580SOL    HW211640   5.604   0.705   2.373
 3581SOL     OW11641   0.262   1.969   2.564
 3581SOL    HW111642   0.193   2.040   2.550
 3581SOL    HW211643   0.268   1.947   2.662
 3582SOL     OW11644   0.808   0.629   5.986
 3582SOL    HW111645   0.824   0.552   5.924
 3582SOL    HW211646   0.726   0.679   5.958
 3583SOL     OW11647   1.194   6.983   2.422
 3583SOL    HW111648   1.180   0.043   2.361
 3583SOL    HW211649   1.106   6.957   2.462
 3584SOL     OW11650   5.286   0.365   5.118
 3584SOL    HW111651   5.322   0.436   5.178
 3584SOL    HW211652   5.231   0.407   5.045
 3585SOL     OW11653   2.045   5.181   2.433
 3585SOL    HW111654   1.949   5.209   2.436
 3585SOL    HW211655   2.093   5.219   2.512
 3586SOL     OW11656   1.426   1.227   6.666
 3586SOL    HW111657   1.493   1.176   6.613
 3586SOL    HW211658   1.444   1.214   6.764
 3587SOL     OW11659   4.022   6.041   5.559
 3587SOL    HW111660   4.041   6.007   5.467
 3587SOL    HW211661   3.977   5.970   5.613
 3588SOL     OW11662   2.717   2.300   5.386
 3588SOL    HW111663   2.662   2.325   5.306
 3588SOL    HW211664   2.690   2.355   5.464
 3589SOL     OW11665   2.796   6.176   4.716
 3589SOL    HW111666   2.753   6.088   4.736
 3589SOL    HW211667   2.775   6.241   4.789
 3590SOL     OW11668   1.036   6.202   6.762
 3590SOL    HW111669   1.082   6.290   6.779
 3590SOL    HW211670   1.008   6.162   6.849
 3591SOL     OW11671   4.574   2.294   4.161
 3591SOL    HW111672   4.547   2.322   4.253
 3591SOL    HW211673   4.649   2.351   4.129
 3592SOL     OW11674   5.704   1.165   2.150
 3592SOL    HW111675   5.801   1.143   2.158
 3592SOL    HW211676   5.650   1.097   2.199
 3593SOL     OW11677   1.159   4.899   4.785
 3593SOL    HW111678   1.240   4.935   4.739
 3593SOL    HW211679   1.142   4.805   4.755
 3594SOL     OW11680   4.383   1.956   4.595
 3594SOL    HW111681   4.410   2.048   4.623
 3594SOL    HW211682   4.435   1.929   4.514
 3595SOL     OW11683   1.985   6.764   6.580
 3595SOL    HW111684   1.997   6.827   6.657
 3595SOL    HW211685   1.887   6.753   6.561
 3596SOL     OW11686   6.095   3.358   2.695
 3596SOL    HW111687   6.068   3.423   2.766
 3596SOL    HW211688   6.015   3.304   2.667
 3597SOL     OW11689   4.029   0.310   3.645
 3597SOL    HW111690   4.086   0.392   3.653
 3597SOL    HW211691   3.958   0.312   3.716
 3598SOL     OW11692   2.149   6.995   0.159
 3598SOL    HW111693   2.140   0.031   0.075
 3598SOL    HW211694   2.245   6.970   0.172
 3599SOL     OW11695   0.463   2.107   4.379
 3599SOL    HW111696   0.389   2.066   4.325
 3599SOL    HW211697   0.423   2.171   4.446
 3600SOL     OW11698   6.490   6.306   0.710
 3600SOL    HW111699   6.423   6.336   0.642
 3600SOL    HW211700   6.452   6.232   0.765
 3601SOL     OW11701   6.965   3.922   6.016
 3601SOL    HW111702   0.021   3.986   6.033
 3601SOL    HW211703   7.000   3.828   6.021
 3602SOL     OW11704   3.676   2.243   0.994
 3602SOL    HW111705   3.770   2.251   0.960
 3602SOL    HW211706   3.613   2.276   0.924
 3603SOL     OW11707   3.719   5.243   5.012
 3603SOL    HW111708   3.653   5.169   5.028
 3603SOL    HW211709   3.803   5.226   5.063
 3604SOL     OW11710   5.588   4.161   3.498
 3604SOL    HW111711   5.533   4.161   3.581
 3604SOL    HW211712   5.645   4.244   3.496
 3605SOL     OW11713   5.666   0.999   6.737
 3605SOL    HW111714   5.599   1.065   6.770
 3605SOL    HW211715   5.672   1.005   6.637
 3606SOL     OW11716   1.855   3.970   2.599
 3606SOL    HW111717   1.946   4.000   2.569
 3606SOL    HW211718   1.789   4.044   2.585
 3607SOL     OW11719   4.528   6.385   4.901
 3607SOL    HW111720   4.452   6.421   4.956
 3607SOL    HW211721   4.498   6.374   4.806
 3608SOL     OW11722   6.933   3.512   2.556
 3608SOL    HW111723   6.939   3.424   2.602
 3608SOL    HW211724   6.846   3.556   2.579
 3609SOL     OW11725   0.835   1.052   3.631
 3609SOL    HW111726   0.909   1.084   3.571
 3609SOL    HW211727   0.865   0.970   3.679
 3610SOL     OW11728   1.689   4.837   5.226
 3610SOL    HW111729   1.712   4.741   5.239
 3610SOL    HW211730   1.699   4.886   5.312
 3611SOL     OW11731   4.386   5.010   6.611
 3611SOL    HW111732   4.474   5.056   6.602
 3611SOL    HW211733   4.378   4.939   6.541
 3612SOL     OW11734   2.836   5.699   1.397
 3612SOL    HW111735   2.776   5.716   1.319
 3612SOL    HW211736   2.824   5.605   1.428
 3613SOL     OW11737   5.495   4.265   6.606
 3613SOL    HW111738   5.443   4.320   6.540
 3613SOL    HW211739   5.448   4.179   6.622
 3614SOL     OW11740   3.828   3.194   4.848
 3614SOL    HW111741   3.902   3.188   4.781
 3614SOL    HW211742   3.771   3.112   4.843
 3615SOL     OW11743   6.084   6.670   6.766
 3615SOL    HW111744   6.137   6.589   6.742
 3615SOL    HW211745   6.036   6.655   6.853
 3616SOL     OW11746   6.959   1.227   4.274
 3616SOL    HW111747   6.930   1.317   4.242
 3616SOL    HW211748   6.992   1.234   4.369
 3617SOL     OW11749   0.066   0.755   1.429
 3617SOL    HW111750   0.114   0.743   1.342
 3617SOL    HW211751   0.020   0.670   1.454
 3618SOL     OW11752   3.817   5.189   6.517
 3618SOL    HW111753   3.753   5.247   6.566
 3618SOL    HW211754   3.890   5.161   6.579
 3619SOL     OW11755   4.858   3.308   3.796
 3619SOL    HW111756   4.940   3.314   3.739
 3619SOL    HW211757   4.824   3.214   3.797
 3620SOL     OW11758   5.911   1.823   5.478
 3620SOL    HW111759   5.986   1.858   5.534
 3620SOL    HW211760   5.836   1.793   5.537
 3621SOL     OW11761   2.750   2.493   6.468
 3621SOL    HW111762   2.749   2.493   6.568
 3621SOL    HW211763   2.785   2.581   6.436
 3622SOL     OW11764   1.329   4.010   0.883
 3622SOL    HW111765   1.293   4.103   0.893
 3622SOL    HW211766   1.415   4.002   0.934
 3623SOL     OW11767   6.435   5.061   4.605
 3623SOL    HW111768   6.518   5.116   4.607
 3623SOL    HW211769   6.361   5.111   4.649
 3624SOL     OW11770   1.887   6.981   1.929
 3624SOL    HW111771   1.928   6.913   1.990
 3624SOL    HW211772   1.788   6.982   1.941
 3625SOL     OW11773   1.629   2.442   5.400
 3625SOL    HW111774   1.654   2.384   5.478
 3625SOL    HW211775   1.551   2.498   5.425
 3626SOL     OW11776   1.999   3.244   5.398
 3626SOL    HW111777   1.996   3.195   5.485
 3626SOL    HW211778   1.933   3.204   5.335
 3627SOL     OW11779   4.089   3.222   4.183
 3627SOL    HW111780   4.010   3.181   4.228
 3627SOL    HW211781   4.132   3.154   4.124
 3628SOL     OW11782   2.631   5.111   4.009
 3628SOL    HW111783   2.532   5.115   3.996
 3628SOL    HW211784   2.667   5.203   4.022
 3629SOL     OW11785   6.170   3.792   4.819
 3629SOL    HW111786   6.162   3.808   4.721
 3629SOL    HW211787   6.217   3.706   4.835
 3630SOL     OW11788   6.325   1.997   4.350
 3630SOL    HW111789   6.298   2.082   4.304
 3630SOL    HW211790   6.309   2.007   4.449
 3631SOL     OW11791   2.479   1.223   4.329
 3631SOL    HW111792   2.426   1.306   4.307
 3631SOL    HW211793   2.506   1.225   4.425
 3632SOL     OW11794   4.972   6.707   6.732
 3632SOL    HW111795   4.997   6.786   6.788
 3632SOL    HW211796   4.977   6.733   6.635
 3633SOL     OW11797   0.970   2.923   5.572
 3633SOL    HW111798   1.009   2.867   5.500
 3633SOL    HW211799   0.948   2.866   5.651
 3634SOL     OW11800   2.115   4.600   6.523
 3634SOL    HW111801   2.057   4.519   6.519
 3634SOL    HW211802   2.078   4.671   6.462
 3635SOL     OW11803   1.459   2.048   4.474
 3635SOL    HW111804   1.464   2.138   4.430
 3635SOL    HW211805   1.534   1.990   4.440
 3636SOL     OW11806   0.642   6.564   1.447
 3636SOL    HW111807   0.739   6.552   1.427
 3636SOL    HW211808   0.631   6.622   1.529
 3637SOL     OW11809   5.502   1.475   2.348
 3637SOL    HW111810   5.500   1.572   2.373
 3637SOL    HW211811   5.483   1.419   2.429
 3638SOL     OW11812   6.696   5.201   3.178
 3638SOL    HW111813   6.689   5.237   3.271
 3638SOL    HW211814   6.792   5.205   3.149
 3639SOL     OW11815   2.679   5.585   6.945
 3639SOL    HW111816   2.766   5.537   6.931
 3639SOL    HW211817   2.657   5.586   0.024
 3640SOL     OW11818   2.436   6.916   3.491
 3640SOL    HW111819   2.519   6.965   3.518
 3640SOL    HW211820   2.423   6.925   3.392
 3641SOL     OW11821   2.061   0.470   4.806
 3641SOL    HW111822   2.088   0.496   4.899
 3641SOL    HW211823   2.124   0.401   4.771
 3642SOL     OW11824   6.005   0.520   2.885
 3642SOL    HW111825   5.971   0.598   2.833
 3642SOL    HW211826   6.046   0.551   2.971
 3643SOL     OW11827   3.935   0.041   3.754
 3643SOL    HW111828   4.023   0.077   3.784
 3643SOL    HW211829   3.937   0.025   3.656
 3644SOL     OW11830   5.887   0.448   1.475
 3644SOL    HW111831   5.801   0.474   1.520
 3644SOL    HW211832   5.934   0.530   1.442
 3645SOL     OW11833   4.279   5.463   3.907
 3645SOL    HW111834   4.376   5.458   3.927
 3645SOL    HW211835   4.229   5.490   3.990
 3646SOL     OW11836   0.632   5.457   4.980
 3646SOL    HW111837   0.718   5.431   5.025
 3646SOL    HW211838   0.555   5.426   5.035
 3647SOL     OW11839   4.112   2.630   0.899
 3647SOL    HW111840   4.192   2.570   0.897
 3647SOL    HW211841   4.141   2.724   0.882
 3648SOL     OW11842   2.072   6.370   3.858
 3648SOL    HW111843   1.978   6.350   3.886
 3648SOL    HW211844   2.108   6.446   3.912
 3649SOL     OW11845   3.703   3.086   3.086
 3649SOL    HW111846   3.745   3.081   2.995
 3649SOL    HW211847   3.615   3.041   3.084
 3650SOL     OW11848   5.780   5.976   2.177
 3650SOL    HW111849   5.746   6.069   2.161
 3650SOL    HW211850   5.706   5.919   2.213
 3651SOL     OW11851   1.879   5.290   1.553
 3651SOL    HW111852   1.925   5.286   1.641
 3651SOL    HW211853   1.782   5.307   1.566
 3652SOL     OW11854   4.443   6.425   3.930
 3652SOL    HW111855   4.431   6.478   3.846
 3652SOL    HW211856   4.493   6.341   3.910
 3653SOL     OW11857   0.220   3.661   3.321
 3653SOL    HW111858   0.135   3.701   3.287
 3653SOL    HW211859   0.247   3.706   3.406
 3654SOL     OW11860   2.284   6.887   1.757
 3654SOL    HW111861   2.286   6.842   1.667
 3654SOL    HW211862   2.260   6.820   1.827
 3655SOL     OW11863   6.306   0.998   3.699
 3655SOL    HW111864   6.368   0.986   3.776
 3655SOL    HW211865   6.355   1.040   3.623
 3656SOL     OW11866   1.648   1.495   2.629
 3656SOL    HW111867   1.722   1.506   2.695
 3656SOL    HW211868   1.686   1.489   2.537
 3657SOL     OW11869   5.836   5.085   1.113
 3657SOL    HW111870   5.753   5.057   1.161
 3657SOL    HW211871   5.869   5.171   1.152
 3658SOL     OW11872   2.862   4.123   5.514
 3658SOL    HW111873   2.787   4.111   5.580
 3658SOL    HW211874   2.835   4.192   5.446
 3659SOL     OW11875   1.515   3.126   6.982
 3659SOL    HW111876   1.562   3.043   7.011
 3659SOL    HW211877   1.436   3.102   6.926
 3660SOL     OW11878   5.117   3.720   0.965
 3660SOL    HW111879   5.168   3.790   1.015
 3660SOL    HW211880   5.020   3.726   0.990
 3661SOL     OW11881   5.151   0.711   2.536
 3661SOL    HW111882   5.076   0.695   2.473
 3661SOL    HW211883   5.192   0.623   2.562
 3662SOL     OW11884   1.716   6.672   4.486
 3662SOL    HW111885   1.630   6.722   4.487
 3662SOL    HW211886   1.702   6.583   4.442
 3663SOL     OW11887   2.653   2.839   5.816
 3663SOL    HW111888   2.616   2.780   5.743
 3663SOL    HW211889   2.634   2.934   5.794
 3664SOL     OW11890   3.816   0.091   1.833
 3664SOL    HW111891   3.883   0.046   1.892
 3664SOL    HW211892   3.844   0.186   1.819
 3665SOL     OW11893   2.169   1.723   5.239
 3665SOL    HW111894   2.189   1.627   5.261
 3665SOL    HW211895   2.085   1.750   5.287
 3666SOL     OW11896   1.022   4.747   3.030
 3666SOL    HW111897   0.938   4.729   3.081
 3666SOL    HW211898   1.092   4.782   3.093
 3667SOL     OW11899   0.120   0.339   0.123
 3667SOL    HW111900   0.127   0.437   0.142
 3667SOL    HW211901   0.031   0.320   0.081
 3668SOL     OW11902   2.073   0.144   1.063
 3668SOL    HW111903   2.091   0.239   1.035
 3668SOL    HW211904   2.040   0.143   1.157
 3669SOL     OW11905   5.272   1.522   4.276
 3669SOL    HW111906   5.232   1.435   4.302
 3669SOL    HW211907   5.277   1.529   4.176
 3670SOL     OW11908   3.325   4.978   5.991
 3670SOL    HW111909   3.233   5.005   6.018
 3670SOL    HW211910   3.387   5.056   6.001
 3671SOL     OW11911   1.788   1.552   3.079
 3671SOL    HW111912   1.722   1.618   3.043
 3671SOL    HW211913   1.785   1.469   3.023
 3672SOL     OW11914   5.956   5.929   0.119
 3672SOL    HW111915   5.901   6.007   0.089
 3672SOL    HW211916   6.053   5.954   0.118
 3673SOL     OW11917   3.603   6.893   6.130
 3673SOL    HW111918   3.523   6.952   6.121
 3673SOL    HW211919   3.595   6.839   6.214
 3674SOL     OW11920   1.307   6.310   0.948
 3674SOL    HW111921   1.342   6.396   0.911
 3674SOL    HW211922   1.329   6.235   0.886
 3675SOL     OW11923   1.895   2.023   4.146
 3675SOL    HW111924   1.898   2.112   4.193
 3675SOL    HW211925   1.830   2.028   4.070
 3676SOL     OW11926   0.437   4.889   2.652
 3676SOL    HW111927   0.401   4.971   2.607
 3676SOL    HW211928   0.536   4.886   2.641
 3677SOL     OW11929   6.502   1.078   3.322
 3677SOL    HW111930   6.556   1.101   3.241
 3677SOL    HW211931   6.500   0.979   3.334
 3678SOL     OW11932   0.778   2.813   3.909
 3678SOL    HW111933   0.747   2.723   3.881
 3678SOL    HW211934   0.699   2.872   3.926
 3679SOL     OW11935   6.396   1.268   1.758
 3679SOL    HW111936   6.391   1.176   1.796
 3679SOL    HW211937   6.491   1.288   1.732
 3680SOL     OW11938   6.615   3.975   5.106
 3680SOL    HW111939   6.653   4.036   5.035
 3680SOL    HW211940   6.516   3.967   5.093
 3681SOL     OW11941   5.194   0.583   4.645
 3681SOL    HW111942   5.213   0.656   4.580
 3681SOL    HW211943   5.107   0.539   4.622
 3682SOL     OW11944   0.504   2.144   0.114
 3682SOL    HW111945   0.475   2.172   0.022
 3682SOL    HW211946   0.539   2.050   0.110
 3683SOL     OW11947   4.463   6.126   3.989
 3683SOL    HW111948   4.546   6.151   3.940
 3683SOL    HW211949   4.394   6.094   3.924
 3684SOL     OW11950   2.041   3.994   1.974
 3684SOL    HW111951   2.050   4.045   1.888
 3684SOL    HW211952   2.064   3.898   1.958
 3685SOL     OW11953   5.702   5.569   6.156
 3685SOL    HW111954   5.609   5.557   6.191
 3685SOL    HW211955   5.747   5.644   6.204
 3686SOL     OW11956   0.509   4.225   0.492
 3686SOL    HW111957   0.445   4.148   0.492
 3686SOL    HW211958   0.562   4.223   0.577
 3687SOL     OW11959   3.998   1.335   0.923
 3687SOL    HW111960   4.087   1.380   0.926
 3687SOL    HW211961   3.944   1.363   1.003
 3688SOL     OW11962   0.107   2.479   6.563
 3688SOL    HW111963   0.174   2.408   6.541
 3688SOL    HW211964   0.147   2.569   6.547
 3689SOL     OW11965   1.131   6.103   3.649
 3689SOL    HW111966   1.112   6.011   3.683
 3689SOL    HW211967   1.174   6.097   3.559
 3690SOL     OW11968   4.925   4.512   5.904
 3690SOL    HW111969   4.915   4.574   5.982
 3690SOL    HW211970   4.836   4.475   5.879
 3691SOL     OW11971   3.177   3.247   6.541
 3691SOL    HW111972   3.164   3.324   6.478
 3691SOL    HW211973   3.091   3.195   6.548
 3692SOL     OW11974   6.552   0.550   5.146
 3692SOL    HW111975   6.549   0.615   5.070
 3692SOL    HW211976   6.636   0.497   5.142
 3693SOL     OW11977   1.559   1.460   3.768
 3693SOL    HW111978   1.588   1.556   3.765
 3693SOL    HW211979   1.634   1.403   3.801
 3694SOL     OW11980   1.552   4.892   3.485
 3694SOL    HW111981   1.621   4.875   3.556
 3694SOL    HW211982   1.519   4.805   3.449
 3695SOL     OW11983   2.567   2.774   0.891
 3695SOL    HW111984   2.556   2.785   0.989
 3695SOL    HW211985   2.594   2.679   0.870
 3696SOL     OW11986   2.992   5.796   5.765
 3696SOL    HW111987   3.030   5.763   5.678
 3696SOL    HW211988   3.055   5.862   5.806
 3697SOL     OW11989   5.500   0.961   3.247
 3697SOL    HW111990   5.499   0.893   3.173
 3697SOL    HW211991   5.475   0.917   3.333
 3698SOL     OW11992   3.565   0.054   5.745
 3698SOL    HW111993   3.518   6.984   5.745
 3698SOL    HW211994   3.543   0.104   5.662
 3699SOL     OW11995   1.209   5.216   2.386
 3699SOL    HW111996   1.288   5.195   2.445
 3699SOL    HW211997   1.205   5.150   2.311
 3700SOL     OW11998   6.333   6.902   4.118
 3700SOL    HW111999   6.415   6.904   4.061
 3700SOL    HW212000   6.256   6.942   4.068
 3701SOL     OW12001   4.025   1.531   3.580
 3701SOL    HW112002   4.101   1.503   3.521
 3701SOL    HW212003   4.029   1.631   3.592
 3702SOL     OW12004   4.620   1.305   6.265
 3702SOL    HW112005   4.546   1.329   6.202
 3702SOL    HW212006   4.611   1.209   6.292
 3703SOL     OW12007   3.487   4.812   0.741
 3703SOL    HW112008   3.512   4.837   0.835
 3703SOL    HW212009   3.503   4.889   0.680
 3704SOL     OW12010   3.545   6.405   0.728
 3704SOL    HW112011   3.477   6.478   0.731
 3704SOL    HW212012   3.526   6.337   0.798
 3705SOL     OW12013   0.162   1.101   3.831
 3705SOL    HW112014   0.164   1.012   3.784
 3705SOL    HW212015   0.068   1.124   3.855
 3706SOL     OW12016   2.679   2.406   3.067
 3706SOL    HW112017   2.743   2.388   2.993
 3706SOL    HW212018   2.728   2.410   3.154
 3707SOL     OW12019   4.200   2.205   5.394
 3707SOL    HW112020   4.295   2.180   5.378
 3707SOL    HW212021   4.150   2.125   5.428
 3708SOL     OW12022   6.150   6.494   0.551
 3708SOL    HW112023   6.172   6.591   0.544
 3708SOL    HW212024   6.213   6.441   0.494
 3709SOL     OW12025   0.657   6.217   6.546
 3709SOL    HW112026   0.670   6.224   6.645
 3709SOL    HW212027   0.745   6.195   6.503
 3710SOL     OW12028   1.025   5.166   6.164
 3710SOL    HW112029   1.078   5.110   6.100
 3710SOL    HW212030   0.931   5.133   6.168
 3711SOL     OW12031   6.369   4.923   2.190
 3711SOL    HW112032   6.336   4.858   2.122
 3711SOL    HW212033   6.305   4.927   2.267
 3712SOL     OW12034   1.658   0.187   5.351
 3712SOL    HW112035   1.645   0.219   5.445
 3712SOL    HW212036   1.583   0.220   5.293
 3713SOL     OW12037   3.350   4.713   5.960
 3713SOL    HW112038   3.356   4.813   5.958
 3713SOL    HW212039   3.255   4.685   5.972
 3714SOL     OW12040   5.088   2.713   4.429
 3714SOL    HW112041   4.997   2.685   4.459
 3714SOL    HW212042   5.157   2.657   4.476
 3715SOL     OW12043   4.580   4.346   3.986
 3715SOL    HW112044   4.489   4.374   4.016
 3715SOL    HW212045   4.634   4.316   4.065
 3716SOL     OW12046   1.539   1.355   4.732
 3716SOL    HW112047   1.552   1.337   4.829
 3716SOL    HW212048   1.629   1.369   4.689
 3717SOL     OW12049   6.184   0.405   6.716
 3717SOL    HW112050   6.217   0.341   6.785
 3717SOL    HW212051   6.098   0.370   6.676
 3718SOL     OW12052   0.837   6.567   6.125
 3718SOL    HW112053   0.818   6.663   6.108
 3718SOL    HW212054   0.819   6.546   6.221
 3719SOL     OW12055   3.743   4.259   0.513
 3719SOL    HW112056   3.817   4.196   0.538
 3719SOL    HW212057   3.674   4.261   0.586
 3720SOL     OW12058   6.751   1.154   6.354
 3720SOL    HW112059   6.844   1.151   6.390
 3720SOL    HW212060   6.741   1.234   6.295
 3721SOL     OW12061   5.911   2.625   0.291
 3721SOL    HW112062   5.887   2.707   0.238
 3721SOL    HW212063   5.861   2.547   0.254
 3722SOL     OW12064   4.379   5.941   0.547
 3722SOL    HW112065   4.320   5.984   0.479
 3722SOL    HW212066   4.324   5.884   0.607
 3723SOL     OW12067   3.710   1.349   0.428
 3723SOL    HW112068   3.621   1.380   0.462
 3723SOL    HW212069   3.702   1.324   0.332
 3724SOL     OW12070   1.158   3.586   6.526
 3724SOL    HW112071   1.098   3.531   6.468
 3724SOL    HW212072   1.125   3.583   6.620
 3725SOL     OW12073   4.954   6.074   1.925
 3725SOL    HW112074   5.004   5.989   1.906
 3725SOL    HW212075   5.010   6.133   1.983
 3726SOL     OW12076   5.873   3.495   2.073
 3726SOL    HW112077   5.799   3.545   2.118
 3726SOL    HW212078   5.840   3.405   2.044
 3727SOL     OW12079   2.730   2.059   5.492
 3727SOL    HW112080   2.716   2.151   5.454
 3727SOL    HW212081   2.828   2.039   5.498
 3728SOL     OW12082   0.772   3.606   6.638
 3728SOL    HW112083   0.690   3.565   6.678
 3728SOL    HW212084   0.776   3.703   6.661
 3729SOL     OW12085   1.108   3.545   3.483
 3729SOL    HW112086   1.192   3.517   3.530
 3729SOL    HW212087   1.036   3.562   3.551
 3730SOL     OW12088   1.894   6.947   1.070
 3730SOL    HW112089   1.936   0.012   1.034
 3730SOL    HW212090   1.911   6.871   1.007
 3731SOL     OW12091   2.503   6.440   0.168
 3731SOL    HW112092   2.435   6.443   0.096
 3731SOL    HW212093   2.530   6.533   0.194
 3732SOL     OW12094   1.985   3.942   4.233
 3732SOL    HW112095   2.035   3.906   4.312
 3732SOL    HW212096   1.905   3.885   4.217
 3733SOL     OW12097   3.401   3.276   1.652
 3733SOL    HW112098   3.345   3.309   1.728
 3733SOL    HW212099   3.344   3.272   1.569
 3734SOL     OW12100   4.247   1.483   3.447
 3734SOL    HW112101   4.312   1.432   3.391
 3734SOL    HW212102   4.297   1.539   3.514
 3735SOL     OW12103   3.875   2.317   1.647
 3735SOL    HW112104   3.885   2.409   1.610
 3735SOL    HW212105   3.805   2.318   1.719
 3736SOL     OW12106   5.153   0.695   6.101
 3736SOL    HW112107   5.061   0.691   6.063
 3736SOL    HW212108   5.157   0.641   6.185
 3737SOL     OW12109   2.699   6.978   3.640
 3737SOL    HW112110   2.717   6.884   3.668
 3737SOL    HW212111   2.711   6.987   3.541
 3738SOL     OW12112   0.629   0.271   4.106
 3738SOL    HW112113   0.564   0.214   4.057
 3738SOL    HW212114   0.597   0.285   4.200
 3739SOL     OW12115   0.195   3.398   0.780
 3739SOL    HW112116   0.164   3.493   0.780
 3739SOL    HW212117   0.294   3.396   0.763
 3740SOL     OW12118   5.867   0.152   0.283
 3740SOL    HW112119   5.925   0.204   0.220
 3740SOL    HW212120   5.870   0.195   0.373
 3741SOL     OW12121   3.927   0.631   6.870
 3741SOL    HW112122   3.919   0.612   6.968
 3741SOL    HW212123   4.014   0.677   6.853
 3742SOL     OW12124   3.647   3.466   6.408
 3742SOL    HW112125   3.567   3.521   6.385
 3742SOL    HW212126   3.725   3.526   6.424
 3743SOL     OW12127   1.151   6.076   5.764
 3743SOL    HW112128   1.052   6.067   5.763
 3743SOL    HW212129   1.183   6.089   5.858
 3744SOL     OW12130   6.283   4.763   3.482
 3744SOL    HW112131   6.364   4.769   3.541
 3744SOL    HW212132   6.234   4.678   3.501
 3745SOL     OW12133   5.073   4.876   1.543
 3745SOL    HW112134   5.056   4.972   1.565
 3745SOL    HW212135   5.027   4.818   1.610
 3746SOL     OW12136   4.730   1.409   1.045
 3746SOL    HW112137   4.813   1.425   0.990
 3746SOL    HW212138   4.747   1.439   1.139
 3747SOL     OW12139   3.063   6.666   1.254
 3747SOL    HW112140   3.087   6.588   1.197
 3747SOL    HW212141   3.094   6.649   1.348
 3748SOL     OW12142   5.316   0.458   1.961
 3748SOL    HW112143   5.414   0.462   1.940
 3748SOL    HW212144   5.300   0.503   2.050
 3749SOL     OW12145   1.176   0.870   3.927
 3749SOL    HW112146   1.137   0.901   3.841
 3749SOL    HW212147   1.216   0.778   3.915
 3750SOL     OW12148   0.661   3.420   0.107
 3750SOL    HW112149   0.661   3.504   0.161
 3750SOL    HW212150   0.753   3.382   0.104
 3751SOL     OW12151   2.160   5.062   1.415
 3751SOL    HW112152   2.114   5.073   1.503
 3751SOL    HW212153   2.250   5.105   1.419
 3752SOL     OW12154   5.613   5.465   6.519
 3752SOL    HW112155   5.646   5.558   6.501
 3752SOL    HW212156   5.683   5.399   6.491
 3753SOL     OW12157   0.223   1.456   3.483
 3753SOL    HW112158   0.290   1.387   3.511
 3753SOL    HW212159   0.136   1.411   3.462
 3754SOL     OW12160   3.873   1.559   1.343
 3754SOL    HW112161   3.947   1.625   1.357
 3754SOL    HW212162   3.906   1.467   1.365
 3755SOL     OW12163   2.769   6.425   4.422
 3755SOL    HW112164   2.682   6.382   4.445
 3755SOL    HW212165   2.775   6.515   4.467
 3756SOL     OW12166   1.316   6.085   0.770
 3756SOL    HW112167   1.361   6.018   0.830
 3756SOL    HW212168   1.360   6.084   0.680
 3757SOL     OW12169   1.031   4.937   0.000
 3757SOL    HW112170   1.128   4.958   0.014
 3757SOL    HW212171   0.998   4.985   6.938
 3758SOL     OW12172   0.194   5.782   3.941
 3758SOL    HW112173   0.126   5.809   4.009
 3758SOL    HW212174   0.273   5.742   3.988
 3759SOL     OW12175   4.795   0.637   3.488
 3759SOL    HW112176   4.717   0.575   3.484
 3759SOL    HW212177   4.781   0.713   3.425
 3760SOL     OW12178   0.559   1.330   3.406
 3760SOL    HW112179   0.473   1.311   3.453
 3760SOL    HW212180   0.568   1.271   3.326
 3761SOL     OW12181   3.891   1.059   4.541
 3761SOL    HW112182   3.848   0.971   4.523
 3761SOL    HW212183   3.879   1.084   4.637
 3762SOL     OW12184   6.654   2.064   3.266
 3762SOL    HW112185   6.564   2.024   3.287
 3762SOL    HW212186   6.673   2.055   3.168
 3763SOL     OW12187   0.859   6.958   6.389
 3763SOL    HW112188   0.778   6.921   6.435
 3763SOL    HW212189   0.940   6.908   6.418
 3764SOL     OW12190   4.644   1.981   2.537
 3764SOL    HW112191   4.706   1.904   2.525
 3764SOL    HW212192   4.557   1.962   2.490
 3765SOL     OW12193   5.644   3.663   2.073
 3765SOL    HW112194   5.612   3.658   2.168
 3765SOL    HW212195   5.656   3.759   2.047
 3766SOL     OW12196   2.443   2.582   2.375
 3766SOL    HW112197   2.420   2.610   2.468
 3766SOL    HW212198   2.420   2.486   2.362
 3767SOL     OW12199   1.442   6.269   5.588
 3767SOL    HW112200   1.415   6.173   5.580
 3767SOL    HW212201   1.369   6.320   5.633
 3768SOL     OW12202   1.273   6.564   3.888
 3768SOL    HW112203   1.278   6.524   3.797
 3768SOL    HW212204   1.232   6.655   3.883
 3769SOL     OW12205   5.009   4.839   6.016
 3769SOL    HW112206   4.942   4.828   5.943
 3769SOL    HW212207   4.987   4.776   6.091
 3770SOL     OW12208   2.601   0.333   0.324
 3770SOL    HW112209   2.636   0.292   0.409
 3770SOL    HW212210   2.547   0.415   0.347
 3771SOL     OW12211   6.375   6.264   5.641
 3771SOL    HW112212   6.374   6.304   5.733
 3771SOL    HW212213   6.470   6.257   5.609
 3772SOL     OW12214   3.507   5.510   1.665
 3772SOL    HW112215   3.424   5.469   1.704
 3772SOL    HW212216   3.510   5.607   1.688
 3773SOL     OW12217   5.046   4.089   6.834
 3773SOL    HW112218   4.963   4.054   6.878
 3773SOL    HW212219   5.049   4.059   6.739
 3774SOL     OW12220   0.135   4.106   0.814
 3774SOL    HW112221   0.153   4.204   0.808
 3774SOL    HW212222   0.164   4.072   0.904
 3775SOL     OW12223   5.793   6.658   5.252
 3775SOL    HW112224   5.728   6.608   5.195
 3775SOL    HW212225   5.807   6.749   5.214
 3776SOL     OW12226   4.133   2.735   6.636
 3776SOL    HW112227   4.208   2.800   6.623
 3776SOL    HW212228   4.049   2.774   6.599
 3777SOL     OW12229   2.830   5.160   3.463
 3777SOL    HW112230   2.780   5.243   3.438
 3777SOL    HW212231   2.775   5.106   3.527
 3778SOL     OW12232   2.765   5.635   6.543
 3778SOL    HW112233   2.712   5.676   6.469
 3778SOL    HW212234   2.711   5.633   6.626
 3779SOL     OW12235   6.557   5.018   6.384
 3779SOL    HW112236   6.609   5.019   6.298
 3779SOL    HW212237   6.618   4.994   6.459
 3780SOL     OW12238   6.007   1.971   1.585
 3780SOL    HW112239   5.929   1.917   1.551
 3780SOL    HW212240   6.019   2.051   1.526
 3781SOL     OW12241   1.176   0.448   6.685
 3781SOL    HW112242   1.119   0.415   6.610
 3781SOL    HW212243   1.220   0.371   6.731
 3782SOL     OW12244   3.250   5.513   6.847
 3782SOL    HW112245   3.295   5.492   6.761
 3782SOL    HW212246   3.315   5.558   6.908
 3783SOL     OW12247   4.824   5.196   5.534
 3783SOL    HW112248   4.749   5.209   5.469
 3783SOL    HW212249   4.901   5.253   5.506
 3784SOL     OW12250   5.276   4.070   5.434
 3784SOL    HW112251   5.342   4.140   5.404
 3784SOL    HW212252   5.201   4.065   5.367
 3785SOL     OW12253   0.765   3.516   2.644
 3785SOL    HW112254   0.737   3.565   2.561
 3785SOL    HW212255   0.846   3.461   2.624
 3786SOL     OW12256   2.958   2.973   6.233
 3786SOL    HW112257   2.879   2.920   6.204
 3786SOL    HW212258   2.932   3.033   6.309
 3787SOL     OW12259   5.450   5.806   5.720
 3787SOL    HW112260   5.506   5.780   5.798
 3787SOL    HW212261   5.405   5.725   5.682
 3788SOL     OW12262   5.716   2.995   5.862
 3788SOL    HW112263   5.729   2.910   5.912
 3788SOL    HW212264   5.620   3.002   5.834
 3789SOL     OW12265   1.998   4.993   1.636
 3789SOL    HW112266   2.020   4.910   1.687
 3789SOL    HW212267   1.905   4.986   1.599
 3790SOL     OW12268   2.849   0.136   1.744
 3790SOL    HW112269   2.803   0.152   1.832
 3790SOL    HW212270   2.783   0.101   1.678
 3791SOL     OW12271   4.901   0.581   4.035
 3791SOL    HW112272   4.994   0.614   4.048
 3791SOL    HW212273   4.864   0.618   3.950
 3792SOL     OW12274   6.227   0.298   3.684
 3792SOL    HW112275   6.135   0.311   3.646
 3792SOL    HW212276   6.227   0.221   3.748
 3793SOL     OW12277   5.121   3.144   6.800
 3793SOL    HW112278   5.050   3.089   6.756
 3793SOL    HW212279   5.080   3.198   6.873
 3794SOL     OW12280   1.783   5.488   5.370
 3794SOL    HW112281   1.730   5.568   5.341
 3794SOL    HW212282   1.821   5.442   5.289
 3795SOL     OW12283   3.644   6.195   0.587
 3795SOL    HW112284   3.599   6.109   0.610
 3795SOL    HW212285   3.615   6.266   0.651
 3796SOL     OW12286   5.567   0.936   0.429
 3796SOL    HW112287   5.534   0.862   0.370
 3796SOL    HW212288   5.510   1.017   0.418
 3797SOL     OW12289   6.888   1.572   1.196
 3797SOL    HW112290   6.842   1.504   1.140
 3797SOL    HW212291   6.916   1.650   1.138
 3798SOL     OW12292   6.696   3.638   4.238
 3798SOL    HW112293   6.779   3.644   4.294
 3798SOL    HW212294   6.713   3.683   4.150
 3799SOL     OW12295   6.673   2.065   2.460
 3799SOL    HW112296   6.700   2.038   2.368
 3799SOL    HW212297   6.616   2.147   2.456
 3800SOL     OW12298   5.761   3.565   1.802
 3800SOL    HW112299   5.801   3.597   1.888
 3800SOL    HW212300   5.692   3.630   1.772
 3801SOL     OW12301   5.514   1.725   0.565
 3801SOL    HW112302   5.518   1.760   0.471
 3801SOL    HW212303   5.589   1.661   0.580
 3802SOL     OW12304   6.166   3.424   3.595
 3802SOL    HW112305   6.244   3.409   3.656
 3802SOL    HW212306   6.150   3.342   3.541
 3803SOL     OW12307   3.834   4.340   6.565
 3803SOL    HW112308   3.823   4.439   6.557
 3803SOL    HW212309   3.931   4.318   6.578
 3804SOL     OW12310   3.477   6.284   3.285
 3804SOL    HW112311   3.409   6.311   3.218
 3804SOL    HW212312   3.473   6.186   3.300
 3805SOL     OW12313   2.740   1.931   0.169
 3805SOL    HW112314   2.716   1.986   0.090
 3805SOL    HW212315   2.661   1.922   0.229
 3806SOL     OW12316   1.966   3.960   2.243
 3806SOL    HW112317   1.953   3.968   2.144
 3806SOL    HW212318   2.060   3.932   2.262
 3807SOL     OW12319   6.872   4.006   4.362
 3807SOL    HW112320   6.876   3.954   4.277
 3807SOL    HW212321   6.961   4.046   4.382
 3808SOL     OW12322   2.511   6.151   5.888
 3808SOL    HW112323   2.594   6.119   5.933
 3808SOL    HW212324   2.435   6.150   5.952
 3809SOL     OW12325   6.149   2.117   1.273
 3809SOL    HW112326   6.093   2.060   1.213
 3809SOL    HW212327   6.090   2.184   1.320
 3810SOL     OW12328   4.585   1.949   3.911
 3810SOL    HW112329   4.620   1.884   3.844
 3810SOL    HW212330   4.491   1.973   3.888
 3811SOL     OW12331   0.322   6.250   5.681
 3811SOL    HW112332   0.240   6.306   5.672
 3811SOL    HW212333   0.385   6.292   5.745
 3812SOL     OW12334   4.363   5.904   0.118
 3812SOL    HW112335   4.429   5.856   0.175
 3812SOL    HW212336   4.341   5.992   0.159
 3813SOL     OW12337   6.956   3.081   6.595
 3813SOL    HW112338   6.879   3.143   6.615
 3813SOL    HW212339   6.939   2.992   6.638
 3814SOL     OW12340   6.998   0.563   4.686
 3814SOL    HW112341   6.958   0.593   4.773
 3814SOL    HW212342   6.940   0.492   4.645
 3815SOL     OW12343   4.685   1.799   5.552
 3815SOL    HW112344   4.645   1.778   5.642
 3815SOL    HW212345   4.638   1.747   5.481
 3816SOL     OW12346   6.242   6.436   1.846
 3816SOL    HW112347   6.277   6.374   1.916
 3816SOL    HW212348   6.292   6.523   1.851
 3817SOL     OW12349   3.845   4.039   2.934
 3817SOL    HW112350   3.750   4.060   2.911
 3817SOL    HW212351   3.906   4.082   2.867
 3818SOL     OW12352   4.731   5.689   2.231
 3818SOL    HW112353   4.779   5.647   2.308
 3818SOL    HW212354   4.717   5.786   2.249
 3819SOL     OW12355   6.196   2.631   2.719
 3819SOL    HW112356   6.173   2.554   2.660
 3819SOL    HW212357   6.290   2.659   2.701
 3820SOL     OW12358   3.268   6.377   6.025
 3820SOL    HW112359   3.337   6.356   6.094
 3820SOL    HW212360   3.314   6.398   5.938
 3821SOL     OW12361   1.291   6.717   1.231
 3821SOL    HW112362   1.298   6.808   1.272
 3821SOL    HW212363   1.244   6.655   1.294
 3822SOL     OW12364   6.242   6.303   1.560
 3822SOL    HW112365   6.214   6.207   1.558
 3822SOL    HW212366   6.232   6.339   1.653
 3823SOL     OW12367   5.919   5.785   4.358
 3823SOL    HW112368   6.004   5.773   4.307
 3823SOL    HW212369   5.878   5.696   4.377
 3824SOL     OW12370   1.838   2.416   0.851
 3824SOL    HW112371   1.920   2.376   0.894
 3824SOL    HW212372   1.861   2.447   0.759
 3825SOL     OW12373   0.337   4.583   5.613
 3825SOL    HW112374   0.356   4.544   5.523
 3825SOL    HW212375   0.279   4.664   5.603
 3826SOL     OW12376   4.681   4.193   3.803
 3826SOL    HW112377   4.737   4.114   3.827
 3826SOL    HW212378   4.658   4.245   3.885
 3827SOL     OW12379   0.408   1.342   0.236
 3827SOL    HW112380   0.468   1.341   0.316
 3827SOL    HW212381   0.323   1.389   0.260
 3828SOL     OW12382   3.039   3.373   5.694
 3828SOL    HW112383   2.945   3.349   5.671
 3828SOL    HW212384   3.072   3.442   5.630
 3829SOL     OW12385   6.727   2.289   1.839
 3829SOL    HW112386   6.693   2.380   1.866
 3829SOL    HW212387   6.817   2.299   1.797
 3830SOL     OW12388   5.277   6.176   3.583
 3830SOL    HW112389   5.261   6.160   3.486
 3830SOL    HW212390   5.193   6.208   3.626
 3831SOL     OW12391   5.576   2.254   4.230
 3831SOL    HW112392   5.479   2.262   4.255
 3831SOL    HW212393   5.590   2.296   4.141
 3832SOL     OW12394   6.582   1.511   4.170
 3832SOL    HW112395   6.528   1.514   4.254
 3832SOL    HW212396   6.556   1.587   4.111
 3833SOL     OW12397   2.335   3.398   5.889
 3833SOL    HW112398   2.361   3.402   5.986
 3833SOL    HW212399   2.394   3.333   5.842
 3834SOL     OW12400   4.841   4.839   0.948
 3834SOL    HW112401   4.757   4.826   0.895
 3834SOL    HW212402   4.825   4.906   1.021
 3835SOL     OW12403   4.824   5.269   4.546
 3835SOL    HW112404   4.800   5.307   4.457
 3835SOL    HW212405   4.912   5.306   4.575
 3836SOL     OW12406   0.224   0.388   5.084
 3836SOL    HW112407   0.190   0.387   4.990
 3836SOL    HW212408   0.271   0.302   5.103
 3837SOL     OW12409   4.930   4.218   5.487
 3837SOL    HW112410   5.002   4.188   5.550
 3837SOL    HW212411   4.954   4.307   5.448
 3838SOL     OW12412   0.784   1.662   3.544
 3838SOL    HW112413   0.760   1.713   3.626
 3838SOL    HW212414   0.881   1.639   3.545
 3839SOL     OW12415   4.727   1.542   3.893
 3839SOL    HW112416   4.818   1.514   3.861
 3839SOL    HW212417   4.677   1.462   3.927
 3840SOL     OW12418   3.959   1.635   5.800
 3840SOL    HW112419   3.883   1.581   5.837
 3840SOL    HW212420   3.953   1.637   5.700
 3841SOL     OW12421   5.750   3.917   2.733
 3841SOL    HW112422   5.772   3.827   2.694
 3841SOL    HW212423   5.834   3.960   2.766
 3842SOL     OW12424   1.656   4.259   4.918
 3842SOL    HW112425   1.745   4.276   4.961
 3842SOL    HW212426   1.643   4.323   4.842
 3843SOL     OW12427   5.629   1.721   0.026
 3843SOL    HW112428   5.692   1.643   0.021
 3843SOL    HW212429   5.538   1.692   7.015
 3844SOL     OW12430   5.695   6.392   0.760
 3844SOL    HW112431   5.647   6.304   0.751
 3844SOL    HW212432   5.793   6.376   0.766
 3845SOL     OW12433   2.025   5.542   0.454
 3845SOL    HW112434   2.059   5.529   0.360
 3845SOL    HW212435   1.967   5.465   0.479
 3846SOL     OW12436   6.650   3.319   2.851
 3846SOL    HW112437   6.744   3.297   2.825
 3846SOL    HW212438   6.637   3.418   2.850
 3847SOL     OW12439   0.488   0.784   6.854
 3847SOL    HW112440   0.502   0.857   6.787
 3847SOL    HW212441   0.507   0.696   6.810
 3848SOL     OW12442   5.616   4.819   2.721
 3848SOL    HW112443   5.699   4.763   2.728
 3848SOL    HW212444   5.537   4.767   2.753
 3849SOL     OW12445   0.263   2.999   5.556
 3849SOL    HW112446   0.176   3.002   5.508
 3849SOL    HW212447   0.250   2.956   5.646
 3850SOL     OW12448   3.443   3.017   1.348
 3850SOL    HW112449   3.410   2.965   1.269
 3850SOL    HW212450   3.430   3.115   1.332
 3851SOL     OW12451   6.984   5.646   2.345
 3851SOL    HW112452   7.008   5.671   2.439
 3851SOL    HW212453   0.048   5.616   2.297
 3852SOL     OW12454   3.307   0.357   5.110
 3852SOL    HW112455   3.238   0.312   5.054
 3852SOL    HW212456   3.267   0.438   5.153
 3853SOL     OW12457   1.843   1.246   3.165
 3853SOL    HW112458   1.744   1.245   3.147
 3853SOL    HW212459   1.861   1.204   3.253
 3854SOL     OW12460   0.309   1.250   1.779
 3854SOL    HW112461   0.290   1.337   1.733
 3854SOL    HW212462   0.366   1.267   1.860
 3855SOL     OW12463   3.057   5.815   6.779
 3855SOL    HW112464   3.126   5.842   6.846
 3855SOL    HW212465   3.008   5.735   6.814
 3856SOL     OW12466   6.873   3.018   6.316
 3856SOL    HW112467   6.915   3.030   6.406
 3856SOL    HW212468   6.796   2.954   6.323
 3857SOL     OW12469   0.819   0.316   5.264
 3857SOL    HW112470   0.864   0.402   5.284
 3857SOL    HW212471   0.720   0.329   5.264
 3858SOL     OW12472   3.299   0.676   4.939
 3858SOL    HW112473   3.341   0.764   4.962
 3858SOL    HW212474   3.269   0.631   5.023
 3859SOL     OW12475   5.248   6.953   3.017
 3859SOL    HW112476   5.176   6.982   3.080
 3859SOL    HW212477   5.262   6.854   3.024
 3860SOL     OW12478   1.422   6.432   4.739
 3860SOL    HW112479   1.365   6.438   4.657
 3860SOL    HW212480   1.475   6.347   4.736
 3861SOL     OW12481   2.574   5.893   2.216
 3861SOL    HW112482   2.657   5.918   2.265
 3861SOL    HW212483   2.499   5.881   2.282
 3862SOL     OW12484   1.911   0.697   4.105
 3862SOL    HW112485   2.006   0.699   4.073
 3862SOL    HW212486   1.895   0.610   4.153
 3863SOL     OW12487   4.083   0.188   1.182
 3863SOL    HW112488   4.021   0.172   1.105
 3863SOL    HW212489   4.057   0.272   1.229
 3864SOL     OW12490   1.064   0.910   4.736
 3864SOL    HW112491   1.008   0.860   4.802
 3864SOL    HW212492   1.132   0.849   4.696
 3865SOL     OW12493   5.274   1.157   0.924
 3865SOL    HW112494   5.339   1.094   0.883
 3865SOL    HW212495   5.204   1.105   0.974
 3866SOL     OW12496   3.582   1.165   6.509
 3866SOL    HW112497   3.674   1.205   6.512
 3866SOL    HW212498   3.579   1.085   6.569
 3867SOL     OW12499   6.656   3.332   1.998
 3867SOL    HW112500   6.632   3.374   2.086
 3867SOL    HW212501   6.636   3.234   2.002
 3868SOL     OW12502   3.953   0.779   0.289
 3868SOL    HW112503   3.874   0.792   0.229
 3868SOL    HW212504   3.924   0.732   0.372
 3869SOL     OW12505   3.308   1.022   3.578
 3869SOL    HW112506   3.299   1.117   3.548
 3869SOL    HW212507   3.217   0.981   3.589
 3870SOL     OW12508   6.897   1.558   5.815
 3870SOL    HW112509   6.828   1.597   5.876
 3870SOL    HW212510   6.886   1.597   5.724
 3871SOL     OW12511   2.516   4.892   4.174
 3871SOL    HW112512   2.586   4.947   4.130
 3871SOL    HW212513   2.535   4.795   4.158
 3872SOL     OW12514   2.986   3.924   5.380
 3872SOL    HW112515   2.927   3.974   5.442
 3872SOL    HW212516   3.056   3.986   5.343
 3873SOL     OW12517   5.399   2.443   6.298
 3873SOL    HW112518   5.479   2.392   6.268
 3873SOL    HW212519   5.329   2.379   6.330
 3874SOL     OW12520   2.019   0.908   1.994
 3874SOL    HW112521   1.953   0.970   1.952
 3874SOL    HW212522   2.105   0.912   1.944
 3875SOL     OW12523   0.568   1.021   6.658
 3875SOL    HW112524   0.473   1.049   6.643
 3875SOL    HW212525   0.591   0.947   6.595
 3876SOL     OW12526   3.194   5.379   2.020
 3876SOL    HW112527   3.266   5.320   2.058
 3876SOL    HW212528   3.129   5.403   2.092
 3877SOL     OW12529   0.927   1.440   6.000
 3877SOL    HW112530   1.000   1.478   5.943
 3877SOL    HW212531   0.892   1.357   5.958
 3878SOL     OW12532   4.274   1.794   4.911
 3878SOL    HW112533   4.302   1.698   4.916
 3878SOL    HW212534   4.194   1.803   4.851
 3879SOL     OW12535   5.345   5.324   6.467
 3879SOL    HW112536   5.412   5.379   6.517
 3879SOL    HW212537   5.305   5.255   6.528
 3880SOL     OW12538   5.049   5.003   3.831
 3880SOL    HW112539   5.056   4.909   3.800
 3880SOL    HW212540   5.113   5.018   3.907
 3881SOL     OW12541   1.853   2.633   0.110
 3881SOL    HW112542   1.819   2.543   0.138
 3881SOL    HW212543   1.950   2.640   0.134
 3882SOL     OW12544   0.397   2.462   6.118
 3882SOL    HW112545   0.323   2.498   6.175
 3882SOL    HW212546   0.428   2.533   6.055
 3883SOL     OW12547   3.823   6.091   4.475
 3883SOL    HW112548   3.725   6.100   4.454
 3883SOL    HW212549   3.860   6.181   4.498
 3884SOL     OW12550   6.722   2.993   1.971
 3884SOL    HW112551   6.821   3.003   1.977
 3884SOL    HW212552   6.693   3.005   1.876
 3885SOL     OW12553   4.205   5.537   2.196
 3885SOL    HW112554   4.289   5.482   2.192
 3885SOL    HW212555   4.143   5.506   2.125
 3886SOL     OW12556   3.167   5.001   6.305
 3886SOL    HW112557   3.142   5.097   6.320
 3886SOL    HW212558   3.089   4.951   6.269
 3887SOL     OW12559   1.813   5.723   1.714
 3887SOL    HW112560   1.775   5.768   1.633
 3887SOL    HW212561   1.912   5.716   1.705
 3888SOL     OW12562   5.303   4.579   3.332
 3888SOL    HW112563   5.355   4.624   3.405
 3888SOL    HW212564   5.365   4.523   3.277
 3889SOL     OW12565   5.781   3.256   0.532
 3889SOL    HW112566   5.816   3.343   0.496
 3889SOL    HW212567   5.702   3.227   0.479
 3890SOL     OW12568   4.839   3.978   3.930
 3890SOL    HW112569   4.764   3.912   3.931
 3890SOL    HW212570   4.831   4.038   4.010
 3891SOL     OW12571   4.547   4.944   3.906
 3891SOL    HW112572   4.644   4.940   3.883
 3891SOL    HW212573   4.500   5.007   3.844
 3892SOL     OW12574   0.130   2.237   1.383
 3892SOL    HW112575   0.173   2.232   1.474
 3892SOL    HW212576   0.135   2.331   1.349
 3893SOL     OW12577   3.351   2.947   3.344
 3893SOL    HW112578   3.448   2.921   3.344
 3893SOL    HW212579   3.323   2.971   3.437
 3894SOL     OW12580   4.413   0.808   5.981
 3894SOL    HW112581   4.469   0.890   5.981
 3894SOL    HW212582   4.316   0.833   5.986
 3895SOL     OW12583   0.491   7.018   4.070
 3895SOL    HW112584   0.549   0.046   4.137
 3895SOL    HW212585   0.397   7.016   4.103
 3896SOL     OW12586   1.899   1.741   6.330
 3896SOL    HW112587   1.862   1.654   6.362
 3896SOL    HW212588   1.963   1.725   6.254
 3897SOL     OW12589   3.123   5.891   0.859
 3897SOL    HW112590   3.108   5.837   0.776
 3897SOL    HW212591   3.166   5.834   0.929
 3898SOL     OW12592   3.879   3.007   1.148
 3898SOL    HW112593   3.883   2.913   1.116
 3898SOL    HW212594   3.898   3.069   1.072
 3899SOL     OW12595   3.417   6.787   5.235
 3899SOL    HW112596   3.483   6.734   5.181
 3899SOL    HW212597   3.331   6.736   5.242
 3900SOL     OW12598   4.190   4.777   2.934
 3900SOL    HW112599   4.187   4.877   2.937
 3900SOL    HW212600   4.256   4.747   2.865
 3901SOL     OW12601   3.182   1.648   6.660
 3901SOL    HW112602   3.222   1.701   6.586
 3901SOL    HW212603   3.082   1.659   6.660
 3902SOL     OW12604   5.102   2.907   2.505
 3902SOL    HW112605   5.119   2.854   2.588
 3902SOL    HW212606   5.170   2.883   2.436
 3903SOL     OW12607   3.722   4.932   6.748
 3903SOL    HW112608   3.796   4.921   6.681
 3903SOL    HW212609   3.659   4.855   6.741
 3904SOL     OW12610   1.656   6.533   0.723
 3904SOL    HW112611   1.633   6.630   0.716
 3904SOL    HW212612   1.753   6.520   0.702
 3905SOL     OW12613   0.104   6.207   5.196
 3905SOL    HW112614   0.182   6.227   5.255
 3905SOL    HW212615   0.023   6.256   5.229
 3906SOL     OW12616   0.702   6.035   5.415
 3906SOL    HW112617   0.623   6.008   5.361
 3906SOL    HW212618   0.753   6.106   5.367
 3907SOL     OW12619   5.609   1.987   3.909
 3907SOL    HW112620   5.525   2.040   3.921
 3907SOL    HW212621   5.660   2.024   3.831
 3908SOL     OW12622   2.726   4.014   5.922
 3908SOL    HW112623   2.692   3.920   5.915
 3908SOL    HW212624   2.696   4.066   5.843
 3909SOL     OW12625   4.260   5.851   3.865
 3909SOL    HW112626   4.351   5.810   3.871
 3909SOL    HW212627   4.195   5.797   3.919
 3910SOL     OW12628   3.856   4.033   2.582
 3910SOL    HW112629   3.898   4.014   2.493
 3910SOL    HW212630   3.759   4.054   2.569
 3911SOL     OW12631   5.768   2.040   5.558
 3911SOL    HW112632   5.846   1.983   5.533
 3911SOL    HW212633   5.797   2.136   5.560
 3912SOL     OW12634   5.893   3.049   6.294
 3912SOL    HW112635   5.797   3.073   6.310
 3912SOL    HW212636   5.952   3.111   6.345
 3913SOL     OW12637   1.293   6.964   1.404
 3913SOL    HW112638   1.254   6.972   1.496
 3913SOL    HW212639   1.287   0.033   1.357
 3914SOL     OW12640   3.105   5.802   5.490
 3914SOL    HW112641   3.107   5.899   5.470
 3914SOL    HW212642   3.055   5.754   5.417
 3915SOL     OW12643   4.960   5.828   1.810
 3915SOL    HW112644   4.904   5.764   1.863
 3915SOL    HW212645   4.913   5.850   1.724
 3916SOL     OW12646   6.975   0.094   3.484
 3916SOL    HW112647   6.899   0.130   3.539
 3916SOL    HW212648   7.008   0.009   3.525
 3917SOL     OW12649   3.118   6.985   6.812
 3917SOL    HW112650   3.027   0.004   6.828
 3917SOL    HW212651   3.134   6.908   6.873
 3918SOL     OW12652   6.028   3.437   6.955
 3918SOL    HW112653   6.015   3.456   6.858
 3918SOL    HW212654   5.957   3.483   7.008
 3919SOL     OW12655   3.379   6.610   0.735
 3919SOL    HW112656   3.340   6.668   0.663
 3919SOL    HW212657   3.308   6.586   0.801
 3920SOL     OW12658   2.482   0.771   7.012
 3920SOL    HW112659   2.524   0.715   6.941
 3920SOL    HW212660   2.547   0.786   0.068
 3921SOL     OW12661   0.692   3.437   0.963
 3921SOL    HW112662   0.635   3.518   0.956
 3921SOL    HW212663   0.713   3.403   0.871
 3922SOL     OW12664   0.469   5.116   1.245
 3922SOL    HW112665   0.450   5.176   1.167
 3922SOL    HW212666   0.382   5.087   1.287
 3923SOL     OW12667   0.195   5.609   0.401
 3923SOL    HW112668   0.188   5.708   0.392
 3923SOL    HW212669   0.143   5.565   0.328
 3924SOL     OW12670   6.431   5.130   3.969
 3924SOL    HW112671   6.502   5.183   3.922
 3924SOL    HW212672   6.349   5.186   3.980
 3925SOL     OW12673   0.710   4.874   1.235
 3925SOL    HW112674   0.731   4.866   1.332
 3925SOL    HW212675   0.612   4.858   1.220
 3926SOL     OW12676   2.732   5.838   3.006
 3926SOL    HW112677   2.739   5.802   3.099
 3926SOL    HW212678   2.824   5.857   2.971
 3927SOL     OW12679   2.437   3.605   6.522
 3927SOL    HW112680   2.364   3.651   6.573
 3927SOL    HW212681   2.454   3.655   6.437
 3928SOL     OW12682   0.037   6.441   6.197
 3928SOL    HW112683   0.112   6.470   6.257
 3928SOL    HW212684   6.971   6.436   6.250
 3929SOL     OW12685   1.224   1.786   4.785
 3929SOL    HW112686   1.216   1.725   4.864
 3929SOL    HW212687   1.247   1.732   4.703
 3930SOL     OW12688   3.190   1.871   4.387
 3930SOL    HW112689   3.237   1.915   4.311
 3930SOL    HW212690   3.251   1.804   4.431
 3931SOL     OW12691   3.908   6.748   2.116
 3931SOL    HW112692   3.958   6.661   2.119
 3931SOL    HW212693   3.883   6.775   2.209
 3932SOL     OW12694   2.046   3.582   3.635
 3932SOL    HW112695   2.083   3.571   3.543
 3932SOL    HW212696   1.947   3.589   3.631
 3933SOL     OW12697   2.092   1.232   5.996
 3933SOL    HW112698   2.137   1.280   5.920
 3933SOL    HW212699   2.139   1.145   6.012
 3934SOL     OW12700   4.984   5.552   0.097
 3934SOL    HW112701   5.081   5.552   0.076
 3934SOL    HW212702   4.971   5.536   0.195
 3935SOL     OW12703   4.773   6.777   2.298
 3935SOL    HW112704   4.674   6.788   2.299
 3935SOL    HW212705   4.817   6.866   2.306
 3936SOL     OW12706   0.889   4.219   2.430
 3936SOL    HW112707   0.845   4.208   2.341
 3936SOL    HW212708   0.892   4.131   2.477
 3937SOL     OW12709   0.555   2.088   2.537
 3937SOL    HW112710   0.464   2.047   2.532
 3937SOL    HW212711   0.605   2.049   2.615
 3938SOL     OW12712   5.975   3.233   3.003
 3938SOL    HW112713   5.987   3.143   3.043
 3938SOL    HW212714   5.888   3.236   2.954
 3939SOL     OW12715   2.164   2.527   1.850
 3939SOL    HW112716   2.163   2.620   1.887
 3939SOL    HW212717   2.223   2.525   1.769
 3940SOL     OW12718   4.462   4.601   0.856
 3940SOL    HW112719   4.411   4.621   0.772
 3940SOL    HW212720   4.557   4.580   0.832
 3941SOL     OW12721   5.509   3.192   0.414
 3941SOL    HW112722   5.460   3.236   0.339
 3941SOL    HW212723   5.445   3.174   0.489
 3942SOL     OW12724   6.353   6.656   0.941
 3942SOL    HW112725   6.420   6.621   0.877
 3942SOL    HW212726   6.276   6.593   0.948
 3943SOL     OW12727   6.936   2.854   4.765
 3943SOL    HW112728   6.931   2.850   4.865
 3943SOL    HW212729   0.011   2.873   4.737
 3944SOL     OW12730   5.519   2.071   5.059
 3944SOL    HW112731   5.456   2.046   4.985
 3944SOL    HW212732   5.607   2.027   5.044
 3945SOL     OW12733   0.255   6.832   0.889
 3945SOL    HW112734   0.250   6.860   0.985
 3945SOL    HW212735   0.169   6.854   0.843
 3946SOL     OW12736   3.481   5.040   3.779
 3946SOL    HW112737   3.483   5.030   3.878
 3946SOL    HW212738   3.569   5.075   3.747
 3947SOL     OW12739   0.083   4.212   5.962
 3947SOL    HW112740   7.006   4.183   5.970
 3947SOL    HW212741   0.114   4.200   5.868
 3948SOL     OW12742   6.254   3.391   1.522
 3948SOL    HW112743   6.225   3.431   1.436
 3948SOL    HW212744   6.328   3.445   1.561
 3949SOL     OW12745   5.579   6.156   2.636
 3949SOL    HW112746   5.671   6.173   2.600
 3949SOL    HW212747   5.558   6.059   2.627
 3950SOL     OW12748   1.628   6.206   0.081
 3950SOL    HW112749   1.562   6.132   0.094
 3950SOL    HW212750   1.719   6.174   0.110
 3951SOL     OW12751   5.334   5.492   2.016
 3951SOL    HW112752   5.255   5.523   1.962
 3951SOL    HW212753   5.411   5.474   1.955
 3952SOL     OW12754   6.035   1.147   6.738
 3952SOL    HW112755   6.112   1.205   6.765
 3952SOL    HW212756   6.008   1.168   6.645
 3953SOL     OW12757   3.001   3.571   2.292
 3953SOL    HW112758   3.034   3.486   2.334
 3953SOL    HW212759   3.075   3.639   2.294
 3954SOL     OW12760   4.342   4.163   5.971
 3954SOL    HW112761   4.324   4.229   5.899
 3954SOL    HW212762   4.279   4.086   5.964
 3955SOL     OW12763   3.615   1.133   5.085
 3955SOL    HW112764   3.637   1.227   5.110
 3955SOL    HW212765   3.549   1.096   5.150
 3956SOL     OW12766   2.233   1.529   0.806
 3956SOL    HW112767   2.280   1.456   0.756
 3956SOL    HW212768   2.251   1.617   0.762
 3957SOL     OW12769   4.350   2.038   3.828
 3957SOL    HW112770   4.254   2.013   3.828
 3957SOL    HW212771   4.374   2.079   3.739
 3958SOL     OW12772   5.170   6.730   6.211
 3958SOL    HW112773   5.184   6.641   6.255
 3958SOL    HW212774   5.081   6.767   6.236
 3959SOL     OW12775   5.782   5.798   6.303
 3959SOL    HW112776   5.775   5.897   6.293
 3959SOL    HW212777   5.784   5.774   6.400
 3960SOL     OW12778   6.030   2.403   4.592
 3960SOL    HW112779   5.963   2.357   4.533
 3960SOL    HW212780   6.011   2.381   4.688
 3961SOL     OW12781   5.175   6.853   4.565
 3961SOL    HW112782   5.114   6.846   4.644
 3961SOL    HW212783   5.229   6.937   4.572
 3962SOL     OW12784   6.622   5.278   4.634
 3962SOL    HW112785   6.656   5.308   4.545
 3962SOL    HW212786   6.552   5.342   4.666
 3963SOL     OW12787   3.374   6.479   1.790
 3963SOL    HW112788   3.450   6.528   1.746
 3963SOL    HW212789   3.318   6.543   1.841
 3964SOL     OW12790   5.965   2.395   3.733
 3964SOL    HW112791   5.964   2.490   3.704
 3964SOL    HW212792   6.026   2.384   3.812
 3965SOL     OW12793   4.940   4.213   4.480
 3965SOL    HW112794   4.922   4.240   4.574
 3965SOL    HW212795   4.904   4.121   4.464
 3966SOL     OW12796   2.932   6.662   6.610
 3966SOL    HW112797   2.833   6.675   6.606
 3966SOL    HW212798   2.978   6.748   6.590
 3967SOL     OW12799   1.495   4.150   3.953
 3967SOL    HW112800   1.533   4.117   4.039
 3967SOL    HW212801   1.565   4.146   3.882
 3968SOL     OW12802   4.270   6.571   0.707
 3968SOL    HW112803   4.336   6.636   0.745
 3968SOL    HW212804   4.263   6.493   0.769
 3969SOL     OW12805   0.121   4.466   3.359
 3969SOL    HW112806   0.159   4.558   3.365
 3969SOL    HW212807   0.183   4.408   3.305
 3970SOL     OW12808   4.579   6.376   1.300
 3970SOL    HW112809   4.671   6.409   1.278
 3970SOL    HW212810   4.543   6.430   1.377
 3971SOL     OW12811   0.791   5.917   3.779
 3971SOL    HW112812   0.772   5.924   3.682
 3971SOL    HW212813   0.828   6.004   3.812
 3972SOL     OW12814   1.524   3.674   0.249
 3972SOL    HW112815   1.433   3.713   0.233
 3972SOL    HW212816   1.532   3.588   0.199
 3973SOL     OW12817   1.702   4.568   0.765
 3973SOL    HW112818   1.790   4.521   0.757
 3973SOL    HW212819   1.683   4.585   0.862
 3974SOL     OW12820   3.138   0.569   6.281
 3974SOL    HW112821   3.125   0.652   6.227
 3974SOL    HW212822   3.055   0.550   6.334
 3975SOL     OW12823   6.887   2.963   0.008
 3975SOL    HW112824   6.857   2.869   0.019
 3975SOL    HW212825   6.945   2.990   0.084
 3976SOL     OW12826   1.490   4.330   2.753
 3976SOL    HW112827   1.405   4.293   2.788
 3976SOL    HW212828   1.470   4.400   2.684
 3977SOL     OW12829   0.815   2.597   6.950
 3977SOL    HW112830   0.734   2.645   6.915
 3977SOL    HW212831   0.785   2.518   7.005
 3978SOL     OW12832   5.530   4.097   3.984
 3978SOL    HW112833   5.617   4.145   3.993
 3978SOL    HW212834   5.474   4.114   4.066
 3979SOL     OW12835   3.777   5.831   6.217
 3979SOL    HW112836   3.831   5.901   6.264
 3979SOL    HW212837   3.801   5.741   6.253
 3980SOL     OW12838   5.456   4.731   5.840
 3980SOL    HW112839   5.387   4.777   5.785
 3980SOL    HW212840   5.422   4.640   5.866
 3981SOL     OW12841   4.535   5.476   6.595
 3981SOL    HW112842   4.544   5.509   6.501
 3981SOL    HW212843   4.582   5.539   6.657
 3982SOL     OW12844   2.427   6.350   3.023
 3982SOL    HW112845   2.494   6.281   3.052
 3982SOL    HW212846   2.349   6.349   3.086
 3983SOL     OW12847   3.316   6.193   4.465
 3983SOL    HW112848   3.249   6.259   4.431
 3983SOL    HW212849   3.321   6.199   4.565
 3984SOL     OW12850   6.164   2.969   3.001
 3984SOL    HW112851   6.214   3.037   2.948
 3984SOL    HW212852   6.104   2.917   2.940
 3985SOL     OW12853   4.163   5.408   6.196
 3985SOL    HW112854   4.081   5.411   6.252
 3985SOL    HW212855   4.140   5.375   6.104
 3986SOL     OW12856   5.315   0.418   2.849
 3986SOL    HW112857   5.223   0.390   2.822
 3986SOL    HW212858   5.360   0.343   2.897
 3987SOL     OW12859   3.618   5.458   5.666
 3987SOL    HW112860   3.590   5.362   5.669
 3987SOL    HW212861   3.578   5.501   5.585
 3988SOL     OW12862   4.785   5.818   0.948
 3988SOL    HW112863   4.865   5.877   0.941
 3988SOL    HW212864   4.704   5.867   0.913
 3989SOL     OW12865   6.490   2.687   1.569
 3989SOL    HW112866   6.559   2.668   1.499
 3989SOL    HW212867   6.474   2.785   1.575
 3990SOL     OW12868   6.724   1.486   1.540
 3990SOL    HW112869   6.669   1.563   1.571
 3990SOL    HW212870   6.690   1.456   1.450
 3991SOL     OW12871   5.107   1.390   3.446
 3991SOL    HW112872   5.037   1.368   3.379
 3991SOL    HW212873   5.125   1.489   3.445
 3992SOL     OW12874   4.779   1.601   1.742
 3992SOL    HW112875   4.685   1.614   1.775
 3992SOL    HW212876   4.809   1.684   1.695
 3993SOL     OW12877   1.123   3.280   1.352
 3993SOL    HW112878   1.158   3.366   1.315
 3993SOL    HW212879   1.071   3.298   1.435
 3994SOL     OW12880   2.616   5.599   4.342
 3994SOL    HW112881   2.596   5.612   4.245
 3994SOL    HW212882   2.666   5.513   4.355
 3995SOL     OW12883   1.570   2.542   3.831
 3995SOL    HW112884   1.482   2.545   3.784
 3995SOL    HW212885   1.636   2.490   3.777
 3996SOL     OW12886   6.650   5.599   4.687
 3996SOL    HW112887   6.707   5.535   4.737
 3996SOL    HW212888   6.688   5.615   4.597
 3997SOL     OW12889   2.756   0.494   2.965
 3997SOL    HW112890   2.701   0.573   2.937
 3997SOL    HW212891   2.782   0.441   2.884
 3998SOL     OW12892   4.492   2.082   3.034
 3998SOL    HW112893   4.457   2.067   2.942
 3998SOL    HW212894   4.545   2.167   3.036
 3999SOL     OW12895   4.396   1.528   4.425
 3999SOL    HW112896   4.361   1.586   4.498
 3999SOL    HW212897   4.430   1.584   4.350
 4000SOL     OW12898   5.040   5.384   4.852
 4000SOL    HW112899   4.993   5.449   4.792
 4000SOL    HW212900   5.137   5.406   4.855
 4001SOL     OW12901   0.471   1.827   4.820
 4001SOL    HW112902   0.519   1.740   4.831
 4001SOL    HW212903   0.486   1.862   4.727
 4002SOL     OW12904   2.087   4.953   1.965
 4002SOL    HW112905   1.998   4.924   1.928
 4002SOL    HW212906   2.073   4.999   2.052
 4003SOL     OW12907   3.883   2.168   4.614
 4003SOL    HW112908   3.871   2.137   4.520
 4003SOL    HW212909   3.793   2.186   4.654
 4004SOL     OW12910   6.880   1.848   6.497
 4004SOL    HW112911   6.791   1.819   6.463
 4004SOL    HW212912   6.921   1.774   6.551
 4005SOL     OW12913   6.617   4.877   4.485
 4005SOL    HW112914   6.610   4.781   4.509
 4005SOL    HW212915   6.539   4.927   4.524
 4006SOL     OW12916   3.920   6.470   3.300
 4006SOL    HW112917   3.941   6.474   3.398
 4006SOL    HW212918   3.983   6.406   3.255
 4007SOL     OW12919   0.643   1.683   5.565
 4007SOL    HW112920   0.621   1.616   5.494
 4007SOL    HW212921   0.739   1.710   5.558
 4008SOL     OW12922   3.036   1.395   5.080
 4008SOL    HW112923   3.075   1.396   4.988
 4008SOL    HW212924   3.108   1.379   5.147
 4009SOL     OW12925   3.579   4.059   2.875
 4009SOL    HW112926   3.540   3.967   2.884
 4009SOL    HW212927   3.513   4.127   2.907
 4010SOL     OW12928   1.344   3.041   0.645
 4010SOL    HW112929   1.399   3.001   0.718
 4010SOL    HW212930   1.362   2.993   0.559
 4011SOL     OW12931   0.586   1.193   0.621
 4011SOL    HW112932   0.677   1.166   0.651
 4011SOL    HW212933   0.592   1.274   0.564
 4012SOL     OW12934   5.269   3.282   3.394
 4012SOL    HW112935   5.349   3.225   3.415
 4012SOL    HW212936   5.189   3.223   3.381
 4013SOL     OW12937   5.235   2.752   2.677
 4013SOL    HW112938   5.182   2.711   2.752
 4013SOL    HW212939   5.306   2.687   2.647
 4014SOL     OW12940   5.420   4.614   2.751
 4014SOL    HW112941   5.432   4.541   2.819
 4014SOL    HW212942   5.383   4.575   2.667
 4015SOL     OW12943   5.220   3.351   0.391
 4015SOL    HW112944   5.221   3.350   0.490
 4015SOL    HW212945   5.284   3.419   0.357
 4016SOL     OW12946   3.086   6.431   4.585
 4016SOL    HW112947   3.110   6.416   4.681
 4016SOL    HW212948   3.017   6.364   4.556
 4017SOL     OW12949   5.514   6.695   6.516
 4017SOL    HW112950   5.568   6.763   6.565
 4017SOL    HW212951   5.420   6.727   6.507
 4018SOL     OW12952   2.120   0.159   6.799
 4018SOL    HW112953   2.156   0.214   6.723
 4018SOL    HW212954   2.131   0.208   6.885
 4019SOL     OW12955   5.285   6.747   4.306
 4019SOL    HW112956   5.224   6.792   4.241
 4019SOL    HW212957   5.264   6.778   4.398
 4020SOL     OW12958   5.592   1.816   4.226
 4020SOL    HW112959   5.637   1.905   4.233
 4020SOL    HW212960   5.633   1.764   4.151
 4021SOL     OW12961   4.968   3.550   0.088
 4021SOL    HW112962   4.968   3.504   0.176
 4021SOL    HW212963   4.878   3.541   0.045
 4022SOL     OW12964   5.712   0.744   1.282
 4022SOL    HW112965   5.649   0.669   1.260
 4022SOL    HW212966   5.731   0.798   1.200
 4023SOL     OW12967   6.459   5.894   5.414
 4023SOL    HW112968   6.533   5.936   5.362
 4023SOL    HW212969   6.390   5.963   5.435
 4024SOL     OW12970   4.263   4.463   5.483
 4024SOL    HW112971   4.182   4.516   5.509
 4024SOL    HW212972   4.317   4.515   5.416
 4025SOL     OW12973   6.891   3.882   4.112
 4025SOL    HW112974   6.823   3.867   4.040
 4025SOL    HW212975   6.929   3.795   4.141
 4026SOL     OW12976   6.119   1.231   5.136
 4026SOL    HW112977   6.121   1.330   5.153
 4026SOL    HW212978   6.031   1.206   5.096
 4027SOL     OW12979   2.540   5.028   2.723
 4027SOL    HW112980   2.523   4.951   2.785
 4027SOL    HW212981   2.578   4.993   2.637
 4028SOL     OW12982   1.453   5.604   2.977
 4028SOL    HW112983   1.360   5.576   2.953
 4028SOL    HW212984   1.515   5.527   2.966
 4029SOL     OW12985   1.695   4.089   3.483
 4029SOL    HW112986   1.639   4.125   3.409
 4029SOL    HW212987   1.789   4.076   3.450
 4030SOL     OW12988   2.496   1.064   6.328
 4030SOL    HW112989   2.511   0.986   6.267
 4030SOL    HW212990   2.425   1.123   6.290
 4031SOL     OW12991   6.651   5.970   4.418
 4031SOL    HW112992   6.732   5.942   4.367
 4031SOL    HW212993   6.607   6.047   4.371
 4032SOL     OW12994   3.588   6.622   5.096
 4032SOL    HW112995   3.671   6.571   5.114
 4032SOL    HW212996   3.595   6.668   5.007
 4033SOL     OW12997   3.641   3.903   6.494
 4033SOL    HW112998   3.719   3.950   6.451
 4033SOL    HW212999   3.651   3.906   6.593
 4034SOL     OW13000   5.880   3.559   5.059
 4034SOL    HW113001   5.897   3.465   5.029
 4034SOL    HW213002   5.784   3.581   5.045
 4035SOL     OW13003   0.122   6.384   2.281
 4035SOL    HW113004   0.036   6.339   2.258
 4035SOL    HW213005   0.194   6.316   2.290
 4036SOL     OW13006   5.897   5.947   1.396
 4036SOL    HW113007   5.907   5.923   1.299
 4036SOL    HW213008   5.925   5.869   1.452
 4037SOL     OW13009   0.698   3.780   6.344
 4037SOL    HW113010   0.762   3.843   6.300
 4037SOL    HW213011   0.634   3.745   6.276
 4038SOL     OW13012   6.313   5.404   3.443
 4038SOL    HW113013   6.247   5.450   3.502
 4038SOL    HW213014   6.270   5.326   3.399
 4039SOL     OW13015   2.724   4.875   1.267
 4039SOL    HW113016   2.629   4.892   1.293
 4039SOL    HW213017   2.783   4.888   1.347
 4040SOL     OW13018   3.107   6.799   0.023
 4040SOL    HW113019   3.032   6.749   6.997
 4040SOL    HW213020   3.088   6.808   0.120
 4041SOL     OW13021   0.371   6.255   3.296
 4041SOL    HW113022   0.443   6.322   3.315
 4041SOL    HW213023   0.323   6.233   3.380
 4042SOL     OW13024   5.574   5.189   1.541
 4042SOL    HW113025   5.551   5.157   1.449
 4042SOL    HW213026   5.536   5.125   1.609
 4043SOL     OW13027   6.937   3.327   1.087
 4043SOL    HW113028   0.008   3.303   1.050
 4043SOL    HW213029   6.948   3.355   1.182
 4044SOL     OW13030   5.449   4.793   2.481
 4044SOL    HW113031   5.402   4.709   2.508
 4044SOL    HW213032   5.531   4.804   2.537
 4045SOL     OW13033   2.688   5.326   5.349
 4045SOL    HW113034   2.762   5.267   5.318
 4045SOL    HW213035   2.717   5.374   5.432
 4046SOL     OW13036   0.970   3.737   0.279
 4046SOL    HW113037   0.874   3.713   0.291
 4046SOL    HW213038   0.995   3.726   0.182
 4047SOL     OW13039   2.938   3.663   3.256
 4047SOL    HW113040   2.955   3.761   3.258
 4047SOL    HW213041   2.928   3.633   3.160
 4048SOL     OW13042   5.185   2.414   0.263
 4048SOL    HW113043   5.225   2.366   0.184
 4048SOL    HW213044   5.257   2.465   0.309
 4049SOL     OW13045   6.894   6.228   6.750
 4049SOL    HW113046   6.975   6.274   6.786
 4049SOL    HW213047   6.918   6.137   6.717
 4050SOL     OW13048   2.343   1.118   2.579
 4050SOL    HW113049   2.286   1.193   2.545
 4050SOL    HW213050   2.376   1.140   2.671
 4051SOL     OW13051   2.608   3.787   1.062
 4051SOL    HW113052   2.656   3.874   1.053
 4051SOL    HW213053   2.554   3.770   0.980
 4052SOL     OW13054   1.178   0.236   0.727
 4052SOL    HW113055   1.102   0.180   0.692
 4052SOL    HW213056   1.152   0.276   0.815
 4053SOL     OW13057   2.399   5.483   2.415
 4053SOL    HW113058   2.484   5.459   2.462
 4053SOL    HW213059   2.420   5.522   2.325
 4054SOL     OW13060   5.197   1.349   6.411
 4054SOL    HW113061   5.272   1.283   6.398
 4054SOL    HW213062   5.211   1.397   6.498
 4055SOL     OW13063   4.556   3.672   6.346
 4055SOL    HW113064   4.516   3.594   6.297
 4055SOL    HW213065   4.499   3.753   6.331
 4056SOL     OW13066   4.336   2.900   6.894
 4056SOL    HW113067   4.426   2.856   6.887
 4056SOL    HW213068   4.307   2.930   6.803
 4057SOL     OW13069   6.468   2.663   0.687
 4057SOL    HW113070   6.507   2.721   0.758
 4057SOL    HW213071   6.540   2.604   0.649
 4058SOL     OW13072   0.643   3.706   4.154
 4058SOL    HW113073   0.719   3.647   4.179
 4058SOL    HW213074   0.669   3.765   4.078
 4059SOL     OW13075   0.113   1.991   4.969
 4059SOL    HW113076   0.211   1.973   4.964
 4059SOL    HW213077   0.095   2.084   4.935
 4060SOL     OW13078   2.169   6.925   6.016
 4060SOL    HW113079   2.126   6.842   6.052
 4060SOL    HW213080   2.266   6.907   5.997
 4061SOL     OW13081   2.150   2.812   1.597
 4061SOL    HW113082   2.225   2.763   1.552
 4061SOL    HW213083   2.076   2.827   1.532
 4062SOL     OW13084   2.744   0.833   3.314
 4062SOL    HW113085   2.727   0.926   3.345
 4062SOL    HW213086   2.779   0.834   3.221
 4063SOL     OW13087   3.663   6.520   6.212
 4063SOL    HW113088   3.733   6.463   6.253
 4063SOL    HW213089   3.643   6.597   6.273
 4064SOL     OW13090   6.232   6.733   4.769
 4064SOL    HW113091   6.307   6.799   4.760
 4064SOL    HW213092   6.154   6.777   4.812
 4065SOL     OW13093   1.090   4.431   5.714
 4065SOL    HW113094   1.098   4.464   5.809
 4065SOL    HW213095   0.993   4.422   5.691
 4066SOL     OW13096   4.833   4.490   2.185
 4066SOL    HW113097   4.901   4.538   2.241
 4066SOL    HW213098   4.742   4.516   2.216
 4067SOL     OW13099   5.221   0.522   1.371
 4067SOL    HW113100   5.251   0.475   1.288
 4067SOL    HW213101   5.215   0.621   1.354
 4068SOL     OW13102   5.214   0.843   4.524
 4068SOL    HW113103   5.280   0.917   4.541
 4068SOL    HW213104   5.203   0.829   4.426
 4069SOL     OW13105   6.785   6.219   0.933
 4069SOL    HW113106   6.757   6.142   0.875
 4069SOL    HW213107   6.817   6.185   1.021
 4070SOL     OW13108   6.784   3.843   2.396
 4070SOL    HW113109   6.872   3.842   2.443
 4070SOL    HW213110   6.744   3.934   2.401
 4071SOL     OW13111   2.758   6.951   4.737
 4071SOL    HW113112   2.710   0.012   4.701
 4071SOL    HW213113   2.838   6.931   4.680
 4072SOL     OW13114   0.338   0.162   4.466
 4072SOL    HW113115   0.345   0.066   4.439
 4072SOL    HW213116   0.283   0.169   4.549
 4073SOL     OW13117   2.584   4.463   1.844
 4073SOL    HW113118   2.602   4.453   1.746
 4073SOL    HW213119   2.669   4.490   1.891
 4074SOL     OW13120   0.206   2.936   1.788
 4074SOL    HW113121   0.291   2.938   1.839
 4074SOL    HW213122   0.219   2.980   1.699
 4075SOL     OW13123   6.634   0.586   3.466
 4075SOL    HW113124   6.659   0.644   3.388
 4075SOL    HW213125   6.574   0.637   3.527
 4076SOL     OW13126   1.845   3.754   3.357
 4076SOL    HW113127   1.827   3.656   3.364
 4076SOL    HW213128   1.812   3.800   3.439
 4077SOL     OW13129   3.963   0.642   1.764
 4077SOL    HW113130   4.008   0.664   1.851
 4077SOL    HW213131   3.927   0.726   1.723
 4078SOL     OW13132   4.774   4.560   2.548
 4078SOL    HW113133   4.750   4.587   2.641
 4078SOL    HW213134   4.831   4.631   2.506
 4079SOL     OW13135   4.316   1.237   3.079
 4079SOL    HW113136   4.401   1.231   3.027
 4079SOL    HW213137   4.240   1.256   3.017
 4080SOL     OW13138   3.644   4.109   4.344
 4080SOL    HW113139   3.677   4.102   4.438
 4080SOL    HW213140   3.710   4.068   4.281
 4081SOL     OW13141   2.829   0.182   0.235
 4081SOL    HW113142   2.861   0.227   0.151
 4081SOL    HW213143   2.738   0.217   0.258
 4082SOL     OW13144   1.949   1.455   5.757
 4082SOL    HW113145   1.881   1.402   5.707
 4082SOL    HW213146   1.903   1.512   5.826
 4083SOL     OW13147   5.621   4.200   2.360
 4083SOL    HW113148   5.616   4.164   2.453
 4083SOL    HW213149   5.672   4.136   2.302
 4084SOL     OW13150   3.760   5.866   3.107
 4084SOL    HW113151   3.664   5.884   3.128
 4084SOL    HW213152   3.801   5.947   3.065
 4085SOL     OW13153   1.732   4.369   2.406
 4085SOL    HW113154   1.809   4.310   2.383
 4085SOL    HW213155   1.742   4.458   2.362
 4086SOL     OW13156   6.055   5.044   5.033
 4086SOL    HW113157   6.000   5.128   5.031
 4086SOL    HW213158   6.149   5.067   5.007
 4087SOL     OW13159   1.204   1.390   1.483
 4087SOL    HW113160   1.109   1.386   1.451
 4087SOL    HW213161   1.225   1.306   1.533
 4088SOL     OW13162   0.283   2.482   4.989
 4088SOL    HW113163   0.314   2.478   4.894
 4088SOL    HW213164   0.355   2.448   5.049
 4089SOL     OW13165   6.748   6.681   2.699
 4089SOL    HW113166   6.800   6.727   2.772
 4089SOL    HW213167   6.808   6.665   2.620
 4090SOL     OW13168   3.595   2.462   5.383
 4090SOL    HW113169   3.613   2.380   5.329
 4090SOL    HW213170   3.506   2.500   5.357
 4091SOL     OW13171   4.270   6.910   3.515
 4091SOL    HW113172   4.240   6.958   3.597
 4091SOL    HW213173   4.266   6.972   3.437
 4092SOL     OW13174   4.516   1.935   6.553
 4092SOL    HW113175   4.544   1.843   6.526
 4092SOL    HW213176   4.594   1.997   6.547
 4093SOL     OW13177   5.777   4.463   1.304
 4093SOL    HW113178   5.815   4.418   1.223
 4093SOL    HW213179   5.834   4.440   1.384
 4094SOL     OW13180   6.194   6.092   0.149
 4094SOL    HW113181   6.206   6.092   0.050
 4094SOL    HW213182   6.161   6.181   0.179
 4095SOL     OW13183   1.352   5.260   0.088
 4095SOL    HW113184   1.397   5.180   0.048
 4095SOL    HW213185   1.407   5.295   0.163
 4096SOL     OW13186   0.911   6.635   5.868
 4096SOL    HW113187   0.903   6.626   5.967
 4096SOL    HW213188   1.002   6.605   5.838
 4097SOL     OW13189   1.773   3.891   5.901
 4097SOL    HW113190   1.865   3.929   5.892
 4097SOL    HW213191   1.711   3.961   5.938
 4098SOL     OW13192   1.597   5.826   1.892
 4098SOL    HW113193   1.653   5.801   1.813
 4098SOL    HW213194   1.608   5.923   1.912
 4099SOL     OW13195   0.096   2.482   5.762
 4099SOL    HW113196   0.139   2.432   5.838
 4099SOL    HW213197   0.014   2.529   5.795
 4100SOL     OW13198   2.110   0.978   3.460
 4100SOL    HW113199   2.186   0.940   3.409
 4100SOL    HW213200   2.103   1.076   3.442
 4101SOL     OW13201   5.661   6.024   5.996
 4101SOL    HW113202   5.668   6.064   6.087
 4101SOL    HW213203   5.692   6.091   5.928
 4102SOL     OW13204   2.864   5.197   0.680
 4102SOL    HW113205   2.849   5.227   0.586
 4102SOL    HW213206   2.778   5.162   0.718
 4103SOL     OW13207   2.311   5.200   2.385
 4103SOL    HW113208   2.214   5.177   2.379
 4103SOL    HW213209   2.322   5.299   2.387
 4104SOL     OW13210   2.392   5.575   5.410
 4104SOL    HW113211   2.397   5.482   5.373
 4104SOL    HW213212   2.470   5.591   5.471
 4105SOL     OW13213   3.975   0.345   1.853
 4105SOL    HW113214   3.995   0.418   1.919
 4105SOL    HW213215   4.005   0.374   1.762
 4106SOL     OW13216   1.654   6.678   2.854
 4106SOL    HW113217   1.586   6.724   2.797
 4106SOL    HW213218   1.608   6.630   2.929
 4107SOL     OW13219   2.425   2.218   0.904
 4107SOL    HW113220   2.524   2.208   0.907
 4107SOL    HW213221   2.393   2.267   0.985
 4108SOL     OW13222   0.867   5.442   5.125
 4108SOL    HW113223   0.887   5.395   5.211
 4108SOL    HW213224   0.871   5.541   5.138
 4109SOL     OW13225   5.491   0.141   5.287
 4109SOL    HW113226   5.508   0.240   5.279
 4109SOL    HW213227   5.394   0.125   5.300
 4110SOL     OW13228   4.853   2.245   0.877
 4110SOL    HW113229   4.910   2.259   0.796
 4110SOL    HW213230   4.879   2.313   0.947
 4111SOL     OW13231   6.325   4.597   4.328
 4111SOL    HW113232   6.324   4.683   4.379
 4111SOL    HW213233   6.316   4.616   4.230
 4112SOL     OW13234   3.890   4.919   5.190
 4112SOL    HW113235   3.981   4.877   5.198
 4112SOL    HW213236   3.843   4.912   5.278
 4113SOL     OW13237   5.412   6.181   6.043
 4113SOL    HW113238   5.354   6.113   5.999
 4113SOL    HW213239   5.508   6.161   6.023
 4114SOL     OW13240   6.320   1.359   3.561
 4114SOL    HW113241   6.355   1.434   3.617
 4114SOL    HW213242   6.227   1.336   3.591
 4115SOL     OW13243   4.664   0.240   4.645
 4115SOL    HW113244   4.697   0.175   4.714
 4115SOL    HW213245   4.680   0.202   4.554
 4116SOL     OW13246   5.426   3.303   3.119
 4116SOL    HW113247   5.347   3.289   3.177
 4116SOL    HW213248   5.411   3.381   3.059
 4117SOL     OW13249   0.708   2.968   2.790
 4117SOL    HW113250   0.610   2.950   2.782
 4117SOL    HW213251   0.755   2.938   2.707
 4118SOL     OW13252   0.909   1.051   1.703
 4118SOL    HW113253   0.928   1.150   1.704
 4118SOL    HW213254   0.866   1.024   1.789
 4119SOL     OW13255   6.288   1.077   4.410
 4119SOL    HW113256   6.266   1.128   4.327
 4119SOL    HW213257   6.386   1.087   4.429
 4120SOL     OW13258   1.940   0.067   0.304
 4120SOL    HW113259   2.010   0.026   0.246
 4120SOL    HW213260   1.901   0.147   0.257
 4121SOL     OW13261   6.633   0.234   1.298
 4121SOL    HW113262   6.624   0.216   1.201
 4121SOL    HW213263   6.544   0.226   1.343
 4122SOL     OW13264   0.948   4.373   3.387
 4122SOL    HW113265   0.942   4.446   3.455
 4122SOL    HW213266   0.856   4.345   3.361
 4123SOL     OW13267   5.698   4.378   1.926
 4123SOL    HW113268   5.609   4.423   1.937
 4123SOL    HW213269   5.771   4.447   1.926
 4124SOL     OW13270   5.724   6.094   0.466
 4124SOL    HW113271   5.666   6.173   0.446
 4124SOL    HW213272   5.687   6.013   0.421
 4125SOL     OW13273   0.872   2.806   0.171
 4125SOL    HW113274   0.827   2.767   0.091
 4125SOL    HW213275   0.901   2.733   0.232
 4126SOL     OW13276   1.838   4.337   3.133
 4126SOL    HW113277   1.800   4.369   3.046
 4126SOL    HW213278   1.785   4.258   3.165
 4127SOL     OW13279   4.842   2.669   4.191
 4127SOL    HW113280   4.877   2.762   4.194
 4127SOL    HW213281   4.757   2.663   4.243
 4128SOL     OW13282   6.287   2.770   6.305
 4128SOL    HW113283   6.238   2.684   6.316
 4128SOL    HW213284   6.239   2.828   6.239
 4129SOL     OW13285   3.301   6.909   2.011
 4129SOL    HW113286   3.321   6.978   2.081
 4129SOL    HW213287   3.381   6.895   1.954
 4130SOL     OW13288   4.907   0.967   0.042
 4130SOL    HW113289   4.856   0.908   0.106
 4130SOL    HW213290   4.901   0.929   6.969
 4131SOL     OW13291   5.421   5.881   4.547
 4131SOL    HW113292   5.453   5.975   4.550
 4131SOL    HW213293   5.391   5.859   4.454
 4132SOL     OW13294   0.038   3.453   2.330
 4132SOL    HW113295   0.125   3.408   2.351
 4132SOL    HW213296   7.009   3.475   2.415
 4133SOL     OW13297   5.396   6.183   3.836
 4133SOL    HW113298   5.358   6.185   3.744
 4133SOL    HW213299   5.440   6.270   3.856
 4134SOL     OW13300   2.129   2.851   0.982
 4134SOL    HW113301   2.168   2.759   0.973
 4134SOL    HW213302   2.141   2.901   0.896
 4135SOL     OW13303   6.194   0.492   0.791
 4135SOL    HW113304   6.120   0.549   0.825
 4135SOL    HW213305   6.207   0.413   0.851
 4136SOL     OW13306   0.645   5.232   0.145
 4136SOL    HW113307   0.672   5.139   0.171
 4136SOL    HW213308   0.697   5.260   0.065
 4137SOL     OW13309   0.530   2.151   5.122
 4137SOL    HW113310   0.462   2.223   5.137
 4137SOL    HW213311   0.535   2.092   5.202
 4138SOL     OW13312   5.642   6.435   6.595
 4138SOL    HW113313   5.589   6.502   6.646
 4138SOL    HW213314   5.736   6.467   6.586
 4139SOL     OW13315   1.234   4.185   1.937
 4139SOL    HW113316   1.194   4.117   1.998
 4139SOL    HW213317   1.263   4.265   1.990
 4140SOL     OW13318   2.533   6.797   0.756
 4140SOL    HW113319   2.443   6.755   0.755
 4140SOL    HW213320   2.602   6.727   0.776
 4141SOL     OW13321   4.931   0.063   6.083
 4141SOL    HW113322   4.866   0.119   6.135
 4141SOL    HW213323   4.881   0.001   6.023
 4142SOL     OW13324   0.134   6.852   1.820
 4142SOL    HW113325   0.078   6.803   1.753
 4142SOL    HW213326   0.104   6.828   1.913
 4143SOL     OW13327   6.466   3.722   6.797
 4143SOL    HW113328   6.446   3.662   6.719
 4143SOL    HW213329   6.385   3.775   6.820
 4144SOL     OW13330   4.983   0.542   1.533
 4144SOL    HW113331   5.047   0.518   1.460
 4144SOL    HW213332   5.011   0.498   1.618
 4145SOL     OW13333   4.493   0.921   1.169
 4145SOL    HW113334   4.427   0.855   1.131
 4145SOL    HW213335   4.498   1.001   1.108
 4146SOL     OW13336   3.136   1.396   1.915
 4146SOL    HW113337   3.235   1.389   1.925
 4146SOL    HW213338   3.101   1.317   1.865
 4147SOL     OW13339   5.347   4.249   0.210
 4147SOL    HW113340   5.304   4.201   0.287
 4147SOL    HW213341   5.277   4.285   0.149
 4148SOL     OW13342   3.230   0.967   6.194
 4148SOL    HW113343   3.271   0.959   6.104
 4148SOL    HW213344   3.301   0.992   6.261
 4149SOL     OW13345   2.009   2.381   6.205
 4149SOL    HW113346   2.058   2.468   6.220
 4149SOL    HW213347   1.965   2.353   6.291
 4150SOL     OW13348   0.113   1.482   1.282
 4150SOL    HW113349   0.188   1.514   1.224
 4150SOL    HW213350   0.026   1.515   1.245
 4151SOL     OW13351   2.862   5.450   4.429
 4151SOL    HW113352   2.853   5.491   4.519
 4151SOL    HW213353   2.940   5.490   4.382
 4152SOL     OW13354   2.794   4.293   1.344
 4152SOL    HW113355   2.714   4.303   1.403
 4152SOL    HW213356   2.767   4.308   1.249
 4153SOL     OW13357   5.732   6.831   0.239
 4153SOL    HW113358   5.656   6.895   0.246
 4153SOL    HW213359   5.734   6.772   0.320
 4154SOL     OW13360   0.811   6.536   3.387
 4154SOL    HW113361   0.805   6.634   3.404
 4154SOL    HW213362   0.890   6.517   3.328
 4155SOL     OW13363   5.248   0.958   2.451
 4155SOL    HW113364   5.295   0.950   2.363
 4155SOL    HW213365   5.208   0.870   2.476
 4156SOL     OW13366   0.838   5.822   5.979
 4156SOL    HW113367   0.793   5.755   5.921
 4156SOL    HW213368   0.821   5.799   6.075
 4157SOL     OW13369   4.313   6.250   0.510
 4157SOL    HW113370   4.302   6.349   0.523
 4157SOL    HW213371   4.361   6.211   0.589
 4158SOL     OW13372   6.784   0.872   6.597
 4158SOL    HW113373   6.693   0.886   6.559
 4158SOL    HW213374   6.808   0.949   6.657
 4159SOL     OW13375   3.305   0.837   4.195
 4159SOL    HW113376   3.378   0.905   4.188
 4159SOL    HW213377   3.276   0.810   4.103
 4160SOL     OW13378   1.400   0.533   5.814
 4160SOL    HW113379   1.452   0.616   5.797
 4160SOL    HW213380   1.461   0.464   5.855
 4161SOL     OW13381   3.363   3.721   5.324
 4161SOL    HW113382   3.294   3.649   5.315
 4161SOL    HW213383   3.378   3.739   5.422
 4162SOL     OW13384   4.531   6.812   1.215
 4162SOL    HW113385   4.501   6.724   1.180
 4162SOL    HW213386   4.463   6.882   1.194
 4163SOL     OW13387   3.676   6.175   1.476
 4163SOL    HW113388   3.634   6.089   1.503
 4163SOL    HW213389   3.674   6.183   1.376
 4164SOL     OW13390   5.778   1.240   6.964
 4164SOL    HW113391   5.864   1.189   6.970
 4164SOL    HW213392   5.711   1.200   0.008
 4165SOL     OW13393   3.360   1.195   4.670
 4165SOL    HW113394   3.269   1.235   4.665
 4165SOL    HW213395   3.356   1.108   4.718
 4166SOL     OW13396   5.540   1.755   2.375
 4166SOL    HW113397   5.556   1.778   2.471
 4166SOL    HW213398   5.604   1.805   2.318
 4167SOL     OW13399   3.757   6.432   4.825
 4167SOL    HW113400   3.810   6.348   4.836
 4167SOL    HW213401   3.715   6.434   4.735
 4168SOL     OW13402   5.612   3.387   6.894
 4168SOL    HW113403   5.608   3.287   6.893
 4168SOL    HW213404   5.680   3.418   6.828
 4169SOL     OW13405   5.348   4.578   6.888
 4169SOL    HW113406   5.249   4.574   6.904
 4169SOL    HW213407   5.367   4.645   6.816
 4170SOL     OW13408   0.906   3.192   5.060
 4170SOL    HW113409   0.840   3.255   5.021
 4170SOL    HW213410   0.905   3.106   5.009
 4171SOL     OW13411   0.134   0.544   6.203
 4171SOL    HW113412   0.154   0.447   6.193
 4171SOL    HW213413   0.167   0.576   6.292
 4172SOL     OW13414   3.622   3.205   0.173
 4172SOL    HW113415   3.583   3.292   0.143
 4172SOL    HW213416   3.582   3.130   0.121
 4173SOL     OW13417   5.735   1.140   5.893
 4173SOL    HW113418   5.716   1.077   5.968
 4173SOL    HW213419   5.732   1.091   5.806
 4174SOL     OW13420   2.262   6.771   3.663
 4174SOL    HW113421   2.228   6.837   3.730
 4174SOL    HW213422   2.305   6.819   3.587
 4175SOL     OW13423   1.835   3.383   6.164
 4175SOL    HW113424   1.890   3.435   6.098
 4175SOL    HW213425   1.896   3.336   6.228
 4176SOL     OW13426   4.449   6.954   5.232
 4176SOL    HW113427   4.485   6.914   5.148
 4176SOL    HW213428   4.517   7.018   5.270
 4177SOL     OW13429   5.321   6.503   4.239
 4177SOL    HW113430   5.304   6.599   4.259
 4177SOL    HW213431   5.417   6.491   4.215
 4178SOL     OW13432   3.142   6.474   0.840
 4178SOL    HW113433   3.190   6.393   0.805
 4178SOL    HW213434   3.101   6.452   0.928
 4179SOL     OW13435   3.770   1.667   7.002
 4179SOL    HW113436   3.789   1.743   6.941
 4179SOL    HW213437   3.680   1.678   0.025
 4180SOL     OW13438   4.104   4.191   6.865
 4180SOL    HW113439   4.079   4.278   6.906
 4180SOL    HW213440   4.037   4.121   6.892
 4181SOL     OW13441   4.901   6.068   5.769
 4181SOL    HW113442   4.979   6.106   5.719
 4181SOL    HW213443   4.838   6.142   5.793
 4182SOL     OW13444   6.592   5.143   5.415
 4182SOL    HW113445   6.572   5.239   5.397
 4182SOL    HW213446   6.566   5.120   5.508
 4183SOL     OW13447   5.650   2.605   6.961
 4183SOL    HW113448   5.667   2.612   0.041
 4183SOL    HW213449   5.589   2.678   6.932
 4184SOL     OW13450   3.433   6.020   3.340
 4184SOL    HW113451   3.441   5.948   3.272
 4184SOL    HW213452   3.455   5.983   3.431
 4185SOL     OW13453   4.384   4.565   3.561
 4185SOL    HW113454   4.421   4.474   3.582
 4185SOL    HW213455   4.450   4.616   3.506
 4186SOL     OW13456   2.038   4.786   0.790
 4186SOL    HW113457   2.082   4.795   0.879
 4186SOL    HW213458   1.942   4.814   0.798
 4187SOL     OW13459   1.367   3.735   6.100
 4187SOL    HW113460   1.295   3.683   6.054
 4187SOL    HW213461   1.326   3.808   6.154
 4188SOL     OW13462   5.210   0.446   5.914
 4188SOL    HW113463   5.209   0.346   5.905
 4188SOL    HW213464   5.116   0.479   5.922
 4189SOL     OW13465   3.347   5.191   3.551
 4189SOL    HW113466   3.415   5.143   3.606
 4189SOL    HW213467   3.386   5.212   3.461
 4190SOL     OW13468   6.405   5.512   1.427
 4190SOL    HW113469   6.493   5.556   1.415
 4190SOL    HW213470   6.334   5.581   1.439
 4191SOL     OW13471   4.937   2.595   5.937
 4191SOL    HW113472   4.929   2.685   5.978
 4191SOL    HW213473   4.888   2.528   5.994
 4192SOL     OW13474   1.846   3.504   6.466
 4192SOL    HW113475   1.749   3.480   6.462
 4192SOL    HW213476   1.862   3.590   6.418
 4193SOL     OW13477   5.380   6.457   1.572
 4193SOL    HW113478   5.381   6.507   1.485
 4193SOL    HW213479   5.460   6.397   1.577
 4194SOL     OW13480   5.557   0.005   6.993
 4194SOL    HW113481   5.604   0.022   0.061
 4194SOL    HW213482   5.581   0.076   6.927
 4195SOL     OW13483   2.065   6.147   0.744
 4195SOL    HW113484   2.084   6.120   0.650
 4195SOL    HW213485   1.967   6.138   0.762
 4196SOL     OW13486   6.241   3.237   2.929
 4196SOL    HW113487   6.233   3.207   2.833
 4196SOL    HW213488   6.162   3.292   2.953
 4197SOL     OW13489   4.152   0.779   6.815
 4197SOL    HW113490   4.140   0.833   6.898
 4197SOL    HW213491   4.153   0.840   6.736
 4198SOL     OW13492   6.641   1.760   2.296
 4198SOL    HW113493   6.674   1.847   2.258
 4198SOL    HW213494   6.640   1.690   2.224
 4199SOL     OW13495   1.486   3.501   0.010
 4199SOL    HW113496   1.577   3.461   0.003
 4199SOL    HW213497   1.431   3.449   0.076
 4200SOL     OW13498   5.212   1.451   2.819
 4200SOL    HW113499   5.125   1.422   2.778
 4200SOL    HW213500   5.222   1.408   2.908
 4201SOL     OW13501   5.020   0.420   5.386
 4201SOL    HW113502   4.954   0.405   5.313
 4201SOL    HW213503   5.016   0.515   5.416
 4202SOL     OW13504   4.516   4.186   1.391
 4202SOL    HW113505   4.530   4.241   1.473
 4202SOL    HW213506   4.423   4.200   1.357
 4203SOL     OW13507   6.239   3.512   4.679
 4203SOL    HW113508   6.299   3.569   4.623
 4203SOL    HW213509   6.270   3.513   4.773
 4204SOL     OW13510   2.416   4.300   5.824
 4204SOL    HW113511   2.432   4.350   5.909
 4204SOL    HW213512   2.365   4.217   5.843
 4205SOL     OW13513   5.828   5.197   6.213
 4205SOL    HW113514   5.902   5.130   6.224
 4205SOL    HW213515   5.741   5.153   6.234
 4206SOL     OW13516   2.522   2.601   4.932
 4206SOL    HW113517   2.440   2.557   4.968
 4206SOL    HW213518   2.585   2.620   5.008
 4207SOL     OW13519   2.864   2.175   1.134
 4207SOL    HW113520   2.843   2.145   1.226
 4207SOL    HW213521   2.933   2.247   1.138
 4208SOL     OW13522   1.533   2.791   3.100
 4208SOL    HW113523   1.468   2.856   3.060
 4208SOL    HW213524   1.618   2.791   3.046
 4209SOL     OW13525   6.742   5.042   2.852
 4209SOL    HW113526   6.750   4.976   2.927
 4209SOL    HW213527   6.697   4.999   2.774
 4210SOL     OW13528   3.672   5.341   5.356
 4210SOL    HW113529   3.575   5.338   5.378
 4210SOL    HW213530   3.698   5.257   5.309
 4211SOL     OW13531   5.003   2.998   6.278
 4211SOL    HW113532   4.924   3.059   6.277
 4211SOL    HW213533   5.087   3.052   6.285
 4212SOL     OW13534   0.433   2.971   2.698
 4212SOL    HW113535   0.346   2.922   2.699
 4212SOL    HW213536   0.468   2.976   2.605
 4213SOL     OW13537   2.975   0.585   4.052
 4213SOL    HW113538   2.892   0.543   4.089
 4213SOL    HW213539   2.976   0.573   3.953
 4214SOL     OW13540   6.489   5.908   4.059
 4214SOL    HW113541   6.487   6.007   4.042
 4214SOL    HW213542   6.583   5.876   4.054
 4215SOL     OW13543   6.229   0.022   5.140
 4215SOL    HW113544   6.289   0.094   5.175
 4215SOL    HW213545   6.133   0.049   5.152
 4216SOL     OW13546   1.672   5.876   2.444
 4216SOL    HW113547   1.601   5.936   2.406
 4216SOL    HW213548   1.651   5.857   2.540
 4217SOL     OW13549   0.126   0.660   2.732
 4217SOL    HW113550   0.084   0.570   2.722
 4217SOL    HW213551   0.096   0.702   2.817
 4218SOL     OW13552   2.704   0.653   1.695
 4218SOL    HW113553   2.610   0.679   1.670
 4218SOL    HW213554   2.724   0.562   1.658
 4219SOL     OW13555   2.802   5.578   2.040
 4219SOL    HW113556   2.730   5.570   2.109
 4219SOL    HW213557   2.827   5.486   2.008
 4220SOL     OW13558   5.459   1.833   1.301
 4220SOL    HW113559   5.441   1.901   1.230
 4220SOL    HW213560   5.475   1.744   1.259
 4221SOL     OW13561   0.669   0.051   1.329
 4221SOL    HW113562   0.763   0.033   1.360
 4221SOL    HW213563   0.608   0.057   1.408
 4222SOL     OW13564   5.127   3.735   4.305
 4222SOL    HW113565   5.161   3.642   4.293
 4222SOL    HW213566   5.046   3.748   4.249
 4223SOL     OW13567   3.393   3.967   2.569
 4223SOL    HW113568   3.307   4.015   2.591
 4223SOL    HW213569   3.469   4.032   2.577
 4224SOL     OW13570   4.738   3.977   5.222
 4224SOL    HW113571   4.728   4.036   5.303
 4224SOL    HW213572   4.794   3.898   5.246
 4225SOL     OW13573   0.700   1.478   6.212
 4225SOL    HW113574   0.766   1.457   6.140
 4225SOL    HW213575   0.641   1.398   6.226
 4226SOL     OW13576   5.123   4.972   4.099
 4226SOL    HW113577   5.063   5.017   4.165
 4226SOL    HW213578   5.172   4.896   4.144
 4227SOL     OW13579   5.733   6.105   1.047
 4227SOL    HW113580   5.833   6.110   1.044
 4227SOL    HW213581   5.700   6.055   0.967
 4228SOL     OW13582   1.835   4.774   3.579
 4228SOL    HW113583   1.865   4.783   3.484
 4228SOL    HW213584   1.804   4.681   3.596
 4229SOL     OW13585   6.287   6.435   6.076
 4229SOL    HW113586   6.266   6.533   6.076
 4229SOL    HW213587   6.222   6.387   6.136
 4230SOL     OW13588   0.877   1.747   2.237
 4230SOL    HW113589   0.862   1.650   2.254
 4230SOL    HW213590   0.843   1.771   2.146
 4231SOL     OW13591   6.816   0.695   5.696
 4231SOL    HW113592   6.862   0.671   5.610
 4231SOL    HW213593   6.721   0.718   5.677
 4232SOL     OW13594   2.295   4.444   2.266
 4232SOL    HW113595   2.377   4.489   2.300
 4232SOL    HW213596   2.313   4.407   2.174
 4233SOL     OW13597   4.893   5.413   2.678
 4233SOL    HW113598   4.798   5.383   2.680
 4233SOL    HW213599   4.937   5.390   2.764
 4234SOL     OW13600   2.809   5.293   6.504
 4234SOL    HW113601   2.769   5.304   6.413
 4234SOL    HW213602   2.901   5.332   6.504
 4235SOL     OW13603   6.727   5.906   0.208
 4235SOL    HW113604   6.815   5.866   0.234
 4235SOL    HW213605   6.741   5.998   0.173
 4236SOL     OW13606   0.283   5.078   3.849
 4236SOL    HW113607   0.299   5.065   3.946
 4236SOL    HW213608   0.245   5.169   3.832
 4237SOL     OW13609   0.159   4.698   4.413
 4237SOL    HW113610   0.180   4.796   4.408
 4237SOL    HW213611   0.064   4.683   4.385
 4238SOL     OW13612   2.027   5.672   3.274
 4238SOL    HW113613   2.088   5.677   3.353
 4238SOL    HW213614   1.936   5.642   3.303
 4239SOL     OW13615   4.000   1.271   3.743
 4239SOL    HW113616   4.026   1.367   3.735
 4239SOL    HW213617   3.954   1.242   3.658
 4240SOL     OW13618   4.483   6.660   1.788
 4240SOL    HW113619   4.487   6.747   1.738
 4240SOL    HW213620   4.399   6.612   1.764
 4241SOL     OW13621   0.540   4.370   6.533
 4241SOL    HW113622   0.465   4.435   6.524
 4241SOL    HW213623   0.618   4.417   6.576
 4242SOL     OW13624   3.907   2.109   2.626
 4242SOL    HW113625   3.899   2.166   2.708
 4242SOL    HW213626   3.989   2.052   2.634
 4243SOL     OW13627   2.405   2.203   2.806
 4243SOL    HW113628   2.476   2.272   2.794
 4243SOL    HW213629   2.426   2.149   2.888
 4244SOL     OW13630   2.766   3.266   5.617
 4244SOL    HW113631   2.749   3.231   5.525
 4244SOL    HW213632   2.713   3.350   5.631
 4245SOL     OW13633   6.679   1.228   5.630
 4245SOL    HW113634   6.778   1.241   5.621
 4245SOL    HW213635   6.644   1.182   5.548
 4246SOL     OW13636   0.941   5.175   6.457
 4246SOL    HW113637   0.930   5.163   6.359
 4246SOL    HW213638   0.985   5.094   6.496
 4247SOL     OW13639   0.356   4.478   5.356
 4247SOL    HW113640   0.399   4.556   5.311
 4247SOL    HW213641   0.297   4.430   5.291
 4248SOL     OW13642   2.194   3.437   6.844
 4248SOL    HW113643   2.145   3.521   6.867
 4248SOL    HW213644   2.276   3.459   6.791
 4249SOL     OW13645   5.129   3.440   6.149
 4249SOL    HW113646   5.057   3.464   6.084
 4249SOL    HW213647   5.129   3.342   6.165
 4250SOL     OW13648   6.725   4.117   3.784
 4250SOL    HW113649   6.807   4.174   3.795
 4250SOL    HW213650   6.692   4.123   3.690
 4251SOL     OW13651   5.887   4.868   6.324
 4251SOL    HW113652   5.928   4.906   6.242
 4251SOL    HW213653   5.956   4.859   6.396
 4252SOL     OW13654   6.313   4.888   5.465
 4252SOL    HW113655   6.244   4.824   5.432
 4252SOL    HW213656   6.283   4.982   5.450
 4253SOL     OW13657   3.009   0.188   3.438
 4253SOL    HW113658   3.036   0.136   3.357
 4253SOL    HW213659   3.021   0.285   3.421
 4254SOL     OW13660   4.079   3.287   3.233
 4254SOL    HW113661   4.142   3.313   3.306
 4254SOL    HW213662   4.022   3.211   3.265
 4255SOL     OW13663   0.700   2.122   4.206
 4255SOL    HW113664   0.770   2.063   4.246
 4255SOL    HW213665   0.619   2.123   4.265
 4256SOL     OW13666   0.869   0.492   1.590
 4256SOL    HW113667   0.890   0.534   1.502
 4256SOL    HW213668   0.856   0.394   1.578
 4257SOL     OW13669   4.307   2.363   4.817
 4257SOL    HW113670   4.273   2.294   4.881
 4257SOL    HW213671   4.237   2.382   4.748
 4258SOL     OW13672   5.487   6.203   2.050
 4258SOL    HW113673   5.434   6.134   2.001
 4258SOL    HW213674   5.477   6.291   2.004
 4259SOL     OW13675   2.990   3.092   1.919
 4259SOL    HW113676   2.950   3.033   1.848
 4259SOL    HW213677   2.940   3.179   1.922
 4260SOL     OW13678   4.269   5.925   5.091
 4260SOL    HW113679   4.276   5.826   5.101
 4260SOL    HW213680   4.237   5.947   4.999
 4261SOL     OW13681   1.279   1.453   3.118
 4261SOL    HW113682   1.328   1.412   3.041
 4261SOL    HW213683   1.312   1.414   3.204
 4262SOL     OW13684   1.083   6.877   5.179
 4262SOL    HW113685   1.073   6.934   5.097
 4262SOL    HW213686   1.128   6.930   5.251
 4263SOL     OW13687   4.299   5.517   6.742
 4263SOL    HW113688   4.376   5.493   6.682
 4263SOL    HW213689   4.316   5.607   6.783
 4264SOL     OW13690   1.640   0.793   1.495
 4264SOL    HW113691   1.666   0.887   1.474
 4264SOL    HW213692   1.681   0.731   1.428
 4265SOL     OW13693   2.092   1.583   1.241
 4265SOL    HW113694   2.168   1.563   1.179
 4265SOL    HW213695   2.085   1.682   1.252
 4266SOL     OW13696   2.495   4.942   0.624
 4266SOL    HW113697   2.507   5.014   0.556
 4266SOL    HW213698   2.401   4.910   0.623
 4267SOL     OW13699   1.362   3.784   5.115
 4267SOL    HW113700   1.416   3.719   5.169
 4267SOL    HW213701   1.422   3.829   5.048
 4268SOL     OW13702   0.414   1.756   1.101
 4268SOL    HW113703   0.339   1.814   1.133
 4268SOL    HW213704   0.483   1.749   1.174
 4269SOL     OW13705   2.925   4.041   0.970
 4269SOL    HW113706   2.918   4.010   1.065
 4269SOL    HW213707   3.022   4.045   0.944
 4270SOL     OW13708   3.909   3.002   6.886
 4270SOL    HW113709   3.969   2.947   6.828
 4270SOL    HW213710   3.963   3.071   6.934
 4271SOL     OW13711   1.933   0.439   1.348
 4271SOL    HW113712   2.015   0.484   1.313
 4271SOL    HW213713   1.854   0.498   1.333
 4272SOL     OW13714   1.395   4.642   3.554
 4272SOL    HW113715   1.367   4.724   3.603
 4272SOL    HW213716   1.368   4.649   3.458
 4273SOL     OW13717   6.719   6.259   3.319
 4273SOL    HW113718   6.684   6.172   3.283
 4273SOL    HW213719   6.663   6.288   3.396
 4274SOL     OW13720   1.625   0.370   3.024
 4274SOL    HW113721   1.552   0.323   2.975
 4274SOL    HW213722   1.657   0.312   3.100
 4275SOL     OW13723   0.304   0.574   5.826
 4275SOL    HW113724   0.283   0.660   5.872
 4275SOL    HW213725   0.239   0.504   5.854
 4276SOL     OW13726   2.168   3.263   3.524
 4276SOL    HW113727   2.147   3.336   3.460
 4276SOL    HW213728   2.142   3.291   3.617
 4277SOL     OW13729   0.399   5.868   5.830
 4277SOL    HW113730   0.344   5.906   5.904
 4277SOL    HW213731   0.393   5.769   5.831
 4278SOL     OW13732   1.246   6.622   6.636
 4278SOL    HW113733   1.247   6.599   6.539
 4278SOL    HW213734   1.201   6.549   6.687
 4279SOL     OW13735   3.782   5.863   3.385
 4279SOL    HW113736   3.775   5.864   3.285
 4279SOL    HW213737   3.776   5.956   3.420
 4280SOL     OW13738   4.958   2.915   4.166
 4280SOL    HW113739   5.037   2.952   4.215
 4280SOL    HW213740   4.960   2.946   4.071
 4281SOL     OW13741   2.021   4.069   4.576
 4281SOL    HW113742   2.058   4.098   4.664
 4281SOL    HW213743   2.094   4.035   4.518
 4282SOL     OW13744   0.707   1.346   6.883
 4282SOL    HW113745   0.802   1.368   6.903
 4282SOL    HW213746   0.649   1.380   6.957
 4283SOL     OW13747   2.977   1.332   3.590
 4283SOL    HW113748   3.064   1.313   3.636
 4283SOL    HW213749   2.976   1.286   3.501
 4284SOL     OW13750   6.571   2.655   3.169
 4284SOL    HW113751   6.505   2.710   3.118
 4284SOL    HW213752   6.524   2.610   3.245
 4285SOL     OW13753   0.514   6.171   4.005
 4285SOL    HW113754   0.419   6.200   4.004
 4285SOL    HW213755   0.562   6.211   3.927
 4286SOL     OW13756   4.703   5.279   0.017
 4286SOL    HW113757   4.771   5.232   0.073
 4286SOL    HW213758   4.647   5.211   6.987
 4287SOL     OW13759   3.812   5.590   6.337
 4287SOL    HW113760   3.801   5.610   6.434
 4287SOL    HW213761   3.841   5.495   6.325
 4288SOL     OW13762   0.676   6.413   4.025
 4288SOL    HW113763   0.709   6.409   4.119
 4288SOL    HW213764   0.733   6.354   3.967
 4289SOL     OW13765   0.765   4.102   6.704
 4289SOL    HW113766   0.828   4.174   6.675
 4289SOL    HW213767   0.708   4.075   6.626
 4290SOL     OW13768   1.577   2.041   2.634
 4290SOL    HW113769   1.670   2.020   2.664
 4290SOL    HW213770   1.573   2.038   2.534
 4291SOL     OW13771   6.780   3.799   1.669
 4291SOL    HW113772   6.763   3.850   1.753
 4291SOL    HW213773   6.824   3.858   1.602
 4292SOL     OW13774   5.501   5.855   4.953
 4292SOL    HW113775   5.588   5.807   4.946
 4292SOL    HW213776   5.516   5.946   4.992
 4293SOL     OW13777   0.861   1.857   0.523
 4293SOL    HW113778   0.884   1.950   0.552
 4293SOL    HW213779   0.774   1.858   0.474
 4294SOL     OW13780   4.459   2.297   5.909
 4294SOL    HW113781   4.496   2.211   5.943
 4294SOL    HW213782   4.427   2.285   5.815
 4295SOL     OW13783   3.524   5.092   5.132
 4295SOL    HW113784   3.506   5.063   5.226
 4295SOL    HW213785   3.460   5.164   5.106
 4296SOL     OW13786   1.975   1.435   2.571
 4296SOL    HW113787   1.902   1.377   2.537
 4296SOL    HW213788   1.936   1.507   2.629
 4297SOL     OW13789   5.406   0.289   0.349
 4297SOL    HW113790   5.321   0.316   0.394
 4297SOL    HW213791   5.483   0.303   0.410
 4298SOL     OW13792   1.749   4.672   1.693
 4298SOL    HW113793   1.684   4.642   1.763
 4298SOL    HW213794   1.800   4.594   1.658
 4299SOL     OW13795   1.404   5.673   4.936
 4299SOL    HW113796   1.371   5.711   5.022
 4299SOL    HW213797   1.334   5.613   4.897
 4300SOL     OW13798   5.948   0.384   5.620
 4300SOL    HW113799   5.977   0.373   5.525
 4300SOL    HW213800   5.887   0.463   5.626
 4301SOL     OW13801   3.076   0.702   1.001
 4301SOL    HW113802   3.131   0.647   0.939
 4301SOL    HW213803   3.008   0.644   1.046
 4302SOL     OW13804   0.958   0.437   0.005
 4302SOL    HW113805   0.953   0.506   6.951
 4302SOL    HW213806   1.003   0.355   6.989
 4303SOL     OW13807   0.985   4.367   2.133
 4303SOL    HW113808   0.908   4.305   2.145
 4303SOL    HW213809   1.038   4.371   2.218
 4304SOL     OW13810   2.815   3.746   5.749
 4304SOL    HW113811   2.911   3.739   5.777
 4304SOL    HW213812   2.758   3.693   5.812
 4305SOL     OW13813   0.192   1.484   4.897
 4305SOL    HW113814   0.182   1.421   4.974
 4305SOL    HW213815   0.102   1.507   4.860
 4306SOL     OW13816   6.397   5.656   5.700
 4306SOL    HW113817   6.483   5.706   5.699
 4306SOL    HW213818   6.411   5.565   5.739
 4307SOL     OW13819   6.045   3.754   1.301
 4307SOL    HW113820   5.960   3.777   1.348
 4307SOL    HW213821   6.034   3.763   1.202
 4308SOL     OW13822   3.230   0.071   5.468
 4308SOL    HW113823   3.268   0.047   5.379
 4308SOL    HW213824   3.152   0.012   5.488
 4309SOL     OW13825   0.902   0.552   1.312
 4309SOL    HW113826   0.836   0.483   1.284
 4309SOL    HW213827   0.912   0.620   1.238
 4310SOL     OW13828   1.450   6.803   2.669
 4310SOL    HW113829   1.534   6.846   2.635
 4310SOL    HW213830   1.391   6.779   2.592
 4311SOL     OW13831   1.193   5.155   4.831
 4311SOL    HW113832   1.155   5.063   4.822
 4311SOL    HW213833   1.130   5.212   4.885
 4312SOL     OW13834   1.324   5.872   2.538
 4312SOL    HW113835   1.412   5.859   2.584
 4312SOL    HW213836   1.282   5.783   2.520
 4313SOL     OW13837   5.112   1.005   1.094
 4313SOL    HW113838   5.158   1.005   1.183
 4313SOL    HW213839   5.044   0.932   1.092
 4314SOL     OW13840   6.811   2.899   1.471
 4314SOL    HW113841   6.791   2.934   1.379
 4314SOL    HW213842   6.842   2.804   1.465
 4315SOL     OW13843   1.198   0.932   2.104
 4315SOL    HW113844   1.265   0.859   2.115
 4315SOL    HW213845   1.173   0.942   2.008
 4316SOL     OW13846   0.019   1.355   2.542
 4316SOL    HW113847   6.957   1.340   2.600
 4316SOL    HW213848   0.081   1.419   2.588
 4317SOL     OW13849   3.935   0.925   3.416
 4317SOL    HW113850   3.870   0.881   3.478
 4317SOL    HW213851   4.007   0.860   3.391
 4318SOL     OW13852   0.109   2.257   4.876
 4318SOL    HW113853   0.112   2.341   4.930
 4318SOL    HW213854   0.173   2.264   4.800
 4319SOL     OW13855   4.013   3.301   6.423
 4319SOL    HW113856   3.978   3.285   6.515
 4319SOL    HW213857   3.939   3.291   6.357
 4320SOL     OW13858   0.100   6.484   3.297
 4320SOL    HW113859   0.057   6.527   3.217
 4320SOL    HW213860   0.058   6.395   3.313
 4321SOL     OW13861   0.531   0.341   4.353
 4321SOL    HW113862   0.476   0.281   4.411
 4321SOL    HW213863   0.494   0.434   4.357
 4322SOL     OW13864   6.608   0.816   0.541
 4322SOL    HW113865   6.520   0.811   0.493
 4322SOL    HW213866   6.655   0.900   0.516
 4323SOL     OW13867   0.131   2.116   3.772
 4323SOL    HW113868   0.085   2.205   3.765
 4323SOL    HW213869   0.203   2.111   3.702
 4324SOL     OW13870   5.773   2.294   5.858
 4324SOL    HW113871   5.785   2.290   5.957
 4324SOL    HW213872   5.740   2.205   5.825
 4325SOL     OW13873   2.461   2.605   6.341
 4325SOL    HW113874   2.483   2.695   6.379
 4325SOL    HW213875   2.542   2.546   6.348
 4326SOL     OW13876   0.104   2.534   5.314
 4326SOL    HW113877   0.155   2.448   5.322
 4326SOL    HW213878   0.123   2.591   5.393
 4327SOL     OW13879   4.700   0.777   3.253
 4327SOL    HW113880   4.737   0.704   3.196
 4327SOL    HW213881   4.742   0.864   3.227
 4328SOL     OW13882   6.172   4.895   0.752
 4328SOL    HW113883   6.197   4.990   0.770
 4328SOL    HW213884   6.126   4.857   0.833
 4329SOL     OW13885   5.323   1.670   5.976
 4329SOL    HW113886   5.233   1.645   5.941
 4329SOL    HW213887   5.325   1.660   6.075
 4330SOL     OW13888   1.173   0.832   6.152
 4330SOL    HW113889   1.263   0.872   6.173
 4330SOL    HW213890   1.185   0.744   6.107
 4331SOL     OW13891   5.327   2.903   5.986
 4331SOL    HW113892   5.406   2.922   6.044
 4331SOL    HW213893   5.292   2.812   6.006
 4332SOL     OW13894   6.047   4.153   2.121
 4332SOL    HW113895   5.980   4.122   2.054
 4332SOL    HW213896   6.139   4.148   2.082
 4333SOL     OW13897   6.529   1.914   4.767
 4333SOL    HW113898   6.539   1.854   4.687
 4333SOL    HW213899   6.617   1.957   4.787
 4334SOL     OW13900   4.003   6.976   1.970
 4334SOL    HW113901   3.985   6.885   2.008
 4334SOL    HW213902   4.091   6.976   1.922
 4335SOL     OW13903   3.796   4.122   6.400
 4335SOL    HW113904   3.745   4.174   6.331
 4335SOL    HW213905   3.814   4.181   6.479
 4336SOL     OW13906   1.031   0.605   5.666
 4336SOL    HW113907   1.038   0.665   5.746
 4336SOL    HW213908   0.988   0.519   5.693
 4337SOL     OW13909   1.110   5.500   6.011
 4337SOL    HW113910   1.018   5.478   6.043
 4337SOL    HW213911   1.105   5.535   5.918
 4338SOL     OW13912   5.353   6.677   2.945
 4338SOL    HW113913   5.415   6.729   2.886
 4338SOL    HW213914   5.344   6.583   2.910
 4339SOL     OW13915   6.963   0.842   0.527
 4339SOL    HW113916   6.895   0.916   0.520
 4339SOL    HW213917   6.969   0.812   0.622
 4340SOL     OW13918   4.774   3.464   1.679
 4340SOL    HW113919   4.714   3.390   1.648
 4340SOL    HW213920   4.732   3.552   1.660
 4341SOL     OW13921   1.167   3.341   0.613
 4341SOL    HW113922   1.132   3.254   0.577
 4341SOL    HW213923   1.162   3.411   0.542
 4342SOL     OW13924   7.014   2.730   2.532
 4342SOL    HW113925   7.016   2.827   2.508
 4342SOL    HW213926   6.970   2.679   2.458
 4343SOL     OW13927   3.224   3.267   1.439
 4343SOL    HW113928   3.177   3.353   1.458
 4343SOL    HW213929   3.158   3.199   1.408
 4344SOL     OW13930   2.485   3.341   1.614
 4344SOL    HW113931   2.551   3.271   1.639
 4344SOL    HW213932   2.486   3.414   1.683
 4345SOL     OW13933   3.068   0.732   6.065
 4345SOL    HW113934   3.049   0.828   6.047
 4345SOL    HW213935   3.004   0.675   6.014
 4346SOL     OW13936   0.092   3.861   1.826
 4346SOL    HW113937   0.109   3.923   1.750
 4346SOL    HW213938   0.074   3.769   1.791
 4347SOL     OW13939   5.090   6.014   2.538
 4347SOL    HW113940   4.992   5.991   2.530
 4347SOL    HW213941   5.110   6.042   2.631
 4348SOL     OW13942   1.193   3.133   0.307
 4348SOL    HW113943   1.167   3.074   0.230
 4348SOL    HW213944   1.155   3.096   0.392
 4349SOL     OW13945   6.112   1.320   1.052
 4349SOL    HW113946   6.091   1.299   1.147
 4349SOL    HW213947   6.172   1.250   1.014
 4350SOL     OW13948   3.248   0.513   3.372
 4350SOL    HW113949   3.222   0.609   3.362
 4350SOL    HW213950   3.327   0.494   3.313
 4351SOL     OW13951   3.392   6.937   0.472
 4351SOL    HW113952   3.438   6.953   0.559
 4351SOL    HW213953   3.390   6.840   0.452
 4352SOL     OW13954   6.122   1.695   1.547
 4352SOL    HW113955   6.087   1.777   1.592
 4352SOL    HW213956   6.087   1.691   1.453
 4353SOL     OW13957   3.228   5.528   0.717
 4353SOL    HW113958   3.286   5.464   0.767
 4353SOL    HW213959   3.143   5.543   0.767
 4354SOL     OW13960   2.711   1.108   1.653
 4354SOL    HW113961   2.695   1.039   1.723
 4354SOL    HW213962   2.758   1.066   1.575
 4355SOL     OW13963   4.613   0.172   6.717
 4355SOL    HW113964   4.531   0.187   6.661
 4355SOL    HW213965   4.613   0.235   6.794
 4356SOL     OW13966   3.481   3.625   1.141
 4356SOL    HW113967   3.498   3.571   1.224
 4356SOL    HW213968   3.559   3.617   1.079
 4357SOL     OW13969   5.509   0.858   0.688
 4357SOL    HW113970   5.514   0.872   0.589
 4357SOL    HW213971   5.519   0.946   0.735
 4358SOL     OW13972   6.312   0.552   1.084
 4358SOL    HW113973   6.304   0.455   1.061
 4358SOL    HW213974   6.325   0.605   1.000
 4359SOL     OW13975   6.588   3.932   4.602
 4359SOL    HW113976   6.589   4.031   4.587
 4359SOL    HW213977   6.537   3.888   4.528
 4360SOL     OW13978   2.406   3.456   1.222
 4360SOL    HW113979   2.400   3.515   1.303
 4360SOL    HW213980   2.413   3.360   1.251
 4361SOL     OW13981   5.257   1.743   2.394
 4361SOL    HW113982   5.224   1.834   2.416
 4361SOL    HW213983   5.357   1.744   2.387
 4362SOL     OW13984   4.767   4.141   2.504
 4362SOL    HW113985   4.848   4.189   2.537
 4362SOL    HW213986   4.701   4.208   2.470
 4363SOL     OW13987   4.979   0.519   6.605
 4363SOL    HW113988   4.940   0.571   6.681
 4363SOL    HW213989   5.008   0.429   6.637
 4364SOL     OW13990   4.359   3.840   5.491
 4364SOL    HW113991   4.397   3.753   5.457
 4364SOL    HW213992   4.316   3.889   5.415
 4365SOL     OW13993   4.956   2.200   6.749
 4365SOL    HW113994   4.963   2.104   6.773
 4365SOL    HW213995   5.026   2.223   6.681
 4366SOL     OW13996   5.083   5.155   1.009
 4366SOL    HW113997   5.144   5.082   0.978
 4366SOL    HW213998   5.108   5.184   1.101
 4367SOL     OW13999   6.020   6.384   1.133
 4367SOL    HW114000   5.945   6.449   1.128
 4367SOL    HW214001   5.992   6.303   1.185
 4368SOL     OW14002   4.488   5.583   2.145
 4368SOL    HW114003   4.490   5.488   2.114
 4368SOL    HW214004   4.578   5.607   2.181
 4369SOL     OW14005   3.222   5.446   1.428
 4369SOL    HW114006   3.237   5.407   1.337
 4369SOL    HW214007   3.243   5.377   1.497
 4370SOL     OW14008   5.098   4.103   1.635
 4370SOL    HW114009   5.042   4.112   1.717
 4370SOL    HW214010   5.141   4.191   1.614
 4371SOL     OW14011   1.339   1.935   2.174
 4371SOL    HW114012   1.279   1.990   2.116
 4371SOL    HW214013   1.285   1.866   2.223
 4372SOL     OW14014   4.605   0.049   3.898
 4372SOL    HW114015   4.694   0.084   3.928
 4372SOL    HW214016   4.541   0.126   3.888
 4373SOL     OW14017   0.738   1.879   5.212
 4373SOL    HW114018   0.684   1.795   5.211
 4373SOL    HW214019   0.810   1.873   5.142
 4374SOL     OW14020   3.554   1.429   0.172
 4374SOL    HW114021   3.568   1.528   0.180
 4374SOL    HW214022   3.643   1.383   0.173
 4375SOL     OW14023   3.336   5.429   4.452
 4375SOL    HW114024   3.319   5.517   4.408
 4375SOL    HW214025   3.275   5.419   4.531
 4376SOL     OW14026   0.205   2.810   2.716
 4376SOL    HW114027   0.157   2.819   2.629
 4376SOL    HW214028   0.229   2.714   2.731
 4377SOL     OW14029   0.235   4.481   6.000
 4377SOL    HW114030   0.335   4.481   5.991
 4377SOL    HW214031   0.202   4.387   6.009
 4378SOL     OW14032   2.937   1.747   4.717
 4378SOL    HW114033   2.885   1.800   4.650
 4378SOL    HW214034   2.914   1.778   4.809
 4379SOL     OW14035   3.872   1.433   6.216
 4379SOL    HW114036   3.917   1.517   6.246
 4379SOL    HW214037   3.815   1.453   6.136
 4380SOL     OW14038   6.956   2.189   3.125
 4380SOL    HW114039   6.890   2.140   3.068
 4380SOL    HW214040   7.014   2.122   3.173
 4381SOL     OW14041   1.088   4.971   6.574
 4381SOL    HW114042   1.085   4.890   6.514
 4381SOL    HW214043   1.177   5.015   6.566
 4382SOL     OW14044   1.419   4.958   4.678
 4382SOL    HW114045   1.457   4.947   4.770
 4382SOL    HW214046   1.395   5.053   4.663
 4383SOL     OW14047   0.552   4.498   0.254
 4383SOL    HW114048   0.585   4.423   0.197
 4383SOL    HW214049   0.462   4.475   0.291
 4384SOL     OW14050   4.981   6.601   4.089
 4384SOL    HW114051   5.055   6.551   4.133
 4384SOL    HW214052   4.905   6.613   4.153
 4385SOL     OW14053   4.921   0.542   5.974
 4385SOL    HW114054   4.917   0.505   6.067
 4385SOL    HW214055   4.855   0.495   5.916
 4386SOL     OW14056   2.074   3.447   4.040
 4386SOL    HW114057   1.994   3.471   4.095
 4386SOL    HW214058   2.152   3.501   4.068
 4387SOL     OW14059   4.372   1.900   0.986
 4387SOL    HW114060   4.394   1.997   0.986
 4387SOL    HW214061   4.369   1.866   0.891
 4388SOL     OW14062   6.277   3.321   0.331
 4388SOL    HW114063   6.274   3.352   0.236
 4388SOL    HW214064   6.311   3.227   0.335
 4389SOL     OW14065   2.286   1.374   6.464
 4389SOL    HW114066   2.339   1.325   6.533
 4389SOL    HW214067   2.283   1.320   6.380
 4390SOL     OW14068   6.874   1.039   1.254
 4390SOL    HW114069   6.778   1.014   1.238
 4390SOL    HW214070   6.934   0.970   1.213
 4391SOL     OW14071   0.059   6.032   1.716
 4391SOL    HW114072   0.138   6.080   1.753
 4391SOL    HW214073   7.006   6.026   1.785
 4392SOL     OW14074   2.079   3.050   6.015
 4392SOL    HW114075   2.020   3.122   5.977
 4392SOL    HW214076   2.108   3.076   6.107
 4393SOL     OW14077   6.140   0.614   1.787
 4393SOL    HW114078   6.141   0.692   1.849
 4393SOL    HW214079   6.176   0.533   1.834
 4394SOL     OW14080   6.876   1.227   2.839
 4394SOL    HW114081   6.879   1.294   2.914
 4394SOL    HW214082   6.795   1.244   2.782
 4395SOL     OW14083   1.830   3.601   1.451
 4395SOL    HW114084   1.843   3.659   1.531
 4395SOL    HW214085   1.918   3.563   1.422
 4396SOL     OW14086   2.326   1.594   2.208
 4396SOL    HW114087   2.369   1.528   2.269
 4396SOL    HW214088   2.240   1.556   2.173
 4397SOL     OW14089   3.536   0.836   4.880
 4397SOL    HW114090   3.523   0.769   4.807
 4397SOL    HW214091   3.620   0.814   4.930
 4398SOL     OW14092   2.316   3.382   6.172
 4398SOL    HW114093   2.275   3.294   6.194
 4398SOL    HW214094   2.243   3.448   6.153
 4399SOL     OW14095   2.843   6.110   1.512
 4399SOL    HW114096   2.873   6.185   1.453
 4399SOL    HW214097   2.911   6.037   1.512
 4400SOL     OW14098   1.226   6.074   5.342
 4400SOL    HW114099   1.286   6.055   5.420
 4400SOL    HW214100   1.273   6.051   5.257
 4401SOL     OW14101   2.966   0.184   6.325
 4401SOL    HW114102   3.034   0.115   6.303
 4401SOL    HW214103   2.979   0.216   6.418
 4402SOL     OW14104   1.020   0.676   2.736
 4402SOL    HW114105   1.051   0.747   2.673
 4402SOL    HW214106   1.041   0.586   2.697
 4403SOL     OW14107   6.395   6.180   2.816
 4403SOL    HW114108   6.422   6.152   2.724
 4403SOL    HW214109   6.470   6.160   2.880
 4404SOL     OW14110   0.825   6.194   5.254
 4404SOL    HW114111   0.826   6.288   5.221
 4404SOL    HW214112   0.893   6.140   5.205
 4405SOL     OW14113   0.678   5.179   2.885
 4405SOL    HW114114   0.742   5.161   2.810
 4405SOL    HW214115   0.674   5.100   2.945
 4406SOL     OW14116   6.057   4.140   2.759
 4406SOL    HW114117   5.995   4.174   2.688
 4406SOL    HW214118   6.088   4.048   2.734
 4407SOL     OW14119   5.093   0.183   1.327
 4407SOL    HW114120   5.169   0.123   1.302
 4407SOL    HW214121   5.039   0.203   1.245
 4408SOL     OW14122   4.878   0.695   0.251
 4408SOL    HW114123   4.844   0.623   0.311
 4408SOL    HW214124   4.942   0.754   0.301
 4409SOL     OW14125   3.777   0.810   3.627
 4409SOL    HW114126   3.760   0.889   3.686
 4409SOL    HW214127   3.771   0.726   3.680
 4410SOL     OW14128   1.800   0.192   0.708
 4410SOL    HW114129   1.762   0.202   0.800
 4410SOL    HW214130   1.738   0.235   0.642
 4411SOL     OW14131   4.601   4.488   4.562
 4411SOL    HW114132   4.577   4.518   4.470
 4411SOL    HW214133   4.648   4.399   4.557
 4412SOL     OW14134   4.982   6.437   0.951
 4412SOL    HW114135   4.917   6.475   1.017
 4412SOL    HW214136   4.932   6.385   0.882
 4413SOL     OW14137   5.379   6.192   4.495
 4413SOL    HW114138   5.351   6.258   4.565
 4413SOL    HW214139   5.473   6.163   4.512
 4414SOL     OW14140   5.901   4.137   1.279
 4414SOL    HW114141   5.840   4.129   1.201
 4414SOL    HW214142   5.848   4.136   1.364
 4415SOL     OW14143   0.897   4.145   1.398
 4415SOL    HW114144   0.940   4.191   1.475
 4415SOL    HW214145   0.928   4.186   1.313
 4416SOL     OW14146   4.797   2.953   4.410
 4416SOL    HW114147   4.861   2.896   4.358
 4416SOL    HW214148   4.815   3.049   4.391
 4417SOL     OW14149   0.014   4.336   1.915
 4417SOL    HW114150   0.076   4.314   1.840
 4417SOL    HW214151   7.006   4.252   1.962
 4418SOL     OW14152   6.491   2.414   5.262
 4418SOL    HW114153   6.392   2.409   5.254
 4418SOL    HW214154   6.524   2.498   5.218
 4419SOL     OW14155   6.254   6.467   6.704
 4419SOL    HW114156   6.332   6.418   6.665
 4419SOL    HW214157   6.248   6.448   6.802
 4420SOL     OW14158   3.522   0.829   0.936
 4420SOL    HW114159   3.472   0.882   0.867
 4420SOL    HW214160   3.457   0.787   0.999
 4421SOL     OW14161   2.919   2.472   0.277
 4421SOL    HW114162   2.888   2.379   0.257
 4421SOL    HW214163   2.880   2.502   0.364
 4422SOL     OW14164   1.049   3.015   6.586
 4422SOL    HW114165   0.990   3.032   6.665
 4422SOL    HW214166   1.124   2.955   6.613
 4423SOL     OW14167   5.916   5.146   4.234
 4423SOL    HW114168   5.880   5.237   4.257
 4423SOL    HW214169   5.990   5.123   4.297
 4424SOL     OW14170   3.797   5.202   2.550
 4424SOL    HW114171   3.851   5.132   2.504
 4424SOL    HW214172   3.858   5.271   2.589
 4425SOL     OW14173   0.665   5.932   0.786
 4425SOL    HW114174   0.707   5.997   0.723
 4425SOL    HW214175   0.579   5.970   0.820
 4426SOL     OW14176   0.921   0.693   3.933
 4426SOL    HW114177   0.852   0.644   3.986
 4426SOL    HW214178   1.010   0.650   3.945
 4427SOL     OW14179   3.536   5.954   0.579
 4427SOL    HW114180   3.564   5.875   0.523
 4427SOL    HW214181   3.454   5.929   0.631
 4428SOL     OW14182   6.145   6.200   3.073
 4428SOL    HW114183   6.122   6.165   3.164
 4428SOL    HW214184   6.215   6.141   3.032
 4429SOL     OW14185   2.159   5.903   2.841
 4429SOL    HW114186   2.078   5.959   2.825
 4429SOL    HW214187   2.198   5.924   2.931
 4430SOL     OW14188   5.649   3.890   4.477
 4430SOL    HW114189   5.721   3.823   4.464
 4430SOL    HW214190   5.575   3.873   4.412
 4431SOL     OW14191   4.482   0.005   4.736
 4431SOL    HW114192   4.396   0.034   4.778
 4431SOL    HW214193   4.522   0.082   4.685
 4432SOL     OW14194   2.162   3.716   6.657
 4432SOL    HW114195   2.087   3.708   6.723
 4432SOL    HW214196   2.155   3.643   6.589
 4433SOL     OW14197   0.361   0.034   4.903
 4433SOL    HW114198   0.279   0.056   4.850
 4433SOL    HW214199   0.426   7.003   4.846
 4434SOL     OW14200   6.458   0.862   2.576
 4434SOL    HW114201   6.554   0.891   2.581
 4434SOL    HW214202   6.436   0.806   2.655
 4435SOL     OW14203   2.063   4.623   1.757
 4435SOL    HW114204   2.005   4.543   1.741
 4435SOL    HW214205   2.088   4.628   1.854
 4436SOL     OW14206   4.865   2.244   1.741
 4436SOL    HW114207   4.952   2.270   1.783
 4436SOL    HW214208   4.831   2.160   1.784
 4437SOL     OW14209   6.878   5.798   6.962
 4437SOL    HW114210   6.797   5.761   7.008
 4437SOL    HW214211   6.879   5.767   6.867
 4438SOL     OW14212   3.693   1.860   4.764
 4438SOL    HW114213   3.700   1.837   4.667
 4438SOL    HW214214   3.782   1.850   4.808
 4439SOL     OW14215   2.853   5.298   1.911
 4439SOL    HW114216   2.946   5.287   1.876
 4439SOL    HW214217   2.796   5.224   1.876
 4440SOL     OW14218   1.951   5.433   5.865
 4440SOL    HW114219   1.965   5.456   5.769
 4440SOL    HW214220   1.893   5.352   5.872
 4441SOL     OW14221   6.335   1.181   0.818
 4441SOL    HW114222   6.276   1.257   0.790
 4441SOL    HW214223   6.279   1.102   0.843
 4442SOL     OW14224   1.440   4.801   0.898
 4442SOL    HW114225   1.488   4.791   0.811
 4442SOL    HW214226   1.502   4.843   0.965
 4443SOL     OW14227   1.262   5.789   5.146
 4443SOL    HW114228   1.289   5.773   5.241
 4443SOL    HW214229   1.296   5.878   5.116
 4444SOL     OW14230   4.656   6.406   0.326
 4444SOL    HW114231   4.636   6.440   0.234
 4444SOL    HW214232   4.620   6.471   0.393
 4445SOL     OW14233   1.919   3.341   0.446
 4445SOL    HW114234   1.933   3.312   0.352
 4445SOL    HW214235   1.861   3.422   0.447
 4446SOL     OW14236   5.914   2.227   1.390
 4446SOL    HW114237   5.849   2.212   1.316
 4446SOL    HW214238   5.873   2.287   1.459
 4447SOL     OW14239   4.981   5.798   5.648
 4447SOL    HW114240   4.960   5.882   5.698
 4447SOL    HW214241   4.939   5.802   5.557
 4448SOL     OW14242   2.966   6.405   2.340
 4448SOL    HW114243   2.979   6.388   2.243
 4448SOL    HW214244   2.889   6.351   2.373
 4449SOL     OW14245   3.708   1.990   5.337
 4449SOL    HW114246   3.748   1.913   5.287
 4449SOL    HW214247   3.718   2.074   5.284
 4450SOL     OW14248   2.809   5.497   0.813
 4450SOL    HW114249   2.741   5.566   0.840
 4450SOL    HW214250   2.900   5.529   0.839
 4451SOL     OW14251   5.259   6.175   3.319
 4451SOL    HW114252   5.188   6.243   3.301
 4451SOL    HW214253   5.268   6.115   3.240
 4452SOL     OW14254   5.067   4.692   3.609
 4452SOL    HW114255   4.995   4.688   3.679
 4452SOL    HW214256   5.110   4.602   3.600
 4453SOL     OW14257   0.226   5.406   1.303
 4453SOL    HW114258   0.184   5.463   1.373
 4453SOL    HW214259   0.158   5.345   1.263
 4454SOL     OW14260   0.155   0.684   6.921
 4454SOL    HW114261   0.184   0.611   6.983
 4454SOL    HW214262   0.085   0.739   6.965
 4455SOL     OW14263   0.680   0.674   3.592
 4455SOL    HW114264   0.610   0.639   3.656
 4455SOL    HW214265   0.635   0.720   3.516
 4456SOL     OW14266   1.670   5.666   4.037
 4456SOL    HW114267   1.713   5.756   4.033
 4456SOL    HW214268   1.571   5.677   4.038
 4457SOL     OW14269   1.306   2.253   4.771
 4457SOL    HW114270   1.282   2.246   4.868
 4457SOL    HW214271   1.246   2.193   4.718
 4458SOL     OW14272   2.453   2.153   5.417
 4458SOL    HW114273   2.518   2.101   5.472
 4458SOL    HW214274   2.365   2.157   5.465
 4459SOL     OW14275   1.551   4.460   3.297
 4459SOL    HW114276   1.617   4.507   3.355
 4459SOL    HW214277   1.459   4.484   3.326
 4460SOL     OW14278   0.079   3.282   5.022
 4460SOL    HW114279   0.020   3.275   5.103
 4460SOL    HW214280   0.028   3.253   4.941
 4461SOL     OW14281   2.720   0.205   0.525
 4461SOL    HW114282   2.735   0.263   0.605
 4461SOL    HW214283   2.660   0.129   0.549
 4462SOL     OW14284   0.553   4.592   2.434
 4462SOL    HW114285   0.618   4.516   2.446
 4462SOL    HW214286   0.550   4.647   2.518
 4463SOL     OW14287   5.929   1.795   6.879
 4463SOL    HW114288   5.842   1.782   6.927
 4463SOL    HW214289   5.994   1.725   6.908
 4464SOL     OW14290   0.551   3.592   1.284
 4464SOL    HW114291   0.551   3.494   1.302
 4464SOL    HW214292   0.473   3.635   1.330
 4465SOL     OW14293   4.735   5.020   1.187
 4465SOL    HW114294   4.662   4.983   1.129
 4465SOL    HW214295   4.780   4.945   1.235
 4466SOL     OW14296   1.052   3.095   2.788
 4466SOL    HW114297   1.113   3.126   2.714
 4466SOL    HW214298   0.957   3.105   2.758
 4467SOL     OW14299   5.347   4.700   1.755
 4467SOL    HW114300   5.352   4.607   1.720
 4467SOL    HW214301   5.256   4.718   1.793
 4468SOL     OW14302   1.843   3.606   0.346
 4468SOL    HW114303   1.836   3.633   0.442
 4468SOL    HW214304   1.932   3.634   0.309
 4469SOL     OW14305   1.304   6.249   2.243
 4469SOL    HW114306   1.359   6.171   2.274
 4469SOL    HW214307   1.211   6.241   2.278
 4470SOL     OW14308   0.750   6.984   3.058
 4470SOL    HW114309   0.713   0.052   3.093
 4470SOL    HW214310   0.849   6.983   3.072
 4471SOL     OW14311   1.435   0.945   6.239
 4471SOL    HW114312   1.420   1.040   6.212
 4471SOL    HW214313   1.462   0.941   6.335
 4472SOL     OW14314   2.352   3.378   0.894
 4472SOL    HW114315   2.256   3.352   0.901
 4472SOL    HW214316   2.378   3.434   0.973
 4473SOL     OW14317   0.697   2.914   5.165
 4473SOL    HW114318   0.786   2.900   5.208
 4473SOL    HW214319   0.662   2.827   5.131
 4474SOL     OW14320   1.853   6.511   1.096
 4474SOL    HW114321   1.792   6.589   1.112
 4474SOL    HW214322   1.947   6.538   1.115
 4475SOL     OW14323   0.954   3.367   0.806
 4475SOL    HW114324   0.876   3.370   0.744
 4475SOL    HW214325   1.039   3.370   0.753
 4476SOL     OW14326   4.730   0.638   3.792
 4476SOL    HW114327   4.776   0.611   3.707
 4476SOL    HW214328   4.755   0.732   3.814
 4477SOL     OW14329   6.546   1.163   4.735
 4477SOL    HW114330   6.457   1.144   4.774
 4477SOL    HW214331   6.576   1.255   4.762
 4478SOL     OW14332   0.823   0.430   2.493
 4478SOL    HW114333   0.746   0.446   2.555
 4478SOL    HW214334   0.799   0.358   2.428
 4479SOL     OW14335   2.734   3.382   0.255
 4479SOL    HW114336   2.640   3.402   0.226
 4479SOL    HW214337   2.744   3.284   0.272
 4480SOL     OW14338   6.656   0.625   3.178
 4480SOL    HW114339   6.597   0.548   3.155
 4480SOL    HW214340   6.733   0.628   3.115
 4481SOL     OW14341   2.019   4.012   5.957
 4481SOL    HW114342   2.010   4.098   6.007
 4481SOL    HW214343   2.060   4.030   5.867
 4482SOL     OW14344   2.803   6.722   1.219
 4482SOL    HW114345   2.773   6.632   1.186
 4482SOL    HW214346   2.899   6.717   1.247
 4483SOL     OW14347   1.201   2.943   0.941
 4483SOL    HW114348   1.152   2.915   0.859
 4483SOL    HW214349   1.220   3.041   0.937
 4484SOL     OW14350   4.360   0.128   0.955
 4484SOL    HW114351   4.458   0.145   0.945
 4484SOL    HW214352   4.340   0.095   1.047
 4485SOL     OW14353   0.367   2.343   5.219
 4485SOL    HW114354   0.309   2.314   5.296
 4485SOL    HW214355   0.404   2.433   5.237
 4486SOL     OW14356   5.468   4.720   3.559
 4486SOL    HW114357   5.519   4.803   3.538
 4486SOL    HW214358   5.515   4.669   3.632
 4487SOL     OW14359   0.114   3.203   6.773
 4487SOL    HW114360   0.068   3.149   6.703
 4487SOL    HW214361   0.140   3.292   6.736
 4488SOL     OW14362   5.625   4.473   3.483
 4488SOL    HW114363   5.569   4.535   3.539
 4488SOL    HW214364   5.700   4.524   3.442
 4489SOL     OW14365   3.422   6.058   5.886
 4489SOL    HW114366   3.465   6.071   5.975
 4489SOL    HW214367   3.425   6.144   5.834
 4490SOL     OW14368   5.204   1.516   1.742
 4490SOL    HW114369   5.246   1.513   1.833
 4490SOL    HW214370   5.125   1.455   1.740
 4491SOL     OW14371   0.352   4.482   3.067
 4491SOL    HW114372   0.256   4.461   3.086
 4491SOL    HW214373   0.400   4.399   3.039
 4492SOL     OW14374   6.634   0.977   2.082
 4492SOL    HW114375   6.569   0.933   2.144
 4492SOL    HW214376   6.634   1.075   2.098
 4493SOL     OW14377   5.220   1.262   5.754
 4493SOL    HW114378   5.213   1.347   5.703
 4493SOL    HW214379   5.299   1.209   5.722
 4494SOL     OW14380   1.206   1.473   2.334
 4494SOL    HW114381   1.245   1.417   2.406
 4494SOL    HW214382   1.210   1.569   2.361
 4495SOL     OW14383   3.918   6.122   1.575
 4495SOL    HW114384   3.900   6.090   1.668
 4495SOL    HW214385   3.832   6.142   1.529
 4496SOL     OW14386   2.253   5.287   5.601
 4496SOL    HW114387   2.166   5.239   5.616
 4496SOL    HW214388   2.281   5.275   5.506
 4497SOL     OW14389   5.171   6.260   4.949
 4497SOL    HW114390   5.076   6.275   4.923
 4497SOL    HW214391   5.200   6.331   5.013
 4498SOL     OW14392   1.809   5.215   3.565
 4498SOL    HW114393   1.846   5.166   3.486
 4498SOL    HW214394   1.871   5.289   3.591
 4499SOL     OW14395   5.199   1.255   2.201
 4499SOL    HW114396   5.188   1.327   2.269
 4499SOL    HW214397   5.291   1.258   2.163
 4500SOL     OW14398   3.318   6.424   0.190
 4500SOL    HW114399   3.372   6.421   0.106
 4500SOL    HW214400   3.375   6.397   0.267
 4501SOL     OW14401   5.234   0.502   3.294
 4501SOL    HW114402   5.176   0.474   3.371
 4501SOL    HW214403   5.183   0.566   3.236
 4502SOL     OW14404   0.785   3.829   6.793
 4502SOL    HW114405   0.791   3.922   6.756
 4502SOL    HW214406   0.738   3.831   6.882
 4503SOL     OW14407   3.385   1.588   3.432
 4503SOL    HW114408   3.460   1.596   3.367
 4503SOL    HW214409   3.389   1.663   3.498
 4504SOL     OW14410   0.817   3.204   3.738
 4504SOL    HW114411   0.887   3.140   3.770
 4504SOL    HW214412   0.818   3.207   3.638
 4505SOL     OW14413   6.424   3.797   3.611
 4505SOL    HW114414   6.441   3.776   3.708
 4505SOL    HW214415   6.498   3.853   3.576
 4506SOL     OW14416   4.363   4.182   6.932
 4506SOL    HW114417   4.267   4.185   6.901
 4506SOL    HW214418   4.415   4.255   6.887
 4507SOL     OW14419   5.559   2.324   2.837
 4507SOL    HW114420   5.587   2.246   2.781
 4507SOL    HW214421   5.612   2.405   2.811
 4508SOL     OW14422   6.800   3.927   0.872
 4508SOL    HW114423   6.768   4.014   0.834
 4508SOL    HW214424   6.729   3.857   0.860
 4509SOL     OW14425   4.724   1.513   2.537
 4509SOL    HW114426   4.691   1.419   2.542
 4509SOL    HW214427   4.692   1.556   2.453
 4510SOL     OW14428   5.014   1.383   3.717
 4510SOL    HW114429   4.955   1.463   3.704
 4510SOL    HW214430   5.040   1.347   3.627
 4511SOL     OW14431   1.056   3.953   6.679
 4511SOL    HW114432   1.029   3.872   6.732
 4511SOL    HW214433   1.153   3.971   6.693
 4512SOL     OW14434   2.752   3.669   6.250
 4512SOL    HW114435   2.755   3.742   6.182
 4512SOL    HW214436   2.836   3.614   6.245
 4513SOL     OW14437   0.505   1.678   0.834
 4513SOL    HW114438   0.453   1.688   0.749
 4513SOL    HW214439   0.468   1.739   0.903
 4514SOL     OW14440   4.059   5.389   6.774
 4514SOL    HW114441   4.138   5.446   6.749
 4514SOL    HW214442   4.038   5.402   6.871
 4515SOL     OW14443   4.806   6.774   5.951
 4515SOL    HW114444   4.837   6.798   5.859
 4515SOL    HW214445   4.706   6.782   5.957
 4516SOL     OW14446   3.589   1.809   5.024
 4516SOL    HW114447   3.601   1.802   4.925
 4516SOL    HW214448   3.610   1.902   5.054
 4517SOL     OW14449   3.583   0.311   4.400
 4517SOL    HW114450   3.491   0.350   4.391
 4517SOL    HW214451   3.604   0.256   4.320
 4518SOL     OW14452   6.873   6.385   0.738
 4518SOL    HW114453   6.893   6.475   0.776
 4518SOL    HW214454   6.818   6.332   0.803
 4519SOL     OW14455   5.196   6.460   6.595
 4519SOL    HW114456   5.227   6.526   6.665
 4519SOL    HW214457   5.097   6.456   6.595
 4520SOL     OW14458   4.864   5.169   4.918
 4520SOL    HW114459   4.859   5.097   4.849
 4520SOL    HW214460   4.937   5.233   4.893
 4521SOL     OW14461   5.043   2.655   3.965
 4521SOL    HW114462   5.063   2.618   4.055
 4521SOL    HW214463   4.945   2.676   3.959
 4522SOL     OW14464   5.410   4.403   4.007
 4522SOL    HW114465   5.494   4.384   4.058
 4522SOL    HW214466   5.427   4.388   3.910
 4523SOL     OW14467   1.339   2.687   0.149
 4523SOL    HW114468   1.344   2.652   0.055
 4523SOL    HW214469   1.422   2.661   0.199
 4524SOL     OW14470   1.893   3.435   1.801
 4524SOL    HW114471   1.840   3.454   1.884
 4524SOL    HW214472   1.896   3.517   1.744
 4525SOL     OW14473   3.266   1.665   6.152
 4525SOL    HW114474   3.300   1.621   6.235
 4525SOL    HW214475   3.310   1.754   6.142
 4526SOL     OW14476   0.739   0.082   5.385
 4526SOL    HW114477   0.659   0.079   5.324
 4526SOL    HW214478   0.793   0.164   5.364
 4527SOL     OW14479   1.180   2.891   2.962
 4527SOL    HW114480   1.276   2.900   2.936
 4527SOL    HW214481   1.125   2.950   2.902
 4528SOL     OW14482   5.115   1.777   4.346
 4528SOL    HW114483   5.153   1.699   4.297
 4528SOL    HW214484   5.119   1.760   4.445
 4529SOL     OW14485   1.094   2.875   3.600
 4529SOL    HW114486   1.100   2.940   3.676
 4529SOL    HW214487   1.035   2.913   3.529
 4530SOL     OW14488   3.971   4.490   6.241
 4530SOL    HW114489   3.940   4.402   6.276
 4530SOL    HW214490   3.911   4.562   6.275
 4531SOL     OW14491   1.402   6.834   4.982
 4531SOL    HW114492   1.394   6.924   5.025
 4531SOL    HW214493   1.494   6.822   4.945
 4532SOL     OW14494   5.786   0.409   2.193
 4532SOL    HW114495   5.859   0.390   2.127
 4532SOL    HW214496   5.818   0.390   2.285
 4533SOL     OW14497   2.905   6.018   1.202
 4533SOL    HW114498   2.863   5.971   1.124
 4533SOL    HW214499   2.837   6.075   1.247
 4534SOL     OW14500   6.236   1.571   5.009
 4534SOL    HW114501   6.305   1.597   4.941
 4534SOL    HW214502   6.145   1.587   4.972
 4535SOL     OW14503   1.932   6.874   0.483
 4535SOL    HW114504   1.923   6.937   0.405
 4535SOL    HW214505   1.949   6.782   0.448
 4536SOL     OW14506   3.885   0.585   5.464
 4536SOL    HW114507   3.935   0.573   5.550
 4536SOL    HW214508   3.790   0.553   5.476
 4537SOL     OW14509   3.531   3.850   3.506
 4537SOL    HW114510   3.443   3.802   3.513
 4537SOL    HW214511   3.515   3.949   3.507
 4538SOL     OW14512   1.753   2.340   0.240
 4538SOL    HW114513   1.728   2.258   0.291
 4538SOL    HW214514   1.739   2.420   0.297
 4539SOL     OW14515   1.006   5.031   5.366
 4539SOL    HW114516   1.095   5.078   5.362
 4539SOL    HW214517   0.990   4.984   5.279
 4540SOL     OW14518   1.909   1.195   0.128
 4540SOL    HW114519   1.916   1.145   0.041
 4540SOL    HW214520   1.959   1.281   0.120
 4541SOL     OW14521   4.337   2.829   0.337
 4541SOL    HW114522   4.305   2.816   0.243
 4541SOL    HW214523   4.258   2.843   0.397
 4542SOL     OW14524   0.225   2.220   0.579
 4542SOL    HW114525   0.200   2.232   0.676
 4542SOL    HW214526   0.144   2.190   0.528
 4543SOL     OW14527   4.351   1.234   0.776
 4543SOL    HW114528   4.412   1.302   0.735
 4543SOL    HW214529   4.301   1.276   0.852
 4544SOL     OW14530   4.711   6.073   6.998
 4544SOL    HW114531   4.719   5.985   0.025
 4544SOL    HW214532   4.615   6.102   6.999
 4545SOL     OW14533   2.666   3.122   6.099
 4545SOL    HW114534   2.634   3.095   6.009
 4545SOL    HW214535   2.724   3.203   6.091
 4546SOL     OW14536   5.166   6.735   5.329
 4546SOL    HW114537   5.213   6.681   5.400
 4546SOL    HW214538   5.205   6.713   5.240
 4547SOL     OW14539   6.941   0.091   0.776
 4547SOL    HW114540   6.974   7.015   0.773
 4547SOL    HW214541   6.864   0.101   0.713
 4548SOL     OW14542   3.652   0.964   1.781
 4548SOL    HW114543   3.681   1.041   1.838
 4548SOL    HW214544   3.648   0.881   1.837
 4549SOL     OW14545   7.014   5.502   3.443
 4549SOL    HW114546   6.975   5.575   3.388
 4549SOL    HW214547   6.948   5.475   3.514
 4550SOL     OW14548   2.461   5.646   6.791
 4550SOL    HW114549   2.535   5.611   6.848
 4550SOL    HW214550   2.464   5.600   6.702
 4551SOL     OW14551   3.498   3.146   6.246
 4551SOL    HW114552   3.481   3.148   6.344
 4551SOL    HW214553   3.455   3.065   6.206
 4552SOL     OW14554   5.543   0.805   6.258
 4552SOL    HW114555   5.462   0.768   6.304
 4552SOL    HW214556   5.600   0.729   6.227
 4553SOL     OW14557   0.006   6.823   0.772
 4553SOL    HW114558   0.006   6.730   0.808
 4553SOL    HW214559   7.012   6.820   0.672
 4554SOL     OW14560   5.510   5.907   2.893
 4554SOL    HW114561   5.510   5.814   2.931
 4554SOL    HW214562   5.439   5.914   2.823
 4555SOL     OW14563   0.577   0.393   3.345
 4555SOL    HW114564   0.579   0.368   3.441
 4555SOL    HW214565   0.627   0.479   3.332
 4556SOL     OW14566   5.471   4.982   4.388
 4556SOL    HW114567   5.530   4.952   4.462
 4556SOL    HW214568   5.386   4.929   4.389
 4557SOL     OW14569   0.452   5.937   5.324
 4557SOL    HW114570   0.421   5.950   5.418
 4557SOL    HW214571   0.482   5.842   5.311
 4558SOL     OW14572   0.634   4.486   3.926
 4558SOL    HW114573   0.661   4.473   4.021
 4558SOL    HW214574   0.655   4.580   3.898
 4559SOL     OW14575   0.176   3.258   4.408
 4559SOL    HW114576   0.236   3.318   4.355
 4559SOL    HW214577   0.231   3.197   4.464
 4560SOL     OW14578   6.514   3.321   4.481
 4560SOL    HW114579   6.477   3.245   4.536
 4560SOL    HW214580   6.606   3.343   4.513
 4561SOL     OW14581   5.542   3.662   4.756
 4561SOL    HW114582   5.618   3.687   4.696
 4561SOL    HW214583   5.575   3.648   4.849
 4562SOL     OW14584   5.002   1.251   1.170
 4562SOL    HW114585   4.936   1.279   1.100
 4562SOL    HW214586   5.054   1.172   1.137
 4563SOL     OW14587   1.099   3.581   2.803
 4563SOL    HW114588   1.195   3.583   2.829
 4563SOL    HW214589   1.043   3.562   2.884
 4564SOL     OW14590   2.169   3.812   2.341
 4564SOL    HW114591   2.233   3.735   2.353
 4564SOL    HW214592   2.180   3.876   2.417
 4565SOL     OW14593   2.094   6.305   4.957
 4565SOL    HW114594   2.018   6.256   4.915
 4565SOL    HW214595   2.060   6.388   5.002
 4566SOL     OW14596   6.520   5.216   2.921
 4566SOL    HW114597   6.592   5.223   2.990
 4566SOL    HW214598   6.553   5.161   2.844
 4567SOL     OW14599   1.611   0.254   0.423
 4567SOL    HW114600   1.552   0.322   0.377
 4567SOL    HW214601   1.554   0.193   0.478
 4568SOL     OW14602   6.936   4.503   4.636
 4568SOL    HW114603   6.982   4.585   4.601
 4568SOL    HW214604   6.897   4.451   4.560
 4569SOL     OW14605   6.636   2.291   3.439
 4569SOL    HW114606   6.651   2.199   3.402
 4569SOL    HW214607   6.607   2.352   3.366
 4570SOL     OW14608   4.696   5.565   1.579
 4570SOL    HW114609   4.709   5.624   1.659
 4570SOL    HW214610   4.617   5.597   1.526
 4571SOL     OW14611   2.284   2.524   5.056
 4571SOL    HW114612   2.185   2.536   5.055
 4571SOL    HW214613   2.325   2.588   5.121
 4572SOL     OW14614   5.307   2.992   1.939
 4572SOL    HW114615   5.329   3.070   1.998
 4572SOL    HW214616   5.220   2.952   1.968
 4573SOL     OW14617   2.923   4.642   1.075
 4573SOL    HW114618   3.005   4.659   1.021
 4573SOL    HW214619   2.937   4.676   1.168
 4574SOL     OW14620   4.659   0.240   2.083
 4574SOL    HW114621   4.658   0.184   2.000
 4574SOL    HW214622   4.600   0.320   2.070
 4575SOL     OW14623   0.150   1.694   5.213
 4575SOL    HW114624   0.169   1.781   5.258
 4575SOL    HW214625   0.218   1.678   5.142
 4576SOL     OW14626   3.077   3.747   6.958
 4576SOL    HW114627   3.154   3.763   6.896
 4576SOL    HW214628   2.991   3.750   6.906
 4577SOL     OW14629   0.581   1.624   2.377
 4577SOL    HW114630   0.493   1.648   2.334
 4577SOL    HW214631   0.639   1.579   2.310
 4578SOL     OW14632   2.173   0.670   2.378
 4578SOL    HW114633   2.241   0.736   2.346
 4578SOL    HW214634   2.209   0.621   2.457
 4579SOL     OW14635   3.528   0.904   2.327
 4579SOL    HW114636   3.455   0.835   2.326
 4579SOL    HW214637   3.488   0.994   2.341
 4580SOL     OW14638   0.927   0.060   1.410
 4580SOL    HW114639   0.917   0.138   1.347
 4580SOL    HW214640   1.010   0.071   1.464
 4581SOL     OW14641   3.303   0.473   1.302
 4581SOL    HW114642   3.268   0.399   1.359
 4581SOL    HW214643   3.391   0.503   1.336
 4582SOL     OW14644   5.839   1.386   4.902
 4582SOL    HW114645   5.752   1.418   4.866
 4582SOL    HW214646   5.914   1.435   4.858
 4583SOL     OW14647   1.510   5.828   6.637
 4583SOL    HW114648   1.439   5.898   6.634
 4583SOL    HW214649   1.593   5.866   6.677
 4584SOL     OW14650   6.201   0.798   4.351
 4584SOL    HW114651   6.287   0.770   4.310
 4584SOL    HW214652   6.215   0.883   4.403
 4585SOL     OW14653   1.280   3.189   2.622
 4585SOL    HW114654   1.246   3.282   2.610
 4585SOL    HW214655   1.345   3.168   2.549
 4586SOL     OW14656   0.547   4.148   5.827
 4586SOL    HW114657   0.517   4.232   5.782
 4586SOL    HW214658   0.603   4.170   5.906
 4587SOL     OW14659   3.979   3.406   6.103
 4587SOL    HW114660   3.945   3.315   6.128
 4587SOL    HW214661   3.908   3.455   6.052
 4588SOL     OW14662   2.166   4.911   6.601
 4588SOL    HW114663   2.224   4.961   6.664
 4588SOL    HW214664   2.191   4.814   6.603
 4589SOL     OW14665   5.051   6.415   2.292
 4589SOL    HW114666   5.000   6.477   2.232
 4589SOL    HW214667   5.097   6.346   2.237
 4590SOL     OW14668   2.017   5.227   1.805
 4590SOL    HW114669   2.017   5.143   1.750
 4590SOL    HW214670   2.109   5.243   1.842
 4591SOL     OW14671   2.393   1.849   5.361
 4591SOL    HW114672   2.316   1.800   5.320
 4591SOL    HW214673   2.364   1.940   5.389
 4592SOL     OW14674   2.602   2.396   2.759
 4592SOL    HW114675   2.623   2.350   2.673
 4592SOL    HW214676   2.684   2.401   2.816
 4593SOL     OW14677   2.073   5.599   5.101
 4593SOL    HW114678   2.124   5.615   5.016
 4593SOL    HW214679   2.031   5.508   5.098
 4594SOL     OW14680   0.835   6.814   3.413
 4594SOL    HW114681   0.819   6.845   3.506
 4594SOL    HW214682   0.931   6.786   3.403
 4595SOL     OW14683   5.539   1.504   6.633
 4595SOL    HW114684   5.615   1.448   6.667
 4595SOL    HW214685   5.468   1.509   6.703
 4596SOL     OW14686   0.761   1.505   2.227
 4596SOL    HW114687   0.799   1.415   2.249
 4596SOL    HW214688   0.735   1.507   2.131
 4597SOL     OW14689   1.748   5.392   0.483
 4597SOL    HW114690   1.746   5.438   0.572
 4597SOL    HW214691   1.812   5.316   0.486
 4598SOL     OW14692   0.693   2.187   0.291
 4598SOL    HW114693   0.613   2.173   0.232
 4598SOL    HW214694   0.757   2.250   0.246
 4599SOL     OW14695   3.063   6.307   2.907
 4599SOL    HW114696   3.041   6.403   2.925
 4599SOL    HW214697   2.983   6.261   2.870
 4600SOL     OW14698   0.241   6.601   5.478
 4600SOL    HW114699   0.308   6.527   5.475
 4600SOL    HW214700   0.285   6.687   5.454
 4601SOL     OW14701   1.433   1.132   4.936
 4601SOL    HW114702   1.508   1.197   4.946
 4601SOL    HW214703   1.363   1.171   4.876
 4602SOL     OW14704   4.661   0.477   5.332
 4602SOL    HW114705   4.602   0.550   5.298
 4602SOL    HW214706   4.737   0.463   5.269
 4603SOL     OW14707   4.597   6.885   0.439
 4603SOL    HW114708   4.568   6.937   0.519
 4603SOL    HW214709   4.527   6.817   0.416
 4604SOL     OW14710   0.296   6.814   3.649
 4604SOL    HW114711   0.388   6.787   3.676
 4604SOL    HW214712   0.272   6.768   3.563
 4605SOL     OW14713   4.040   1.451   2.199
 4605SOL    HW114714   3.943   1.458   2.224
 4605SOL    HW214715   4.096   1.461   2.281
 4606SOL     OW14716   6.578   0.127   4.512
 4606SOL    HW114717   6.514   0.193   4.472
 4606SOL    HW214718   6.602   0.157   4.604
 4607SOL     OW14719   2.566   2.102   1.268
 4607SOL    HW114720   2.605   2.044   1.195
 4607SOL    HW214721   2.628   2.102   1.346
 4608SOL     OW14722   0.416   2.672   5.953
 4608SOL    HW114723   0.362   2.679   5.870
 4608SOL    HW214724   0.509   2.705   5.935
 4609SOL     OW14725   5.507   4.959   6.244
 4609SOL    HW114726   5.472   5.048   6.214
 4609SOL    HW214727   5.430   4.900   6.267
 4610SOL     OW14728   4.814   4.009   6.321
 4610SOL    HW114729   4.717   4.009   6.343
 4610SOL    HW214730   4.833   3.936   6.255
 4611SOL     OW14731   0.470   0.410   6.781
 4611SOL    HW114732   0.550   0.414   6.841
 4611SOL    HW214733   0.495   0.446   6.691
 4612SOL     OW14734   1.696   0.760   2.239
 4612SOL    HW114735   1.617   0.807   2.278
 4612SOL    HW214736   1.774   0.769   2.301
 4613SOL     OW14737   1.435   5.094   3.844
 4613SOL    HW114738   1.535   5.088   3.840
 4613SOL    HW214739   1.403   5.055   3.930
 4614SOL     OW14740   6.554   4.998   2.648
 4614SOL    HW114741   6.578   4.917   2.595
 4614SOL    HW214742   6.465   5.033   2.618
 4615SOL     OW14743   0.771   4.477   6.650
 4615SOL    HW114744   0.799   4.570   6.669
 4615SOL    HW214745   0.804   4.416   6.722
 4616SOL     OW14746   1.628   4.799   6.026
 4616SOL    HW114747   1.549   4.857   6.010
 4616SOL    HW214748   1.661   4.763   5.939
 4617SOL     OW14749   0.858   4.472   4.607
 4617SOL    HW114750   0.785   4.527   4.646
 4617SOL    HW214751   0.820   4.406   4.543
 4618SOL     OW14752   2.317   4.336   5.045
 4618SOL    HW114753   2.243   4.271   5.031
 4618SOL    HW214754   2.369   4.347   4.960
 4619SOL     OW14755   4.943   5.926   6.598
 4619SOL    HW114756   4.979   6.019   6.594
 4619SOL    HW214757   4.845   5.929   6.619
 4620SOL     OW14758   1.000   4.766   2.108
 4620SOL    HW114759   0.927   4.698   2.098
 4620SOL    HW214760   1.001   4.825   2.027
 4621SOL     OW14761   2.276   0.474   2.560
 4621SOL    HW114762   2.219   0.413   2.614
 4621SOL    HW214763   2.371   0.468   2.591
 4622SOL     OW14764   5.953   6.684   0.803
 4622SOL    HW114765   6.016   6.735   0.744
 4622SOL    HW214766   6.005   6.628   0.867
 4623SOL     OW14767   2.763   4.915   2.334
 4623SOL    HW114768   2.840   4.976   2.354
 4623SOL    HW214769   2.677   4.963   2.352
 4624SOL     OW14770   5.499   1.819   0.310
 4624SOL    HW114771   5.456   1.903   0.342
 4624SOL    HW214772   5.554   1.838   0.228
 4625SOL     OW14773   0.616   0.017   1.769
 4625SOL    HW114774   0.611   0.032   1.868
 4625SOL    HW214775   0.530   6.995   1.737
 4626SOL     OW14776   4.232   3.981   1.770
 4626SOL    HW114777   4.219   3.952   1.865
 4626SOL    HW214778   4.309   4.046   1.766
 4627SOL     OW14779   5.828   6.307   4.670
 4627SOL    HW114780   5.925   6.286   4.683
 4627SOL    HW214781   5.804   6.389   4.723
 4628SOL     OW14782   6.223   3.393   2.318
 4628SOL    HW114783   6.173   3.314   2.284
 4628SOL    HW214784   6.313   3.364   2.351
 4629SOL     OW14785   1.268   5.186   1.099
 4629SOL    HW114786   1.185   5.229   1.135
 4629SOL    HW214787   1.270   5.090   1.126
 4630SOL     OW14788   1.670   3.306   1.645
 4630SOL    HW114789   1.770   3.312   1.642
 4630SOL    HW214790   1.632   3.352   1.565
 4631SOL     OW14791   5.825   1.396   1.418
 4631SOL    HW114792   5.921   1.402   1.444
 4631SOL    HW214793   5.792   1.487   1.392
 4632SOL     OW14794   2.521   5.187   3.621
 4632SOL    HW114795   2.466   5.211   3.541
 4632SOL    HW214796   2.589   5.118   3.596
 4633SOL     OW14797   5.204   3.499   3.532
 4633SOL    HW114798   5.166   3.449   3.610
 4633SOL    HW214799   5.243   3.434   3.467
 4634SOL     OW14800   3.924   3.069   5.085
 4634SOL    HW114801   3.902   3.126   5.006
 4634SOL    HW214802   3.859   2.994   5.091
 4635SOL     OW14803   3.997   0.093   2.243
 4635SOL    HW114804   3.981   0.050   2.154
 4635SOL    HW214805   4.070   0.044   2.291
 4636SOL     OW14806   1.236   5.806   6.870
 4636SOL    HW114807   1.256   5.891   6.821
 4636SOL    HW214808   1.321   5.763   6.899
 4637SOL     OW14809   1.992   2.727   3.433
 4637SOL    HW114810   2.019   2.701   3.340
 4637SOL    HW214811   2.046   2.806   3.462
 4638SOL     OW14812   4.111   4.304   6.603
 4638SOL    HW114813   4.133   4.239   6.530
 4638SOL    HW214814   4.154   4.273   6.688
 4639SOL     OW14815   3.906   2.868   1.780
 4639SOL    HW114816   3.850   2.787   1.792
 4639SOL    HW214817   3.863   2.928   1.712
 4640SOL     OW14818   0.446   2.089   0.611
 4640SOL    HW114819   0.369   2.130   0.563
 4640SOL    HW214820   0.520   2.156   0.618
 4641SOL     OW14821   0.872   5.945   4.563
 4641SOL    HW114822   0.824   6.030   4.584
 4641SOL    HW214823   0.908   5.950   4.470
 4642SOL     OW14824   5.624   1.021   6.454
 4642SOL    HW114825   5.687   1.068   6.392
 4642SOL    HW214826   5.608   0.928   6.420
 4643SOL     OW14827   0.928   1.909   0.222
 4643SOL    HW114828   0.868   1.948   0.153
 4643SOL    HW214829   0.903   1.943   0.312
 4644SOL     OW14830   1.258   2.240   1.018
 4644SOL    HW114831   1.182   2.236   1.083
 4644SOL    HW214832   1.344   2.242   1.068
 4645SOL     OW14833   5.622   2.531   5.873
 4645SOL    HW114834   5.527   2.542   5.901
 4645SOL    HW214835   5.652   2.438   5.894
 4646SOL     OW14836   1.244   4.118   2.324
 4646SOL    HW114837   1.197   4.066   2.253
 4646SOL    HW214838   1.213   4.213   2.322
 4647SOL     OW14839   1.261   5.955   2.214
 4647SOL    HW114840   1.202   5.948   2.295
 4647SOL    HW214841   1.205   5.949   2.131
 4648SOL     OW14842   2.805   1.472   4.353
 4648SOL    HW114843   2.887   1.486   4.408
 4648SOL    HW214844   2.808   1.380   4.313
 4649SOL     OW14845   4.586   3.309   1.578
 4649SOL    HW114846   4.518   3.381   1.589
 4649SOL    HW214847   4.542   3.220   1.587
 4650SOL     OW14848   3.677   4.932   0.501
 4650SOL    HW114849   3.659   4.972   0.591
 4650SOL    HW214850   3.597   4.943   0.442
 4651SOL     OW14851   1.622   2.881   0.021
 4651SOL    HW114852   1.690   2.930   0.076
 4651SOL    HW214853   1.663   2.797   7.004
 4652SOL     OW14854   6.366   6.904   5.762
 4652SOL    HW114855   6.432   6.936   5.830
 4652SOL    HW214856   6.353   6.805   5.772
 4653SOL     OW14857   1.090   6.433   0.639
 4653SOL    HW114858   1.189   6.436   0.648
 4653SOL    HW214859   1.065   6.434   0.542
 4654SOL     OW14860   0.781   1.047   5.251
 4654SOL    HW114861   0.790   0.957   5.293
 4654SOL    HW214862   0.692   1.054   5.206
 4655SOL     OW14863   5.369   5.148   3.015
 4655SOL    HW114864   5.373   5.162   2.916
 4655SOL    HW214865   5.275   5.155   3.046
 4656SOL     OW14866   6.325   0.677   1.332
 4656SOL    HW114867   6.320   0.605   1.263
 4656SOL    HW214868   6.262   0.751   1.308
 4657SOL     OW14869   3.540   2.096   2.199
 4657SOL    HW114870   3.465   2.068   2.140
 4657SOL    HW214871   3.596   2.165   2.151
 4658SOL     OW14872   1.773   1.025   0.333
 4658SOL    HW114873   1.779   1.076   0.420
 4658SOL    HW214874   1.817   1.078   0.261
 4659SOL     OW14875   2.324   5.042   0.928
 4659SOL    HW114876   2.264   4.969   0.961
 4659SOL    HW214877   2.269   5.114   0.886
 4660SOL     OW14878   0.240   4.672   4.820
 4660SOL    HW114879   0.250   4.600   4.751
 4660SOL    HW214880   0.174   4.740   4.788
 4661SOL     OW14881   0.399   0.828   5.216
 4661SOL    HW114882   0.303   0.799   5.213
 4661SOL    HW214883   0.404   0.925   5.192
 4662SOL     OW14884   2.788   0.023   6.451
 4662SOL    HW114885   2.843   0.063   6.377
 4662SOL    HW214886   2.747   6.957   6.418
 4663SOL     OW14887   0.321   0.184   1.100
 4663SOL    HW114888   0.307   0.245   1.023
 4663SOL    HW214889   0.250   0.114   1.102
 4664SOL     OW14890   6.451   6.259   5.289
 4664SOL    HW114891   6.439   6.164   5.260
 4664SOL    HW214892   6.528   6.265   5.352
 4665SOL     OW14893   0.472   1.558   2.727
 4665SOL    HW114894   0.525   1.511   2.657
 4665SOL    HW214895   0.508   1.535   2.817
 4666SOL     OW14896   1.736   2.759   5.838
 4666SOL    HW114897   1.745   2.783   5.935
 4666SOL    HW214898   1.780   2.671   5.821
 4667SOL     OW14899   6.751   2.062   1.340
 4667SOL    HW114900   6.709   2.122   1.270
 4667SOL    HW214901   6.706   2.078   1.428
 4668SOL     OW14902   4.742   2.061   5.030
 4668SOL    HW114903   4.644   2.073   5.011
 4668SOL    HW214904   4.754   1.985   5.094
 4669SOL     OW14905   5.666   6.097   6.260
 4669SOL    HW114906   5.584   6.087   6.316
 4669SOL    HW214907   5.700   6.191   6.267
 4670SOL     OW14908   0.491   3.220   0.176
 4670SOL    HW114909   0.561   3.290   0.163
 4670SOL    HW214910   0.497   3.152   0.103
 4671SOL     OW14911   0.259   1.769   1.743
 4671SOL    HW114912   0.184   1.829   1.714
 4671SOL    HW214913   0.269   1.694   1.678
 4672SOL     OW14914   4.487   3.091   0.592
 4672SOL    HW114915   4.556   3.099   0.519
 4672SOL    HW214916   4.400   3.129   0.559
 4673SOL     OW14917   4.842   1.505   0.601
 4673SOL    HW114918   4.794   1.460   0.676
 4673SOL    HW214919   4.902   1.576   0.638
 4674SOL     OW14920   1.064   3.021   0.631
 4674SOL    HW114921   1.164   3.012   0.629
 4674SOL    HW214922   1.023   2.936   0.663
 4675SOL     OW14923   2.041   6.635   0.378
 4675SOL    HW114924   2.138   6.613   0.376
 4675SOL    HW214925   2.003   6.628   0.286
 4676SOL     OW14926   0.131   5.351   4.729
 4676SOL    HW114927   0.224   5.319   4.745
 4676SOL    HW214928   0.114   5.433   4.783
 4677SOL     OW14929   4.848   6.937   6.976
 4677SOL    HW114930   4.943   6.942   6.946
 4677SOL    HW214931   4.840   6.871   0.032
 4678SOL     OW14932   2.479   5.269   0.328
 4678SOL    HW114933   2.455   5.172   0.325
 4678SOL    HW214934   2.455   5.306   0.418
 4679SOL     OW14935   1.938   6.691   5.384
 4679SOL    HW114936   1.974   6.619   5.324
 4679SOL    HW214937   1.948   6.662   5.479
 4680SOL     OW14938   1.359   5.594   6.178
 4680SOL    HW114939   1.368   5.682   6.225
 4680SOL    HW214940   1.265   5.583   6.145
 4681SOL     OW14941   6.637   6.343   5.492
 4681SOL    HW114942   6.687   6.430   5.494
 4681SOL    HW214943   6.660   6.290   5.574
 4682SOL     OW14944   3.016   0.083   0.590
 4682SOL    HW114945   3.050   0.049   0.502
 4682SOL    HW214946   2.916   0.088   0.586
 4683SOL     OW14947   0.525   5.007   3.717
 4683SOL    HW114948   0.603   5.016   3.778
 4683SOL    HW214949   0.440   5.008   3.770
 4684SOL     OW14950   2.361   1.049   5.057
 4684SOL    HW114951   2.266   1.029   5.080
 4684SOL    HW214952   2.420   0.978   5.095
 4685SOL     OW14953   5.206   4.690   4.106
 4685SOL    HW114954   5.231   4.661   4.013
 4685SOL    HW214955   5.271   4.653   4.171
 4686SOL     OW14956   4.711   5.172   6.306
 4686SOL    HW114957   4.773   5.237   6.351
 4686SOL    HW214958   4.643   5.223   6.253
 4687SOL     OW14959   4.292   1.120   4.949
 4687SOL    HW114960   4.225   1.177   4.997
 4687SOL    HW214961   4.385   1.151   4.971
 4688SOL     OW14962   0.039   0.610   1.008
 4688SOL    HW114963   7.006   0.546   1.065
 4688SOL    HW214964   0.113   0.562   0.962
 4689SOL     OW14965   2.013   5.708   4.697
 4689SOL    HW114966   2.074   5.782   4.723
 4689SOL    HW214967   1.938   5.744   4.642
 4690SOL     OW14968   2.830   1.881   0.576
 4690SOL    HW114969   2.920   1.921   0.557
 4690SOL    HW214970   2.820   1.796   0.525
 4691SOL     OW14971   2.966   4.694   0.031
 4691SOL    HW114972   3.000   4.635   0.105
 4691SOL    HW214973   3.018   4.779   0.031
 4692SOL     OW14974   1.059   4.788   3.367
 4692SOL    HW114975   1.098   4.855   3.304
 4692SOL    HW214976   0.981   4.828   3.414
 4693SOL     OW14977   0.930   2.047   2.262
 4693SOL    HW114978   0.888   1.964   2.225
 4693SOL    HW214979   0.911   2.124   2.202
 4694SOL     OW14980   1.570   0.904   4.905
 4694SOL    HW114981   1.518   0.986   4.928
 4694SOL    HW214982   1.654   0.931   4.856
 4695SOL     OW14983   3.298   3.744   3.235
 4695SOL    HW114984   3.306   3.724   3.332
 4695SOL    HW214985   3.218   3.801   3.219
 4696SOL     OW14986   0.387   2.476   6.995
 4696SOL    HW114987   0.441   2.546   6.947
 4696SOL    HW214988   0.394   2.389   6.947
 4697SOL     OW14989   0.682   4.962   6.900
 4697SOL    HW114990   0.618   4.962   6.823
 4697SOL    HW214991   0.716   5.055   6.915
 4698SOL     OW14992   5.286   3.163   2.459
 4698SOL    HW114993   5.375   3.151   2.415
 4698SOL    HW214994   5.213   3.152   2.392
 4699SOL     OW14995   6.718   0.487   2.869
 4699SOL    HW114996   6.753   0.405   2.823
 4699SOL    HW214997   6.789   0.557   2.872
 4700SOL     OW14998   5.223   0.082   5.175
 4700SOL    HW114999   5.224   0.067   5.274
 4700SOL    HW215000   5.222   0.180   5.156
 4701SOL     OW15001   2.267   1.033   5.855
 4701SOL    HW115002   2.246   0.967   5.927
 4701SOL    HW215003   2.256   0.990   5.766
 4702SOL     OW15004   3.624   2.827   1.282
 4702SOL    HW115005   3.573   2.910   1.301
 4702SOL    HW215006   3.644   2.779   1.368
 4703SOL     OW15007   0.536   6.356   2.115
 4703SOL    HW115008   0.626   6.389   2.144
 4703SOL    HW215009   0.515   6.394   2.025
 4704SOL     OW15010   4.560   6.485   6.368
 4704SOL    HW115011   4.481   6.516   6.317
 4704SOL    HW215012   4.624   6.440   6.306
 4705SOL     OW15013   3.749   2.933   4.876
 4705SOL    HW115014   3.815   2.858   4.867
 4705SOL    HW215015   3.676   2.906   4.939
 4706SOL     OW15016   5.650   3.073   0.223
 4706SOL    HW115017   5.732   3.126   0.203
 4706SOL    HW215018   5.603   3.113   0.303
 4707SOL     OW15019   2.720   4.457   0.701
 4707SOL    HW115020   2.723   4.536   0.763
 4707SOL    HW215021   2.757   4.377   0.747
 4708SOL     OW15022   2.067   2.761   2.593
 4708SOL    HW115023   2.162   2.759   2.561
 4708SOL    HW215024   2.061   2.718   2.683
 4709SOL     OW15025   2.967   4.081   0.339
 4709SOL    HW115026   3.000   3.987   0.343
 4709SOL    HW215027   2.987   4.127   0.426
 4710SOL     OW15028   4.658   2.613   1.198
 4710SOL    HW115029   4.694   2.699   1.163
 4710SOL    HW215030   4.701   2.592   1.286
 4711SOL     OW15031   2.676   7.001   3.378
 4711SOL    HW115032   2.595   7.016   3.322
 4711SOL    HW215033   2.749   0.044   3.350
 4712SOL     OW15034   1.395   3.332   6.676
 4712SOL    HW115035   1.308   3.325   6.628
 4712SOL    HW215036   1.408   3.251   6.734
 4713SOL     OW15037   0.648   5.868   1.116
 4713SOL    HW115038   0.582   5.943   1.120
 4713SOL    HW215039   0.720   5.891   1.051
 4714SOL     OW15040   4.183   2.198   0.924
 4714SOL    HW115041   4.190   2.195   1.024
 4714SOL    HW215042   4.247   2.133   0.884
 4715SOL     OW15043   5.092   3.500   4.748
 4715SOL    HW115044   5.160   3.564   4.712
 4715SOL    HW215045   5.086   3.421   4.688
 4716SOL     OW15046   1.922   5.527   6.305
 4716SOL    HW115047   1.927   5.600   6.373
 4716SOL    HW215048   1.862   5.454   6.338
 4717SOL     OW15049   1.967   4.986   4.800
 4717SOL    HW115050   1.893   4.926   4.771
 4717SOL    HW215051   2.054   4.937   4.795
 4718SOL     OW15052   4.597   6.521   0.076
 4718SOL    HW115053   4.624   6.452   0.009
 4718SOL    HW215054   4.609   6.612   0.036
 4719SOL     OW15055   4.585   3.241   1.211
 4719SOL    HW115056   4.552   3.171   1.275
 4719SOL    HW215057   4.534   3.235   1.126
 4720SOL     OW15058   2.006   2.099   3.521
 4720SOL    HW115059   1.932   2.155   3.484
 4720SOL    HW215060   2.067   2.071   3.447
 4721SOL     OW15061   1.831   1.424   1.699
 4721SOL    HW115062   1.774   1.408   1.619
 4721SOL    HW215063   1.926   1.439   1.670
 4722SOL     OW15064   2.414   1.231   2.820
 4722SOL    HW115065   2.465   1.207   2.903
 4722SOL    HW215066   2.316   1.234   2.841
 4723SOL     OW15067   3.001   0.734   5.444
 4723SOL    HW115068   3.062   0.663   5.479
 4723SOL    HW215069   2.908   0.717   5.477
 4724SOL     OW15070   4.336   5.780   1.240
 4724SOL    HW115071   4.251   5.727   1.233
 4724SOL    HW215072   4.329   5.842   1.319
 4725SOL     OW15073   5.889   5.029   2.498
 4725SOL    HW115074   5.920   4.967   2.569
 4725SOL    HW215075   5.832   4.979   2.432
 4726SOL     OW15076   6.540   6.537   4.189
 4726SOL    HW115077   6.537   6.570   4.283
 4726SOL    HW215078   6.456   6.487   4.169
 4727SOL     OW15079   4.914   6.545   1.734
 4727SOL    HW115080   4.964   6.519   1.652
 4727SOL    HW215081   4.979   6.558   1.809
 4728SOL     OW15082   6.731   6.370   6.603
 4728SOL    HW115083   6.778   6.312   6.670
 4728SOL    HW215084   6.646   6.327   6.575
 4729SOL     OW15085   3.236   0.752   1.477
 4729SOL    HW115086   3.178   0.751   1.395
 4729SOL    HW215087   3.232   0.662   1.521
 4730SOL     OW15088   1.664   0.690   6.177
 4730SOL    HW115089   1.649   0.786   6.151
 4730SOL    HW215090   1.743   0.654   6.129
 4731SOL     OW15091   4.746   1.491   5.528
 4731SOL    HW115092   4.841   1.512   5.549
 4731SOL    HW215093   4.700   1.459   5.611
 4732SOL     OW15094   0.497   6.982   6.239
 4732SOL    HW115095   0.411   7.013   6.279
 4732SOL    HW215096   0.553   6.939   6.309
 4733SOL     OW15097   5.434   3.708   3.179
 4733SOL    HW115098   5.503   3.686   3.111
 4733SOL    HW215099   5.444   3.804   3.207
 4734SOL     OW15100   6.556   3.619   6.056
 4734SOL    HW115101   6.528   3.694   6.117
 4734SOL    HW215102   6.487   3.547   6.058
 4735SOL     OW15103   0.032   3.887   3.677
 4735SOL    HW115104   0.099   3.851   3.743
 4735SOL    HW215105   0.048   3.985   3.664
 4736SOL     OW15106   1.477   0.048   2.266
 4736SOL    HW115107   1.517   6.980   2.296
 4736SOL    HW215108   1.384   0.032   2.234
 4737SOL     OW15109   3.123   5.320   2.291
 4737SOL    HW115110   3.197   5.270   2.246
 4737SOL    HW215111   3.156   5.409   2.321
 4738SOL     OW15112   0.928   0.237   3.289
 4738SOL    HW115113   0.865   0.252   3.365
 4738SOL    HW215114   0.954   0.324   3.249
 4739SOL     OW15115   3.756   0.103   1.559
 4739SOL    HW115116   3.659   0.079   1.546
 4739SOL    HW215117   3.776   0.110   1.656
 4740SOL     OW15118   0.928   1.718   4.519
 4740SOL    HW115119   0.892   1.810   4.504
 4740SOL    HW215120   0.954   1.678   4.431
 4741SOL     OW15121   3.746   4.098   3.447
 4741SOL    HW115122   3.749   4.049   3.360
 4741SOL    HW215123   3.835   4.139   3.466
 4742SOL     OW15124   4.645   0.959   2.969
 4742SOL    HW115125   4.614   1.043   2.923
 4742SOL    HW215126   4.722   0.980   3.029
 4743SOL     OW15127   0.530   5.245   0.798
 4743SOL    HW115128   0.464   5.262   0.870
 4743SOL    HW215129   0.615   5.294   0.818
 4744SOL     OW15130   1.491   4.884   1.427
 4744SOL    HW115131   1.419   4.831   1.383
 4744SOL    HW215132   1.457   4.975   1.449
 4745SOL     OW15133   1.850   3.061   0.125
 4745SOL    HW115134   1.848   2.996   0.201
 4745SOL    HW215135   1.909   3.139   0.149
 4746SOL     OW15136   5.832   5.967   4.537
 4746SOL    HW115137   5.918   6.012   4.561
 4746SOL    HW215138   5.845   5.914   4.453
 4747SOL     OW15139   4.157   0.802   1.191
 4747SOL    HW115140   4.107   0.874   1.142
 4747SOL    HW215141   4.154   0.820   1.289
 4748SOL     OW15142   1.906   6.895   3.674
 4748SOL    HW115143   1.946   6.980   3.707
 4748SOL    HW215144   1.815   6.884   3.714
 4749SOL     OW15145   2.311   0.951   1.577
 4749SOL    HW115146   2.353   1.015   1.513
 4749SOL    HW215147   2.303   0.995   1.667
 4750SOL     OW15148   5.623   3.252   6.281
 4750SOL    HW115149   5.546   3.243   6.344
 4750SOL    HW215150   5.590   3.281   6.191
 4751SOL     OW15151   3.802   1.738   2.634
 4751SOL    HW115152   3.750   1.663   2.675
 4751SOL    HW215153   3.848   1.790   2.706
 4752SOL     OW15154   6.037   6.876   0.103
 4752SOL    HW115155   5.974   6.878   0.181
 4752SOL    HW215156   5.985   6.885   0.018
 4753SOL     OW15157   2.923   5.451   5.092
 4753SOL    HW115158   2.834   5.478   5.127
 4753SOL    HW215159   2.995   5.495   5.146
 4754SOL     OW15160   5.800   4.693   0.684
 4754SOL    HW115161   5.849   4.701   0.597
 4754SOL    HW215162   5.728   4.624   0.675
 4755SOL     OW15163   0.339   0.985   1.774
 4755SOL    HW115164   0.254   0.936   1.756
 4755SOL    HW215165   0.320   1.082   1.790
 4756SOL     OW15166   6.963   3.574   5.007
 4756SOL    HW115167   6.910   3.548   5.088
 4756SOL    HW215168   0.042   3.565   5.028
 4757SOL     OW15169   2.095   3.486   1.381
 4757SOL    HW115170   2.154   3.423   1.331
 4757SOL    HW215171   2.135   3.506   1.470
 4758SOL     OW15172   1.856   5.206   2.011
 4758SOL    HW115173   1.914   5.204   1.929
 4758SOL    HW215174   1.772   5.155   1.993
 4759SOL     OW15175   0.489   0.181   2.699
 4759SOL    HW115176   0.423   0.194   2.624
 4759SOL    HW215177   0.440   0.162   2.784
 4760SOL     OW15178   0.680   0.054   2.033
 4760SOL    HW115179   0.616   0.107   2.087
 4760SOL    HW215180   0.732   7.011   2.092
 4761SOL     OW15181   4.166   6.242   2.197
 4761SOL    HW115182   4.216   6.207   2.277
 4761SOL    HW215183   4.147   6.339   2.210
 4762SOL     OW15184   0.987   0.709   2.191
 4762SOL    HW115185   1.070   0.712   2.247
 4762SOL    HW215186   1.012   0.718   2.094
 4763SOL     OW15187   5.076   4.432   1.724
 4763SOL    HW115188   5.146   4.473   1.665
 4763SOL    HW215189   5.095   4.454   1.819
 4764SOL     OW15190   4.777   3.035   6.505
 4764SOL    HW115191   4.759   3.100   6.431
 4764SOL    HW215192   4.769   2.942   6.469
 4765SOL     OW15193   3.475   1.415   5.497
 4765SOL    HW115194   3.436   1.423   5.589
 4765SOL    HW215195   3.559   1.470   5.491
 4766SOL     OW15196   1.117   1.061   3.487
 4766SOL    HW115197   1.214   1.069   3.512
 4766SOL    HW215198   1.105   0.980   3.429
 4767SOL     OW15199   2.942   4.761   2.837
 4767SOL    HW115200   2.975   4.672   2.870
 4767SOL    HW215201   2.901   4.750   2.746
 4768SOL     OW15202   4.751   2.276   6.237
 4768SOL    HW115203   4.812   2.221   6.180
 4768SOL    HW215204   4.657   2.246   6.222
 4769SOL     OW15205   3.180   2.823   0.443
 4769SOL    HW115206   3.083   2.823   0.467
 4769SOL    HW215207   3.192   2.863   0.352
 4770SOL     OW15208   0.096   1.637   3.982
 4770SOL    HW115209   0.087   1.612   3.886
 4770SOL    HW215210   0.159   1.574   4.028
 4771SOL     OW15211   3.095   1.061   4.287
 4771SOL    HW115212   3.021   1.122   4.256
 4771SOL    HW215213   3.157   1.043   4.211
 4772SOL     OW15214   2.570   5.090   2.418
 4772SOL    HW115215   2.613   5.180   2.425
 4772SOL    HW215216   2.471   5.101   2.417
 4773SOL     OW15217   3.063   5.574   4.280
 4773SOL    HW115218   3.111   5.654   4.317
 4773SOL    HW215219   3.047   5.588   4.182
 4774SOL     OW15220   0.805   4.654   0.272
 4774SOL    HW115221   0.777   4.726   0.336
 4774SOL    HW215222   0.745   4.574   0.285
 4775SOL     OW15223   5.678   5.045   4.131
 4775SOL    HW115224   5.610   5.092   4.187
 4775SOL    HW215225   5.770   5.069   4.162
 4776SOL     OW15226   7.012   1.930   4.717
 4776SOL    HW115227   0.064   1.976   4.662
 4776SOL    HW215228   0.025   1.924   4.812
 4777SOL     OW15229   0.857   6.325   3.555
 4777SOL    HW115230   0.908   6.341   3.640
 4777SOL    HW215231   0.846   6.411   3.506
 4778SOL     OW15232   1.428   0.138   0.608
 4778SOL    HW115233   1.357   0.189   0.655
 4778SOL    HW215234   1.471   0.073   0.670
 4779SOL     OW15235   4.703   1.675   4.418
 4779SOL    HW115236   4.692   1.585   4.461
 4779SOL    HW215237   4.768   1.668   4.343
 4780SOL     OW15238   5.123   3.019   4.746
 4780SOL    HW115239   5.040   2.966   4.729
 4780SOL    HW215240   5.157   2.999   4.838
 4781SOL     OW15241   3.265   5.440   1.749
 4781SOL    HW115242   3.178   5.441   1.700
 4781SOL    HW215243   3.252   5.398   1.839
 4782SOL     OW15244   1.035   0.078   3.077
 4782SOL    HW115245   0.999   0.127   3.157
 4782SOL    HW215246   1.082   0.143   3.017
 4783SOL     OW15247   0.998   4.228   6.655
 4783SOL    HW115248   1.012   4.280   6.739
 4783SOL    HW215249   1.032   4.134   6.667
 4784SOL     OW15250   6.123   2.645   6.715
 4784SOL    HW115251   6.162   2.696   6.791
 4784SOL    HW215252   6.025   2.629   6.732
 4785SOL     OW15253   0.658   1.140   4.265
 4785SOL    HW115254   0.625   1.091   4.184
 4785SOL    HW215255   0.757   1.128   4.273
 4786SOL     OW15256   1.933   6.548   0.121
 4786SOL    HW115257   1.882   6.485   0.180
 4786SOL    HW215258   1.933   6.512   0.028
 4787SOL     OW15259   4.247   1.584   5.115
 4787SOL    HW115260   4.306   1.506   5.094
 4787SOL    HW215261   4.298   1.651   5.170
 4788SOL     OW15262   6.990   5.855   0.858
 4788SOL    HW115263   6.977   5.934   0.917
 4788SOL    HW215264   6.902   5.808   0.846
 4789SOL     OW15265   5.961   1.041   2.141
 4789SOL    HW115266   5.933   0.948   2.165
 4789SOL    HW215267   6.013   1.039   2.056
 4790SOL     OW15268   0.592   2.784   6.267
 4790SOL    HW115269   0.672   2.802   6.325
 4790SOL    HW215270   0.540   2.869   6.255
 4791SOL     OW15271   1.103   0.759   6.403
 4791SOL    HW115272   1.088   0.794   6.311
 4791SOL    HW215273   1.099   0.834   6.468
 4792SOL     OW15274   0.668   4.102   1.583
 4792SOL    HW115275   0.743   4.114   1.648
 4792SOL    HW215276   0.706   4.091   1.491
 4793SOL     OW15277   1.131   3.066   5.362
 4793SOL    HW115278   1.169   3.132   5.427
 4793SOL    HW215279   1.096   3.115   5.282
 4794SOL     OW15280   5.784   1.140   6.243
 4794SOL    HW115281   5.755   1.218   6.189
 4794SOL    HW215282   5.782   1.057   6.187
 4795SOL     OW15283   0.080   6.349   6.856
 4795SOL    HW115284   0.157   6.412   6.862
 4795SOL    HW215285   0.035   6.342   6.945
 4796SOL     OW15286   5.840   1.462   5.668
 4796SOL    HW115287   5.818   1.560   5.664
 4796SOL    HW215288   5.838   1.431   5.763
 4797SOL     OW15289   2.929   5.064   5.318
 4797SOL    HW115290   2.956   5.011   5.399
 4797SOL    HW215291   3.011   5.096   5.270
 4798SOL     OW15292   3.431   6.107   0.308
 4798SOL    HW115293   3.491   6.100   0.387
 4798SOL    HW215294   3.386   6.197   0.308
 4799SOL     OW15295   4.355   3.419   1.278
 4799SOL    HW115296   4.410   3.340   1.251
 4799SOL    HW215297   4.400   3.468   1.353
 4800SOL     OW15298   0.961   4.498   0.097
 4800SOL    HW115299   1.024   4.551   0.041
 4800SOL    HW215300   0.907   4.560   0.155
 4801SOL     OW15301   4.902   3.384   3.478
 4801SOL    HW115302   4.849   3.421   3.555
 4801SOL    HW215303   4.995   3.420   3.481
 4802SOL     OW15304   6.811   0.384   4.600
 4802SOL    HW115305   6.851   0.344   4.517
 4802SOL    HW215306   6.717   0.352   4.610
 4803SOL     OW15307   5.294   3.535   5.910
 4803SOL    HW115308   5.238   3.547   5.993
 4803SOL    HW215309   5.263   3.454   5.860
 4804SOL     OW15310   5.431   2.969   0.873
 4804SOL    HW115311   5.424   3.029   0.793
 4804SOL    HW215312   5.341   2.952   0.911
 4805SOL     OW15313   5.883   0.680   5.519
 4805SOL    HW115314   5.940   0.673   5.438
 4805SOL    HW215315   5.939   0.705   5.598
 4806SOL     OW15316   1.473   3.045   3.441
 4806SOL    HW115317   1.418   3.006   3.367
 4806SOL    HW215318   1.566   3.010   3.435
 4807SOL     OW15319   1.036   3.657   0.839
 4807SOL    HW115320   0.980   3.580   0.869
 4807SOL    HW215321   1.132   3.629   0.834
 4808SOL     OW15322   2.961   6.558   3.044
 4808SOL    HW115323   2.928   6.509   3.125
 4808SOL    HW215324   3.026   6.629   3.072
 4809SOL     OW15325   2.834   4.106   0.724
 4809SOL    HW115326   2.885   4.112   0.810
 4809SOL    HW215327   2.837   4.012   0.690
 4810SOL     OW15328   1.816   5.811   4.536
 4810SOL    HW115329   1.767   5.896   4.557
 4810SOL    HW215330   1.843   5.811   4.440
 4811SOL     OW15331   3.319   3.379   5.074
 4811SOL    HW115332   3.221   3.371   5.092
 4811SOL    HW215333   3.370   3.359   5.158
 4812SOL     OW15334   2.201   6.310   0.911
 4812SOL    HW115335   2.163   6.251   0.839
 4812SOL    HW215336   2.221   6.254   0.992
 4813SOL     OW15337   0.917   2.606   4.850
 4813SOL    HW115338   0.991   2.547   4.818
 4813SOL    HW215339   0.899   2.678   4.782
 4814SOL     OW15340   4.702   1.616   0.348
 4814SOL    HW115341   4.771   1.582   0.284
 4814SOL    HW215342   4.725   1.587   0.441
 4815SOL     OW15343   6.717   3.908   3.069
 4815SOL    HW115344   6.755   3.857   3.146
 4815SOL    HW215345   6.706   4.004   3.095
 4816SOL     OW15346   2.138   0.629   3.018
 4816SOL    HW115347   2.207   0.599   3.084
 4816SOL    HW215348   2.109   0.552   2.962
 4817SOL     OW15349   4.478   3.092   6.573
 4817SOL    HW115350   4.571   3.075   6.608
 4817SOL    HW215351   4.446   3.180   6.608
 4818SOL     OW15352   4.559   6.477   5.518
 4818SOL    HW115353   4.631   6.545   5.500
 4818SOL    HW215354   4.538   6.476   5.615
 4819SOL     OW15355   3.416   0.389   0.698
 4819SOL    HW115356   3.404   0.417   0.603
 4819SOL    HW215357   3.390   0.293   0.709
 4820SOL     OW15358   0.550   5.311   1.648
 4820SOL    HW115359   0.595   5.266   1.570
 4820SOL    HW215360   0.568   5.258   1.731
 4821SOL     OW15361   6.831   5.834   1.450
 4821SOL    HW115362   6.776   5.902   1.497
 4821SOL    HW215363   6.926   5.865   1.446
 4822SOL     OW15364   0.372   3.578   2.055
 4822SOL    HW115365   0.290   3.521   2.060
 4822SOL    HW215366   0.402   3.587   1.960
 4823SOL     OW15367   7.015   1.752   2.639
 4823SOL    HW115368   7.005   1.837   2.691
 4823SOL    HW215369   6.954   1.754   2.559
 4824SOL     OW15370   4.962   1.333   3.221
 4824SOL    HW115371   4.893   1.364   3.156
 4824SOL    HW215372   5.027   1.273   3.174
 4825SOL     OW15373   2.215   3.998   4.396
 4825SOL    HW115374   2.260   3.910   4.381
 4825SOL    HW215375   2.195   4.040   4.308
 4826SOL     OW15376   0.523   5.670   6.728
 4826SOL    HW115377   0.450   5.684   6.795
 4826SOL    HW215378   0.528   5.749   6.667
 4827SOL     OW15379   5.152   0.796   6.680
 4827SOL    HW115380   5.203   0.770   6.598
 4827SOL    HW215381   5.217   0.827   6.750
 4828SOL     OW15382   6.609   2.518   6.741
 4828SOL    HW115383   6.692   2.545   6.691
 4828SOL    HW215384   6.631   2.445   6.805
 4829SOL     OW15385   2.573   0.832   5.586
 4829SOL    HW115386   2.634   0.837   5.664
 4829SOL    HW215387   2.557   0.923   5.549
 4830SOL     OW15388   5.716   4.776   4.860
 4830SOL    HW115389   5.735   4.757   4.956
 4830SOL    HW215390   5.801   4.773   4.808
 4831SOL     OW15391   0.001   1.706   6.719
 4831SOL    HW115392   6.954   1.755   6.777
 4831SOL    HW215393   0.090   1.750   6.725
 4832SOL     OW15394   1.688   2.574   6.288
 4832SOL    HW115395   1.713   2.544   6.196
 4832SOL    HW215396   1.666   2.494   6.344
 4833SOL     OW15397   6.526   2.443   2.145
 4833SOL    HW115398   6.562   2.473   2.056
 4833SOL    HW215399   6.590   2.379   2.187
 4834SOL     OW15400   5.858   0.283   3.161
 4834SOL    HW115401   5.786   0.264   3.094
 4834SOL    HW215402   5.947   0.268   3.118
 4835SOL     OW15403   2.427   2.324   5.726
 4835SOL    HW115404   2.427   2.269   5.810
 4835SOL    HW215405   2.390   2.415   5.746
 4836SOL     OW15406   6.174   4.503   3.578
 4836SOL    HW115407   6.226   4.477   3.660
 4836SOL    HW215408   6.083   4.463   3.582
 4837SOL     OW15409   0.060   5.261   1.855
 4837SOL    HW115410   0.108   5.276   1.768
 4837SOL    HW215411   6.988   5.302   1.850
 4838SOL     OW15412   2.980   6.698   2.793
 4838SOL    HW115413   2.961   6.664   2.886
 4838SOL    HW215414   2.970   6.622   2.728
 4839SOL     OW15415   0.838   6.871   6.120
 4839SOL    HW115416   0.762   6.922   6.079
 4839SOL    HW215417   0.866   6.915   6.205
 4840SOL     OW15418   6.792   5.080   5.919
 4840SOL    HW115419   6.758   5.039   5.834
 4840SOL    HW215420   6.888   5.106   5.907
 4841SOL     OW15421   1.325   5.134   1.916
 4841SOL    HW115422   1.252   5.201   1.905
 4841SOL    HW215423   1.404   5.161   1.860
 4842SOL     OW15424   3.501   6.933   0.734
 4842SOL    HW115425   3.413   6.925   0.781
 4842SOL    HW215426   3.538   6.842   0.716
 4843SOL     OW15427   1.776   4.162   0.616
 4843SOL    HW115428   1.706   4.091   0.609
 4843SOL    HW215429   1.863   4.121   0.642
 4844SOL     OW15430   6.989   1.478   5.265
 4844SOL    HW115431   0.022   1.393   5.275
 4844SOL    HW215432   0.033   1.555   5.250
 4845SOL     OW15433   5.554   6.629   3.553
 4845SOL    HW115434   5.645   6.667   3.538
 4845SOL    HW215435   5.490   6.668   3.486
 4846SOL     OW15436   0.215   4.058   5.340
 4846SOL    HW115437   0.118   4.073   5.360
 4846SOL    HW215438   0.271   4.121   5.393
 4847SOL     OW15439   5.332   3.389   4.246
 4847SOL    HW115440   5.372   3.345   4.166
 4847SOL    HW215441   5.401   3.446   4.291
 4848SOL     OW15442   3.376   3.873   1.087
 4848SOL    HW115443   3.416   3.782   1.096
 4848SOL    HW215444   3.408   3.931   1.162
 4849SOL     OW15445   2.560   6.306   6.718
 4849SOL    HW115446   2.616   6.294   6.637
 4849SOL    HW215447   2.525   6.217   6.748
 4850SOL     OW15448   3.384   6.630   3.246
 4850SOL    HW115449   3.401   6.568   3.323
 4850SOL    HW215450   3.466   6.683   3.227
 4851SOL     OW15451   4.951   1.740   5.333
 4851SOL    HW115452   4.982   1.697   5.418
 4851SOL    HW215453   5.000   1.700   5.255
 4852SOL     OW15454   1.013   2.442   1.519
 4852SOL    HW115455   0.983   2.497   1.441
 4852SOL    HW215456   1.112   2.433   1.518
 4853SOL     OW15457   3.580   0.851   1.342
 4853SOL    HW115458   3.535   0.923   1.394
 4853SOL    HW215459   3.510   0.792   1.300
 4854SOL     OW15460   4.407   0.250   5.706
 4854SOL    HW115461   4.328   0.187   5.706
 4854SOL    HW215462   4.399   0.314   5.630
 4855SOL     OW15463   0.312   2.755   2.457
 4855SOL    HW115464   0.378   2.707   2.513
 4855SOL    HW215465   0.240   2.691   2.429
 4856SOL     OW15466   0.071   4.862   3.297
 4856SOL    HW115467   0.052   4.951   3.255
 4856SOL    HW215468   0.000   4.797   3.270
 4857SOL     OW15469   6.638   1.242   5.969
 4857SOL    HW115470   6.679   1.257   5.879
 4857SOL    HW215471   6.660   1.149   5.999
 4858SOL     OW15472   1.309   0.226   3.240
 4858SOL    HW115473   1.287   0.268   3.152
 4858SOL    HW215474   1.315   0.127   3.230
 4859SOL     OW15475   3.588   6.331   5.459
 4859SOL    HW115476   3.536   6.328   5.545
 4859SOL    HW215477   3.619   6.424   5.443
 4860SOL     OW15478   3.186   5.259   6.975
 4860SOL    HW115479   3.178   5.175   6.921
 4860SOL    HW215480   3.198   5.337   6.914
 4861SOL     OW15481   3.996   3.973   6.294
 4861SOL    HW115482   3.932   4.036   6.337
 4861SOL    HW215483   4.013   4.001   6.200
 4862SOL     OW15484   2.063   0.459   0.486
 4862SOL    HW115485   1.975   0.490   0.449
 4862SOL    HW215486   2.062   0.360   0.497
 4863SOL     OW15487   5.165   3.666   6.293
 4863SOL    HW115488   5.078   3.707   6.265
 4863SOL    HW215489   5.171   3.574   6.255
 4864SOL     OW15490   3.613   1.323   4.154
 4864SOL    HW115491   3.691   1.294   4.100
 4864SOL    HW215492   3.635   1.315   4.251
 4865SOL     OW15493   1.352   5.783   5.438
 4865SOL    HW115494   1.376   5.863   5.493
 4865SOL    HW215495   1.348   5.702   5.497
 4866SOL     OW15496   6.983   4.070   5.541
 4866SOL    HW115497   6.928   4.021   5.472
 4866SOL    HW215498   6.942   4.159   5.560
 4867SOL     OW15499   3.962   1.403   3.273
 4867SOL    HW115500   3.960   1.381   3.371
 4867SOL    HW215501   3.936   1.499   3.260
 4868SOL     OW15502   0.463   5.836   1.605
 4868SOL    HW115503   0.482   5.758   1.545
 4868SOL    HW215504   0.471   5.921   1.553
 4869SOL     OW15505   0.516   0.659   0.764
 4869SOL    HW115506   0.572   0.734   0.731
 4869SOL    HW215507   0.537   0.576   0.712
 4870SOL     OW15508   1.600   0.521   0.858
 4870SOL    HW115509   1.599   0.422   0.867
 4870SOL    HW215510   1.684   0.550   0.811
 4871SOL     OW15511   0.824   2.271   3.962
 4871SOL    HW115512   0.791   2.283   4.056
 4871SOL    HW215513   0.866   2.357   3.931
 4872SOL     OW15514   5.404   0.303   3.200
 4872SOL    HW115515   5.351   0.384   3.223
 4872SOL    HW215516   5.480   0.294   3.263
 4873SOL     OW15517   6.673   6.413   3.727
 4873SOL    HW115518   6.683   6.474   3.805
 4873SOL    HW215519   6.751   6.426   3.665
 4874SOL     OW15520   5.919   4.627   2.493
 4874SOL    HW115521   5.998   4.574   2.461
 4874SOL    HW215522   5.855   4.639   2.417
 4875SOL     OW15523   6.533   6.683   4.424
 4875SOL    HW115524   6.596   6.760   4.433
 4875SOL    HW215525   6.441   6.717   4.408
 4876SOL     OW15526   6.221   1.622   2.428
 4876SOL    HW115527   6.121   1.632   2.423
 4876SOL    HW215528   6.259   1.617   2.336
 4877SOL     OW15529   0.573   1.410   0.445
 4877SOL    HW115530   0.647   1.463   0.403
 4877SOL    HW215531   0.514   1.472   0.497
 4878SOL     OW15532   6.010   4.257   4.169
 4878SOL    HW115533   5.974   4.169   4.199
 4878SOL    HW215534   5.957   4.331   4.211
 4879SOL     OW15535   5.815   1.070   2.883
 4879SOL    HW115536   5.737   1.030   2.834
 4879SOL    HW215537   5.798   1.064   2.981
 4880SOL     OW15538   0.146   3.275   6.478
 4880SOL    HW115539   0.081   3.216   6.526
 4880SOL    HW215540   0.148   3.365   6.521
 4881SOL     OW15541   6.811   3.685   1.974
 4881SOL    HW115542   6.869   3.659   1.897
 4881SOL    HW215543   6.861   3.671   2.060
 4882SOL     OW15544   5.301   2.366   4.196
 4882SOL    HW115545   5.231   2.299   4.222
 4882SOL    HW215546   5.261   2.457   4.191
 4883SOL     OW15547   0.065   3.920   6.387
 4883SOL    HW115548   0.050   3.822   6.396
 4883SOL    HW215549   0.146   3.947   6.439
 4884SOL     OW15550   1.729   2.436   1.694
 4884SOL    HW115551   1.697   2.392   1.610
 4884SOL    HW215552   1.819   2.400   1.718
 4885SOL     OW15553   0.941   6.168   6.506
 4885SOL    HW115554   0.948   6.200   6.601
 4885SOL    HW215555   1.017   6.106   6.486
 4886SOL     OW15556   3.646   1.141   2.207
 4886SOL    HW115557   3.594   1.210   2.257
 4886SOL    HW215558   3.586   1.063   2.186
 4887SOL     OW15559   5.319   5.170   0.471
 4887SOL    HW115560   5.299   5.227   0.391
 4887SOL    HW215561   5.279   5.079   0.457
 4888SOL     OW15562   4.132   6.775   2.777
 4888SOL    HW115563   4.088   6.727   2.852
 4888SOL    HW215564   4.063   6.794   2.706
 4889SOL     OW15565   5.122   3.319   3.756
 4889SOL    HW115566   5.147   3.369   3.839
 4889SOL    HW215567   5.179   3.238   3.747
 4890SOL     OW15568   6.612   2.228   4.713
 4890SOL    HW115569   6.631   2.178   4.628
 4890SOL    HW215570   6.520   2.266   4.709
 4891SOL     OW15571   2.981   5.621   0.400
 4891SOL    HW115572   2.885   5.599   0.415
 4891SOL    HW215573   3.027   5.631   0.488
 4892SOL     OW15574   5.120   4.861   1.863
 4892SOL    HW115575   5.069   4.924   1.921
 4892SOL    HW215576   5.058   4.792   1.826
 4893SOL     OW15577   2.754   3.236   0.734
 4893SOL    HW115578   2.829   3.285   0.780
 4893SOL    HW215579   2.790   3.187   0.655
 4894SOL     OW15580   4.932   6.231   0.054
 4894SOL    HW115581   4.845   6.181   0.045
 4894SOL    HW215582   5.006   6.166   0.068
 4895SOL     OW15583   6.407   3.620   5.640
 4895SOL    HW115584   6.480   3.656   5.698
 4895SOL    HW215585   6.391   3.524   5.662
 4896SOL     OW15586   2.576   5.132   5.085
 4896SOL    HW115587   2.537   5.219   5.055
 4896SOL    HW215588   2.590   5.072   5.006
 4897SOL     OW15589   2.887   1.764   5.757
 4897SOL    HW115590   2.968   1.811   5.721
 4897SOL    HW215591   2.912   1.714   5.839
 4898SOL     OW15592   4.822   2.494   3.344
 4898SOL    HW115593   4.883   2.561   3.386
 4898SOL    HW215594   4.848   2.480   3.249
 4899SOL     OW15595   6.443   6.003   1.377
 4899SOL    HW115596   6.351   6.034   1.355
 4899SOL    HW215597   6.502   6.013   1.297
 4900SOL     OW15598   3.085   5.292   5.775
 4900SOL    HW115599   3.098   5.201   5.736
 4900SOL    HW215600   3.153   5.355   5.736
 4901SOL     OW15601   2.631   0.638   6.816
 4901SOL    HW115602   2.607   0.720   6.763
 4901SOL    HW215603   2.562   0.567   6.800
 4902SOL     OW15604   2.289   0.001   5.448
 4902SOL    HW115605   2.194   0.020   5.422
 4902SOL    HW215606   2.320   0.067   5.516
 4903SOL     OW15607   5.126   3.753   2.457
 4903SOL    HW115608   5.053   3.815   2.485
 4903SOL    HW215609   5.103   3.712   2.369
 4904SOL     OW15610   2.483   0.743   2.045
 4904SOL    HW115611   2.505   0.648   2.021
 4904SOL    HW215612   2.567   0.797   2.048
 4905SOL     OW15613   2.319   1.526   1.535
 4905SOL    HW115614   2.410   1.546   1.496
 4905SOL    HW215615   2.266   1.611   1.539
 4906SOL     OW15616   5.605   3.259   5.007
 4906SOL    HW115617   5.587   3.333   4.941
 4906SOL    HW215618   5.568   3.174   4.970
 4907SOL     OW15619   4.511   1.941   0.566
 4907SOL    HW115620   4.542   1.915   0.475
 4907SOL    HW215621   4.424   1.990   0.559
 4908SOL     OW15622   2.522   6.550   6.836
 4908SOL    HW115623   2.464   6.520   6.912
 4908SOL    HW215624   2.534   6.475   6.771
 4909SOL     OW15625   4.922   6.257   4.864
 4909SOL    HW115626   4.836   6.217   4.896
 4909SOL    HW215627   4.931   6.242   4.765
 4910SOL     OW15628   4.851   1.890   6.371
 4910SOL    HW115629   4.770   1.898   6.311
 4910SOL    HW215630   4.862   1.974   6.424
 4911SOL     OW15631   6.496   4.588   3.967
 4911SOL    HW115632   6.401   4.597   3.996
 4911SOL    HW215633   6.547   4.538   4.037
 4912SOL     OW15634   5.800   3.209   4.517
 4912SOL    HW115635   5.745   3.156   4.581
 4912SOL    HW215636   5.800   3.305   4.544
 4913SOL     OW15637   1.457   3.955   5.933
 4913SOL    HW115638   1.453   3.857   5.951
 4913SOL    HW215639   1.401   3.977   5.854
 4914SOL     OW15640   2.622   6.754   3.992
 4914SOL    HW115641   2.580   6.817   4.058
 4914SOL    HW215642   2.633   6.664   4.034
 4915SOL     OW15643   4.692   0.029   5.057
 4915SOL    HW115644   4.656   6.962   5.018
 4915SOL    HW215645   4.764   0.008   5.122
 4916SOL     OW15646   5.856   2.940   3.630
 4916SOL    HW115647   5.799   2.871   3.674
 4916SOL    HW215648   5.837   2.940   3.531
 4917SOL     OW15649   4.951   6.254   6.758
 4917SOL    HW115650   5.036   6.207   6.735
 4917SOL    HW215651   4.901   6.202   6.827
 4918SOL     OW15652   4.772   6.034   4.289
 4918SOL    HW115653   4.730   5.944   4.295
 4918SOL    HW215654   4.707   6.103   4.321
 4919SOL     OW15655   4.605   4.007   1.759
 4919SOL    HW115656   4.698   4.019   1.794
 4919SOL    HW215657   4.547   4.082   1.791
 4920SOL     OW15658   6.182   0.940   5.382
 4920SOL    HW115659   6.136   1.007   5.441
 4920SOL    HW215660   6.114   0.887   5.332
 4921SOL     OW15661   6.237   0.491   2.513
 4921SOL    HW115662   6.306   0.427   2.547
 4921SOL    HW215663   6.282   0.571   2.473
 4922SOL     OW15664   3.999   0.113   6.207
 4922SOL    HW115665   3.989   0.145   6.301
 4922SOL    HW215666   3.968   0.018   6.200
 4923SOL     OW15667   3.917   1.146   2.335
 4923SOL    HW115668   3.832   1.152   2.283
 4923SOL    HW215669   3.995   1.152   2.273
 4924SOL     OW15670   3.300   1.689   5.060
 4924SOL    HW115671   3.374   1.635   5.020
 4924SOL    HW215672   3.282   1.769   5.002
 4925SOL     OW15673   5.392   0.228   3.689
 4925SOL    HW115674   5.325   0.300   3.710
 4925SOL    HW215675   5.419   0.182   3.773
 4926SOL     OW15676   4.463   2.381   2.079
 4926SOL    HW115677   4.418   2.304   2.124
 4926SOL    HW215678   4.442   2.380   1.981
 4927SOL     OW15679   2.159   1.711   0.451
 4927SOL    HW115680   2.104   1.794   0.441
 4927SOL    HW215681   2.210   1.716   0.537
 4928SOL     OW15682   0.967   2.018   1.276
 4928SOL    HW115683   0.931   2.095   1.223
 4928SOL    HW215684   0.894   1.979   1.332
 4929SOL     OW15685   6.920   0.303   4.985
 4929SOL    HW115686   6.934   0.401   4.970
 4929SOL    HW215687   6.834   0.275   4.943
 4930SOL     OW15688   4.890   5.854   2.638
 4930SOL    HW115689   4.875   5.796   2.558
 4930SOL    HW215690   4.915   5.798   2.717
 4931SOL     OW15691   4.528   0.602   1.482
 4931SOL    HW115692   4.587   0.528   1.448
 4931SOL    HW215693   4.480   0.571   1.564
 4932SOL     OW15694   3.118   4.045   3.703
 4932SOL    HW115695   3.043   4.085   3.756
 4932SOL    HW215696   3.202   4.049   3.756
 4933SOL     OW15697   1.763   0.870   5.119
 4933SOL    HW115698   1.720   0.886   5.030
 4933SOL    HW215699   1.693   0.852   5.187
 4934SOL     OW15700   2.276   0.234   3.033
 4934SOL    HW115701   2.187   0.198   3.005
 4934SOL    HW215702   2.310   0.296   2.962
 4935SOL     OW15703   6.428   6.895   4.691
 4935SOL    HW115704   6.401   6.907   4.596
 4935SOL    HW215705   6.482   6.973   4.721
 4936SOL     OW15706   4.901   2.665   0.758
 4936SOL    HW115707   4.982   2.723   0.774
 4936SOL    HW215708   4.924   2.594   0.692
 4937SOL     OW15709   3.724   2.769   5.259
 4937SOL    HW115710   3.823   2.764   5.250
 4937SOL    HW215711   3.697   2.728   5.347
 4938SOL     OW15712   2.658   4.699   6.782
 4938SOL    HW115713   2.702   4.623   6.831
 4938SOL    HW215714   2.569   4.669   6.748
 4939SOL     OW15715   5.216   3.153   6.272
 4939SOL    HW115716   5.235   3.150   6.174
 4939SOL    HW215717   5.297   3.186   6.320
 4940SOL     OW15718   1.216   6.008   3.410
 4940SOL    HW115719   1.174   5.933   3.461
 4940SOL    HW215720   1.311   5.986   3.391
 4941SOL     OW15721   6.433   0.219   0.468
 4941SOL    HW115722   6.447   0.244   0.564
 4941SOL    HW215723   6.517   0.240   0.416
 4942SOL     OW15724   5.344   2.575   5.884
 4942SOL    HW115725   5.296   2.594   5.970
 4942SOL    HW215726   5.279   2.548   5.814
 4943SOL     OW15727   6.366   3.135   1.485
 4943SOL    HW115728   6.383   3.233   1.474
 4943SOL    HW215729   6.300   3.105   1.415
 4944SOL     OW15730   1.799   3.076   1.985
 4944SOL    HW115731   1.841   3.069   2.076
 4944SOL    HW215732   1.713   3.025   1.985
 4945SOL     OW15733   6.717   5.744   4.037
 4945SOL    HW115734   6.773   5.728   3.956
 4945SOL    HW215735   6.655   5.667   4.051
 4946SOL     OW15736   6.492   4.529   2.749
 4946SOL    HW115737   6.536   4.567   2.668
 4946SOL    HW215738   6.396   4.507   2.728
 4947SOL     OW15739   5.636   0.317   0.472
 4947SOL    HW115740   5.673   0.375   0.400
 4947SOL    HW215741   5.697   0.318   0.551
 4948SOL     OW15742   2.722   1.394   2.210
 4948SOL    HW115743   2.735   1.337   2.292
 4948SOL    HW215744   2.748   1.341   2.129
 4949SOL     OW15745   5.423   2.289   6.010
 4949SOL    HW115746   5.380   2.349   5.943
 4949SOL    HW215747   5.390   2.195   5.997
 4950SOL     OW15748   3.376   5.512   4.139
 4950SOL    HW115749   3.281   5.506   4.171
 4950SOL    HW215750   3.394   5.438   4.074
 4951SOL     OW15751   4.579   2.541   3.694
 4951SOL    HW115752   4.671   2.569   3.719
 4951SOL    HW215753   4.566   2.445   3.718
 4952SOL     OW15754   6.623   5.334   4.350
 4952SOL    HW115755   6.526   5.332   4.325
 4952SOL    HW215756   6.661   5.241   4.346
 4953SOL     OW15757   0.942   4.935   1.824
 4953SOL    HW115758   0.917   5.032   1.827
 4953SOL    HW215759   1.034   4.926   1.786
 4954SOL     OW15760   0.300   6.775   5.817
 4954SOL    HW115761   0.361   6.842   5.775
 4954SOL    HW215762   0.341   6.741   5.901
 4955SOL     OW15763   1.484   0.126   1.602
 4955SOL    HW115764   1.501   0.224   1.614
 4955SOL    HW215765   1.504   0.100   1.508
 4956SOL     OW15766   5.973   5.843   2.964
 4956SOL    HW115767   5.947   5.940   2.959
 4956SOL    HW215768   6.045   5.831   3.033
 4957SOL     OW15769   1.675   5.321   4.695
 4957SOL    HW115770   1.715   5.241   4.740
 4957SOL    HW215771   1.579   5.330   4.722
 4958SOL     OW15772   6.932   6.359   0.059
 4958SOL    HW115773   6.985   6.340   0.142
 4958SOL    HW215774   6.922   6.458   0.048
 4959SOL     OW15775   1.046   1.685   6.977
 4959SOL    HW115776   1.090   1.710   0.045
 4959SOL    HW215777   1.078   1.745   6.904
 4960SOL     OW15778   4.150   6.422   5.365
 4960SOL    HW115779   4.184   6.353   5.429
 4960SOL    HW215780   4.095   6.378   5.295
 4961SOL     OW15781   5.500   6.950   5.061
 4961SOL    HW115782   5.437   0.008   5.074
 4961SOL    HW215783   5.503   6.926   4.965
 4962SOL     OW15784   6.283   2.105   2.599
 4962SOL    HW115785   6.187   2.128   2.611
 4962SOL    HW215786   6.292   2.029   2.534
 4963SOL     OW15787   0.686   4.508   1.543
 4963SOL    HW115788   0.656   4.582   1.602
 4963SOL    HW215789   0.612   4.483   1.481
 4964SOL     OW15790   3.875   1.206   3.490
 4964SOL    HW115791   3.870   1.110   3.464
 4964SOL    HW215792   3.783   1.241   3.508
 4965SOL     OW15793   0.323   5.521   4.930
 4965SOL    HW115794   0.394   5.452   4.939
 4965SOL    HW215795   0.239   5.488   4.973
 4966SOL     OW15796   5.107   6.126   5.555
 4966SOL    HW115797   5.172   6.082   5.616
 4966SOL    HW215798   5.096   6.070   5.473
 4967SOL     OW15799   5.487   0.875   0.078
 4967SOL    HW115800   5.437   0.842   0.158
 4967SOL    HW215801   5.423   0.921   0.016
 4968SOL     OW15802   5.411   3.211   6.467
 4968SOL    HW115803   5.376   3.303   6.485
 4968SOL    HW215804   5.475   3.185   6.539
 4969SOL     OW15805   0.839   0.915   1.274
 4969SOL    HW115806   0.790   0.984   1.219
 4969SOL    HW215807   0.777   0.875   1.341
 4970SOL     OW15808   2.355   2.099   6.177
 4970SOL    HW115809   2.398   2.110   6.088
 4970SOL    HW215810   2.260   2.072   6.166
 4971SOL     OW15811   5.906   5.540   3.901
 4971SOL    HW115812   5.904   5.443   3.876
 4971SOL    HW215813   5.981   5.585   3.852
 4972SOL     OW15814   1.769   2.256   4.493
 4972SOL    HW115815   1.763   2.258   4.393
 4972SOL    HW215816   1.688   2.302   4.531
 4973SOL     OW15817   4.654   5.708   3.393
 4973SOL    HW115818   4.661   5.800   3.355
 4973SOL    HW215819   4.558   5.678   3.390
 4974SOL     OW15820   3.660   6.744   6.409
 4974SOL    HW115821   3.746   6.797   6.405
 4974SOL    HW215822   3.619   6.754   6.500
 4975SOL     OW15823   4.073   6.066   6.842
 4975SOL    HW115824   4.076   6.084   6.940
 4975SOL    HW215825   4.016   5.986   6.824
 4976SOL     OW15826   2.526   1.259   4.605
 4976SOL    HW115827   2.491   1.352   4.615
 4976SOL    HW215828   2.501   1.204   4.685
 4977SOL     OW15829   3.498   3.179   2.280
 4977SOL    HW115830   3.563   3.106   2.260
 4977SOL    HW215831   3.538   3.241   2.348
 4978SOL     OW15832   5.957   3.656   6.425
 4978SOL    HW115833   5.994   3.748   6.425
 4978SOL    HW215834   5.861   3.658   6.399
 4979SOL     OW15835   1.185   1.994   3.566
 4979SOL    HW115836   1.167   1.905   3.609
 4979SOL    HW215837   1.100   2.045   3.558
 4980SOL     OW15838   2.148   4.836   2.281
 4980SOL    HW115839   2.103   4.804   2.364
 4980SOL    HW215840   2.116   4.929   2.260
 4981SOL     OW15841   5.289   5.971   5.916
 4981SOL    HW115842   5.213   5.906   5.924
 4981SOL    HW215843   5.347   5.946   5.839
 4982SOL     OW15844   2.774   1.496   6.437
 4982SOL    HW115845   2.863   1.543   6.444
 4982SOL    HW215846   2.763   1.462   6.344
 4983SOL     OW15847   6.854   1.427   4.130
 4983SOL    HW115848   6.903   1.510   4.157
 4983SOL    HW215849   6.756   1.446   4.129
 4984SOL     OW15850   5.007   5.607   3.935
 4984SOL    HW115851   4.976   5.518   3.970
 4984SOL    HW215852   5.010   5.605   3.835
 4985SOL     OW15853   5.658   3.790   1.184
 4985SOL    HW115854   5.673   3.702   1.138
 4985SOL    HW215855   5.683   3.782   1.280
 4986SOL     OW15856   3.400   5.407   3.728
 4986SOL    HW115857   3.405   5.341   3.654
 4986SOL    HW215858   3.306   5.441   3.736
 4987SOL     OW15859   1.561   2.237   0.027
 4987SOL    HW115860   1.472   2.238   0.071
 4987SOL    HW215861   1.629   2.280   0.087
 4988SOL     OW15862   2.252   2.026   4.823
 4988SOL    HW115863   2.330   1.972   4.855
 4988SOL    HW215864   2.183   1.966   4.783
 4989SOL     OW15865   0.036   0.861   1.138
 4989SOL    HW115866   0.033   0.768   1.102
 4989SOL    HW215867   0.108   0.912   1.091
 4990SOL     OW15868   1.883   1.797   6.674
 4990SOL    HW115869   1.866   1.882   6.725
 4990SOL    HW215870   1.909   1.820   6.580
 4991SOL     OW15871   2.643   1.654   5.817
 4991SOL    HW115872   2.741   1.671   5.804
 4991SOL    HW215873   2.597   1.655   5.728
 4992SOL     OW15874   3.950   0.149   4.578
 4992SOL    HW115875   3.867   0.202   4.564
 4992SOL    HW215876   3.964   0.135   4.676
 4993SOL     OW15877   1.095   6.334   4.258
 4993SOL    HW115878   1.073   6.273   4.181
 4993SOL    HW215879   1.117   6.279   4.338
 4994SOL     OW15880   6.814   6.324   2.895
 4994SOL    HW115881   6.908   6.330   2.929
 4994SOL    HW215882   6.802   6.390   2.820
 4995SOL     OW15883   5.585   2.658   5.275
 4995SOL    HW115884   5.649   2.699   5.340
 4995SOL    HW215885   5.491   2.679   5.302
 4996SOL     OW15886   0.536   2.206   3.829
 4996SOL    HW115887   0.635   2.204   3.823
 4996SOL    HW215888   0.496   2.185   3.740
 4997SOL     OW15889   6.823   2.680   3.363
 4997SOL    HW115890   6.814   2.634   3.451
 4997SOL    HW215891   6.732   2.701   3.327
 4998SOL     OW15892   1.206   5.732   5.836
 4998SOL    HW115893   1.256   5.677   5.769
 4998SOL    HW215894   1.126   5.774   5.793
 4999SOL     OW15895   6.463   5.047   1.188
 4999SOL    HW115896   6.477   5.144   1.206
 4999SOL    HW215897   6.366   5.029   1.174
 5000SOL     OW15898   5.928   5.578   3.328
 5000SOL    HW115899   5.857   5.564   3.398
 5000SOL    HW215900   5.939   5.494   3.274
 5001SOL     OW15901   4.872   3.537   5.485
 5001SOL    HW115902   4.966   3.503   5.479
 5001SOL    HW215903   4.812   3.476   5.434
 5002SOL     OW15904   1.435   2.391   1.691
 5002SOL    HW115905   1.533   2.411   1.679
 5002SOL    HW215906   1.386   2.414   1.607
 5003SOL     OW15907   5.575   5.694   4.705
 5003SOL    HW115908   5.548   5.774   4.651
 5003SOL    HW215909   5.508   5.677   4.776
 5004SOL     OW15910   2.411   4.848   6.134
 5004SOL    HW115911   2.367   4.836   6.223
 5004SOL    HW215912   2.369   4.924   6.086
 5005SOL     OW15913   5.301   1.793   7.001
 5005SOL    HW115914   5.326   1.883   0.017
 5005SOL    HW215915   5.276   1.734   0.060
 5006SOL     OW15916   4.464   5.272   1.682
 5006SOL    HW115917   4.460   5.370   1.663
 5006SOL    HW215918   4.549   5.234   1.646
 5007SOL     OW15919   3.699   0.834   4.551
 5007SOL    HW115920   3.685   0.789   4.640
 5007SOL    HW215921   3.686   0.768   4.478
 5008SOL     OW15922   6.121   2.005   4.122
 5008SOL    HW115923   6.151   2.099   4.140
 5008SOL    HW215924   6.065   2.003   4.039
 5009SOL     OW15925   3.042   6.873   2.082
 5009SOL    HW115926   3.133   6.906   2.054
 5009SOL    HW215927   2.973   6.941   2.058
 5010SOL     OW15928   3.382   3.982   5.979
 5010SOL    HW115929   3.302   4.041   5.987
 5010SOL    HW215930   3.356   3.888   5.998
 5011SOL     OW15931   0.858   1.860   4.758
 5011SOL    HW115932   0.871   1.933   4.692
 5011SOL    HW215933   0.887   1.773   4.718
 5012SOL     OW15934   6.637   2.405   0.280
 5012SOL    HW115935   6.714   2.404   0.217
 5012SOL    HW215936   6.575   2.480   0.257
 5013SOL     OW15937   4.716   1.573   5.138
 5013SOL    HW115938   4.787   1.508   5.165
 5013SOL    HW215939   4.658   1.594   5.217
 5014SOL     OW15940   1.191   4.898   6.199
 5014SOL    HW115941   1.262   4.894   6.270
 5014SOL    HW215942   1.101   4.885   6.242
 5015SOL     OW15943   4.810   2.385   3.759
 5015SOL    HW115944   4.880   2.434   3.706
 5015SOL    HW215945   4.843   2.293   3.780
 5016SOL     OW15946   2.256   5.794   1.374
 5016SOL    HW115947   2.257   5.720   1.308
 5016SOL    HW215948   2.222   5.760   1.462
 5017SOL     OW15949   0.527   1.980   1.661
 5017SOL    HW115950   0.457   2.030   1.713
 5017SOL    HW215951   0.487   1.896   1.624
 5018SOL     OW15952   6.390   5.322   4.226
 5018SOL    HW115953   6.354   5.406   4.186
 5018SOL    HW215954   6.329   5.246   4.202
 5019SOL     OW15955   2.804   5.592   4.669
 5019SOL    HW115956   2.878   5.556   4.727
 5019SOL    HW215957   2.729   5.624   4.727
 5020SOL     OW15958   4.574   5.096   6.880
 5020SOL    HW115959   4.502   5.140   6.827
 5020SOL    HW215960   4.633   5.042   6.819
 5021SOL     OW15961   2.497   4.752   5.433
 5021SOL    HW115962   2.578   4.702   5.404
 5021SOL    HW215963   2.483   4.830   5.372
 5022SOL     OW15964   2.021   2.839   6.282
 5022SOL    HW115965   2.106   2.854   6.231
 5022SOL    HW215966   2.033   2.870   6.376
 5023SOL     OW15967   6.305   3.208   3.762
 5023SOL    HW115968   6.332   3.117   3.792
 5023SOL    HW215969   6.368   3.241   3.692
 5024SOL     OW15970   5.039   3.935   5.334
 5024SOL    HW115971   4.986   3.857   5.299
 5024SOL    HW215972   5.037   3.934   5.434
 5025SOL     OW15973   5.745   6.902   5.150
 5025SOL    HW115974   5.755   6.969   5.224
 5025SOL    HW215975   5.658   6.916   5.103
 5026SOL     OW15976   1.139   5.670   2.574
 5026SOL    HW115977   1.143   5.651   2.672
 5026SOL    HW215978   1.045   5.665   2.542
 5027SOL     OW15979   0.804   5.642   3.240
 5027SOL    HW115980   0.820   5.561   3.184
 5027SOL    HW215981   0.879   5.707   3.227
 5028SOL     OW15982   0.940   6.985   2.547
 5028SOL    HW115983   0.895   6.990   2.458
 5028SOL    HW215984   0.923   0.050   2.598
 5029SOL     OW15985   5.863   0.476   4.382
 5029SOL    HW115986   5.777   0.524   4.399
 5029SOL    HW215987   5.927   0.496   4.455
 5030SOL     OW15988   1.516   5.765   0.608
 5030SOL    HW115989   1.609   5.749   0.641
 5030SOL    HW215990   1.450   5.742   0.679
 5031SOL     OW15991   5.055   0.596   6.913
 5031SOL    HW115992   5.111   0.519   6.881
 5031SOL    HW215993   5.088   0.681   6.872
 5032SOL     OW15994   1.769   5.763   2.815
 5032SOL    HW115995   1.826   5.681   2.826
 5032SOL    HW215996   1.768   5.815   2.900
 5033SOL     OW15997   1.220   4.401   4.844
 5033SOL    HW115998   1.251   4.342   4.769
 5033SOL    HW215999   1.180   4.344   4.916
 5034SOL     OW16000   1.046   2.614   6.181
 5034SOL    HW116001   1.008   2.690   6.128
 5034SOL    HW216002   1.042   2.636   6.279
 5035SOL     OW16003   6.865   4.970   0.809
 5035SOL    HW116004   6.859   5.052   0.867
 5035SOL    HW216005   6.781   4.916   0.819
 5036SOL     OW16006   1.399   1.411   2.538
 5036SOL    HW116007   1.489   1.454   2.551
 5036SOL    HW216008   1.331   1.460   2.592
 5037SOL     OW16009   5.401   3.837   1.052
 5037SOL    HW116010   5.487   3.804   1.091
 5037SOL    HW216011   5.327   3.828   1.119
 5038SOL     OW16012   3.085   5.413   5.462
 5038SOL    HW116013   3.157   5.364   5.512
 5038SOL    HW216014   3.122   5.450   5.378
 5039SOL     OW16015   0.661   2.577   3.797
 5039SOL    HW116016   0.666   2.563   3.698
 5039SOL    HW216017   0.735   2.528   3.842
 5040SOL     OW16018   2.491   3.183   6.845
 5040SOL    HW116019   2.536   3.148   6.927
 5040SOL    HW216020   2.493   3.283   6.846
 5041SOL     OW16021   0.798   5.636   0.120
 5041SOL    HW116022   0.827   5.619   0.215
 5041SOL    HW216023   0.720   5.699   0.120
 5042SOL     OW16024   5.719   0.904   6.044
 5042SOL    HW116025   5.773   0.823   6.019
 5042SOL    HW216026   5.644   0.876   6.104
 5043SOL     OW16027   5.541   6.253   4.241
 5043SOL    HW116028   5.490   6.257   4.327
 5043SOL    HW216029   5.504   6.179   4.184
 5044SOL     OW16030   0.243   4.255   2.181
 5044SOL    HW116031   0.210   4.204   2.102
 5044SOL    HW216032   0.171   4.261   2.250
 5045SOL     OW16033   4.999   2.824   5.401
 5045SOL    HW116034   5.067   2.755   5.426
 5045SOL    HW216035   4.993   2.831   5.302
 5046SOL     OW16036   3.685   2.990   5.786
 5046SOL    HW116037   3.682   2.909   5.845
 5046SOL    HW216038   3.779   3.025   5.782
 5047SOL     OW16039   0.497   1.661   1.882
 5047SOL    HW116040   0.438   1.634   1.806
 5047SOL    HW216041   0.456   1.630   1.968
 5048SOL     OW16042   5.574   4.074   0.210
 5048SOL    HW116043   5.486   4.113   0.180
 5048SOL    HW216044   5.643   4.147   0.214
 5049SOL     OW16045   1.513   0.868   0.105
 5049SOL    HW116046   1.425   0.915   0.094
 5049SOL    HW216047   1.504   0.774   0.074
 5050SOL     OW16048   1.551   3.962   1.017
 5050SOL    HW116049   1.554   3.893   1.089
 5050SOL    HW216050   1.630   3.950   0.957
 5051SOL     OW16051   2.290   4.120   6.198
 5051SOL    HW116052   2.235   4.180   6.255
 5051SOL    HW216053   2.329   4.047   6.255
 5052SOL     OW16054   6.584   2.684   1.274
 5052SOL    HW116055   6.554   2.651   1.184
 5052SOL    HW216056   6.554   2.779   1.286
 5053SOL     OW16057   0.928   3.864   1.558
 5053SOL    HW116058   0.897   3.895   1.468
 5053SOL    HW216059   1.001   3.924   1.591
 5054SOL     OW16060   4.209   5.663   5.155
 5054SOL    HW116061   4.138   5.595   5.135
 5054SOL    HW216062   4.188   5.707   5.242
 5055SOL     OW16063   1.026   0.200   4.192
 5055SOL    HW116064   0.996   0.286   4.151
 5055SOL    HW216065   0.967   0.126   4.160
 5056SOL     OW16066   3.057   1.226   6.619
 5056SOL    HW116067   3.145   1.201   6.660
 5056SOL    HW216068   3.069   1.245   6.522
 5057SOL     OW16069   0.390   3.710   2.891
 5057SOL    HW116070   0.350   3.693   2.801
 5057SOL    HW216071   0.490   3.712   2.883
 5058SOL     OW16072   3.661   2.163   6.859
 5058SOL    HW116073   3.633   2.233   6.793
 5058SOL    HW216074   3.725   2.203   6.924
 5059SOL     OW16075   5.472   2.587   2.648
 5059SOL    HW116076   5.438   2.556   2.737
 5059SOL    HW216077   5.572   2.589   2.650
 5060SOL     OW16078   6.930   2.968   5.735
 5060SOL    HW116079   6.883   3.054   5.713
 5060SOL    HW216080   6.895   2.933   5.822
 5061SOL     OW16081   4.448   2.689   6.274
 5061SOL    HW116082   4.472   2.673   6.178
 5061SOL    HW216083   4.349   2.701   6.281
 5062SOL     OW16084   5.761   1.032   3.159
 5062SOL    HW116085   5.806   1.025   3.248
 5062SOL    HW216086   5.662   1.037   3.173
 5063SOL     OW16087   0.289   0.558   0.424
 5063SOL    HW116088   0.303   0.657   0.430
 5063SOL    HW216089   0.374   0.511   0.450
 5064SOL     OW16090   6.529   5.062   0.411
 5064SOL    HW116091   6.570   4.977   0.444
 5064SOL    HW216092   6.430   5.053   0.410
 5065SOL     OW16093   0.994   1.983   2.510
 5065SOL    HW116094   0.984   2.002   2.412
 5065SOL    HW216095   0.943   2.050   2.563
 5066SOL     OW16096   0.920   5.133   3.696
 5066SOL    HW116097   0.865   5.162   3.774
 5066SOL    HW216098   1.014   5.114   3.726
 5067SOL     OW16099   4.482   2.822   0.585
 5067SOL    HW116100   4.430   2.824   0.499
 5067SOL    HW216101   4.468   2.908   0.634
 5068SOL     OW16102   1.300   6.607   0.970
 5068SOL    HW116103   1.300   6.683   0.904
 5068SOL    HW216104   1.302   6.643   1.063
 5069SOL     OW16105   4.043   4.632   6.017
 5069SOL    HW116106   3.987   4.577   5.955
 5069SOL    HW216107   4.045   4.588   6.107
 5070SOL     OW16108   0.836   3.521   6.382
 5070SOL    HW116109   0.825   3.550   6.477
 5070SOL    HW216110   0.784   3.583   6.322
 5071SOL     OW16111   1.541   6.517   2.217
 5071SOL    HW116112   1.580   6.560   2.298
 5071SOL    HW216113   1.551   6.577   2.139
 5072SOL     OW16114   0.569   2.343   2.587
 5072SOL    HW116115   0.575   2.244   2.573
 5072SOL    HW216116   0.651   2.387   2.551
 5073SOL     OW16117   1.720   1.492   4.347
 5073SOL    HW116118   1.816   1.516   4.330
 5073SOL    HW216119   1.704   1.483   4.445
 5074SOL     OW16120   4.116   2.187   1.564
 5074SOL    HW116121   4.026   2.230   1.563
 5074SOL    HW216122   4.184   2.252   1.599
 5075SOL     OW16123   6.373   1.973   6.853
 5075SOL    HW116124   6.367   1.878   6.884
 5075SOL    HW216125   6.300   1.991   6.787
 5076SOL     OW16126   7.002   1.333   5.910
 5076SOL    HW116127   6.962   1.405   5.853
 5076SOL    HW216128   6.962   1.337   6.002
 5077SOL     OW16129   0.804   5.186   4.186
 5077SOL    HW116130   0.712   5.204   4.220
 5077SOL    HW216131   0.850   5.272   4.167
 5078SOL     OW16132   5.767   1.443   2.973
 5078SOL    HW116133   5.828   1.378   3.017
 5078SOL    HW216134   5.737   1.406   2.885
 5079SOL     OW16135   1.553   3.686   5.535
 5079SOL    HW116136   1.599   3.642   5.611
 5079SOL    HW216137   1.561   3.629   5.453
 5080SOL     OW16138   6.580   6.034   6.841
 5080SOL    HW116139   6.613   6.007   6.751
 5080SOL    HW216140   6.500   5.980   6.865
 5081SOL     OW16141   3.718   4.267   5.698
 5081SOL    HW116142   3.774   4.213   5.634
 5081SOL    HW216143   3.658   4.206   5.749
 5082SOL     OW16144   5.561   6.844   2.860
 5082SOL    HW116145   5.582   6.940   2.877
 5082SOL    HW216146   5.633   6.803   2.804
 5083SOL     OW16147   0.172   0.412   3.298
 5083SOL    HW116148   0.202   0.456   3.383
 5083SOL    HW216149   0.238   0.432   3.225
 5084SOL     OW16150   3.548   5.175   5.747
 5084SOL    HW116151   3.610   5.099   5.728
 5084SOL    HW216152   3.554   5.198   5.845
 5085SOL     OW16153   1.059   3.378   6.317
 5085SOL    HW116154   0.983   3.443   6.327
 5085SOL    HW216155   1.038   3.314   6.244
 5086SOL     OW16156   1.131   4.538   1.964
 5086SOL    HW116157   1.182   4.613   2.007
 5086SOL    HW216158   1.073   4.493   2.032
 5087SOL     OW16159   6.442   5.357   1.656
 5087SOL    HW116160   6.442   5.258   1.644
 5087SOL    HW216161   6.428   5.401   1.567
 5088SOL     OW16162   4.079   4.721   2.239
 5088SOL    HW116163   4.126   4.704   2.326
 5088SOL    HW216164   4.117   4.803   2.196
 5089SOL     OW16165   4.621   5.522   5.739
 5089SOL    HW116166   4.597   5.477   5.653
 5089SOL    HW216167   4.712   5.491   5.767
 5090SOL     OW16168   2.300   6.520   4.612
 5090SOL    HW116169   2.259   6.554   4.697
 5090SOL    HW216170   2.233   6.528   4.538
 5091SOL     OW16171   6.258   5.654   4.990
 5091SOL    HW116172   6.349   5.622   5.017
 5091SOL    HW216173   6.233   5.733   5.046
 5092SOL     OW16174   3.675   3.036   4.548
 5092SOL    HW116175   3.767   3.073   4.548
 5092SOL    HW216176   3.615   3.094   4.603
 5093SOL     OW16177   3.229   1.954   3.712
 5093SOL    HW116178   3.143   1.949   3.661
 5093SOL    HW216179   3.291   2.018   3.667
 5094SOL     OW16180   2.302   4.906   4.712
 5094SOL    HW116181   2.271   4.931   4.804
 5094SOL    HW216182   2.352   4.820   4.717
 5095SOL     OW16183   6.029   1.992   3.313
 5095SOL    HW116184   6.074   2.057   3.374
 5095SOL    HW216185   6.091   1.969   3.238
 5096SOL     OW16186   6.105   2.967   5.147
 5096SOL    HW116187   6.200   2.939   5.158
 5096SOL    HW216188   6.052   2.893   5.105
 5097SOL     OW16189   0.711   0.244   6.007
 5097SOL    HW116190   0.755   0.260   6.095
 5097SOL    HW216191   0.740   0.314   5.942
 5098SOL     OW16192   2.944   1.796   0.903
 5098SOL    HW116193   2.953   1.809   1.002
 5098SOL    HW216194   2.915   1.881   0.860
 5099SOL     OW16195   1.872   5.848   1.472
 5099SOL    HW116196   1.888   5.785   1.396
 5099SOL    HW216197   1.862   5.941   1.436
 5100SOL     OW16198   0.051   3.488   1.496
 5100SOL    HW116199   0.047   3.389   1.484
 5100SOL    HW216200   6.996   3.531   1.444
 5101SOL     OW16201   4.611   2.042   5.970
 5101SOL    HW116202   4.628   2.026   6.067
 5101SOL    HW216203   4.697   2.034   5.920
 5102SOL     OW16204   5.782   4.666   5.125
 5102SOL    HW116205   5.824   4.601   5.062
 5102SOL    HW216206   5.852   4.711   5.180
 5103SOL     OW16207   0.334   6.846   5.382
 5103SOL    HW116208   0.293   6.936   5.364
 5103SOL    HW216209   0.404   6.827   5.313
 5104SOL     OW16210   3.566   3.200   3.774
 5104SOL    HW116211   3.576   3.110   3.816
 5104SOL    HW216212   3.559   3.270   3.845
 5105SOL     OW16213   4.648   2.322   6.667
 5105SOL    HW116214   4.550   2.319   6.684
 5105SOL    HW216215   4.697   2.285   6.745
 5106SOL     OW16216   4.236   0.580   1.457
 5106SOL    HW116217   4.319   0.558   1.406
 5106SOL    HW216218   4.226   0.680   1.464
 5107SOL     OW16219   6.415   4.320   6.777
 5107SOL    HW116220   6.472   4.353   6.852
 5107SOL    HW216221   6.419   4.220   6.774
 5108SOL     OW16222   4.392   3.916   1.065
 5108SOL    HW116223   4.402   3.820   1.040
 5108SOL    HW216224   4.476   3.948   1.109
 5109SOL     OW16225   1.725   2.586   1.967
 5109SOL    HW116226   1.801   2.647   1.945
 5109SOL    HW216227   1.706   2.526   1.889
 5110SOL     OW16228   3.341   6.539   4.949
 5110SOL    HW116229   3.414   6.569   5.010
 5110SOL    HW216230   3.377   6.472   4.884
 5111SOL     OW16231   2.280   6.322   6.432
 5111SOL    HW116232   2.242   6.338   6.341
 5111SOL    HW216233   2.358   6.383   6.446
 5112SOL     OW16234   0.657   4.322   2.504
 5112SOL    HW116235   0.752   4.290   2.498
 5112SOL    HW216236   0.640   4.359   2.595
 5113SOL     OW16237   2.988   4.721   1.484
 5113SOL    HW116238   3.048   4.685   1.413
 5113SOL    HW216239   2.918   4.654   1.507
 5114SOL     OW16240   4.648   4.431   1.168
 5114SOL    HW116241   4.700   4.355   1.207
 5114SOL    HW216242   4.711   4.503   1.137
 5115SOL     OW16243   1.442   3.619   0.512
 5115SOL    HW116244   1.487   3.653   0.429
 5115SOL    HW216245   1.425   3.695   0.574
 5116SOL     OW16246   0.800   6.250   5.581
 5116SOL    HW116247   0.733   6.197   5.529
 5116SOL    HW216248   0.892   6.219   5.559
 5117SOL     OW16249   6.989   3.659   4.261
 5117SOL    HW116250   0.055   3.672   4.210
 5117SOL    HW216251   7.011   3.642   4.357
 5118SOL     OW16252   5.019   5.477   0.364
 5118SOL    HW116253   4.978   5.395   0.403
 5118SOL    HW216254   4.992   5.557   0.419
 5119SOL     OW16255   5.345   1.101   0.230
 5119SOL    HW116256   5.279   1.031   0.203
 5119SOL    HW216257   5.335   1.181   0.172
 5120SOL     OW16258   5.381   6.380   6.909
 5120SOL    HW116259   5.296   6.387   6.962
 5120SOL    HW216260   5.381   6.448   6.836
 5121SOL     OW16261   2.055   3.923   0.021
 5121SOL    HW116262   1.969   3.920   6.989
 5121SOL    HW216263   2.065   4.014   0.063
 5122SOL     OW16264   4.986   5.288   3.758
 5122SOL    HW116265   5.079   5.325   3.767
 5122SOL    HW216266   4.984   5.195   3.795
 5123SOL     OW16267   4.684   2.132   1.313
 5123SOL    HW116268   4.777   2.099   1.331
 5123SOL    HW216269   4.629   2.122   1.395
 5124SOL     OW16270   0.304   5.535   4.513
 5124SOL    HW116271   0.288   5.593   4.593
 5124SOL    HW216272   0.289   5.588   4.430
 5125SOL     OW16273   5.242   2.877   3.880
 5125SOL    HW116274   5.307   2.854   3.953
 5125SOL    HW216275   5.167   2.811   3.881
 5126SOL     OW16276   2.681   0.800   2.718
 5126SOL    HW116277   2.627   0.877   2.686
 5126SOL    HW216278   2.639   0.762   2.801
 5127SOL     OW16279   2.585   6.116   1.040
 5127SOL    HW116280   2.625   6.130   1.130
 5127SOL    HW216281   2.627   6.179   0.974
 5128SOL     OW16282   3.977   0.370   2.204
 5128SOL    HW116283   4.021   0.280   2.213
 5128SOL    HW216284   3.878   0.359   2.207
 5129SOL     OW16285   6.289   5.291   6.850
 5129SOL    HW116286   6.370   5.233   6.848
 5129SOL    HW216287   6.233   5.268   6.930
 5130SOL     OW16288   5.863   4.611   2.222
 5130SOL    HW116289   5.915   4.530   2.247
 5130SOL    HW216290   5.879   4.633   2.125
 5131SOL     OW16291   2.235   2.141   1.865
 5131SOL    HW116292   2.215   2.203   1.941
 5131SOL    HW216293   2.195   2.051   1.884
 5132SOL     OW16294   2.280   6.140   6.023
 5132SOL    HW116295   2.257   6.055   6.070
 5132SOL    HW216296   2.228   6.216   6.063
 5133SOL     OW16297   4.236   5.467   4.876
 5133SOL    HW116298   4.326   5.500   4.904
 5133SOL    HW216299   4.204   5.517   4.796
 5134SOL     OW16300   1.311   2.584   6.895
 5134SOL    HW116301   1.390   2.595   6.835
 5134SOL    HW216302   1.229   2.566   6.840
 5135SOL     OW16303   6.391   1.276   3.019
 5135SOL    HW116304   6.347   1.326   3.093
 5135SOL    HW216305   6.342   1.191   3.001
 5136SOL     OW16306   3.821   1.904   6.870
 5136SOL    HW116307   3.789   1.997   6.890
 5136SOL    HW216308   3.908   1.888   6.915
 5137SOL     OW16309   4.338   3.392   6.948
 5137SOL    HW116310   4.417   3.432   6.903
 5137SOL    HW216311   4.299   3.457   7.014
 5138SOL     OW16312   2.627   3.103   5.794
 5138SOL    HW116313   2.701   3.159   5.756
 5138SOL    HW216314   2.539   3.134   5.757
 5139SOL     OW16315   0.741   6.420   4.281
 5139SOL    HW116316   0.785   6.509   4.294
 5139SOL    HW216317   0.677   6.403   4.356
 5140SOL     OW16318   3.263   3.009   2.664
 5140SOL    HW116319   3.296   3.103   2.660
 5140SOL    HW216320   3.298   2.957   2.586
 5141SOL     OW16321   1.398   3.158   5.107
 5141SOL    HW116322   1.405   3.204   5.196
 5141SOL    HW216323   1.337   3.210   5.048
 5142SOL     OW16324   5.570   3.152   1.541
 5142SOL    HW116325   5.584   3.197   1.453
 5142SOL    HW216326   5.472   3.142   1.558
 5143SOL     OW16327   7.009   5.011   6.401
 5143SOL    HW116328   0.084   5.031   6.371
 5143SOL    HW216329   6.945   5.070   6.352
 5144SOL     OW16330   2.429   1.051   4.772
 5144SOL    HW116331   2.476   0.963   4.772
 5144SOL    HW216332   2.416   1.082   4.866
 5145SOL     OW16333   3.336   5.120   6.679
 5145SOL    HW116334   3.395   5.155   6.752
 5145SOL    HW216335   3.271   5.055   6.719
 5146SOL     OW16336   3.661   5.177   1.349
 5146SOL    HW116337   3.697   5.251   1.406
 5146SOL    HW216338   3.720   5.097   1.358
 5147SOL     OW16339   0.785   5.660   6.192
 5147SOL    HW116340   0.805   5.565   6.170
 5147SOL    HW216341   0.738   5.666   6.280
 5148SOL     OW16342   6.967   0.301   1.703
 5148SOL    HW116343   0.009   0.320   1.627
 5148SOL    HW216344   6.878   0.272   1.668
 5149SOL     OW16345   6.655   0.183   4.791
 5149SOL    HW116346   6.599   0.265   4.801
 5149SOL    HW216347   6.642   0.123   4.870
 5150SOL     OW16348   2.692   5.302   5.824
 5150SOL    HW116349   2.603   5.339   5.851
 5150SOL    HW216350   2.684   5.203   5.810
 5151SOL     OW16351   5.032   7.010   6.323
 5151SOL    HW116352   5.000   6.934   6.379
 5151SOL    HW216353   4.991   7.003   6.232
 5152SOL     OW16354   0.124   4.703   6.167
 5152SOL    HW116355   0.175   4.631   6.121
 5152SOL    HW216356   0.101   4.675   6.260
 5153SOL     OW16357   2.965   3.657   1.058
 5153SOL    HW116358   3.004   3.678   1.148
 5153SOL    HW216359   2.870   3.630   1.068
 5154SOL     OW16360   0.985   4.008   5.380
 5154SOL    HW116361   0.993   4.095   5.427
 5154SOL    HW216362   0.981   3.933   5.447
 5155SOL     OW16363   4.402   1.044   2.726
 5155SOL    HW116364   4.390   1.040   2.627
 5155SOL    HW216365   4.425   0.953   2.761
 5156SOL     OW16366   5.253   3.632   5.446
 5156SOL    HW116367   5.210   3.715   5.482
 5156SOL    HW216368   5.352   3.644   5.442
 5157SOL     OW16369   6.736   2.529   3.985
 5157SOL    HW116370   6.668   2.593   4.020
 5157SOL    HW216371   6.705   2.435   4.001
 5158SOL     OW16372   4.256   1.059   2.082
 5158SOL    HW116373   4.337   1.015   2.045
 5158SOL    HW216374   4.284   1.134   2.142
 5159SOL     OW16375   1.545   4.153   5.142
 5159SOL    HW116376   1.612   4.101   5.195
 5159SOL    HW216377   1.591   4.200   5.067
 5160SOL     OW16378   2.431   2.352   3.396
 5160SOL    HW116379   2.454   2.379   3.303
 5160SOL    HW216380   2.495   2.282   3.427
 5161SOL     OW16381   1.806   2.562   6.604
 5161SOL    HW116382   1.859   2.541   6.686
 5161SOL    HW216383   1.852   2.636   6.553
 5162SOL     OW16384   6.373   6.021   5.153
 5162SOL    HW116385   6.290   5.965   5.144
 5162SOL    HW216386   6.434   6.001   5.077
 5163SOL     OW16387   6.152   3.499   1.307
 5163SOL    HW116388   6.221   3.484   1.237
 5163SOL    HW216389   6.115   3.592   1.298
 5164SOL     OW16390   6.468   6.657   4.983
 5164SOL    HW116391   6.419   6.639   5.068
 5164SOL    HW216392   6.452   6.751   4.954
 5165SOL     OW16393   5.313   4.466   5.428
 5165SOL    HW116394   5.397   4.518   5.419
 5165SOL    HW216395   5.235   4.529   5.430
 5166SOL     OW16396   0.074   0.351   2.846
 5166SOL    HW116397   0.162   0.371   2.803
 5166SOL    HW216398   0.089   0.318   2.939
 5167SOL     OW16399   2.040   0.107   4.731
 5167SOL    HW116400   1.965   0.152   4.780
 5167SOL    HW216401   2.073   0.167   4.658
 5168SOL     OW16402   3.217   2.043   2.149
 5168SOL    HW116403   3.178   2.132   2.173
 5168SOL    HW216404   3.144   1.980   2.122
 5169SOL     OW16405   3.634   5.359   6.609
 5169SOL    HW116406   3.602   5.339   6.702
 5169SOL    HW216407   3.568   5.416   6.562
 5170SOL     OW16408   4.152   5.081   4.540
 5170SOL    HW116409   4.088   5.151   4.571
 5170SOL    HW216410   4.101   5.008   4.494
 5171SOL     OW16411   2.570   4.416   5.525
 5171SOL    HW116412   2.636   4.483   5.491
 5171SOL    HW216413   2.597   4.325   5.494
 5172SOL     OW16414   1.583   3.608   6.205
 5172SOL    HW116415   1.616   3.689   6.254
 5172SOL    HW216416   1.524   3.637   6.130
 5173SOL     OW16417   0.345   2.221   4.637
 5173SOL    HW116418   0.355   2.320   4.643
 5173SOL    HW216419   0.369   2.180   4.725
 5174SOL     OW16420   2.903   4.806   6.705
 5174SOL    HW116421   2.937   4.743   6.636
 5174SOL    HW216422   2.814   4.774   6.738
 5175SOL     OW16423   1.198   5.601   0.154
 5175SOL    HW116424   1.215   5.534   0.225
 5175SOL    HW216425   1.173   5.555   0.069
 5176SOL     OW16426   5.907   3.192   6.582
 5176SOL    HW116427   5.809   3.214   6.579
 5176SOL    HW216428   5.956   3.249   6.515
 5177SOL     OW16429   4.857   5.459   6.894
 5177SOL    HW116430   4.906   5.498   6.972
 5177SOL    HW216431   4.790   5.392   6.928
 5178SOL     OW16432   3.749   4.663   0.305
 5178SOL    HW116433   3.811   4.702   0.374
 5178SOL    HW216434   3.703   4.737   0.256
 5179SOL     OW16435   2.934   6.031   5.596
 5179SOL    HW116436   2.900   6.078   5.678
 5179SOL    HW216437   2.971   5.942   5.622
 5180SOL     OW16438   5.055   1.609   6.286
 5180SOL    HW116439   5.143   1.574   6.253
 5180SOL    HW216440   5.010   1.539   6.341
 5181SOL     OW16441   2.931   6.494   2.617
 5181SOL    HW116442   2.941   6.478   2.519
 5181SOL    HW216443   2.936   6.406   2.666
 5182SOL     OW16444   4.968   4.067   0.807
 5182SOL    HW116445   4.920   4.019   0.734
 5182SOL    HW216446   4.905   4.083   0.884
 5183SOL     OW16447   3.020   0.981   3.555
 5183SOL    HW116448   3.024   1.044   3.477
 5183SOL    HW216449   2.986   1.030   3.636
 5184SOL     OW16450   1.243   1.913   3.010
 5184SOL    HW116451   1.329   1.923   2.961
 5184SOL    HW216452   1.228   1.994   3.067
 5185SOL     OW16453   4.441   0.442   2.052
 5185SOL    HW116454   4.385   0.431   1.969
 5185SOL    HW216455   4.380   0.449   2.132
 5186SOL     OW16456   5.399   3.449   0.052
 5186SOL    HW116457   5.469   3.413   7.008
 5186SOL    HW216458   5.344   3.373   0.086
 5187SOL     OW16459   4.888   3.990   4.248
 5187SOL    HW116460   4.869   3.974   4.344
 5187SOL    HW216461   4.882   3.904   4.197
 5188SOL     OW16462   0.805   0.976   3.302
 5188SOL    HW116463   0.829   1.070   3.325
 5188SOL    HW216464   0.835   0.956   3.209
 5189SOL     OW16465   4.831   5.394   5.826
 5189SOL    HW116466   4.867   5.318   5.878
 5189SOL    HW216467   4.905   5.441   5.778
 5190SOL     OW16468   1.838   1.986   2.712
 5190SOL    HW116469   1.908   1.925   2.674
 5190SOL    HW216470   1.849   2.077   2.672
 5191SOL     OW16471   4.819   1.157   2.260
 5191SOL    HW116472   4.799   1.159   2.357
 5191SOL    HW216473   4.797   1.246   2.219
 5192SOL     OW16474   6.762   3.936   1.932
 5192SOL    HW116475   6.847   3.987   1.937
 5192SOL    HW216476   6.781   3.838   1.942
 5193SOL     OW16477   3.579   4.954   3.345
 5193SOL    HW116478   3.628   4.990   3.424
 5193SOL    HW216479   3.577   4.855   3.349
 5194SOL     OW16480   5.283   0.778   0.510
 5194SOL    HW116481   5.184   0.765   0.505
 5194SOL    HW216482   5.305   0.845   0.581
 5195SOL     OW16483   0.576   5.029   5.300
 5195SOL    HW116484   0.549   5.038   5.204
 5195SOL    HW216485   0.597   4.933   5.319
 5196SOL     OW16486   1.524   3.542   3.204
 5196SOL    HW116487   1.432   3.581   3.202
 5196SOL    HW216488   1.561   3.550   3.297
 5197SOL     OW16489   3.705   5.872   5.174
 5197SOL    HW116490   3.759   5.817   5.110
 5197SOL    HW216491   3.714   5.836   5.266
 5198SOL     OW16492   4.290   1.096   6.327
 5198SOL    HW116493   4.229   1.175   6.322
 5198SOL    HW216494   4.264   1.029   6.258
 5199SOL     OW16495   0.607   6.434   2.611
 5199SOL    HW116496   0.535   6.417   2.543
 5199SOL    HW216497   0.583   6.389   2.697
 5200SOL     OW16498   5.850   6.257   5.974
 5200SOL    HW116499   5.919   6.283   5.906
 5200SOL    HW216500   5.782   6.330   5.982
 5201SOL     OW16501   6.898   3.484   5.281
 5201SOL    HW116502   6.868   3.428   5.358
 5201SOL    HW216503   6.959   3.556   5.315
 5202SOL     OW16504   3.790   2.504   5.781
 5202SOL    HW116505   3.751   2.586   5.738
 5202SOL    HW216506   3.790   2.515   5.880
 5203SOL     OW16507   0.137   0.321   5.505
 5203SOL    HW116508   0.222   0.281   5.539
 5203SOL    HW216509   0.066   0.313   5.576
 5204SOL     OW16510   2.122   0.261   2.160
 5204SOL    HW116511   2.182   0.188   2.128
 5204SOL    HW216512   2.042   0.222   2.204
 5205SOL     OW16513   6.009   0.015   1.910
 5205SOL    HW116514   5.918   7.012   1.875
 5205SOL    HW216515   6.004   0.030   2.009
 5206SOL     OW16516   0.941   4.647   5.006
 5206SOL    HW116517   0.864   4.586   5.023
 5206SOL    HW216518   0.956   4.654   4.907
 5207SOL     OW16519   4.769   1.805   4.651
 5207SOL    HW116520   4.738   1.765   4.565
 5207SOL    HW216521   4.758   1.737   4.724
 5208SOL     OW16522   6.840   1.457   0.504
 5208SOL    HW116523   6.797   1.403   0.432
 5208SOL    HW216524   6.910   1.516   0.465
 5209SOL     OW16525   4.681   5.824   2.950
 5209SOL    HW116526   4.594   5.823   2.901
 5209SOL    HW216527   4.753   5.786   2.892
 5210SOL     OW16528   6.530   3.987   1.765
 5210SOL    HW116529   6.616   3.973   1.814
 5210SOL    HW216530   6.464   3.918   1.794
 5211SOL     OW16531   5.013   3.277   4.619
 5211SOL    HW116532   5.021   3.190   4.668
 5211SOL    HW216533   4.917   3.295   4.599
 5212SOL     OW16534   6.692   3.878   0.101
 5212SOL    HW116535   6.669   3.831   0.186
 5212SOL    HW216536   6.626   3.952   0.085
 5213SOL     OW16537   3.576   3.266   4.660
 5213SOL    HW116538   3.509   3.273   4.586
 5213SOL    HW216539   3.530   3.238   4.744
 5214SOL     OW16540   6.037   2.825   5.430
 5214SOL    HW116541   6.072   2.876   5.351
 5214SOL    HW216542   5.939   2.842   5.440
 5215SOL     OW16543   0.501   4.673   5.238
 5215SOL    HW116544   0.482   4.732   5.159
 5215SOL    HW216545   0.571   4.715   5.295
 5216SOL     OW16546   0.152   4.143   0.211
 5216SOL    HW116547   0.205   4.063   0.184
 5216SOL    HW216548   0.152   4.152   0.311
 5217SOL     OW16549   3.326   1.049   2.034
 5217SOL    HW116550   3.361   1.140   2.010
 5217SOL    HW216551   3.229   1.056   2.057
 5218SOL     OW16552   6.420   6.629   0.490
 5218SOL    HW116553   6.491   6.684   0.447
 5218SOL    HW216554   6.447   6.606   0.583
 5219SOL     OW16555   4.137   1.976   4.687
 5219SOL    HW116556   4.229   1.971   4.647
 5219SOL    HW216557   4.090   2.056   4.651
 5220SOL     OW16558   1.885   4.545   4.332
 5220SOL    HW116559   1.924   4.457   4.304
 5220SOL    HW216560   1.959   4.611   4.347
 5221SOL     OW16561   4.120   6.848   0.407
 5221SOL    HW116562   4.105   6.942   0.376
 5221SOL    HW216563   4.133   6.848   0.506
 5222SOL     OW16564   5.606   2.601   2.130
 5222SOL    HW116565   5.650   2.690   2.113
 5222SOL    HW216566   5.598   2.587   2.229
 5223SOL     OW16567   6.819   1.821   0.800
 5223SOL    HW116568   6.725   1.794   0.782
 5223SOL    HW216569   6.851   1.776   0.884
 5224SOL     OW16570   1.598   1.693   4.747
 5224SOL    HW116571   1.590   1.702   4.847
 5224SOL    HW216572   1.636   1.777   4.709
 5225SOL     OW16573   6.828   3.356   6.328
 5225SOL    HW116574   6.735   3.322   6.315
 5225SOL    HW216575   6.894   3.285   6.305
 5226SOL     OW16576   0.238   0.036   4.130
 5226SOL    HW116577   0.184   0.020   4.048
 5226SOL    HW216578   0.255   0.134   4.141
 5227SOL     OW16579   2.694   2.145   6.444
 5227SOL    HW116580   2.752   2.125   6.365
 5227SOL    HW216581   2.692   2.067   6.505
 5228SOL     OW16582   0.437   2.379   5.793
 5228SOL    HW116583   0.464   2.453   5.732
 5228SOL    HW216584   0.341   2.356   5.777
 5229SOL     OW16585   4.115   1.703   1.349
 5229SOL    HW116586   4.151   1.709   1.256
 5229SOL    HW216587   4.121   1.792   1.394
 5230SOL     OW16588   6.041   0.929   2.470
 5230SOL    HW116589   5.983   0.895   2.396
 5230SOL    HW216590   6.090   1.011   2.439
 5231SOL     OW16591   0.082   4.019   2.264
 5231SOL    HW116592   0.046   4.061   2.347
 5231SOL    HW216593   0.132   3.936   2.288
 5232SOL     OW16594   1.670   1.823   6.183
 5232SOL    HW116595   1.747   1.806   6.245
 5232SOL    HW216596   1.584   1.804   6.231
 5233SOL     OW16597   2.168   6.529   3.530
 5233SOL    HW116598   2.200   6.609   3.580
 5233SOL    HW216599   2.076   6.504   3.561
 5234SOL     OW16600   3.774   2.531   6.050
 5234SOL    HW116601   3.745   2.442   6.086
 5234SOL    HW216602   3.816   2.584   6.123
 5235SOL     OW16603   2.659   3.143   1.691
 5235SOL    HW116604   2.629   3.051   1.717
 5235SOL    HW216605   2.749   3.138   1.648
 5236SOL     OW16606   3.056   5.221   1.751
 5236SOL    HW116607   3.140   5.167   1.754
 5236SOL    HW216608   2.977   5.159   1.746
 5237SOL     OW16609   1.042   1.510   1.254
 5237SOL    HW116610   1.057   1.608   1.267
 5237SOL    HW216611   1.067   1.484   1.160
 5238SOL     OW16612   6.162   1.164   3.314
 5238SOL    HW116613   6.175   1.258   3.283
 5238SOL    HW216614   6.246   1.131   3.356
 5239SOL     OW16615   2.490   3.679   7.010
 5239SOL    HW116616   2.432   3.755   6.980
 5239SOL    HW216617   2.573   3.715   0.034
 5240SOL     OW16618   1.459   3.743   4.685
 5240SOL    HW116619   1.476   3.830   4.732
 5240SOL    HW216620   1.432   3.761   4.590
 5241SOL     OW16621   2.258   5.094   2.732
 5241SOL    HW116622   2.335   5.068   2.675
 5241SOL    HW216623   2.289   5.153   2.806
 5242SOL     OW16624   4.407   5.681   5.657
 5242SOL    HW116625   4.493   5.654   5.701
 5242SOL    HW216626   4.415   5.776   5.626
 5243SOL     OW16627   2.215   5.520   4.081
 5243SOL    HW116628   2.185   5.594   4.020
 5243SOL    HW216629   2.139   5.491   4.138
 5244SOL     OW16630   5.872   0.007   6.951
 5244SOL    HW116631   5.839   6.953   6.892
 5244SOL    HW216632   5.801   0.077   6.960
 5245SOL     OW16633   3.384   3.695   1.790
 5245SOL    HW116634   3.413   3.667   1.698
 5245SOL    HW216635   3.438   3.645   1.858
 5246SOL     OW16636   6.615   2.401   5.528
 5246SOL    HW116637   6.573   2.424   5.440
 5246SOL    HW216638   6.546   2.358   5.587
 5247SOL     OW16639   4.769   1.166   4.870
 5247SOL    HW116640   4.770   1.091   4.804
 5247SOL    HW216641   4.829   1.239   4.838
 5248SOL     OW16642   4.096   1.317   2.483
 5248SOL    HW116643   4.104   1.318   2.582
 5248SOL    HW216644   4.018   1.260   2.456
 5249SOL     OW16645   0.654   5.745   2.220
 5249SOL    HW116646   0.732   5.686   2.241
 5249SOL    HW216647   0.637   5.743   2.122
 5250SOL     OW16648   1.507   5.348   6.822
 5250SOL    HW116649   1.436   5.348   6.751
 5250SOL    HW216650   1.494   5.268   6.881
 5251SOL     OW16651   1.949   4.238   6.178
 5251SOL    HW116652   2.012   4.277   6.245
 5251SOL    HW216653   1.896   4.312   6.136
 5252SOL     OW16654   3.746   5.826   3.822
 5252SOL    HW116655   3.667   5.781   3.781
 5252SOL    HW216656   3.716   5.876   3.904
 5253SOL     OW16657   0.292   6.078   4.713
 5253SOL    HW116658   0.301   6.117   4.805
 5253SOL    HW216659   0.223   6.006   4.714
 5254SOL     OW16660   4.620   6.348   1.705
 5254SOL    HW116661   4.547   6.312   1.764
 5254SOL    HW216662   4.694   6.281   1.700
 5255SOL     OW16663   0.311   1.726   6.229
 5255SOL    HW116664   0.404   1.720   6.192
 5255SOL    HW216665   0.247   1.690   6.161
 5256SOL     OW16666   4.305   1.740   2.729
 5256SOL    HW116667   4.339   1.679   2.657
 5256SOL    HW216668   4.223   1.700   2.770
 5257SOL     OW16669   6.105   0.894   0.173
 5257SOL    HW116670   6.015   0.937   0.175
 5257SOL    HW216671   6.169   0.949   0.227
 5258SOL     OW16672   6.064   2.180   5.293
 5258SOL    HW116673   5.986   2.242   5.293
 5258SOL    HW216674   6.057   2.117   5.371
 5259SOL     OW16675   4.397   6.348   4.650
 5259SOL    HW116676   4.324   6.412   4.626
 5259SOL    HW216677   4.452   6.327   4.569
 5260SOL     OW16678   1.596   6.709   2.019
 5260SOL    HW116679   1.583   6.760   2.104
 5260SOL    HW216680   1.679   6.742   1.973
 5261SOL     OW16681   6.920   4.997   7.007
 5261SOL    HW116682   6.826   5.023   0.012
 5261SOL    HW216683   6.983   5.061   0.032
 5262SOL     OW16684   2.188   2.319   2.049
 5262SOL    HW116685   2.170   2.410   2.011
 5262SOL    HW216686   2.111   2.290   2.106
 5263SOL     OW16687   0.248   5.902   2.086
 5263SOL    HW116688   0.327   5.905   2.025
 5263SOL    HW216689   0.268   5.842   2.164
 5264SOL     OW16690   5.786   2.380   2.529
 5264SOL    HW116691   5.834   2.294   2.542
 5264SOL    HW216692   5.764   2.393   2.432
 5265SOL     OW16693   1.386   6.062   6.164
 5265SOL    HW116694   1.287   6.064   6.150
 5265SOL    HW216695   1.431   6.116   6.092
 5266SOL     OW16696   0.582   0.464   6.546
 5266SOL    HW116697   0.559   0.489   6.452
 5266SOL    HW216698   0.620   0.372   6.547
 5267SOL     OW16699   6.401   1.639   4.797
 5267SOL    HW116700   6.471   1.675   4.737
 5267SOL    HW216701   6.355   1.562   4.753
 5268SOL     OW16702   5.210   0.387   5.597
 5268SOL    HW116703   5.168   0.420   5.681
 5268SOL    HW216704   5.140   0.378   5.526
 5269SOL     OW16705   0.794   0.473   3.754
 5269SOL    HW116706   0.733   0.402   3.718
 5269SOL    HW216707   0.795   0.551   3.691
 5270SOL     OW16708   1.706   1.598   6.655
 5270SOL    HW116709   1.713   1.560   6.747
 5270SOL    HW216710   1.752   1.687   6.653
 5271SOL     OW16711   1.541   6.724   6.375
 5271SOL    HW116712   1.462   6.784   6.366
 5271SOL    HW216713   1.599   6.755   6.450
 5272SOL     OW16714   4.275   0.249   6.334
 5272SOL    HW116715   4.281   0.152   6.313
 5272SOL    HW216716   4.201   0.290   6.281
 5273SOL     OW16717   1.968   1.768   3.483
 5273SOL    HW116718   1.946   1.790   3.579
 5273SOL    HW216719   1.944   1.846   3.425
 5274SOL     OW16720   6.290   4.805   1.074
 5274SOL    HW116721   6.225   4.878   1.052
 5274SOL    HW216722   6.268   4.766   1.163
 5275SOL     OW16723   5.629   0.180   6.809
 5275SOL    HW116724   5.585   0.253   6.756
 5275SOL    HW216725   5.704   0.141   6.756
 5276SOL     OW16726   3.036   6.447   1.089
 5276SOL    HW116727   3.088   6.365   1.110
 5276SOL    HW216728   2.938   6.428   1.099
 5277SOL     OW16729   1.520   3.054   1.590
 5277SOL    HW116730   1.581   3.111   1.646
 5277SOL    HW216731   1.457   3.113   1.540
 5278SOL     OW16732   4.100   3.750   4.640
 5278SOL    HW116733   4.170   3.780   4.575
 5278SOL    HW216734   4.010   3.779   4.607
 5279SOL     OW16735   1.377   0.062   3.007
 5279SOL    HW116736   1.368   0.048   2.908
 5279SOL    HW216737   1.331   7.005   3.055
 5280SOL     OW16738   3.572   0.858   3.819
 5280SOL    HW116739   3.502   0.929   3.805
 5280SOL    HW216740   3.598   0.855   3.915
 5281SOL     OW16741   6.595   2.908   3.407
 5281SOL    HW116742   6.556   2.999   3.424
 5281SOL    HW216743   6.635   2.906   3.315
 5282SOL     OW16744   5.096   2.210   1.207
 5282SOL    HW116745   5.030   2.135   1.211
 5282SOL    HW216746   5.130   2.221   1.114
 5283SOL     OW16747   5.596   4.899   5.309
 5283SOL    HW116748   5.612   4.988   5.351
 5283SOL    HW216749   5.580   4.911   5.211
 5284SOL     OW16750   5.784   2.587   4.020
 5284SOL    HW116751   5.861   2.558   4.077
 5284SOL    HW216752   5.811   2.663   3.962
 5285SOL     OW16753   4.126   4.999   2.314
 5285SOL    HW116754   4.135   5.012   2.216
 5285SOL    HW216755   4.175   5.072   2.362
 5286SOL     OW16756   1.661   5.017   1.999
 5286SOL    HW116757   1.626   5.046   1.911
 5286SOL    HW216758   1.733   4.949   1.986
 5287SOL     OW16759   0.300   0.760   3.173
 5287SOL    HW116760   0.311   0.859   3.179
 5287SOL    HW216761   0.303   0.721   3.266
 5288SOL     OW16762   3.920   0.673   0.791
 5288SOL    HW116763   3.825   0.647   0.808
 5288SOL    HW216764   3.949   0.741   0.858
 5289SOL     OW16765   1.869   0.048   1.629
 5289SOL    HW116766   1.859   0.012   1.722
 5289SOL    HW216767   1.948   0.108   1.625
 5290SOL     OW16768   5.309   6.806   0.003
 5290SOL    HW116769   5.292   6.785   0.099
 5290SOL    HW216770   5.363   6.891   7.015
 5291SOL     OW16771   1.110   5.199   0.390
 5291SOL    HW116772   1.170   5.278   0.395
 5291SOL    HW216773   1.075   5.178   0.482
 5292SOL     OW16774   5.389   1.182   1.860
 5292SOL    HW116775   5.456   1.252   1.887
 5292SOL    HW216776   5.420   1.093   1.891
 5293SOL     OW16777   1.988   1.572   3.949
 5293SOL    HW116778   1.937   1.603   4.030
 5293SOL    HW216779   1.935   1.502   3.901
 5294SOL     OW16780   3.487   1.938   6.844
 5294SOL    HW116781   3.512   1.884   6.764
 5294SOL    HW216782   3.551   2.014   6.854
 5295SOL     OW16783   6.883   1.993   3.412
 5295SOL    HW116784   6.963   2.040   3.374
 5295SOL    HW216785   6.800   2.031   3.371
 5296SOL     OW16786   0.295   3.860   6.531
 5296SOL    HW116787   0.299   3.766   6.496
 5296SOL    HW216788   0.322   3.924   6.459
 5297SOL     OW16789   1.324   2.471   2.019
 5297SOL    HW116790   1.353   2.389   1.969
 5297SOL    HW216791   1.350   2.462   2.115
 5298SOL     OW16792   1.077   3.454   2.548
 5298SOL    HW116793   1.115   3.489   2.463
 5298SOL    HW216794   1.107   3.513   2.624
 5299SOL     OW16795   3.879   0.545   0.106
 5299SOL    HW116796   3.911   0.608   0.177
 5299SOL    HW216797   3.779   0.542   0.106
 5300SOL     OW16798   6.911   4.624   4.335
 5300SOL    HW116799   6.861   4.552   4.382
 5300SOL    HW216800   6.857   4.659   4.259
 5301SOL     OW16801   5.716   6.923   6.308
 5301SOL    HW116802   5.648   6.920   6.235
 5301SOL    HW216803   5.766   7.009   6.303
 5302SOL     OW16804   0.089   3.595   2.894
 5302SOL    HW116805   0.125   3.611   2.802
 5302SOL    HW216806   0.158   3.548   2.949
 5303SOL     OW16807   2.548   5.023   2.056
 5303SOL    HW116808   2.506   4.939   2.089
 5303SOL    HW216809   2.487   5.100   2.072
 5304SOL     OW16810   5.364   1.612   6.269
 5304SOL    HW116811   5.386   1.675   6.343
 5304SOL    HW216812   5.449   1.577   6.229
 5305SOL     OW16813   4.001   1.627   5.009
 5305SOL    HW116814   4.033   1.654   4.918
 5305SOL    HW216815   4.079   1.595   5.063
 5306SOL     OW16816   2.215   6.571   4.010
 5306SOL    HW116817   2.278   6.564   4.087
 5306SOL    HW216818   2.266   6.561   3.925
 5307SOL     OW16819   4.895   6.519   6.334
 5307SOL    HW116820   4.883   6.471   6.247
 5307SOL    HW216821   4.857   6.463   6.408
 5308SOL     OW16822   6.457   1.586   1.198
 5308SOL    HW116823   6.489   1.677   1.224
 5308SOL    HW216824   6.361   1.590   1.170
 5309SOL     OW16825   3.498   4.549   6.392
 5309SOL    HW116826   3.450   4.548   6.304
 5309SOL    HW216827   3.591   4.584   6.379
 5310SOL     OW16828   5.349   2.620   0.285
 5310SOL    HW116829   5.366   2.612   0.383
 5310SOL    HW216830   5.414   2.685   0.245
 5311SOL     OW16831   6.781   5.370   7.007
 5311SOL    HW116832   6.746   5.454   0.029
 5311SOL    HW216833   6.746   5.291   0.041
 5312SOL     OW16834   0.777   4.188   2.166
 5312SOL    HW116835   0.703   4.231   2.114
 5312SOL    HW216836   0.788   4.093   2.137
 5313SOL     OW16837   0.584   6.318   6.085
 5313SOL    HW116838   0.584   6.233   6.137
 5313SOL    HW216839   0.623   6.302   5.995
 5314SOL     OW16840   4.745   4.562   0.794
 5314SOL    HW116841   4.812   4.580   0.722
 5314SOL    HW216842   4.753   4.468   0.825
 5315SOL     OW16843   5.426   0.117   2.670
 5315SOL    HW116844   5.415   0.189   2.739
 5315SOL    HW216845   5.367   0.040   2.693
 5316SOL     OW16846   5.238   5.192   5.022
 5316SOL    HW116847   5.265   5.277   4.976
 5316SOL    HW216848   5.236   5.117   4.956
 5317SOL     OW16849   0.270   4.956   1.347
 5317SOL    HW116850   0.294   4.946   1.444
 5317SOL    HW216851   0.173   4.936   1.334
 5318SOL     OW16852   6.601   2.799   3.677
 5318SOL    HW116853   6.531   2.728   3.680
 5318SOL    HW216854   6.621   2.821   3.582
 5319SOL     OW16855   2.765   6.255   2.404
 5319SOL    HW116856   2.812   6.188   2.462
 5319SOL    HW216857   2.676   6.276   2.444
 5320SOL     OW16858   6.960   2.167   0.549
 5320SOL    HW116859   6.958   2.095   0.479
 5320SOL    HW216860   6.911   2.135   0.630
 5321SOL     OW16861   2.915   5.369   0.080
 5321SOL    HW116862   2.986   5.356   0.150
 5321SOL    HW216863   2.858   5.287   0.075
 5322SOL     OW16864   3.090   6.303   0.099
 5322SOL    HW116865   3.184   6.328   0.122
 5322SOL    HW216866   3.064   6.221   0.149
 5323SOL     OW16867   6.919   3.575   0.341
 5323SOL    HW116868   6.988   3.552   0.410
 5323SOL    HW216869   6.839   3.517   0.354
 5324SOL     OW16870   4.000   3.367   2.243
 5324SOL    HW116871   3.977   3.441   2.307
 5324SOL    HW216872   4.036   3.406   2.159
 5325SOL     OW16873   2.897   6.952   5.292
 5325SOL    HW116874   2.929   0.025   5.267
 5325SOL    HW216875   2.808   6.935   5.250
 5326SOL     OW16876   5.876   1.035   4.407
 5326SOL    HW116877   5.895   0.937   4.405
 5326SOL    HW216878   5.787   1.051   4.449
 5327SOL     OW16879   6.229   6.658   4.097
 5327SOL    HW116880   6.281   6.742   4.081
 5327SOL    HW216881   6.157   6.676   4.164
 5328SOL     OW16882   2.526   5.088   5.578
 5328SOL    HW116883   2.486   5.179   5.580
 5328SOL    HW216884   2.548   5.063   5.484
 5329SOL     OW16885   0.647   6.998   5.990
 5329SOL    HW116886   0.579   6.991   6.063
 5329SOL    HW216887   0.658   0.075   5.964
 5330SOL     OW16888   4.998   3.805   0.241
 5330SOL    HW116889   4.979   3.895   0.202
 5330SOL    HW216890   4.996   3.736   0.168
 5331SOL     OW16891   6.227   0.653   0.170
 5331SOL    HW116892   6.225   0.615   0.077
 5331SOL    HW216893   6.168   0.734   0.174
 5332SOL     OW16894   0.538   3.043   6.878
 5332SOL    HW116895   0.514   3.043   6.781
 5332SOL    HW216896   0.467   2.995   6.930
 5333SOL     OW16897   0.413   6.734   4.155
 5333SOL    HW116898   0.478   6.680   4.209
 5333SOL    HW216899   0.435   6.831   4.164
 5334SOL     OW16900   3.373   6.245   0.877
 5334SOL    HW116901   3.336   6.160   0.915
 5334SOL    HW216902   3.406   6.303   0.952
 5335SOL     OW16903   6.480   5.003   1.848
 5335SOL    HW116904   6.410   4.946   1.892
 5335SOL    HW216905   6.539   5.043   1.917
 5336SOL     OW16906   1.534   2.946   5.885
 5336SOL    HW116907   1.607   2.891   5.845
 5336SOL    HW216908   1.573   3.030   5.924
 5337SOL     OW16909   6.635   2.447   0.887
 5337SOL    HW116910   6.588   2.392   0.818
 5337SOL    HW216911   6.571   2.471   0.960
 5338SOL     OW16912   6.729   2.021   1.929
 5338SOL    HW116913   6.725   2.121   1.923
 5338SOL    HW216914   6.642   1.983   1.896
 5339SOL     OW16915   4.781   4.003   2.266
 5339SOL    HW116916   4.786   4.053   2.353
 5339SOL    HW216917   4.763   4.068   2.192
 5340SOL     OW16918   5.555   3.330   0.805
 5340SOL    HW116919   5.628   3.261   0.808
 5340SOL    HW216920   5.494   3.318   0.883
 5341SOL     OW16921   4.571   4.973   3.422
 5341SOL    HW116922   4.624   4.906   3.474
 5341SOL    HW216923   4.526   5.036   3.486
 5342SOL     OW16924   5.746   5.150   4.652
 5342SOL    HW116925   5.751   5.183   4.558
 5342SOL    HW216926   5.838   5.123   4.683
 5343SOL     OW16927   3.896   3.834   0.371
 5343SOL    HW116928   3.883   3.753   0.428
 5343SOL    HW216929   3.982   3.825   0.320
 5344SOL     OW16930   6.816   1.872   0.137
 5344SOL    HW116931   6.717   1.876   0.125
 5344SOL    HW216932   6.844   1.778   0.154
 5345SOL     OW16933   3.505   0.693   6.656
 5345SOL    HW116934   3.446   0.675   6.577
 5345SOL    HW216935   3.461   0.660   6.739
 5346SOL     OW16936   2.620   6.151   3.093
 5346SOL    HW116937   2.607   6.052   3.092
 5346SOL    HW216938   2.717   6.172   3.080
 5347SOL     OW16939   5.838   2.543   5.622
 5347SOL    HW116940   5.929   2.579   5.644
 5347SOL    HW216941   5.773   2.619   5.618
 5348SOL     OW16942   5.446   2.939   5.170
 5348SOL    HW116943   5.415   2.901   5.257
 5348SOL    HW216944   5.545   2.925   5.160
 5349SOL     OW16945   0.980   4.038   0.463
 5349SOL    HW116946   1.066   3.989   0.471
 5349SOL    HW216947   0.964   4.061   0.367
 5350SOL     OW16948   1.407   0.586   6.210
 5350SOL    HW116949   1.483   0.651   6.211
 5350SOL    HW216950   1.412   0.528   6.291
 5351SOL     OW16951   0.732   6.219   2.815
 5351SOL    HW116952   0.693   6.189   2.727
 5351SOL    HW216953   0.712   6.151   2.885
 5352SOL     OW16954   0.183   2.862   6.079
 5352SOL    HW116955   0.278   2.830   6.081
 5352SOL    HW216956   0.127   2.805   6.139
 5353SOL     OW16957   2.080   6.387   2.924
 5353SOL    HW116958   2.176   6.373   2.950
 5353SOL    HW216959   2.041   6.459   2.982
 5354SOL     OW16960   2.262   6.283   1.706
 5354SOL    HW116961   2.223   6.191   1.698
 5354SOL    HW216962   2.355   6.283   1.669
 5355SOL     OW16963   4.676   4.114   5.445
 5355SOL    HW116964   4.767   4.151   5.463
 5355SOL    HW216965   4.635   4.086   5.532
 5356SOL     OW16966   6.725   6.853   1.286
 5356SOL    HW116967   6.762   6.869   1.378
 5356SOL    HW216968   6.657   6.924   1.265
 5357SOL     OW16969   6.495   3.278   2.441
 5357SOL    HW116970   6.453   3.294   2.530
 5357SOL    HW216971   6.515   3.180   2.431
 5358SOL     OW16972   5.405   0.002   5.827
 5358SOL    HW116973   5.314   6.986   5.806
 5358SOL    HW216974   5.431   0.072   5.760
 5359SOL     OW16975   3.665   1.791   6.685
 5359SOL    HW116976   3.651   1.696   6.712
 5359SOL    HW216977   3.739   1.831   6.741
 5360SOL     OW16978   5.255   5.741   2.643
 5360SOL    HW116979   5.215   5.723   2.553
 5360SOL    HW216980   5.199   5.698   2.714
 5361SOL     OW16981   1.230   3.988   2.603
 5361SOL    HW116982   1.215   4.000   2.505
 5361SOL    HW216983   1.157   3.931   2.641
 5362SOL     OW16984   5.958   1.571   3.842
 5362SOL    HW116985   5.922   1.663   3.857
 5362SOL    HW216986   5.899   1.504   3.887
 5363SOL     OW16987   6.091   4.122   6.271
 5363SOL    HW116988   6.108   4.059   6.347
 5363SOL    HW216989   6.146   4.093   6.192
 5364SOL     OW16990   5.076   2.361   1.871
 5364SOL    HW116991   5.009   2.434   1.882
 5364SOL    HW216992   5.097   2.322   1.960
 5365SOL     OW16993   3.222   2.929   6.233
 5365SOL    HW116994   3.122   2.929   6.231
 5365SOL    HW216995   3.254   2.934   6.327
 5366SOL     OW16996   6.939   4.284   3.814
 5366SOL    HW116997   0.001   4.295   3.872
 5366SOL    HW216998   6.903   4.375   3.790
 5367SOL     OW16999   6.439   5.293   0.858
 5367SOL    HW117000   6.529   5.268   0.895
 5367SOL    HW217001   6.404   5.372   0.907
 5368SOL     OW17002   0.061   5.924   4.754
 5368SOL    HW117003   0.054   5.971   4.842
 5368SOL    HW217004   7.004   5.951   4.695
 5369SOL     OW17005   3.782   0.702   2.350
 5369SOL    HW117006   3.819   0.699   2.442
 5369SOL    HW217007   3.685   0.727   2.353
 5370SOL     OW17008   2.584   2.240   0.150
 5370SOL    HW117009   2.576   2.169   0.079
 5370SOL    HW217010   2.548   2.205   0.236
 5371SOL     OW17011   6.274   5.277   2.833
 5371SOL    HW117012   6.371   5.271   2.854
 5371SOL    HW217013   6.221   5.271   2.917
 5372SOL     OW17014   0.918   0.915   4.114
 5372SOL    HW117015   0.907   0.864   4.029
 5372SOL    HW217016   1.009   0.899   4.152
 5373SOL     OW17017   4.319   6.737   1.061
 5373SOL    HW117018   4.378   6.762   0.983
 5373SOL    HW217019   4.242   6.682   1.028
 5374SOL     OW17020   1.655   3.413   1.323
 5374SOL    HW117021   1.691   3.403   1.230
 5374SOL    HW217022   1.721   3.462   1.379
 5375SOL     OW17023   2.897   4.897   5.062
 5375SOL    HW117024   2.874   4.952   5.143
 5375SOL    HW217025   2.851   4.808   5.068
 5376SOL     OW17026   6.404   6.722   2.241
 5376SOL    HW117027   6.354   6.646   2.201
 5376SOL    HW217028   6.373   6.736   2.335
 5377SOL     OW17029   0.637   3.120   1.355
 5377SOL    HW117030   0.642   3.101   1.257
 5377SOL    HW217031   0.585   3.204   1.370
 5378SOL     OW17032   4.636   0.545   4.654
 5378SOL    HW117033   4.657   0.574   4.560
 5378SOL    HW217034   4.636   0.445   4.659
 5379SOL     OW17035   3.421   2.146   4.314
 5379SOL    HW117036   3.515   2.138   4.281
 5379SOL    HW217037   3.420   2.136   4.414
 5380SOL     OW17038   4.505   6.878   1.631
 5380SOL    HW117039   4.561   6.837   1.558
 5380SOL    HW217040   4.433   6.933   1.590
 5381SOL     OW17041   2.639   2.086   2.523
 5381SOL    HW117042   2.659   2.184   2.524
 5381SOL    HW217043   2.582   2.065   2.444
 5382SOL     OW17044   3.829   6.999   2.639
 5382SOL    HW117045   3.752   6.981   2.576
 5382SOL    HW217046   3.817   6.945   2.722
 5383SOL     OW17047   2.169   4.403   5.485
 5383SOL    HW117048   2.231   4.466   5.532
 5383SOL    HW217049   2.094   4.454   5.443
 5384SOL     OW17050   4.738   6.322   5.806
 5384SOL    HW117051   4.674   6.393   5.775
 5384SOL    HW217052   4.830   6.345   5.776
 5385SOL     OW17053   4.042   4.058   0.925
 5385SOL    HW117054   4.119   4.005   0.889
 5385SOL    HW217055   3.974   3.995   0.964
 5386SOL     OW17056   3.815   5.506   2.893
 5386SOL    HW117057   3.739   5.463   2.845
 5386SOL    HW217058   3.879   5.544   2.826
 5387SOL     OW17059   1.048   2.200   5.321
 5387SOL    HW117060   0.981   2.147   5.373
 5387SOL    HW217061   1.001   2.256   5.253
 5388SOL     OW17062   6.698   6.476   3.146
 5388SOL    HW117063   6.704   6.415   3.067
 5388SOL    HW217064   6.676   6.422   3.228
 5389SOL     OW17065   6.792   1.908   4.556
 5389SOL    HW117066   6.874   1.914   4.613
 5389SOL    HW217067   6.810   1.851   4.476
 5390SOL     OW17068   5.773   2.122   3.246
 5390SOL    HW117069   5.718   2.060   3.190
 5390SOL    HW217070   5.855   2.074   3.278
 5391SOL     OW17071   4.875   3.345   0.591
 5391SOL    HW117072   4.822   3.352   0.676
 5391SOL    HW217073   4.879   3.249   0.563
 5392SOL     OW17074   5.046   1.049   3.641
 5392SOL    HW117075   5.132   1.093   3.667
 5392SOL    HW217076   4.973   1.082   3.701
 5393SOL     OW17077   4.765   2.805   2.589
 5393SOL    HW117078   4.734   2.886   2.540
 5393SOL    HW217079   4.724   2.803   2.680
 5394SOL     OW17080   0.683   3.546   3.446
 5394SOL    HW117081   0.633   3.482   3.504
 5394SOL    HW217082   0.717   3.498   3.366
 5395SOL     OW17083   0.546   0.373   1.512
 5395SOL    HW117084   0.577   0.368   1.417
 5395SOL    HW217085   0.623   0.358   1.573
 5396SOL     OW17086   3.569   2.374   0.167
 5396SOL    HW117087   3.625   2.309   0.115
 5396SOL    HW217088   3.474   2.367   0.136
 5397SOL     OW17089   0.377   6.745   2.970
 5397SOL    HW117090   0.433   6.813   2.923
 5397SOL    HW217091   0.433   6.696   3.037
 5398SOL     OW17092   5.969   2.459   3.389
 5398SOL    HW117093   6.006   2.375   3.349
 5398SOL    HW217094   6.038   2.531   3.384
 5399SOL     OW17095   2.840   2.502   0.029
 5399SOL    HW117096   2.903   2.434   7.009
 5399SOL    HW217097   2.856   2.511   0.127
 5400SOL     OW17098   4.348   2.850   0.969
 5400SOL    HW117099   4.447   2.843   0.959
 5400SOL    HW217100   4.307   2.868   0.880
 5401SOL     OW17101   4.796   3.814   1.434
 5401SOL    HW117102   4.812   3.913   1.431
 5401SOL    HW217103   4.850   3.771   1.361
 5402SOL     OW17104   2.286   5.578   1.213
 5402SOL    HW117105   2.385   5.588   1.222
 5402SOL    HW217106   2.265   5.487   1.178
 5403SOL     OW17107   6.402   2.691   5.405
 5403SOL    HW117108   6.441   2.656   5.320
 5403SOL    HW217109   6.351   2.618   5.451
 5404SOL     OW17110   4.322   6.357   6.916
 5404SOL    HW117111   4.234   6.386   6.879
 5404SOL    HW217112   4.340   6.406   7.001
 5405SOL     OW17113   5.999   5.565   6.413
 5405SOL    HW117114   6.012   5.606   6.323
 5405SOL    HW217115   6.085   5.523   6.443
 5406SOL     OW17116   2.268   1.360   5.043
 5406SOL    HW117117   2.206   1.311   4.981
 5406SOL    HW217118   2.228   1.360   5.135
 5407SOL     OW17119   2.070   1.856   2.638
 5407SOL    HW117120   2.155   1.840   2.688
 5407SOL    HW217121   2.080   1.824   2.544
 5408SOL     OW17122   2.573   2.132   4.030
 5408SOL    HW117123   2.660   2.180   4.039
 5408SOL    HW217124   2.516   2.150   4.110
 5409SOL     OW17125   0.362   4.463   3.849
 5409SOL    HW117126   0.457   4.461   3.881
 5409SOL    HW217127   0.340   4.555   3.817
 5410SOL     OW17128   6.043   1.179   0.128
 5410SOL    HW117129   6.064   1.139   0.039
 5410SOL    HW217130   6.066   1.276   0.127
 5411SOL     OW17131   2.940   6.485   2.089
 5411SOL    HW117132   2.941   6.416   2.017
 5411SOL    HW217133   2.946   6.576   2.048
 5412SOL     OW17134   2.695   2.425   5.679
 5412SOL    HW117135   2.607   2.410   5.724
 5412SOL    HW217136   2.711   2.524   5.670
 5413SOL     OW17137   6.840   5.171   5.555
 5413SOL    HW117138   6.798   5.165   5.464
 5413SOL    HW217139   6.800   5.101   5.614
 5414SOL     OW17140   6.269   5.753   5.895
 5414SOL    HW117141   6.315   5.698   5.826
 5414SOL    HW217142   6.186   5.707   5.926
 5415SOL     OW17143   2.355   0.135   0.032
 5415SOL    HW117144   2.365   0.185   0.119
 5415SOL    HW217145   2.408   0.180   6.980
 5416SOL     OW17146   4.307   5.085   6.054
 5416SOL    HW117147   4.251   5.002   6.052
 5416SOL    HW217148   4.252   5.164   6.027
 5417SOL     OW17149   4.975   0.313   2.519
 5417SOL    HW117150   5.020   0.244   2.462
 5417SOL    HW217151   4.946   0.390   2.462
 5418SOL     OW17152   6.977   3.012   6.067
 5418SOL    HW117153   0.048   2.967   6.062
 5418SOL    HW217154   6.941   3.005   6.160
 5419SOL     OW17155   4.252   2.468   5.995
 5419SOL    HW117156   4.314   2.406   5.946
 5419SOL    HW217157   4.167   2.478   5.942
 5420SOL     OW17158   1.321   1.906   1.124
 5420SOL    HW117159   1.359   1.818   1.151
 5420SOL    HW217160   1.244   1.891   1.061
 5421SOL     OW17161   3.595   5.497   1.030
 5421SOL    HW117162   3.623   5.555   0.953
 5421SOL    HW217163   3.529   5.546   1.087
 5422SOL     OW17164   2.197   0.014   3.328
 5422SOL    HW117165   2.203   0.068   3.412
 5422SOL    HW217166   2.102   0.008   3.299
 5423SOL     OW17167   4.142   6.292   2.921
 5423SOL    HW117168   4.230   6.307   2.875
 5423SOL    HW217169   4.102   6.206   2.889
 5424SOL     OW17170   4.012   3.007   5.786
 5424SOL    HW117171   4.050   3.098   5.801
 5424SOL    HW217172   4.002   2.991   5.688
 5425SOL     OW17173   1.978   5.770   4.313
 5425SOL    HW117174   1.981   5.869   4.323
 5425SOL    HW217175   2.059   5.730   4.357
 5426SOL     OW17176   1.454   3.747   6.840
 5426SOL    HW117177   1.462   3.695   6.925
 5426SOL    HW217178   1.492   3.693   6.765
 5427SOL     OW17179   4.907   1.566   0.187
 5427SOL    HW117180   4.841   1.598   0.119
 5427SOL    HW217181   4.925   1.469   0.172
 5428SOL     OW17182   5.144   5.650   2.409
 5428SOL    HW117183   5.177   5.556   2.400
 5428SOL    HW217184   5.148   5.695   2.320
 5429SOL     OW17185   2.730   6.409   2.939
 5429SOL    HW117186   2.702   6.352   2.861
 5429SOL    HW217187   2.782   6.487   2.905
 5430SOL     OW17188   1.102   3.571   5.564
 5430SOL    HW117189   1.017   3.527   5.592
 5430SOL    HW217190   1.101   3.586   5.465
 5431SOL     OW17191   5.133   4.246   1.214
 5431SOL    HW117192   5.094   4.334   1.242
 5431SOL    HW217193   5.176   4.256   1.124
 5432SOL     OW17194   1.730   5.258   5.885
 5432SOL    HW117195   1.666   5.316   5.936
 5432SOL    HW217196   1.758   5.181   5.942
 5433SOL     OW17197   3.383   0.102   2.189
 5433SOL    HW117198   3.338   0.139   2.108
 5433SOL    HW217199   3.481   0.116   2.182
 5434SOL     OW17200   5.214   6.112   4.087
 5434SOL    HW117201   5.285   6.042   4.081
 5434SOL    HW217202   5.178   6.132   3.996
 5435SOL     OW17203   1.061   3.036   6.951
 5435SOL    HW117204   1.107   3.009   0.017
 5435SOL    HW217205   0.987   2.973   6.931
 5436SOL     OW17206   1.256   4.330   0.951
 5436SOL    HW117207   1.184   4.338   0.881
 5436SOL    HW217208   1.334   4.388   0.925
 5437SOL     OW17209   2.966   6.859   5.537
 5437SOL    HW117210   2.883   6.886   5.585
 5437SOL    HW217211   2.952   6.868   5.438
 5438SOL     OW17212   4.353   6.738   3.784
 5438SOL    HW117213   4.382   6.668   3.718
 5438SOL    HW217214   4.253   6.740   3.788
 5439SOL     OW17215   1.444   3.686   2.069
 5439SOL    HW117216   1.474   3.723   2.157
 5439SOL    HW217217   1.358   3.730   2.042
 5440SOL     OW17218   5.080   6.224   3.035
 5440SOL    HW117219   5.148   6.152   3.047
 5440SOL    HW217220   5.021   6.229   3.116
 5441SOL     OW17221   5.951   0.101   5.073
 5441SOL    HW117222   5.876   0.085   5.136
 5441SOL    HW217223   5.926   0.173   5.008
 5442SOL     OW17224   2.620   5.909   0.085
 5442SOL    HW117225   2.603   6.006   0.102
 5442SOL    HW217226   2.715   5.898   0.055
 5443SOL     OW17227   5.875   1.282   3.160
 5443SOL    HW117228   5.892   1.281   3.258
 5443SOL    HW217229   5.822   1.201   3.135
 5444SOL     OW17230   2.126   1.703   6.166
 5444SOL    HW117231   2.188   1.713   6.244
 5444SOL    HW217232   2.084   1.612   6.168
 5445SOL     OW17233   0.137   5.757   5.558
 5445SOL    HW117234   0.170   5.707   5.478
 5445SOL    HW217235   0.037   5.757   5.559
 5446SOL     OW17236   2.066   4.183   0.134
 5446SOL    HW117237   2.149   4.217   0.179
 5446SOL    HW217238   2.037   4.248   0.064
 5447SOL     OW17239   5.089   2.372   1.437
 5447SOL    HW117240   5.072   2.346   1.342
 5447SOL    HW217241   5.135   2.296   1.485
 5448SOL     OW17242   5.993   6.103   0.949
 5448SOL    HW117243   6.064   6.167   0.980
 5448SOL    HW217244   6.006   6.084   0.852
 5449SOL     OW17245   2.090   6.975   2.615
 5449SOL    HW117246   2.024   6.904   2.641
 5449SOL    HW217247   2.078   6.996   2.518
 5450SOL     OW17248   4.301   4.578   1.881
 5450SOL    HW117249   4.284   4.610   1.788
 5450SOL    HW217250   4.348   4.490   1.878
 5451SOL     OW17251   0.254   5.639   3.445
 5451SOL    HW117252   0.321   5.592   3.388
 5451SOL    HW217253   0.165   5.593   3.438
 5452SOL     OW17254   2.238   4.170   3.505
 5452SOL    HW117255   2.238   4.074   3.533
 5452SOL    HW217256   2.191   4.180   3.418
 5453SOL     OW17257   5.959   5.001   4.590
 5453SOL    HW117258   6.011   4.990   4.504
 5453SOL    HW217259   5.970   4.919   4.645
 5454SOL     OW17260   6.414   4.067   2.266
 5454SOL    HW117261   6.403   3.968   2.257
 5454SOL    HW217262   6.348   4.101   2.333
 5455SOL     OW17263   1.807   2.065   2.961
 5455SOL    HW117264   1.853   2.019   2.884
 5455SOL    HW217265   1.708   2.055   2.952
 5456SOL     OW17266   5.911   2.881   6.902
 5456SOL    HW117267   5.936   2.975   6.924
 5456SOL    HW217268   5.993   2.824   6.897
 5457SOL     OW17269   6.256   0.634   0.563
 5457SOL    HW117270   6.244   0.591   0.653
 5457SOL    HW217271   6.188   0.706   0.550
 5458SOL     OW17272   5.968   4.342   6.385
 5458SOL    HW117273   5.999   4.277   6.316
 5458SOL    HW217274   6.038   4.412   6.399
 5459SOL     OW17275   2.009   3.684   5.210
 5459SOL    HW117276   1.954   3.608   5.175
 5459SOL    HW217277   2.052   3.658   5.296
 5460SOL     OW17278   6.655   1.428   1.020
 5460SOL    HW117279   6.655   1.457   0.925
 5460SOL    HW217280   6.615   1.499   1.077
 5461SOL     OW17281   5.654   0.407   5.748
 5461SOL    HW117282   5.577   0.454   5.791
 5461SOL    HW217283   5.695   0.343   5.813
 5462SOL     OW17284   5.656   5.133   0.537
 5462SOL    HW117285   5.593   5.081   0.480
 5462SOL    HW217286   5.728   5.072   0.571
 5463SOL     OW17287   3.148   4.898   0.075
 5463SOL    HW117288   3.239   4.870   0.104
 5463SOL    HW217289   3.122   4.982   0.123
 5464SOL     OW17290   2.494   5.634   4.084
 5464SOL    HW117291   2.406   5.586   4.086
 5464SOL    HW217292   2.561   5.579   4.034
 5465SOL     OW17293   0.319   1.502   4.674
 5465SOL    HW117294   0.300   1.595   4.645
 5465SOL    HW217295   0.253   1.474   4.743
 5466SOL     OW17296   5.370   2.350   4.911
 5466SOL    HW117297   5.288   2.293   4.900
 5466SOL    HW217298   5.356   2.438   4.866
 5467SOL     OW17299   4.534   4.710   3.342
 5467SOL    HW117300   4.536   4.808   3.325
 5467SOL    HW217301   4.528   4.662   3.254
 5468SOL     OW17302   0.186   2.657   1.482
 5468SOL    HW117303   0.173   2.671   1.580
 5468SOL    HW217304   0.256   2.720   1.448
 5469SOL     OW17305   4.679   0.577   3.059
 5469SOL    HW117306   4.645   0.519   3.133
 5469SOL    HW217307   4.603   0.607   3.003
 5470SOL     OW17308   2.604   4.676   3.112
 5470SOL    HW117309   2.545   4.601   3.143
 5470SOL    HW217310   2.694   4.667   3.153
 5471SOL     OW17311   5.400   0.799   3.919
 5471SOL    HW117312   5.425   0.734   3.848
 5471SOL    HW217313   5.483   0.835   3.962
 5472SOL     OW17314   2.631   4.897   0.893
 5472SOL    HW117315   2.627   4.901   0.793
 5472SOL    HW217316   2.633   4.802   0.922
 5473SOL     OW17317   2.968   4.791   2.167
 5473SOL    HW117318   2.904   4.832   2.232
 5473SOL    HW217319   2.927   4.791   2.076
 5474SOL     OW17320   1.267   5.356   1.683
 5474SOL    HW117321   1.191   5.419   1.670
 5474SOL    HW217322   1.347   5.407   1.715
 5475SOL     OW17323   0.114   1.245   5.307
 5475SOL    HW117324   0.150   1.173   5.249
 5475SOL    HW217325   0.185   1.278   5.369
 5476SOL     OW17326   3.179   1.464   4.331
 5476SOL    HW117327   3.105   1.529   4.348
 5476SOL    HW217328   3.160   1.378   4.379
 5477SOL     OW17329   2.026   4.295   2.891
 5477SOL    HW117330   1.935   4.336   2.886
 5477SOL    HW217331   2.044   4.245   2.806
 5478SOL     OW17332   6.556   3.163   5.508
 5478SOL    HW117333   6.490   3.199   5.443
 5478SOL    HW217334   6.539   3.066   5.522
 5479SOL     OW17335   5.208   4.206   4.963
 5479SOL    HW117336   5.292   4.164   4.999
 5479SOL    HW217337   5.140   4.210   5.036
 5480SOL     OW17338   2.622   2.366   6.277
 5480SOL    HW117339   2.663   2.419   6.352
 5480SOL    HW217340   2.609   2.271   6.306
 5481SOL     OW17341   3.392   0.659   1.113
 5481SOL    HW117342   3.318   0.650   1.178
 5481SOL    HW217343   3.452   0.578   1.118
 5482SOL     OW17344   5.335   4.548   2.502
 5482SOL    HW117345   5.407   4.505   2.448
 5482SOL    HW217346   5.247   4.503   2.483
 5483SOL     OW17347   5.979   1.769   0.780
 5483SOL    HW117348   5.911   1.770   0.706
 5483SOL    HW217349   6.064   1.809   0.747
 5484SOL     OW17350   6.005   0.220   5.826
 5484SOL    HW117351   5.974   0.292   5.764
 5484SOL    HW217352   6.066   0.158   5.776
 5485SOL     OW17353   2.471   1.362   3.884
 5485SOL    HW117354   2.463   1.354   3.984
 5485SOL    HW217355   2.542   1.429   3.862
 5486SOL     OW17356   6.729   1.313   3.623
 5486SOL    HW117357   6.709   1.362   3.707
 5486SOL    HW217358   6.677   1.228   3.620
 5487SOL     OW17359   4.224   5.884   1.510
 5487SOL    HW117360   4.144   5.908   1.565
 5487SOL    HW217361   4.307   5.892   1.566
 5488SOL     OW17362   4.701   6.799   6.456
 5488SOL    HW117363   4.694   6.702   6.431
 5488SOL    HW217364   4.653   6.815   6.542
 5489SOL     OW17365   6.364   3.350   2.677
 5489SOL    HW117366   6.265   3.356   2.685
 5489SOL    HW217367   6.407   3.402   2.751
 5490SOL     OW17368   2.843   1.268   6.819
 5490SOL    HW117369   2.912   1.242   6.751
 5490SOL    HW217370   2.852   1.209   6.899
 5491SOL     OW17371   5.893   6.638   1.622
 5491SOL    HW117372   5.878   6.737   1.630
 5491SOL    HW217373   5.949   6.620   1.541
 5492SOL     OW17374   1.587   1.059   5.388
 5492SOL    HW117375   1.636   1.145   5.399
 5492SOL    HW217376   1.514   1.069   5.321
 5493SOL     OW17377   3.821   1.063   6.930
 5493SOL    HW117378   3.838   0.977   6.882
 5493SOL    HW217379   3.727   1.064   6.964
 5494SOL     OW17380   5.520   3.114   2.325
 5494SOL    HW117381   5.575   3.113   2.241
 5494SOL    HW217382   5.574   3.077   2.400
 5495SOL     OW17383   3.580   3.392   4.961
 5495SOL    HW117384   3.579   3.488   4.933
 5495SOL    HW217385   3.491   3.366   4.997
 5496SOL     OW17386   4.421   4.882   2.085
 5496SOL    HW117387   4.400   4.798   2.136
 5496SOL    HW217388   4.392   4.871   1.990
 5497SOL     OW17389   5.657   6.640   0.059
 5497SOL    HW117390   5.576   6.584   0.078
 5497SOL    HW217391   5.670   6.706   0.133
 5498SOL     OW17392   3.810   1.012   3.788
 5498SOL    HW117393   3.866   1.087   3.823
 5498SOL    HW217394   3.717   1.020   3.823
 5499SOL     OW17395   0.712   0.556   4.910
 5499SOL    HW117396   0.652   0.588   4.983
 5499SOL    HW217397   0.754   0.469   4.937
 5500SOL     OW17398   1.672   6.297   0.529
 5500SOL    HW117399   1.597   6.233   0.514
 5500SOL    HW217400   1.741   6.254   0.588
 5501SOL     OW17401   2.108   1.496   2.064
 5501SOL    HW117402   2.094   1.495   1.965
 5501SOL    HW217403   2.020   1.485   2.110
 5502SOL     OW17404   5.503   4.741   0.860
 5502SOL    HW117405   5.564   4.819   0.843
 5502SOL    HW217406   5.412   4.775   0.884
 5503SOL     OW17407   6.680   0.887   4.113
 5503SOL    HW117408   6.705   0.974   4.156
 5503SOL    HW217409   6.612   0.903   4.042
 5504SOL     OW17410   2.463   2.139   4.682
 5504SOL    HW117411   2.375   2.111   4.720
 5504SOL    HW217412   2.512   2.194   4.749
 5505SOL     OW17413   3.722   5.502   0.624
 5505SOL    HW117414   3.708   5.554   0.540
 5505SOL    HW217415   3.820   5.486   0.639
 5506SOL     OW17416   1.136   6.437   5.171
 5506SOL    HW117417   1.163   6.392   5.086
 5506SOL    HW217418   1.198   6.514   5.190
 5507SOL     OW17419   2.295   5.283   5.025
 5507SOL    HW117420   2.290   5.381   5.006
 5507SOL    HW217421   2.215   5.238   4.986
 5508SOL     OW17422   2.783   1.350   5.470
 5508SOL    HW117423   2.798   1.437   5.422
 5508SOL    HW217424   2.871   1.304   5.483
 5509SOL     OW17425   6.800   0.065   5.864
 5509SOL    HW117426   6.824   0.102   5.773
 5509SOL    HW217427   6.772   6.988   5.854
 5510SOL     OW17428   0.547   0.462   5.519
 5510SOL    HW117429   0.556   0.398   5.595
 5510SOL    HW217430   0.459   0.508   5.524
 5511SOL     OW17431   0.668   2.434   0.840
 5511SOL    HW117432   0.633   2.501   0.774
 5511SOL    HW217433   0.611   2.352   0.837
 5512SOL     OW17434   6.583   6.257   0.295
 5512SOL    HW117435   6.491   6.283   0.266
 5512SOL    HW217436   6.638   6.234   0.215
 5513SOL     OW17437   2.576   6.457   4.716
 5513SOL    HW117438   2.611   6.365   4.702
 5513SOL    HW217439   2.479   6.460   4.691
 5514SOL     OW17440   5.566   5.942   3.639
 5514SOL    HW117441   5.496   5.966   3.573
 5514SOL    HW217442   5.527   5.884   3.710
 5515SOL     OW17443   1.087   4.298   3.701
 5515SOL    HW117444   1.025   4.219   3.707
 5515SOL    HW217445   1.155   4.281   3.629
 5516SOL     OW17446   2.282   2.813   0.046
 5516SOL    HW117447   2.362   2.785   0.099
 5516SOL    HW217448   2.208   2.748   0.060
 5517SOL     OW17449   3.127   0.733   2.445
 5517SOL    HW117450   3.062   0.663   2.415
 5517SOL    HW217451   3.077   0.815   2.473
 5518SOL     OW17452   5.447   3.624   6.291
 5518SOL    HW117453   5.468   3.668   6.203
 5518SOL    HW217454   5.349   3.607   6.296
 5519SOL     OW17455   5.129   3.734   2.133
 5519SOL    HW117456   5.134   3.634   2.139
 5519SOL    HW217457   5.037   3.764   2.160
 5520SOL     OW17458   1.410   2.719   0.925
 5520SOL    HW117459   1.403   2.817   0.942
 5520SOL    HW217460   1.343   2.671   0.982
 5521SOL     OW17461   5.360   4.377   6.419
 5521SOL    HW117462   5.269   4.361   6.383
 5521SOL    HW217463   5.400   4.457   6.374
 5522SOL     OW17464   1.750   3.045   1.338
 5522SOL    HW117465   1.697   3.001   1.265
 5522SOL    HW217466   1.688   3.090   1.402
 5523SOL     OW17467   2.335   6.766   1.524
 5523SOL    HW117468   2.292   6.679   1.500
 5523SOL    HW217469   2.315   6.834   1.453
 5524SOL     OW17470   6.108   6.284   5.830
 5524SOL    HW117471   6.160   6.346   5.889
 5524SOL    HW217472   6.161   6.199   5.817
 5525SOL     OW17473   6.401   6.592   3.081
 5525SOL    HW117474   6.494   6.573   3.113
 5525SOL    HW217475   6.389   6.553   2.989
 5526SOL     OW17476   5.379   3.890   4.847
 5526SOL    HW117477   5.323   3.883   4.765
 5526SOL    HW217478   5.454   3.824   4.842
 5527SOL     OW17479   3.592   3.065   0.413
 5527SOL    HW117480   3.603   3.128   0.336
 5527SOL    HW217481   3.506   3.015   0.403
 5528SOL     OW17482   6.190   3.038   2.715
 5528SOL    HW117483   6.204   2.977   2.638
 5528SOL    HW217484   6.092   3.052   2.729
 5529SOL     OW17485   1.421   1.160   4.466
 5529SOL    HW117486   1.368   1.099   4.524
 5529SOL    HW217487   1.417   1.253   4.501
 5530SOL     OW17488   0.155   2.730   7.011
 5530SOL    HW117489   0.165   2.672   0.073
 5530SOL    HW217490   0.071   2.707   6.963
 5531SOL     OW17491   2.927   2.876   0.597
 5531SOL    HW117492   2.830   2.853   0.586
 5531SOL    HW217493   2.946   2.896   0.693
 5532SOL     OW17494   2.311   3.002   1.742
 5532SOL    HW117495   2.256   2.939   1.688
 5532SOL    HW217496   2.323   3.088   1.691
 5533SOL     OW17497   2.973   0.437   1.036
 5533SOL    HW117498   3.059   0.388   1.021
 5533SOL    HW217499   2.901   0.370   1.057
 5534SOL     OW17500   0.866   3.357   5.313
 5534SOL    HW117501   0.839   3.453   5.318
 5534SOL    HW217502   0.908   3.338   5.224
 5535SOL     OW17503   4.915   4.992   3.519
 5535SOL    HW117504   4.855   4.921   3.558
 5535SOL    HW217505   4.877   5.082   3.540
 5536SOL     OW17506   2.307   1.448   4.316
 5536SOL    HW117507   2.316   1.490   4.225
 5536SOL    HW217508   2.309   1.520   4.385
 5537SOL     OW17509   3.781   1.767   3.692
 5537SOL    HW117510   3.879   1.790   3.688
 5537SOL    HW217511   3.756   1.745   3.786
 5538SOL     OW17512   4.735   2.231   2.630
 5538SOL    HW117513   4.763   2.278   2.547
 5538SOL    HW217514   4.692   2.144   2.607
 5539SOL     OW17515   1.211   0.585   6.016
 5539SOL    HW117516   1.264   0.578   5.931
 5539SOL    HW217517   1.272   0.578   6.095
 5540SOL     OW17518   4.910   0.012   5.237
 5540SOL    HW117519   4.940   7.008   5.330
 5540SOL    HW217520   4.988   0.043   5.183
 5541SOL     OW17521   4.710   2.933   5.505
 5541SOL    HW117522   4.804   2.910   5.531
 5541SOL    HW217523   4.660   2.965   5.584
 5542SOL     OW17524   5.013   4.546   6.931
 5542SOL    HW117525   4.941   4.547   6.861
 5542SOL    HW217526   4.972   4.561   0.002
 5543SOL     OW17527   0.299   0.233   5.927
 5543SOL    HW117528   0.370   0.283   5.976
 5543SOL    HW217529   0.224   0.295   5.904
 5544SOL     OW17530   4.001   5.045   7.000
 5544SOL    HW117531   4.060   5.102   0.038
 5544SOL    HW217532   4.026   4.949   7.012
 5545SOL     OW17533   5.327   1.944   3.281
 5545SOL    HW117534   5.346   2.000   3.361
 5545SOL    HW217535   5.301   1.852   3.310
 5546SOL     OW17536   0.736   6.120   4.179
 5546SOL    HW117537   0.768   6.199   4.231
 5546SOL    HW217538   0.673   6.150   4.108
 5547SOL     OW17539   5.001   1.533   4.527
 5547SOL    HW117540   4.978   1.624   4.493
 5547SOL    HW217541   4.999   1.468   4.451
 5548SOL     OW17542   1.071   3.855   4.793
 5548SOL    HW117543   1.031   3.785   4.853
 5548SOL    HW217544   1.020   3.857   4.707
 5549SOL     OW17545   4.285   3.552   0.126
 5549SOL    HW117546   4.244   3.548   0.217
 5549SOL    HW217547   4.293   3.647   0.097
 5550SOL     OW17548   3.265   3.837   1.403
 5550SOL    HW117549   3.356   3.825   1.442
 5550SOL    HW217550   3.269   3.904   1.328
 5551SOL     OW17551   1.467   4.376   2.358
 5551SOL    HW117552   1.566   4.380   2.374
 5551SOL    HW217553   1.419   4.401   2.442
 5552SOL     OW17554   0.875   0.520   0.676
 5552SOL    HW117555   0.871   0.552   0.581
 5552SOL    HW217556   0.921   0.589   0.733
 5553SOL     OW17557   5.964   5.864   1.138
 5553SOL    HW117558   5.983   5.772   1.105
 5553SOL    HW217559   5.965   5.928   1.060
 5554SOL     OW17560   0.062   2.512   1.787
 5554SOL    HW117561   0.121   2.587   1.818
 5554SOL    HW217562   0.111   2.425   1.798
 5555SOL     OW17563   0.940   4.641   1.798
 5555SOL    HW117564   1.000   4.603   1.869
 5555SOL    HW217565   0.924   4.738   1.816
 5556SOL     OW17566   6.760   1.846   5.124
 5556SOL    HW117567   6.757   1.917   5.195
 5556SOL    HW217568   6.762   1.889   5.034
 5557SOL     OW17569   3.371   6.915   2.655
 5557SOL    HW117570   3.332   6.969   2.581
 5557SOL    HW217571   3.425   6.840   2.617
 5558SOL     OW17572   3.762   3.717   6.227
 5558SOL    HW117573   3.773   3.686   6.321
 5558SOL    HW217574   3.773   3.640   6.164
 5559SOL     OW17575   3.375   0.669   2.975
 5559SOL    HW117576   3.461   0.639   2.932
 5559SOL    HW217577   3.356   0.610   3.054
 5560SOL     OW17578   0.365   5.197   3.382
 5560SOL    HW117579   0.286   5.223   3.438
 5560SOL    HW217580   0.369   5.255   3.301
 5561SOL     OW17581   2.888   0.743   3.528
 5561SOL    HW117582   2.831   0.747   3.445
 5561SOL    HW217583   2.925   0.834   3.547
 5562SOL     OW17584   4.917   3.079   0.782
 5562SOL    HW117585   4.886   3.070   0.687
 5562SOL    HW217586   4.852   3.136   0.832
 5563SOL     OW17587   1.706   4.099   2.298
 5563SOL    HW117588   1.648   4.108   2.217
 5563SOL    HW217589   1.791   4.052   2.273
 5564SOL     OW17590   4.420   0.116   6.967
 5564SOL    HW117591   4.360   0.143   6.891
 5564SOL    HW217592   4.368   0.063   0.015
 5565SOL     OW17593   3.029   1.834   6.436
 5565SOL    HW117594   2.987   1.760   6.383
 5565SOL    HW217595   3.031   1.917   6.381
 5566SOL     OW17596   1.428   5.333   5.510
 5566SOL    HW117597   1.433   5.350   5.411
 5566SOL    HW217598   1.521   5.322   5.546
 5567SOL     OW17599   1.317   5.374   6.592
 5567SOL    HW117600   1.291   5.378   6.495
 5567SOL    HW217601   1.334   5.466   6.626
 5568SOL     OW17602   4.863   5.372   1.928
 5568SOL    HW117603   4.776   5.333   1.956
 5568SOL    HW217604   4.930   5.362   2.002
 5569SOL     OW17605   1.639   2.364   2.778
 5569SOL    HW117606   1.716   2.325   2.729
 5569SOL    HW217607   1.669   2.393   2.869
 5570SOL     OW17608   0.159   3.241   1.008
 5570SOL    HW117609   0.174   3.292   0.923
 5570SOL    HW217610   0.168   3.143   0.990
 5571SOL     OW17611   6.656   4.573   6.630
 5571SOL    HW117612   6.670   4.668   6.604
 5571SOL    HW217613   6.668   4.514   6.550
 5572SOL     OW17614   1.294   4.622   5.578
 5572SOL    HW117615   1.254   4.531   5.592
 5572SOL    HW217616   1.267   4.682   5.654
 5573SOL     OW17617   3.097   4.947   3.262
 5573SOL    HW117618   3.101   4.971   3.359
 5573SOL    HW217619   3.188   4.953   3.222
 5574SOL     OW17620   1.354   1.164   5.915
 5574SOL    HW117621   1.323   1.242   5.860
 5574SOL    HW217622   1.352   1.189   6.012
 5575SOL     OW17623   0.331   0.509   1.585
 5575SOL    HW117624   0.414   0.467   1.549
 5575SOL    HW217625   0.283   0.444   1.645
 5576SOL     OW17626   1.986   5.287   3.222
 5576SOL    HW117627   2.021   5.232   3.298
 5576SOL    HW217628   1.891   5.312   3.240
 5577SOL     OW17629   3.407   2.009   6.425
 5577SOL    HW117630   3.411   2.106   6.404
 5577SOL    HW217631   3.345   1.994   6.503
 5578SOL     OW17632   4.009   3.890   3.505
 5578SOL    HW117633   4.067   3.968   3.531
 5578SOL    HW217634   4.037   3.809   3.556
 5579SOL     OW17635   5.920   2.931   1.486
 5579SOL    HW117636   5.959   2.915   1.395
 5579SOL    HW217637   5.965   2.872   1.553
 5580SOL     OW17638   5.542   1.899   6.194
 5580SOL    HW117639   5.515   1.830   6.261
 5580SOL    HW217640   5.504   1.988   6.221
 5581SOL     OW17641   1.608   0.864   5.580
 5581SOL    HW117642   1.625   0.950   5.532
 5581SOL    HW217643   1.510   0.853   5.597
 5582SOL     OW17644   2.676   2.819   6.113
 5582SOL    HW117645   2.657   2.733   6.065
 5582SOL    HW217646   2.639   2.896   6.061
 5583SOL     OW17647   6.019   6.822   1.180
 5583SOL    HW117648   6.097   6.883   1.172
 5583SOL    HW217649   5.940   6.864   1.135
 5584SOL     OW17650   0.513   3.535   5.110
 5584SOL    HW117651   0.593   3.559   5.054
 5584SOL    HW217652   0.480   3.617   5.158
 5585SOL     OW17653   6.174   5.061   1.230
 5585SOL    HW117654   6.112   5.108   1.168
 5585SOL    HW217655   6.174   5.108   1.319
 5586SOL     OW17656   1.503   6.271   1.833
 5586SOL    HW117657   1.563   6.202   1.873
 5586SOL    HW217658   1.408   6.252   1.859
 5587SOL     OW17659   5.393   1.368   4.983
 5587SOL    HW117660   5.399   1.268   4.979
 5587SOL    HW217661   5.454   1.402   5.055
 5588SOL     OW17662   3.328   6.626   1.101
 5588SOL    HW117663   3.239   6.668   1.089
 5588SOL    HW217664   3.399   6.696   1.102
 5589SOL     OW17665   0.621   4.852   5.704
 5589SOL    HW117666   0.552   4.836   5.775
 5589SOL    HW217667   0.591   4.925   5.644
 5590SOL     OW17668   5.568   5.278   3.179
 5590SOL    HW117669   5.502   5.229   3.122
 5590SOL    HW217670   5.533   5.285   3.272
 5591SOL     OW17671   5.052   1.058   2.787
 5591SOL    HW117672   4.973   1.112   2.817
 5591SOL    HW217673   5.022   0.966   2.764
 5592SOL     OW17674   6.819   5.441   4.827
 5592SOL    HW117675   6.899   5.489   4.862
 5592SOL    HW217676   6.805   5.357   4.880
 5593SOL     OW17677   1.892   4.285   1.008
 5593SOL    HW117678   1.815   4.292   1.071
 5593SOL    HW217679   1.966   4.232   1.050
 5594SOL     OW17680   5.921   6.818   5.742
 5594SOL    HW117681   5.979   6.896   5.720
 5594SOL    HW217682   5.912   6.759   5.662
 5595SOL     OW17683   6.991   1.774   1.019
 5595SOL    HW117684   0.046   1.822   1.066
 5595SOL    HW217685   0.012   1.710   0.953
 5596SOL     OW17686   4.316   6.436   3.257
 5596SOL    HW117687   4.233   6.386   3.236
 5596SOL    HW217688   4.295   6.534   3.268
 5597SOL     OW17689   4.902   3.166   2.132
 5597SOL    HW117690   4.840   3.099   2.092
 5597SOL    HW217691   4.861   3.204   2.215
 5598SOL     OW17692   3.084   0.639   4.278
 5598SOL    HW117693   3.159   0.706   4.283
 5598SOL    HW217694   3.057   0.626   4.183
 5599SOL     OW17695   1.167   1.739   3.669
 5599SOL    HW117696   1.176   1.691   3.582
 5599SOL    HW217697   1.111   1.684   3.732
 5600SOL     OW17698   2.594   2.700   5.543
 5600SOL    HW117699   2.558   2.776   5.489
 5600SOL    HW217700   2.528   2.625   5.541
 5601SOL     OW17701   1.624   0.479   6.347
 5601SOL    HW117702   1.637   0.568   6.301
 5601SOL    HW217703   1.629   0.406   6.279
 5602SOL     OW17704   2.163   1.079   0.224
 5602SOL    HW117705   2.147   1.008   0.292
 5602SOL    HW217706   2.081   1.091   0.168
 5603SOL     OW17707   6.693   3.097   5.100
 5603SOL    HW117708   6.629   3.033   5.058
 5603SOL    HW217709   6.652   3.189   5.101
 5604SOL     OW17710   5.312   0.733   6.425
 5604SOL    HW117711   5.359   0.703   6.509
 5604SOL    HW217712   5.256   0.658   6.391
 5605SOL     OW17713   1.223   1.426   6.747
 5605SOL    HW117714   1.297   1.374   6.703
 5605SOL    HW217715   1.158   1.457   6.677
 5606SOL     OW17716   5.880   6.814   2.979
 5606SOL    HW117717   5.827   6.865   3.047
 5606SOL    HW217718   5.840   6.829   2.889
 5607SOL     OW17719   4.967   6.822   0.957
 5607SOL    HW117720   5.049   6.765   0.954
 5607SOL    HW217721   4.987   6.906   1.008
 5608SOL     OW17722   3.773   6.197   5.242
 5608SOL    HW117723   3.770   6.099   5.222
 5608SOL    HW217724   3.738   6.213   5.334
 5609SOL     OW17725   1.535   6.178   4.707
 5609SOL    HW117726   1.510   6.117   4.631
 5609SOL    HW217727   1.569   6.123   4.783
 5610SOL     OW17728   5.417   7.018   6.695
 5610SOL    HW117729   5.493   7.003   6.632
 5610SOL    HW217730   5.447   6.998   6.789
 5611SOL     OW17731   1.742   4.454   4.113
 5611SOL    HW117732   1.768   4.513   4.189
 5611SOL    HW217733   1.802   4.472   4.035
 5612SOL     OW17734   3.797   6.397   4.459
 5612SOL    HW117735   3.725   6.355   4.515
 5612SOL    HW217736   3.760   6.419   4.369
 5613SOL     OW17737   2.616   5.380   2.548
 5613SOL    HW117738   2.675   5.407   2.472
 5613SOL    HW217739   2.672   5.357   2.627
 5614SOL     OW17740   5.127   2.172   4.256
 5614SOL    HW117741   5.194   2.099   4.265
 5614SOL    HW217742   5.053   2.142   4.196
 5615SOL     OW17743   1.038   1.667   1.906
 5615SOL    HW117744   1.080   1.650   1.817
 5615SOL    HW217745   1.109   1.669   1.976
 5616SOL     OW17746   2.858   6.580   4.811
 5616SOL    HW117747   2.950   6.542   4.807
 5616SOL    HW217748   2.796   6.512   4.850
 5617SOL     OW17749   0.385   1.174   5.831
 5617SOL    HW117750   0.437   1.176   5.746
 5617SOL    HW217751   0.288   1.162   5.811
 5618SOL     OW17752   6.578   5.019   3.647
 5618SOL    HW117753   6.540   4.928   3.663
 5618SOL    HW217754   6.507   5.080   3.613
 5619SOL     OW17755   2.112   3.097   4.411
 5619SOL    HW117756   2.103   2.999   4.400
 5619SOL    HW217757   2.148   3.138   4.328
 5620SOL     OW17758   5.217   1.811   6.653
 5620SOL    HW117759   5.198   1.902   6.691
 5620SOL    HW217760   5.236   1.820   6.555
 5621SOL     OW17761   2.963   1.656   5.108
 5621SOL    HW117762   3.050   1.704   5.109
 5621SOL    HW217763   2.976   1.565   5.069
 5622SOL     OW17764   5.371   1.677   4.929
 5622SOL    HW117765   5.391   1.598   4.872
 5622SOL    HW217766   5.362   1.649   5.025
 5623SOL     OW17767   0.470   6.377   6.427
 5623SOL    HW117768   0.530   6.303   6.456
 5623SOL    HW217769   0.407   6.343   6.356
 5624SOL     OW17770   1.275   4.172   2.788
 5624SOL    HW117771   1.351   4.158   2.852
 5624SOL    HW217772   1.277   4.100   2.719
 5625SOL     OW17773   6.508   1.820   5.868
 5625SOL    HW117774   6.504   1.723   5.893
 5625SOL    HW217775   6.559   1.830   5.782
 5626SOL     OW17776   5.905   6.673   5.504
 5626SOL    HW117777   5.868   6.602   5.564
 5626SOL    HW217778   5.856   6.672   5.417
 5627SOL     OW17779   1.306   0.368   1.708
 5627SOL    HW117780   1.318   0.447   1.648
 5627SOL    HW217781   1.215   0.371   1.750
 5628SOL     OW17782   1.453   1.945   4.175
 5628SOL    HW117783   1.462   2.027   4.119
 5628SOL    HW217784   1.483   1.866   4.122
 5629SOL     OW17785   3.889   3.488   3.481
 5629SOL    HW117786   3.797   3.524   3.467
 5629SOL    HW217787   3.911   3.489   3.579
 5630SOL     OW17788   6.437   3.738   1.076
 5630SOL    HW117789   6.460   3.798   1.153
 5630SOL    HW217790   6.364   3.780   1.022
 5631SOL     OW17791   6.087   1.150   6.001
 5631SOL    HW117792   6.066   1.095   5.920
 5631SOL    HW217793   6.186   1.147   6.018
 5632SOL     OW17794   3.344   2.513   0.909
 5632SOL    HW117795   3.411   2.587   0.904
 5632SOL    HW217796   3.371   2.447   0.978
 5633SOL     OW17797   0.177   2.883   5.798
 5633SOL    HW117798   0.160   2.853   5.892
 5633SOL    HW217799   0.090   2.893   5.750
 5634SOL     OW17800   4.785   5.891   5.480
 5634SOL    HW117801   4.768   5.985   5.510
 5634SOL    HW217802   4.805   5.889   5.382
 5635SOL     OW17803   2.894   1.640   6.691
 5635SOL    HW117804   2.873   1.696   6.771
 5635SOL    HW217805   2.824   1.570   6.680
 5636SOL     OW17806   4.473   0.856   4.055
 5636SOL    HW117807   4.459   0.841   3.957
 5636SOL    HW217808   4.425   0.785   4.106
 5637SOL     OW17809   5.833   6.710   2.461
 5637SOL    HW117810   5.847   6.646   2.536
 5637SOL    HW217811   5.859   6.802   2.491
 5638SOL     OW17812   0.421   3.466   6.995
 5638SOL    HW117813   0.360   3.393   6.964
 5638SOL    HW217814   0.494   3.427   0.032
 5639SOL     OW17815   4.317   6.947   6.537
 5639SOL    HW117816   4.405   6.933   6.582
 5639SOL    HW217817   4.276   0.014   6.568
 5640SOL     OW17818   1.430   0.258   3.546
 5640SOL    HW117819   1.408   0.345   3.591
 5640SOL    HW217820   1.365   0.242   3.471
 5641SOL     OW17821   6.499   5.961   4.914
 5641SOL    HW117822   6.588   5.944   4.956
 5641SOL    HW217823   6.499   5.928   4.820
 5642SOL     OW17824   1.526   0.601   0.313
 5642SOL    HW117825   1.467   0.527   0.344
 5642SOL    HW217826   1.474   0.686   0.311
 5643SOL     OW17827   4.897   2.379   6.944
 5643SOL    HW117828   4.929   2.327   6.865
 5643SOL    HW217829   4.839   2.320   7.001
 5644SOL     OW17830   2.580   0.500   5.710
 5644SOL    HW117831   2.558   0.435   5.783
 5644SOL    HW217832   2.654   0.560   5.739
 5645SOL     OW17833   4.918   3.717   4.122
 5645SOL    HW117834   4.968   3.746   4.040
 5645SOL    HW217835   4.919   3.618   4.129
 5646SOL     OW17836   1.377   4.517   2.611
 5646SOL    HW117837   1.378   4.595   2.548
 5646SOL    HW217838   1.284   4.502   2.644
 5647SOL     OW17839   3.940   5.576   2.656
 5647SOL    HW117840   3.958   5.480   2.632
 5647SOL    HW217841   3.988   5.635   2.591
 5648SOL     OW17842   5.274   6.558   3.195
 5648SOL    HW117843   5.309   6.560   3.102
 5648SOL    HW217844   5.335   6.503   3.252
 5649SOL     OW17845   0.440   0.832   4.639
 5649SOL    HW117846   0.502   0.809   4.565
 5649SOL    HW217847   0.375   0.757   4.653
 5650SOL     OW17848   0.544   3.702   6.135
 5650SOL    HW117849   0.498   3.774   6.083
 5650SOL    HW217850   0.543   3.617   6.082
 5651SOL     OW17851   2.891   1.226   2.007
 5651SOL    HW117852   2.907   1.225   1.908
 5651SOL    HW217853   2.942   1.301   2.049
 5652SOL     OW17854   0.458   5.939   1.913
 5652SOL    HW117855   0.463   5.941   1.814
 5652SOL    HW217856   0.516   5.865   1.948
 5653SOL     OW17857   6.969   0.505   2.580
 5653SOL    HW117858   6.875   0.470   2.575
 5653SOL    HW217859   6.978   0.583   2.519
 5654SOL     OW17860   3.155   6.010   5.836
 5654SOL    HW117861   3.242   6.045   5.802
 5654SOL    HW217862   3.162   5.990   5.934
 5655SOL     OW17863   6.470   3.227   4.222
 5655SOL    HW117864   6.467   3.314   4.173
 5655SOL    HW217865   6.502   3.242   4.316
 5656SOL     OW17866   0.434   4.959   1.914
 5656SOL    HW117867   0.346   4.917   1.937
 5656SOL    HW217868   0.508   4.903   1.952
 5657SOL     OW17869   5.935   6.249   5.527
 5657SOL    HW117870   6.005   6.179   5.544
 5657SOL    HW217871   5.943   6.282   5.433
 5658SOL     OW17872   2.970   2.434   5.405
 5658SOL    HW117873   3.036   2.416   5.332
 5658SOL    HW217874   2.896   2.367   5.401
 5659SOL     OW17875   2.672   4.202   5.729
 5659SOL    HW117876   2.748   4.255   5.767
 5659SOL    HW217877   2.588   4.256   5.733
 5660SOL     OW17878   4.231   0.730   4.402
 5660SOL    HW117879   4.189   0.727   4.492
 5660SOL    HW217880   4.174   0.784   4.340
 5661SOL     OW17881   0.373   5.989   5.580
 5661SOL    HW117882   0.408   5.948   5.664
 5661SOL    HW217883   0.352   6.085   5.596
 5662SOL     OW17884   2.873   5.897   0.956
 5662SOL    HW117885   2.973   5.897   0.967
 5662SOL    HW217886   2.850   5.929   0.864
 5663SOL     OW17887   3.481   1.744   6.467
 5663SOL    HW117888   3.438   1.832   6.448
 5663SOL    HW217889   3.536   1.750   6.550
 5664SOL     OW17890   4.909   5.814   4.988
 5664SOL    HW117891   4.978   5.870   4.943
 5664SOL    HW217892   4.856   5.765   4.919
 5665SOL     OW17893   2.245   0.865   0.686
 5665SOL    HW117894   2.340   0.859   0.714
 5665SOL    HW217895   2.192   0.914   0.756
 5666SOL     OW17896   5.948   3.288   4.990
 5666SOL    HW117897   6.005   3.208   5.005
 5666SOL    HW217898   5.959   3.320   4.895
 5667SOL     OW17899   2.543   4.617   4.060
 5667SOL    HW117900   2.467   4.578   4.008
 5667SOL    HW217901   2.620   4.636   3.998
 5668SOL     OW17902   4.389   4.627   4.080
 5668SOL    HW117903   4.290   4.644   4.089
 5668SOL    HW217904   4.418   4.655   3.988
 5669SOL     OW17905   5.660   3.806   5.864
 5669SOL    HW117906   5.673   3.749   5.783
 5669SOL    HW217907   5.724   3.883   5.861
 5670SOL     OW17908   0.797   3.292   4.329
 5670SOL    HW117909   0.848   3.221   4.376
 5670SOL    HW217910   0.701   3.288   4.357
 5671SOL     OW17911   5.980   5.953   2.703
 5671SOL    HW117912   6.066   5.946   2.755
 5671SOL    HW217913   5.905   5.919   2.759
 5672SOL     OW17914   5.947   2.878   4.740
 5672SOL    HW117915   5.959   2.972   4.707
 5672SOL    HW217916   5.947   2.815   4.663
 5673SOL     OW17917   1.234   2.260   0.465
 5673SOL    HW117918   1.313   2.321   0.455
 5673SOL    HW217919   1.229   2.228   0.560
 5674SOL     OW17920   3.165   5.531   5.204
 5674SOL    HW117921   3.219   5.600   5.156
 5674SOL    HW217922   3.226   5.460   5.240
 5675SOL     OW17923   3.502   1.921   0.773
 5675SOL    HW117924   3.512   1.933   0.872
 5675SOL    HW217925   3.593   1.910   0.732
 5676SOL     OW17926   3.770   1.492   1.834
 5676SOL    HW117927   3.742   1.409   1.882
 5676SOL    HW217928   3.735   1.572   1.883
 5677SOL     OW17929   1.587   1.063   5.845
 5677SOL    HW117930   1.501   1.109   5.867
 5677SOL    HW217931   1.656   1.132   5.820
 5678SOL     OW17932   3.942   1.765   1.914
 5678SOL    HW117933   3.851   1.735   1.942
 5678SOL    HW217934   3.941   1.864   1.898
 5679SOL     OW17935   1.185   3.861   5.814
 5679SOL    HW117936   1.202   3.941   5.757
 5679SOL    HW217937   1.235   3.782   5.777
 5680SOL     OW17938   0.892   5.920   4.268
 5680SOL    HW117939   0.892   5.847   4.200
 5680SOL    HW217940   0.836   5.996   4.236
 5681SOL     OW17941   1.648   3.618   2.942
 5681SOL    HW117942   1.699   3.605   3.028
 5681SOL    HW217943   1.669   3.543   2.879
 5682SOL     OW17944   1.901   4.653   0.080
 5682SOL    HW117945   1.905   4.750   0.057
 5682SOL    HW217946   1.992   4.612   0.067
 5683SOL     OW17947   6.788   6.245   6.024
 5683SOL    HW117948   6.814   6.152   6.000
 5683SOL    HW217949   6.857   6.309   5.989
 5684SOL     OW17950   2.114   3.504   4.518
 5684SOL    HW117951   2.016   3.508   4.534
 5684SOL    HW217952   2.157   3.450   4.590
 5685SOL     OW17953   1.988   2.336   1.782
 5685SOL    HW117954   2.045   2.259   1.752
 5685SOL    HW217955   2.047   2.406   1.823
 5686SOL     OW17956   5.872   5.512   5.752
 5686SOL    HW117957   5.776   5.513   5.724
 5686SOL    HW217958   5.878   5.495   5.850
 5687SOL     OW17959   1.309   0.663   6.541
 5687SOL    HW117960   1.277   0.587   6.598
 5687SOL    HW217961   1.244   0.676   6.465
 5688SOL     OW17962   1.196   2.963   2.400
 5688SOL    HW117963   1.181   3.055   2.436
 5688SOL    HW217964   1.289   2.933   2.421
 5689SOL     OW17965   0.311   1.507   1.078
 5689SOL    HW117966   0.358   1.595   1.066
 5689SOL    HW217967   0.376   1.433   1.063
 5690SOL     OW17968   3.202   5.339   0.208
 5690SOL    HW117969   3.200   5.346   0.108
 5690SOL    HW217970   3.283   5.289   0.237
 5691SOL     OW17971   4.884   3.105   3.306
 5691SOL    HW117972   4.965   3.069   3.353
 5691SOL    HW217973   4.860   3.194   3.345
 5692SOL     OW17974   6.361   4.550   1.881
 5692SOL    HW117975   6.420   4.552   1.962
 5692SOL    HW217976   6.314   4.463   1.876
 5693SOL     OW17977   2.868   0.999   2.339
 5693SOL    HW117978   2.859   0.960   2.431
 5693SOL    HW217979   2.802   0.954   2.278
 5694SOL     OW17980   0.219   6.364   1.272
 5694SOL    HW117981   0.301   6.386   1.325
 5694SOL    HW217982   0.196   6.442   1.213
 5695SOL     OW17983   1.907   0.783   2.427
 5695SOL    HW117984   1.976   0.721   2.390
 5695SOL    HW217985   1.899   0.770   2.526
 5696SOL     OW17986   6.745   0.951   3.564
 5696SOL    HW117987   6.665   0.893   3.576
 5696SOL    HW217988   6.770   0.953   3.467
 5697SOL     OW17989   5.841   1.878   0.531
 5697SOL    HW117990   5.936   1.903   0.547
 5697SOL    HW217991   5.781   1.936   0.586
 5698SOL     OW17992   2.963   2.097   3.057
 5698SOL    HW117993   3.008   2.123   3.143
 5698SOL    HW217994   3.030   2.102   2.983
 5699SOL     OW17995   2.371   2.700   2.609
 5699SOL    HW117996   2.370   2.634   2.685
 5699SOL    HW217997   2.387   2.792   2.645
 5700SOL     OW17998   5.671   0.652   2.164
 5700SOL    HW117999   5.708   0.691   2.080
 5700SOL    HW218000   5.684   0.553   2.164
 5701SOL     OW18001   2.032   0.876   0.900
 5701SOL    HW118002   2.031   0.969   0.937
 5701SOL    HW218003   1.942   0.853   0.864
 5702SOL     OW18004   1.322   6.171   4.368
 5702SOL    HW118005   1.358   6.094   4.422
 5702SOL    HW218006   1.371   6.254   4.393
 5703SOL     OW18007   0.953   3.220   6.118
 5703SOL    HW118008   1.019   3.223   6.042
 5703SOL    HW218009   0.861   3.234   6.082
 5704SOL     OW18010   4.519   5.615   4.649
 5704SOL    HW118011   4.518   5.617   4.749
 5704SOL    HW218012   4.442   5.668   4.613
 5705SOL     OW18013   5.880   1.491   5.194
 5705SOL    HW118014   5.856   1.423   5.125
 5705SOL    HW218015   5.916   1.446   5.275
 5706SOL     OW18016   5.433   0.808   1.432
 5706SOL    HW118017   5.458   0.899   1.399
 5706SOL    HW218018   5.429   0.808   1.532
 5707SOL     OW18019   5.960   5.769   1.576
 5707SOL    HW118020   5.878   5.736   1.621
 5707SOL    HW218021   6.041   5.734   1.625
 5708SOL     OW18022   4.707   6.523   1.923
 5708SOL    HW118023   4.624   6.527   1.868
 5708SOL    HW218024   4.787   6.519   1.862
 5709SOL     OW18025   6.497   2.284   2.498
 5709SOL    HW118026   6.449   2.367   2.468
 5709SOL    HW218027   6.432   2.224   2.545
 5710SOL     OW18028   5.653   1.501   0.633
 5710SOL    HW118029   5.592   1.448   0.692
 5710SOL    HW218030   5.688   1.443   0.560
 5711SOL     OW18031   4.047   1.376   2.747
 5711SOL    HW118032   4.027   1.473   2.759
 5711SOL    HW218033   4.038   1.329   2.835
 5712SOL     OW18034   6.674   5.886   6.636
 5712SOL    HW118035   6.699   5.815   6.702
 5712SOL    HW218036   6.646   5.843   6.550
 5713SOL     OW18037   1.362   1.412   0.540
 5713SOL    HW118038   1.417   1.330   0.526
 5713SOL    HW218039   1.414   1.493   0.511
 5714SOL     OW18040   5.258   0.381   1.124
 5714SOL    HW118041   5.334   0.325   1.156
 5714SOL    HW218042   5.214   0.336   1.046
 5715SOL     OW18043   0.440   6.063   0.853
 5715SOL    HW118044   0.411   6.145   0.805
 5715SOL    HW218045   0.366   6.031   0.912
 5716SOL     OW18046   0.090   4.796   5.735
 5716SOL    HW118047   0.166   4.861   5.743
 5716SOL    HW218048   0.056   4.774   5.827
 5717SOL     OW18049   6.960   6.096   2.791
 5717SOL    HW118050   6.925   6.167   2.852
 5717SOL    HW218051   6.950   6.125   2.696
 5718SOL     OW18052   1.770   4.677   6.244
 5718SOL    HW118053   1.807   4.596   6.198
 5718SOL    HW218054   1.705   4.723   6.184
 5719SOL     OW18055   3.647   3.413   1.361
 5719SOL    HW118056   3.621   3.464   1.442
 5719SOL    HW218057   3.565   3.374   1.318
 5720SOL     OW18058   2.500   4.001   6.870
 5720SOL    HW118059   2.425   3.934   6.863
 5720SOL    HW218060   2.521   4.017   6.966
 5721SOL     OW18061   0.642   3.069   0.605
 5721SOL    HW118062   0.561   3.022   0.569
 5721SOL    HW218063   0.721   3.045   0.548
 5722SOL     OW18064   1.841   0.657   5.926
 5722SOL    HW118065   1.871   0.562   5.928
 5722SOL    HW218066   1.913   0.715   5.886
 5723SOL     OW18067   4.520   3.977   0.536
 5723SOL    HW118068   4.461   3.994   0.457
 5723SOL    HW218069   4.551   3.882   0.536
 5724SOL     OW18070   6.633   1.698   6.410
 5724SOL    HW118071   6.541   1.717   6.443
 5724SOL    HW218072   6.628   1.641   6.328
 5725SOL     OW18073   6.573   4.205   4.580
 5725SOL    HW118074   6.581   4.253   4.668
 5725SOL    HW218075   6.532   4.266   4.512
 5726SOL     OW18076   4.076   4.724   1.932
 5726SOL    HW118077   4.077   4.663   2.011
 5726SOL    HW218078   4.160   4.711   1.879
 5727SOL     OW18079   0.943   3.013   6.334
 5727SOL    HW118080   0.939   3.105   6.296
 5727SOL    HW218081   0.983   3.017   6.426
 5728SOL     OW18082   2.179   5.971   4.035
 5728SOL    HW118083   2.255   6.013   4.084
 5728SOL    HW218084   2.092   6.004   4.074
 5729SOL     OW18085   2.826   1.819   4.962
 5729SOL    HW118086   2.865   1.747   5.020
 5729SOL    HW218087   2.732   1.839   4.992
 5730SOL     OW18088   6.322   4.993   4.248
 5730SOL    HW118089   6.401   4.933   4.233
 5730SOL    HW218090   6.238   4.940   4.237
 5731SOL     OW18091   0.064   6.689   2.430
 5731SOL    HW118092   7.005   6.629   2.411
 5731SOL    HW218093   0.044   6.782   2.398
 5732SOL     OW18094   5.204   0.434   3.747
 5732SOL    HW118095   5.201   0.442   3.648
 5732SOL    HW218096   5.111   0.444   3.784
 5733SOL     OW18097   2.713   0.862   5.290
 5733SOL    HW118098   2.633   0.848   5.232
 5733SOL    HW218099   2.729   0.780   5.345
 5734SOL     OW18100   1.860   6.310   4.048
 5734SOL    HW118101   1.924   6.355   4.110
 5734SOL    HW218102   1.766   6.335   4.072
 5735SOL     OW18103   2.459   0.715   1.594
 5735SOL    HW118104   2.439   0.810   1.618
 5735SOL    HW218105   2.392   0.655   1.638
 5736SOL     OW18106   1.707   4.690   1.263
 5736SOL    HW118107   1.646   4.621   1.302
 5736SOL    HW218108   1.670   4.781   1.281
 5737SOL     OW18109   6.064   3.803   0.037
 5737SOL    HW118110   5.995   3.762   0.096
 5737SOL    HW218111   6.042   3.900   0.022
 5738SOL     OW18112   1.094   5.617   4.316
 5738SOL    HW118113   1.047   5.538   4.354
 5738SOL    HW218114   1.109   5.685   4.388
 5739SOL     OW18115   0.941   2.377   0.894
 5739SOL    HW118116   0.930   2.345   0.988
 5739SOL    HW218117   0.852   2.403   0.857
 5740SOL     OW18118   4.381   4.933   0.412
 5740SOL    HW118119   4.432   4.848   0.417
 5740SOL    HW218120   4.377   4.965   0.317
 5741SOL     OW18121   0.046   2.442   2.157
 5741SOL    HW118122   6.990   2.485   2.107
 5741SOL    HW218123   0.130   2.448   2.103
 5742SOL     OW18124   0.174   5.306   3.555
 5742SOL    HW118125   0.121   5.382   3.516
 5742SOL    HW218126   0.158   5.301   3.653
 5743SOL     OW18127   0.858   0.792   4.937
 5743SOL    HW118128   0.772   0.840   4.954
 5743SOL    HW218129   0.846   0.695   4.957
 5744SOL     OW18130   6.184   0.337   2.156
 5744SOL    HW118131   6.155   0.364   2.248
 5744SOL    HW218132   6.266   0.389   2.130
 5745SOL     OW18133   6.559   3.451   2.247
 5745SOL    HW118134   6.530   3.388   2.318
 5745SOL    HW218135   6.480   3.477   2.192
 5746SOL     OW18136   0.489   3.503   5.950
 5746SOL    HW118137   0.524   3.421   5.906
 5746SOL    HW218138   0.389   3.499   5.955
 5747SOL     OW18139   6.744   6.181   3.881
 5747SOL    HW118140   6.721   6.087   3.859
 5747SOL    HW218141   6.697   6.243   3.817
 5748SOL     OW18142   1.257   1.371   4.182
 5748SOL    HW118143   1.279   1.449   4.122
 5748SOL    HW218144   1.308   1.380   4.267
 5749SOL     OW18145   0.408   1.527   3.057
 5749SOL    HW118146   0.428   1.623   3.036
 5749SOL    HW218147   0.493   1.477   3.068
 5750SOL     OW18148   4.278   5.967   2.777
 5750SOL    HW118149   4.354   5.915   2.816
 5750SOL    HW218150   4.299   6.065   2.781
 5751SOL     OW18151   1.197   1.900   6.806
 5751SOL    HW118152   1.283   1.856   6.831
 5751SOL    HW218153   1.160   1.859   6.723
 5752SOL     OW18154   2.065   0.743   6.678
 5752SOL    HW118155   2.139   0.740   6.611
 5752SOL    HW218156   2.076   0.824   6.736
 5753SOL     OW18157   4.290   1.575   6.249
 5753SOL    HW118158   4.218   1.635   6.282
 5753SOL    HW218159   4.257   1.480   6.249
 5754SOL     OW18160   6.165   5.941   0.425
 5754SOL    HW118161   6.087   5.979   0.375
 5754SOL    HW218162   6.200   5.862   0.376
 5755SOL     OW18163   3.216   3.771   2.320
 5755SOL    HW118164   3.288   3.798   2.384
 5755SOL    HW218165   3.257   3.738   2.235
 5756SOL     OW18166   6.095   6.981   3.971
 5756SOL    HW118167   6.064   6.924   3.895
 5756SOL    HW218168   6.099   0.058   3.942
 5757SOL     OW18169   6.544   6.990   1.921
 5757SOL    HW118170   6.586   6.908   1.960
 5757SOL    HW218171   6.609   0.018   1.861
 5758SOL     OW18172   2.785   0.664   5.975
 5758SOL    HW118173   2.757   0.760   5.973
 5758SOL    HW218174   2.747   0.621   6.057
 5759SOL     OW18175   0.522   1.123   5.593
 5759SOL    HW118176   0.569   1.035   5.597
 5759SOL    HW218177   0.586   1.194   5.564
 5760SOL     OW18178   6.551   5.653   2.015
 5760SOL    HW118179   6.546   5.576   2.078
 5760SOL    HW218180   6.492   5.727   2.048
 5761SOL     OW18181   3.688   0.657   4.335
 5761SOL    HW118182   3.775   0.609   4.338
 5761SOL    HW218183   3.613   0.590   4.332
 5762SOL     OW18184   4.832   0.250   1.441
 5762SOL    HW118185   4.791   0.340   1.427
 5762SOL    HW218186   4.928   0.252   1.414
 5763SOL     OW18187   3.919   0.889   0.972
 5763SOL    HW118188   3.878   0.882   1.063
 5763SOL    HW218189   3.886   0.972   0.927
 5764SOL     OW18190   3.459   2.952   6.758
 5764SOL    HW118191   3.484   3.022   6.825
 5764SOL    HW218192   3.360   2.957   6.740
 5765SOL     OW18193   6.771   4.660   6.266
 5765SOL    HW118194   6.747   4.749   6.228
 5765SOL    HW218195   6.826   4.673   6.349
 5766SOL     OW18196   2.259   1.771   3.648
 5766SOL    HW118197   2.164   1.750   3.627
 5766SOL    HW218198   2.318   1.732   3.578
 5767SOL     OW18199   4.963   6.150   0.354
 5767SOL    HW118200   4.957   6.237   0.305
 5767SOL    HW218201   5.056   6.115   0.348
 5768SOL     OW18202   5.567   6.877   2.328
 5768SOL    HW118203   5.517   6.919   2.253
 5768SOL    HW218204   5.609   6.792   2.298
 5769SOL     OW18205   6.951   4.785   3.589
 5769SOL    HW118206   6.895   4.850   3.538
 5769SOL    HW218207   0.029   4.809   3.578
 5770SOL     OW18208   5.008   2.751   1.061
 5770SOL    HW118209   5.044   2.747   1.154
 5770SOL    HW218210   4.917   2.793   1.062
 5771SOL     OW18211   0.646   0.394   1.228
 5771SOL    HW118212   0.605   0.311   1.189
 5771SOL    HW218213   0.604   0.474   1.186
 5772SOL     OW18214   6.162   5.272   5.723
 5772SOL    HW118215   6.159   5.343   5.653
 5772SOL    HW218216   6.069   5.246   5.750
 5773SOL     OW18217   5.283   6.303   5.430
 5773SOL    HW118218   5.279   6.376   5.499
 5773SOL    HW218219   5.207   6.240   5.444
 5774SOL     OW18220   1.853   4.444   1.635
 5774SOL    HW118221   1.772   4.387   1.637
 5774SOL    HW218222   1.895   4.441   1.544
 5775SOL     OW18223   1.277   1.205   0.862
 5775SOL    HW118224   1.287   1.233   0.958
 5775SOL    HW218225   1.344   1.133   0.842
 5776SOL     OW18226   4.995   0.752   5.822
 5776SOL    HW118227   4.921   0.819   5.825
 5776SOL    HW218228   4.971   0.673   5.878
 5777SOL     OW18229   4.836   6.489   4.941
 5777SOL    HW118230   4.771   6.499   5.017
 5777SOL    HW218231   4.840   6.393   4.913
 5778SOL     OW18232   2.535   6.604   3.526
 5778SOL    HW118233   2.507   6.700   3.534
 5778SOL    HW218234   2.633   6.596   3.542
 5779SOL     OW18235   3.446   6.598   2.162
 5779SOL    HW118236   3.496   6.674   2.122
 5779SOL    HW218237   3.370   6.573   2.102
 5780SOL     OW18238   6.864   4.716   0.073
 5780SOL    HW118239   6.806   4.702   7.011
 5780SOL    HW218240   6.933   4.785   0.052
 5781SOL     OW18241   5.061   4.630   5.463
 5781SOL    HW118242   4.965   4.620   5.439
 5781SOL    HW218243   5.086   4.727   5.461
 5782SOL     OW18244   4.754   1.747   2.684
 5782SOL    HW118245   4.725   1.658   2.650
 5782SOL    HW218246   4.852   1.758   2.671
 5783SOL     OW18247   3.133   6.365   3.548
 5783SOL    HW118248   3.071   6.392   3.474
 5783SOL    HW218249   3.080   6.339   3.629
 5784SOL     OW18250   0.084   6.732   2.074
 5784SOL    HW118251   0.054   6.643   2.039
 5784SOL    HW218252   0.147   6.717   2.151
 5785SOL     OW18253   2.706   0.971   5.985
 5785SOL    HW118254   2.794   1.011   6.012
 5785SOL    HW218255   2.642   1.044   5.961
 5786SOL     OW18256   2.291   1.234   6.220
 5786SOL    HW118257   2.270   1.319   6.172
 5786SOL    HW218258   2.211   1.174   6.219
 5787SOL     OW18259   0.571   2.284   6.242
 5787SOL    HW118260   0.516   2.353   6.195
 5787SOL    HW218261   0.656   2.326   6.275
 5788SOL     OW18262   0.651   2.496   1.916
 5788SOL    HW118263   0.729   2.556   1.898
 5788SOL    HW218264   0.570   2.532   1.870
 5789SOL     OW18265   3.315   1.369   7.018
 5789SOL    HW118266   3.388   1.435   7.002
 5789SOL    HW218267   3.232   1.400   6.972
 5790SOL     OW18268   6.175   6.008   2.490
 5790SOL    HW118269   6.180   6.104   2.464
 5790SOL    HW218270   6.107   5.996   2.563
 5791SOL     OW18271   3.934   0.867   1.606
 5791SOL    HW118272   3.843   0.878   1.566
 5791SOL    HW218273   3.952   0.942   1.670
 5792SOL     OW18274   4.867   1.803   2.368
 5792SOL    HW118275   4.919   1.876   2.414
 5792SOL    HW218276   4.851   1.830   2.273
 5793SOL     OW18277   4.117   1.897   0.389
 5793SOL    HW118278   4.168   1.974   0.428
 5793SOL    HW218279   4.086   1.837   0.463
 5794SOL     OW18280   3.337   6.259   6.896
 5794SOL    HW118281   3.369   6.271   6.802
 5794SOL    HW218282   3.238   6.266   6.899
 5795SOL     OW18283   0.463   6.986   1.535
 5795SOL    HW118284   0.441   6.917   1.604
 5795SOL    HW218285   0.396   0.042   1.539
 5796SOL     OW18286   4.515   1.063   5.988
 5796SOL    HW118287   4.599   1.050   6.041
 5796SOL    HW218288   4.471   1.148   6.017
 5797SOL     OW18289   5.865   1.594   6.587
 5797SOL    HW118290   5.865   1.512   6.644
 5797SOL    HW218291   5.771   1.623   6.570
 5798SOL     OW18292   2.229   2.761   4.596
 5798SOL    HW118293   2.221   2.840   4.657
 5798SOL    HW218294   2.147   2.754   4.539
 5799SOL     OW18295   2.867   1.038   3.837
 5799SOL    HW118296   2.814   1.099   3.779
 5799SOL    HW218297   2.808   0.965   3.872
 5800SOL     OW18298   1.925   6.143   1.408
 5800SOL    HW118299   1.888   6.233   1.428
 5800SOL    HW218300   1.927   6.129   1.309
 5801SOL     OW18301   1.500   2.238   3.088
 5801SOL    HW118302   1.464   2.331   3.101
 5801SOL    HW218303   1.546   2.208   3.171
 5802SOL     OW18304   0.266   6.755   2.591
 5802SOL    HW118305   0.295   6.683   2.654
 5802SOL    HW218306   0.188   6.722   2.537
 5803SOL     OW18307   0.081   6.754   4.427
 5803SOL    HW118308   0.059   6.813   4.505
 5803SOL    HW218309   0.042   6.793   4.344
 5804SOL     OW18310   6.219   2.466   3.057
 5804SOL    HW118311   6.249   2.558   3.036
 5804SOL    HW218312   6.130   2.448   3.014
 5805SOL     OW18313   0.820   1.771   1.679
 5805SOL    HW118314   0.748   1.709   1.647
 5805SOL    HW218315   0.803   1.796   1.774
 5806SOL     OW18316   6.485   3.843   1.488
 5806SOL    HW118317   6.546   3.907   1.535
 5806SOL    HW218318   6.427   3.894   1.424
 5807SOL     OW18319   0.856   0.893   3.036
 5807SOL    HW118320   0.930   0.943   2.989
 5807SOL    HW218321   0.817   0.825   2.974
 5808SOL     OW18322   6.139   5.539   6.093
 5808SOL    HW118323   6.061   5.489   6.054
 5808SOL    HW218324   6.206   5.473   6.128
 5809SOL     OW18325   6.522   3.442   5.315
 5809SOL    HW118326   6.599   3.448   5.378
 5809SOL    HW218327   6.528   3.358   5.262
 5810SOL     OW18328   0.623   6.045   4.925
 5810SOL    HW118329   0.671   6.063   4.840
 5810SOL    HW218330   0.600   6.132   4.969
 5811SOL     OW18331   3.070   5.093   0.253
 5811SOL    HW118332   3.123   5.051   0.327
 5811SOL    HW218333   3.081   5.192   0.256
 5812SOL     OW18334   6.383   2.041   6.078
 5812SOL    HW118335   6.287   2.063   6.058
 5812SOL    HW218336   6.409   2.082   6.166
 5813SOL     OW18337   6.596   5.758   0.784
 5813SOL    HW118338   6.635   5.667   0.798
 5813SOL    HW218339   6.512   5.750   0.731
 5814SOL     OW18340   5.051   1.789   2.667
 5814SOL    HW118341   5.093   1.853   2.732
 5814SOL    HW218342   5.118   1.765   2.596
 5815SOL     OW18343   0.329   4.432   4.702
 5815SOL    HW118344   0.358   4.411   4.609
 5815SOL    HW218345   0.240   4.389   4.720
 5816SOL     OW18346   6.832   3.703   1.172
 5816SOL    HW118347   6.774   3.783   1.187
 5816SOL    HW218348   6.789   3.643   1.105
 5817SOL     OW18349   6.725   2.520   3.595
 5817SOL    HW118350   6.732   2.425   3.566
 5817SOL    HW218351   6.663   2.527   3.674
 5818SOL     OW18352   2.746   1.467   3.829
 5818SOL    HW118353   2.786   1.441   3.917
 5818SOL    HW218354   2.788   1.552   3.798
 5819SOL     OW18355   4.253   4.451   1.457
 5819SOL    HW118356   4.276   4.424   1.551
 5819SOL    HW218357   4.288   4.542   1.439
 5820SOL     OW18358   0.816   6.424   2.208
 5820SOL    HW118359   0.845   6.506   2.257
 5820SOL    HW218360   0.803   6.349   2.273
 5821SOL     OW18361   4.775   6.118   1.703
 5821SOL    HW118362   4.816   6.116   1.794
 5821SOL    HW218363   4.729   6.031   1.685
 5822SOL     OW18364   1.310   4.144   3.230
 5822SOL    HW118365   1.267   4.072   3.175
 5822SOL    HW218366   1.403   4.161   3.196
 5823SOL     OW18367   1.978   6.557   5.035
 5823SOL    HW118368   1.889   6.555   4.990
 5823SOL    HW218369   2.015   6.650   5.031
 5824SOL     OW18370   1.786   5.714   2.239
 5824SOL    HW118371   1.742   5.778   2.302
 5824SOL    HW218372   1.775   5.746   2.146
 5825SOL     OW18373   3.361   2.100   4.589
 5825SOL    HW118374   3.270   2.126   4.618
 5825SOL    HW218375   3.361   2.004   4.561
 5826SOL     OW18376   1.270   6.405   5.729
 5826SOL    HW118377   1.174   6.433   5.734
 5826SOL    HW218378   1.327   6.473   5.775
 5827SOL     OW18379   1.338   4.979   4.049
 5827SOL    HW118380   1.400   5.034   4.105
 5827SOL    HW218381   1.247   4.978   4.091
 5828SOL     OW18382   4.852   0.462   5.137
 5828SOL    HW118383   4.908   0.544   5.126
 5828SOL    HW218384   4.850   0.412   5.050
 5829SOL     OW18385   1.647   1.062   2.719
 5829SOL    HW118386   1.591   1.099   2.645
 5829SOL    HW218387   1.738   1.104   2.717
 5830SOL     OW18388   4.823   5.053   3.953
 5830SOL    HW118389   4.825   5.051   4.053
 5830SOL    HW218390   4.909   5.017   3.917
 5831SOL     OW18391   2.398   1.684   3.892
 5831SOL    HW118392   2.352   1.621   3.954
 5831SOL    HW218393   2.330   1.728   3.833
 5832SOL     OW18394   3.157   5.559   3.448
 5832SOL    HW118395   3.139   5.523   3.540
 5832SOL    HW218396   3.071   5.568   3.398
 5833SOL     OW18397   2.314   4.593   1.580
 5833SOL    HW118398   2.386   4.646   1.624
 5833SOL    HW218399   2.225   4.617   1.620
 5834SOL     OW18400   6.479   1.177   6.757
 5834SOL    HW118401   6.504   1.137   6.845
 5834SOL    HW218402   6.451   1.103   6.694
 5835SOL     OW18403   3.567   0.926   3.471
 5835SOL    HW118404   3.478   0.897   3.506
 5835SOL    HW218405   3.639   0.881   3.523
 5836SOL     OW18406   5.959   4.872   1.348
 5836SOL    HW118407   5.886   4.832   1.293
 5836SOL    HW218408   6.035   4.898   1.288
 5837SOL     OW18409   1.734   3.997   6.802
 5837SOL    HW118410   1.713   3.934   6.876
 5837SOL    HW218411   1.772   3.946   6.724
 5838SOL     OW18412   3.321   3.032   0.543
 5838SOL    HW118413   3.258   3.100   0.580
 5838SOL    HW218414   3.272   2.947   0.523
 5839SOL     OW18415   2.657   1.888   0.775
 5839SOL    HW118416   2.652   1.974   0.827
 5839SOL    HW218417   2.737   1.889   0.716
 5840SOL     OW18418   6.132   3.638   2.500
 5840SOL    HW118419   6.095   3.551   2.534
 5840SOL    HW218420   6.081   3.666   2.418
 5841SOL     OW18421   4.968   1.301   0.088
 5841SOL    HW118422   4.910   1.302   0.007
 5841SOL    HW218423   5.056   1.260   0.066
 5842SOL     OW18424   3.643   1.760   2.252
 5842SOL    HW118425   3.720   1.824   2.257
 5842SOL    HW218426   3.557   1.811   2.257
 5843SOL     OW18427   3.319   2.617   1.474
 5843SOL    HW118428   3.409   2.660   1.489
 5843SOL    HW218429   3.295   2.563   1.554
 5844SOL     OW18430   6.189   5.400   4.896
 5844SOL    HW118431   6.205   5.478   4.957
 5844SOL    HW218432   6.265   5.392   4.832
 5845SOL     OW18433   2.120   6.028   3.083
 5845SOL    HW118434   2.030   6.001   3.119
 5845SOL    HW218435   2.109   6.107   3.023
 5846SOL     OW18436   0.477   4.118   5.442
 5846SOL    HW118437   0.507   4.063   5.520
 5846SOL    HW218438   0.499   4.070   5.357
 5847SOL     OW18439   1.923   3.819   5.561
 5847SOL    HW118440   1.973   3.882   5.620
 5847SOL    HW218441   1.982   3.742   5.536
 5848SOL     OW18442   3.231   6.628   1.996
 5848SOL    HW118443   3.204   6.724   2.007
 5848SOL    HW218444   3.149   6.571   1.994
 5849SOL     OW18445   3.038   6.417   6.522
 5849SOL    HW118446   3.003   6.511   6.529
 5849SOL    HW218447   3.076   6.390   6.610
 5850SOL     OW18448   5.629   2.795   0.944
 5850SOL    HW118449   5.554   2.858   0.925
 5850SOL    HW218450   5.624   2.717   0.881
 5851SOL     OW18451   1.251   2.850   6.398
 5851SOL    HW118452   1.280   2.766   6.353
 5851SOL    HW218453   1.329   2.893   6.444
 5852SOL     OW18454   3.984   5.013   3.528
 5852SOL    HW118455   4.051   4.939   3.516
 5852SOL    HW218456   4.028   5.091   3.572
 5853SOL     OW18457   4.516   4.773   6.810
 5853SOL    HW118458   4.575   4.702   6.849
 5853SOL    HW218459   4.572   4.842   6.764
 5854SOL     OW18460   2.484   4.234   5.287
 5854SOL    HW118461   2.473   4.141   5.252
 5854SOL    HW218462   2.414   4.293   5.249
 5855SOL     OW18463   1.182   2.192   4.418
 5855SOL    HW118464   1.177   2.124   4.346
 5855SOL    HW218465   1.270   2.239   4.415
 5856SOL     OW18466   0.368   1.042   2.220
 5856SOL    HW118467   0.425   0.971   2.262
 5856SOL    HW218468   0.313   1.001   2.147
 5857SOL     OW18469   6.331   5.938   6.870
 5857SOL    HW118470   6.295   5.889   6.791
 5857SOL    HW218471   6.275   6.020   6.885
 5858SOL     OW18472   2.992   1.873   1.155
 5858SOL    HW118473   2.940   1.884   1.239
 5858SOL    HW218474   3.065   1.941   1.151
 5859SOL     OW18475   6.251   4.808   1.360
 5859SOL    HW118476   6.347   4.804   1.389
 5859SOL    HW218477   6.210   4.893   1.394
 5860SOL     OW18478   1.780   2.853   1.658
 5860SOL    HW118479   1.822   2.773   1.615
 5860SOL    HW218480   1.698   2.880   1.606
 5861SOL     OW18481   4.936   6.200   4.615
 5861SOL    HW118482   4.863   6.131   4.607
 5861SOL    HW218483   4.999   6.190   4.539
 5862SOL     OW18484   0.310   5.053   1.667
 5862SOL    HW118485   0.381   5.010   1.723
 5862SOL    HW218486   0.341   5.143   1.638
 5863SOL     OW18487   3.991   6.936   5.773
 5863SOL    HW118488   3.904   6.951   5.821
 5863SOL    HW218489   3.975   6.882   5.691
 5864SOL     OW18490   3.769   3.743   3.400
 5864SOL    HW118491   3.835   3.811   3.434
 5864SOL    HW218492   3.677   3.768   3.430
 5865SOL     OW18493   6.904   6.188   1.564
 5865SOL    HW118494   6.963   6.132   1.623
 5865SOL    HW218495   6.814   6.145   1.557
 5866SOL     OW18496   2.928   3.607   3.565
 5866SOL    HW118497   2.882   3.524   3.594
 5866SOL    HW218498   2.936   3.608   3.465
 5867SOL     OW18499   4.897   1.219   0.363
 5867SOL    HW118500   4.884   1.229   0.264
 5867SOL    HW218501   4.986   1.257   0.389
 5868SOL     OW18502   1.493   0.961   0.425
 5868SOL    HW118503   1.408   0.914   0.449
 5868SOL    HW218504   1.509   0.952   0.326
 5869SOL     OW18505   2.335   5.527   3.720
 5869SOL    HW118506   2.279   5.472   3.782
 5869SOL    HW218507   2.367   5.470   3.645
 5870SOL     OW18508   4.033   6.181   3.751
 5870SOL    HW118509   3.993   6.249   3.691
 5870SOL    HW218510   3.986   6.094   3.739
 5871SOL     OW18511   4.091   3.609   3.247
 5871SOL    HW118512   4.146   3.542   3.197
 5871SOL    HW218513   4.121   3.613   3.342
 5872SOL     OW18514   3.993   5.177   1.522
 5872SOL    HW118515   4.027   5.166   1.429
 5872SOL    HW218516   3.919   5.112   1.538
 5873SOL     OW18517   3.826   6.871   2.328
 5873SOL    HW118518   3.742   6.878   2.383
 5873SOL    HW218519   3.876   6.958   2.335
 5874SOL     OW18520   0.361   3.380   4.261
 5874SOL    HW118521   0.371   3.479   4.261
 5874SOL    HW218522   0.340   3.348   4.169
 5875SOL     OW18523   3.825   2.554   1.410
 5875SOL    HW118524   3.841   2.652   1.420
 5875SOL    HW218525   3.860   2.524   1.321
 5876SOL     OW18526   4.040   3.829   2.695
 5876SOL    HW118527   4.066   3.807   2.789
 5876SOL    HW218528   3.967   3.898   2.696
 5877SOL     OW18529   4.363   4.875   1.786
 5877SOL    HW118530   4.299   4.827   1.725
 5877SOL    HW218531   4.381   4.966   1.750
 5878SOL     OW18532   0.592   3.919   2.471
 5878SOL    HW118533   0.535   3.997   2.445
 5878SOL    HW218534   0.681   3.952   2.501
 5879SOL     OW18535   1.888   4.307   5.036
 5879SOL    HW118536   1.911   4.400   5.065
 5879SOL    HW218537   1.953   4.242   5.075
 5880SOL     OW18538   2.630   5.479   0.218
 5880SOL    HW118539   2.719   5.438   0.197
 5880SOL    HW218540   2.562   5.406   0.230
 5881SOL     OW18541   1.719   6.403   4.467
 5881SOL    HW118542   1.765   6.410   4.556
 5881SOL    HW218543   1.787   6.382   4.397
 5882SOL     OW18544   4.876   0.284   3.500
 5882SOL    HW118545   4.803   0.265   3.566
 5882SOL    HW218546   4.881   0.209   3.434
 5883SOL     OW18547   0.874   3.397   5.580
 5883SOL    HW118548   0.836   3.368   5.492
 5883SOL    HW218549   0.944   3.333   5.609
 5884SOL     OW18550   6.997   1.333   3.497
 5884SOL    HW118551   6.945   1.289   3.570
 5884SOL    HW218552   6.955   1.313   3.408
 5885SOL     OW18553   6.324   5.326   0.289
 5885SOL    HW118554   6.316   5.228   0.267
 5885SOL    HW218555   6.409   5.362   0.248
 5886SOL     OW18556   6.070   1.690   5.773
 5886SOL    HW118557   6.136   1.755   5.812
 5886SOL    HW218558   6.118   1.629   5.709
 5887SOL     OW18559   3.610   7.005   2.483
 5887SOL    HW118560   3.546   6.931   2.462
 5887SOL    HW218561   3.563   0.074   2.474
 5888SOL     OW18562   6.865   5.949   1.852
 5888SOL    HW118563   6.838   5.900   1.935
 5888SOL    HW218564   6.783   5.981   1.804
 5889SOL     OW18565   3.059   0.143   1.185
 5889SOL    HW118566   3.109   0.181   1.107
 5889SOL    HW218567   2.968   0.183   1.189
 5890SOL     OW18568   4.101   5.308   5.955
 5890SOL    HW118569   4.173   5.349   5.899
 5890SOL    HW218570   4.046   5.246   5.899
 5891SOL     OW18571   2.184   2.931   6.490
 5891SOL    HW118572   2.246   3.004   6.518
 5891SOL    HW218573   2.143   2.889   6.570
 5892SOL     OW18574   3.257   5.278   1.218
 5892SOL    HW118575   3.335   5.255   1.159
 5892SOL    HW218576   3.219   5.194   1.258
 5893SOL     OW18577   0.406   3.114   2.211
 5893SOL    HW118578   0.455   3.200   2.203
 5893SOL    HW218579   0.469   3.043   2.244
 5894SOL     OW18580   2.019   4.348   3.536
 5894SOL    HW118581   2.098   4.287   3.539
 5894SOL    HW218582   1.988   4.367   3.629
 5895SOL     OW18583   4.756   5.228   3.093
 5895SOL    HW118584   4.767   5.262   3.186
 5895SOL    HW218585   4.715   5.136   3.096
 5896SOL     OW18586   5.665   2.022   5.811
 5896SOL    HW118587   5.707   1.965   5.882
 5896SOL    HW218588   5.716   2.013   5.726
 5897SOL     OW18589   4.427   4.297   0.246
 5897SOL    HW118590   4.421   4.352   0.330
 5897SOL    HW218591   4.373   4.340   0.174
 5898SOL     OW18592   1.388   5.514   2.681
 5898SOL    HW118593   1.365   5.529   2.777
 5898SOL    HW218594   1.325   5.567   2.623
 5899SOL     OW18595   5.004   0.806   3.777
 5899SOL    HW118596   4.978   0.781   3.684
 5899SOL    HW218597   5.038   0.900   3.778
 5900SOL     OW18598   3.721   5.119   2.270
 5900SOL    HW118599   3.810   5.161   2.287
 5900SOL    HW218600   3.648   5.182   2.297
 5901SOL     OW18601   2.732   6.396   3.276
 5901SOL    HW118602   2.754   6.372   3.182
 5901SOL    HW218603   2.636   6.374   3.295
 5902SOL     OW18604   0.055   1.852   0.662
 5902SOL    HW118605   0.029   1.834   0.567
 5902SOL    HW218606   6.991   1.859   0.718
 5903SOL     OW18607   0.920   1.761   6.406
 5903SOL    HW118608   0.926   1.834   6.338
 5903SOL    HW218609   0.994   1.772   6.472
 5904SOL     OW18610   7.009   3.176   2.231
 5904SOL    HW118611   7.001   3.275   2.242
 5904SOL    HW218612   6.921   3.133   2.250
 5905SOL     OW18613   6.913   3.683   2.217
 5905SOL    HW118614   6.866   3.756   2.267
 5905SOL    HW218615   6.922   3.603   2.276
 5906SOL     OW18616   6.248   1.433   3.297
 5906SOL    HW118617   6.279   1.522   3.266
 5906SOL    HW218618   6.262   1.425   3.396
 5907SOL     OW18619   1.574   0.889   1.887
 5907SOL    HW118620   1.621   0.972   1.916
 5907SOL    HW218621   1.501   0.867   1.952
 5908SOL     OW18622   0.387   2.825   5.185
 5908SOL    HW118623   0.419   2.825   5.280
 5908SOL    HW218624   0.349   2.915   5.163
 5909SOL     OW18625   0.049   4.243   6.236
 5909SOL    HW118626   0.119   4.269   6.303
 5909SOL    HW218627   0.093   4.213   6.152
 5910SOL     OW18628   1.664   1.916   3.516
 5910SOL    HW118629   1.571   1.921   3.479
 5910SOL    HW218630   1.730   1.930   3.442
 5911SOL     OW18631   5.760   4.856   6.598
 5911SOL    HW118632   5.794   4.921   6.531
 5911SOL    HW218633   5.751   4.766   6.556
 5912SOL     OW18634   1.164   1.754   2.317
 5912SOL    HW118635   1.065   1.763   2.305
 5912SOL    HW218636   1.187   1.766   2.414
 5913SOL     OW18637   6.730   3.499   0.995
 5913SOL    HW118638   6.631   3.487   1.005
 5913SOL    HW218639   6.777   3.416   1.024
 5914SOL     OW18640   1.370   6.450   0.669
 5914SOL    HW118641   1.456   6.498   0.684
 5914SOL    HW218642   1.387   6.365   0.618
 5915SOL     OW18643   4.958   0.710   5.059
 5915SOL    HW118644   4.895   0.764   5.115
 5915SOL    HW218645   5.031   0.770   5.024
 5916SOL     OW18646   0.595   0.934   3.042
 5916SOL    HW118647   0.695   0.941   3.047
 5916SOL    HW218648   0.569   0.885   2.960
 5917SOL     OW18649   3.902   3.573   0.484
 5917SOL    HW118650   3.961   3.503   0.444
 5917SOL    HW218651   3.899   3.560   0.583
 5918SOL     OW18652   3.430   6.276   5.236
 5918SOL    HW118653   3.495   6.282   5.312
 5918SOL    HW218654   3.476   6.302   5.151
 5919SOL     OW18655   2.913   3.452   4.542
 5919SOL    HW118656   2.819   3.419   4.545
 5919SOL    HW218657   2.955   3.443   4.632
 5920SOL     OW18658   1.883   0.265   5.153
 5920SOL    HW118659   1.805   0.246   5.214
 5920SOL    HW218660   1.875   0.358   5.118
 5921SOL     OW18661   3.162   4.592   1.284
 5921SOL    HW118662   3.253   4.610   1.246
 5921SOL    HW218663   3.134   4.499   1.260
 5922SOL     OW18664   5.254   2.449   2.237
 5922SOL    HW118665   5.215   2.538   2.261
 5922SOL    HW218666   5.352   2.449   2.259
 5923SOL     OW18667   5.843   0.834   2.298
 5923SOL    HW118668   5.794   0.890   2.365
 5923SOL    HW218669   5.779   0.769   2.256
 5924SOL     OW18670   0.372   5.927   2.964
 5924SOL    HW118671   0.349   5.830   2.959
 5924SOL    HW218672   0.457   5.938   3.017
 5925SOL     OW18673   4.331   0.801   0.959
 5925SOL    HW118674   4.327   0.883   0.902
 5925SOL    HW218675   4.246   0.792   1.010
 5926SOL     OW18676   4.917   3.491   3.134
 5926SOL    HW118677   4.899   3.505   3.231
 5926SOL    HW218678   4.936   3.394   3.117
 5927SOL     OW18679   1.177   0.259   1.434
 5927SOL    HW118680   1.260   0.315   1.425
 5927SOL    HW218681   1.165   0.233   1.530
 5928SOL     OW18682   3.012   0.308   6.573
 5928SOL    HW118683   2.933   0.367   6.592
 5928SOL    HW218684   3.094   0.363   6.565
 5929SOL     OW18685   1.443   0.909   1.121
 5929SOL    HW118686   1.495   0.993   1.140
 5929SOL    HW218687   1.404   0.875   1.207
 5930SOL     OW18688   0.020   5.039   2.059
 5930SOL    HW118689   0.020   5.058   1.961
 5930SOL    HW218690   0.106   4.997   2.085
 5931SOL     OW18691   4.836   0.704   4.785
 5931SOL    HW118692   4.827   0.698   4.885
 5931SOL    HW218693   4.772   0.640   4.742
 5932SOL     OW18694   2.848   5.281   1.005
 5932SOL    HW118695   2.837   5.184   0.985
 5932SOL    HW218696   2.828   5.335   0.923
 5933SOL     OW18697   6.755   5.582   4.441
 5933SOL    HW118698   6.683   5.518   4.413
 5933SOL    HW218699   6.834   5.571   4.381
 5934SOL     OW18700   2.769   4.490   0.180
 5934SOL    HW118701   2.761   4.582   0.142
 5934SOL    HW218702   2.800   4.496   0.275
 5935SOL     OW18703   1.464   0.515   5.324
 5935SOL    HW118704   1.388   0.524   5.388
 5935SOL    HW218705   1.454   0.429   5.273
 5936SOL     OW18706   3.787   2.911   2.305
 5936SOL    HW118707   3.840   2.976   2.252
 5936SOL    HW218708   3.721   2.864   2.246
 5937SOL     OW18709   0.993   2.763   0.776
 5937SOL    HW118710   0.987   2.787   0.873
 5937SOL    HW218711   0.902   2.770   0.735
 5938SOL     OW18712   0.364   3.268   3.994
 5938SOL    HW118713   0.401   3.175   3.987
 5938SOL    HW218714   0.438   3.334   3.983
 5939SOL     OW18715   5.085   1.981   5.904
 5939SOL    HW118716   5.185   1.970   5.903
 5939SOL    HW218717   5.042   1.897   5.871
 5940SOL     OW18718   4.374   5.143   1.036
 5940SOL    HW118719   4.401   5.058   1.082
 5940SOL    HW218720   4.455   5.200   1.023
 5941SOL     OW18721   1.587   2.174   3.691
 5941SOL    HW118722   1.488   2.161   3.681
 5941SOL    HW218723   1.636   2.099   3.647
 5942SOL     OW18724   4.766   2.161   6.491
 5942SOL    HW118725   4.737   2.213   6.572
 5942SOL    HW218726   4.768   2.223   6.412
 5943SOL     OW18727   1.881   4.629   2.102
 5943SOL    HW118728   1.819   4.630   2.180
 5943SOL    HW218729   1.975   4.635   2.134
 5944SOL     OW18730   6.733   3.306   5.864
 5944SOL    HW118731   6.762   3.282   5.771
 5944SOL    HW218732   6.765   3.398   5.885
 5945SOL     OW18733   0.513   6.095   4.570
 5945SOL    HW118734   0.423   6.103   4.612
 5945SOL    HW218735   0.504   6.098   4.471
 5946SOL     OW18736   3.247   2.570   6.778
 5946SOL    HW118737   3.202   2.589   6.865
 5946SOL    HW218738   3.214   2.483   6.742
 5947SOL     OW18739   3.303   3.693   6.059
 5947SOL    HW118740   3.355   3.616   6.022
 5947SOL    HW218741   3.213   3.697   6.014
 5948SOL     OW18742   4.822   3.191   1.084
 5948SOL    HW118743   4.733   3.214   1.122
 5948SOL    HW218744   4.890   3.191   1.158
 5949SOL     OW18745   1.529   5.049   4.227
 5949SOL    HW118746   1.561   5.137   4.262
 5949SOL    HW218747   1.493   4.994   4.303
 5950SOL     OW18748   1.681   6.340   4.940
 5950SOL    HW118749   1.662   6.430   4.978
 5950SOL    HW218750   1.666   6.270   5.011
 5951SOL     OW18751   6.894   3.422   6.621
 5951SOL    HW118752   6.866   3.509   6.661
 5951SOL    HW218753   6.882   3.424   6.522
 5952SOL     OW18754   3.860   4.111   1.821
 5952SOL    HW118755   3.942   4.059   1.798
 5952SOL    HW218756   3.862   4.135   1.918
 5953SOL     OW18757   0.321   2.826   6.770
 5953SOL    HW118758   0.311   2.914   6.725
 5953SOL    HW218759   0.270   2.827   6.856
 5954SOL     OW18760   2.667   5.399   3.703
 5954SOL    HW118761   2.611   5.339   3.645
 5954SOL    HW218762   2.631   5.398   3.796
 5955SOL     OW18763   4.831   2.562   0.138
 5955SOL    HW118764   4.921   2.604   0.131
 5955SOL    HW218765   4.824   2.487   0.072
 5956SOL     OW18766   3.983   2.058   6.619
 5956SOL    HW118767   4.055   2.019   6.675
 5956SOL    HW218768   3.899   2.005   6.630
 5957SOL     OW18769   0.059   2.950   3.553
 5957SOL    HW118770   0.061   3.046   3.583
 5957SOL    HW218771   0.046   2.946   3.454
 5958SOL     OW18772   2.251   6.657   1.916
 5958SOL    HW118773   2.170   6.626   1.866
 5958SOL    HW218774   2.315   6.581   1.926
 5959SOL     OW18775   4.862   4.494   3.355
 5959SOL    HW118776   4.795   4.421   3.372
 5959SOL    HW218777   4.908   4.518   3.441
 5960SOL     OW18778   6.785   6.736   6.503
 5960SOL    HW118779   6.852   6.667   6.531
 5960SOL    HW218780   6.831   6.808   6.451
 5961SOL     OW18781   1.615   2.213   3.331
 5961SOL    HW118782   1.704   2.257   3.328
 5961SOL    HW218783   1.627   2.116   3.352
 5962SOL     OW18784   5.660   5.634   0.595
 5962SOL    HW118785   5.569   5.599   0.615
 5962SOL    HW218786   5.712   5.566   0.543
 5963SOL     OW18787   2.188   3.778   1.346
 5963SOL    HW118788   2.126   3.733   1.282
 5963SOL    HW218789   2.278   3.788   1.304
 5964SOL     OW18790   1.628   6.429   4.154
 5964SOL    HW118791   1.570   6.510   4.157
 5964SOL    HW218792   1.592   6.360   4.217
 5965SOL     OW18793   2.091   0.219   1.557
 5965SOL    HW118794   2.036   0.212   1.473
 5965SOL    HW218795   2.186   0.196   1.536
 5966SOL     OW18796   2.654   1.583   5.129
 5966SOL    HW118797   2.606   1.542   5.207
 5966SOL    HW218798   2.688   1.673   5.154
 5967SOL     OW18799   4.974   2.273   5.548
 5967SOL    HW118800   4.890   2.314   5.583
 5967SOL    HW218801   4.951   2.191   5.494
 5968SOL     OW18802   6.333   1.687   3.186
 5968SOL    HW118803   6.338   1.669   3.087
 5968SOL    HW218804   6.426   1.693   3.223
 5969SOL     OW18805   5.527   6.215   1.610
 5969SOL    HW118806   5.551   6.138   1.550
 5969SOL    HW218807   5.594   6.222   1.683
 5970SOL     OW18808   6.432   1.361   0.249
 5970SOL    HW118809   6.375   1.391   0.172
 5970SOL    HW218810   6.372   1.331   0.323
 5971SOL     OW18811   6.905   5.389   3.662
 5971SOL    HW118812   6.992   5.415   3.704
 5971SOL    HW218813   6.885   5.293   3.683
 5972SOL     OW18814   6.613   5.275   0.267
 5972SOL    HW118815   6.582   5.193   0.316
 5972SOL    HW218816   6.708   5.295   0.291
 5973SOL     OW18817   3.576   0.590   1.995
 5973SOL    HW118818   3.501   0.652   2.014
 5973SOL    HW218819   3.661   0.626   2.033
 5974SOL     OW18820   5.689   1.029   4.617
 5974SOL    HW118821   5.685   1.096   4.691
 5974SOL    HW218822   5.626   1.056   4.544
 5975SOL     OW18823   3.858   4.343   0.280
 5975SOL    HW118824   3.827   4.292   0.361
 5975SOL    HW218825   3.829   4.438   0.288
 5976SOL     OW18826   0.671   2.035   6.301
 5976SOL    HW118827   0.625   2.123   6.289
 5976SOL    HW218828   0.604   1.964   6.324
 5977SOL     OW18829   0.573   5.569   1.770
 5977SOL    HW118830   0.534   5.504   1.705
 5977SOL    HW218831   0.655   5.610   1.732
 5978SOL     OW18832   2.950   3.477   6.216
 5978SOL    HW118833   2.981   3.464   6.122
 5978SOL    HW218834   3.027   3.466   6.278
 5979SOL     OW18835   6.026   1.343   1.773
 5979SOL    HW118836   5.974   1.262   1.800
 5979SOL    HW218837   5.990   1.423   1.822
 5980SOL     OW18838   3.915   2.667   0.317
 5980SOL    HW118839   3.925   2.699   0.223
 5980SOL    HW218840   3.818   2.659   0.340
 5981SOL     OW18841   4.257   2.076   0.566
 5981SOL    HW118842   4.297   2.168   0.561
 5981SOL    HW218843   4.205   2.067   0.651
 5982SOL     OW18844   6.169   2.766   1.216
 5982SOL    HW118845   6.134   2.763   1.122
 5982SOL    HW218846   6.143   2.682   1.264
 5983SOL     OW18847   0.222   1.860   3.594
 5983SOL    HW118848   0.129   1.865   3.631
 5983SOL    HW218849   0.266   1.776   3.625
 5984SOL     OW18850   6.598   5.691   1.737
 5984SOL    HW118851   6.593   5.686   1.837
 5984SOL    HW218852   6.510   5.719   1.700
 5985SOL     OW18853   0.275   4.462   2.457
 5985SOL    HW118854   0.363   4.507   2.471
 5985SOL    HW218855   0.214   4.522   2.405
 5986SOL     OW18856   4.106   3.265   3.628
 5986SOL    HW118857   4.041   3.204   3.584
 5986SOL    HW218858   4.192   3.216   3.642
 5987SOL     OW18859   0.041   5.957   3.804
 5987SOL    HW118860   0.103   5.891   3.847
 5987SOL    HW218861   0.071   6.050   3.826
 5988SOL     OW18862   2.020   2.077   0.558
 5988SOL    HW118863   1.939   2.104   0.610
 5988SOL    HW218864   1.994   2.012   0.486
 5989SOL     OW18865   2.746   6.084   6.034
 5989SOL    HW118866   2.798   5.999   6.049
 5989SOL    HW218867   2.785   6.157   6.091
 5990SOL     OW18868   2.503   3.974   1.628
 5990SOL    HW118869   2.539   3.893   1.675
 5990SOL    HW218870   2.498   4.050   1.692
 5991SOL     OW18871   5.225   1.146   0.638
 5991SOL    HW118872   5.187   1.084   0.707
 5991SOL    HW218873   5.167   1.145   0.557
 5992SOL     OW18874   2.523   4.516   2.386
 5992SOL    HW118875   2.582   4.437   2.404
 5992SOL    HW218876   2.571   4.579   2.325
 5993SOL     OW18877   5.816   0.875   0.077
 5993SOL    HW118878   5.864   0.895   7.010
 5993SOL    HW218879   5.745   0.806   0.060
 5994SOL     OW18880   0.733   5.102   1.080
 5994SOL    HW118881   0.645   5.147   1.097
 5994SOL    HW218882   0.731   5.009   1.118
 5995SOL     OW18883   5.450   4.672   1.386
 5995SOL    HW118884   5.532   4.728   1.401
 5995SOL    HW218885   5.467   4.608   1.311
 5996SOL     OW18886   2.488   1.035   1.916
 5996SOL    HW118887   2.567   0.973   1.913
 5996SOL    HW218888   2.520   1.129   1.903
 5997SOL     OW18889   6.717   0.946   4.875
 5997SOL    HW118890   6.752   0.955   4.968
 5997SOL    HW218891   6.635   1.003   4.865
 5998SOL     OW18892   5.819   6.477   0.312
 5998SOL    HW118893   5.816   6.517   0.404
 5998SOL    HW218894   5.871   6.537   0.251
 5999SOL     OW18895   5.812   2.988   0.994
 5999SOL    HW118896   5.737   2.923   0.979
 5999SOL    HW218897   5.830   3.039   0.911
 6000SOL     OW18898   0.449   5.202   2.145
 6000SOL    HW118899   0.389   5.262   2.092
 6000SOL    HW218900   0.406   5.113   2.157
 6001SOL     OW18901   7.017   6.391   5.933
 6001SOL    HW118902   0.021   6.395   6.030
 6001SOL    HW218903   0.073   6.431   5.879
 6002SOL     OW18904   5.680   4.881   4.588
 6002SOL    HW118905   5.737   4.963   4.580
 6002SOL    HW218906   5.659   4.864   4.684
 6003SOL     OW18907   2.393   0.593   4.762
 6003SOL    HW118908   2.387   0.494   4.756
 6003SOL    HW218909   2.306   0.630   4.794
 6004SOL     OW18910   5.220   2.902   4.979
 6004SOL    HW118911   5.150   2.857   5.035
 6004SOL    HW218912   5.302   2.916   5.035
 6005SOL     OW18913   3.926   4.051   0.540
 6005SOL    HW118914   3.917   3.984   0.466
 6005SOL    HW218915   4.009   4.032   0.592
 6006SOL     OW18916   2.889   6.193   5.802
 6006SOL    HW118917   2.828   6.179   5.880
 6006SOL    HW218918   2.958   6.261   5.825
 6007SOL     OW18919   3.046   6.790   4.197
 6007SOL    HW118920   2.962   6.814   4.245
 6007SOL    HW218921   3.024   6.758   4.105
 6008SOL     OW18922   2.277   3.851   6.900
 6008SOL    HW118923   2.249   3.807   6.815
 6008SOL    HW218924   2.198   3.860   6.961
 6009SOL     OW18925   2.234   5.659   2.218
 6009SOL    HW118926   2.188   5.744   2.189
 6009SOL    HW218927   2.219   5.645   2.316
 6010SOL     OW18928   0.232   5.349   5.885
 6010SOL    HW118929   0.321   5.338   5.930
 6010SOL    HW218930   0.217   5.445   5.862
 6011SOL     OW18931   5.727   1.569   3.516
 6011SOL    HW118932   5.735   1.614   3.605
 6011SOL    HW218933   5.799   1.603   3.455
 6012SOL     OW18934   6.428   1.165   5.441
 6012SOL    HW118935   6.479   1.085   5.410
 6012SOL    HW218936   6.396   1.217   5.361
 6013SOL     OW18937   5.835   1.920   2.978
 6013SOL    HW118938   5.895   1.855   3.025
 6013SOL    HW218939   5.743   1.916   3.018
 6014SOL     OW18940   4.049   3.775   4.026
 6014SOL    HW118941   4.056   3.676   4.029
 6014SOL    HW218942   4.104   3.815   4.099
 6015SOL     OW18943   6.855   0.193   3.254
 6015SOL    HW118944   6.908   0.148   3.326
 6015SOL    HW218945   6.848   0.133   3.175
 6016SOL     OW18946   4.284   1.931   4.305
 6016SOL    HW118947   4.368   1.883   4.327
 6016SOL    HW218948   4.305   2.024   4.275
 6017SOL     OW18949   0.986   2.672   5.197
 6017SOL    HW118950   1.044   2.633   5.126
 6017SOL    HW218951   1.043   2.702   5.274
 6018SOL     OW18952   2.272   0.915   3.931
 6018SOL    HW118953   2.223   0.943   3.848
 6018SOL    HW218954   2.241   0.824   3.958
 6019SOL     OW18955   6.568   3.290   6.310
 6019SOL    HW118956   6.528   3.324   6.224
 6019SOL    HW218957   6.498   3.242   6.362
 6020SOL     OW18958   0.416   5.316   4.755
 6020SOL    HW118959   0.458   5.246   4.697
 6020SOL    HW218960   0.459   5.404   4.736
 6021SOL     OW18961   5.110   0.128   3.950
 6021SOL    HW118962   5.145   0.213   3.909
 6021SOL    HW218963   5.159   0.050   3.909
 6022SOL     OW18964   6.457   3.559   1.542
 6022SOL    HW118965   6.510   3.537   1.623
 6022SOL    HW218966   6.470   3.655   1.518
 6023SOL     OW18967   4.040   0.711   3.156
 6023SOL    HW118968   4.101   0.675   3.085
 6023SOL    HW218969   4.072   0.679   3.245
 6024SOL     OW18970   0.252   6.559   6.878
 6024SOL    HW118971   0.254   6.583   6.975
 6024SOL    HW218972   0.279   6.638   6.824
 6025SOL     OW18973   3.379   0.468   5.349
 6025SOL    HW118974   3.400   0.403   5.276
 6025SOL    HW218975   3.333   0.421   5.424
 6026SOL     OW18976   5.041   6.258   3.651
 6026SOL    HW118977   4.961   6.198   3.639
 6026SOL    HW218978   5.040   6.296   3.743
 6027SOL     OW18979   6.095   4.251   5.873
 6027SOL    HW118980   6.019   4.301   5.914
 6027SOL    HW218981   6.118   4.172   5.930
 6028SOL     OW18982   6.219   5.479   6.531
 6028SOL    HW118983   6.225   5.508   6.627
 6028SOL    HW218984   6.223   5.379   6.527
 6029SOL     OW18985   2.500   1.636   2.019
 6029SOL    HW118986   2.597   1.625   2.037
 6029SOL    HW218987   2.451   1.648   2.105
 6030SOL     OW18988   5.908   2.828   5.020
 6030SOL    HW118989   5.944   2.860   4.933
 6030SOL    HW218990   5.868   2.737   5.008
 6031SOL     OW18991   0.039   0.365   3.587
 6031SOL    HW118992   6.982   0.420   3.621
 6031SOL    HW218993   0.003   0.292   3.528
 6032SOL     OW18994   2.891   0.442   3.185
 6032SOL    HW118995   2.976   0.435   3.134
 6032SOL    HW218996   2.815   0.458   3.121
 6033SOL     OW18997   0.894   1.748   2.599
 6033SOL    HW118998   0.947   1.770   2.681
 6033SOL    HW218999   0.908   1.818   2.530
 6034SOL     OW19000   0.996   0.713   0.866
 6034SOL    HW119001   1.061   0.751   0.932
 6034SOL    HW219002   0.925   0.781   0.847
 6035SOL     OW19003   2.074   1.306   2.880
 6035SOL    HW119004   2.088   1.384   2.819
 6035SOL    HW219005   2.084   1.336   2.975
 6036SOL     OW19006   0.322   3.386   0.287
 6036SOL    HW119007   0.376   3.315   0.242
 6036SOL    HW219008   0.231   3.389   0.246
 6037SOL     OW19009   4.243   0.193   6.705
 6037SOL    HW119010   4.149   0.225   6.714
 6037SOL    HW219011   4.295   0.257   6.650
 6038SOL     OW19012   2.482   1.643   0.200
 6038SOL    HW119013   2.498   1.669   0.105
 6038SOL    HW219014   2.565   1.604   0.239
 6039SOL     OW19015   3.430   2.890   4.234
 6039SOL    HW119016   3.439   2.874   4.332
 6039SOL    HW219017   3.333   2.893   4.209
 6040SOL     OW19018   6.952   0.772   0.808
 6040SOL    HW119019   6.969   0.859   0.855
 6040SOL    HW219020   6.999   0.698   0.857
 6041SOL     OW19021   0.516   3.188   4.360
 6041SOL    HW119022   0.471   3.276   4.347
 6041SOL    HW219023   0.485   3.124   4.290
 6042SOL     OW19024   3.032   5.950   2.724
 6042SOL    HW119025   3.047   5.925   2.820
 6042SOL    HW219026   3.052   5.871   2.666
 6043SOL     OW19027   1.835   4.625   1.001
 6043SOL    HW119028   1.882   4.537   1.012
 6043SOL    HW219029   1.771   4.638   1.077
 6044SOL     OW19030   6.493   4.054   0.015
 6044SOL    HW119031   6.410   4.031   0.066
 6044SOL    HW219032   6.474   4.050   6.935
 6045SOL     OW19033   4.451   1.183   3.825
 6045SOL    HW119034   4.416   1.235   3.747
 6045SOL    HW219035   4.379   1.175   3.894
 6046SOL     OW19036   3.528   3.827   2.353
 6046SOL    HW119037   3.517   3.850   2.450
 6046SOL    HW219038   3.521   3.910   2.298
 6047SOL     OW19039   0.065   1.526   0.907
 6047SOL    HW119040   0.027   1.438   0.935
 6047SOL    HW219041   0.144   1.548   0.965
 6048SOL     OW19042   6.139   5.854   3.699
 6048SOL    HW119043   6.221   5.910   3.711
 6048SOL    HW219044   6.059   5.904   3.731
 6049SOL     OW19045   5.636   4.778   0.174
 6049SOL    HW119046   5.722   4.765   0.125
 6049SOL    HW219047   5.575   4.700   0.155
 6050SOL     OW19048   2.338   5.598   3.263
 6050SOL    HW119049   2.311   5.581   3.168
 6050SOL    HW219050   2.260   5.634   3.313
 6051SOL     OW19051   0.323   2.025   2.899
 6051SOL    HW119052   0.225   2.010   2.911
 6051SOL    HW219053   0.357   1.968   2.824
 6052SOL     OW19054   5.122   5.905   6.869
 6052SOL    HW119055   5.157   5.974   6.806
 6052SOL    HW219056   5.100   5.822   6.818
 6053SOL     OW19057   3.726   1.916   5.848
 6053SOL    HW119058   3.782   1.950   5.773
 6053SOL    HW219059   3.629   1.929   5.827
 6054SOL     OW19060   4.148   3.755   6.368
 6054SOL    HW119061   4.217   3.773   6.438
 6054SOL    HW219062   4.118   3.841   6.328
 6055SOL     OW19063   3.092   4.673   1.764
 6055SOL    HW119064   3.041   4.597   1.805
 6055SOL    HW219065   3.033   4.724   1.701
 6056SOL     OW19066   5.004   6.537   3.140
 6056SOL    HW119067   4.951   6.566   3.220
 6056SOL    HW219068   5.101   6.533   3.165
 6057SOL     OW19069   5.578   1.163   4.042
 6057SOL    HW119070   5.592   1.232   4.113
 6057SOL    HW219071   5.544   1.207   3.959
 6058SOL     OW19072   6.632   3.597   6.417
 6058SOL    HW119073   6.653   3.520   6.357
 6058SOL    HW219074   6.581   3.666   6.366
 6059SOL     OW19075   4.464   2.217   6.221
 6059SOL    HW119076   4.379   2.200   6.172
 6059SOL    HW219077   4.457   2.303   6.272
 6060SOL     OW19078   2.356   2.011   1.412
 6060SOL    HW119079   2.323   2.074   1.482
 6060SOL    HW219080   2.416   2.060   1.349
 6061SOL     OW19081   2.392   4.594   6.616
 6061SOL    HW119082   2.410   4.510   6.666
 6061SOL    HW219083   2.295   4.600   6.594
 6062SOL     OW19084   2.002   2.324   5.155
 6062SOL    HW119085   2.034   2.417   5.137
 6062SOL    HW219086   1.903   2.319   5.140
 6063SOL     OW19087   4.320   3.460   5.681
 6063SOL    HW119088   4.274   3.549   5.683
 6063SOL    HW219089   4.412   3.472   5.645
 6064SOL     OW19090   5.717   5.621   0.052
 6064SOL    HW119091   5.667   5.634   0.137
 6064SOL    HW219092   5.708   5.526   0.021
 6065SOL     OW19093   1.462   5.509   1.426
 6065SOL    HW119094   1.484   5.445   1.352
 6065SOL    HW219095   1.363   5.522   1.429
 6066SOL     OW19096   4.997   5.738   3.084
 6066SOL    HW119097   4.965   5.816   3.030
 6066SOL    HW219098   4.936   5.660   3.070
 6067SOL     OW19099   6.599   4.630   5.373
 6067SOL    HW119100   6.589   4.729   5.364
 6067SOL    HW219101   6.559   4.600   5.459
 6068SOL     OW19102   4.747   2.094   3.608
 6068SOL    HW119103   4.789   2.136   3.527
 6068SOL    HW219104   4.799   2.120   3.689
 6069SOL     OW19105   1.198   5.270   5.670
 6069SOL    HW119106   1.126   5.339   5.669
 6069SOL    HW219107   1.271   5.298   5.608
 6070SOL     OW19108   2.566   0.864   1.293
 6070SOL    HW119109   2.512   0.925   1.352
 6070SOL    HW219110   2.541   0.769   1.312
 6071SOL     OW19111   6.559   6.884   6.556
 6071SOL    HW119112   6.631   6.818   6.541
 6071SOL    HW219113   6.487   6.843   6.613
 6072SOL     OW19114   0.546   2.669   6.858
 6072SOL    HW119115   0.460   2.711   6.831
 6072SOL    HW219116   0.615   2.683   6.786
 6073SOL     OW19117   4.396   4.452   6.821
 6073SOL    HW119118   4.350   4.539   6.805
 6073SOL    HW219119   4.461   4.434   6.747
 6074SOL     OW19120   1.680   6.090   2.007
 6074SOL    HW119121   1.740   6.011   2.019
 6074SOL    HW219122   1.673   6.141   2.093
 6075SOL     OW19123   6.827   6.707   6.954
 6075SOL    HW119124   6.864   6.684   0.026
 6075SOL    HW219125   6.762   6.783   6.963
 6076SOL     OW19126   0.056   6.440   2.919
 6076SOL    HW119127   0.085   6.510   2.854
 6076SOL    HW219128   0.137   6.392   2.955
 6077SOL     OW19129   4.941   5.984   2.941
 6077SOL    HW119130   4.983   6.070   2.971
 6077SOL    HW219131   4.845   5.982   2.968
 6078SOL     OW19132   5.525   4.094   0.608
 6078SOL    HW119133   5.488   4.009   0.572
 6078SOL    HW219134   5.473   4.171   0.571
 6079SOL     OW19135   3.375   1.682   6.986
 6079SOL    HW119136   3.414   1.760   6.936
 6079SOL    HW219137   3.424   1.671   0.054
 6080SOL     OW19138   6.139   3.275   5.566
 6080SOL    HW119139   6.082   3.200   5.600
 6080SOL    HW219140   6.148   3.268   5.467
 6081SOL     OW19141   2.015   4.509   3.991
 6081SOL    HW119142   1.994   4.605   3.974
 6081SOL    HW219143   2.083   4.502   4.064
 6082SOL     OW19144   4.240   1.469   0.931
 6082SOL    HW119145   4.193   1.556   0.922
 6082SOL    HW219146   4.328   1.482   0.978
 6083SOL     OW19147   5.001   0.923   5.453
 6083SOL    HW119148   5.050   1.008   5.467
 6083SOL    HW219149   4.906   0.942   5.431
 6084SOL     OW19150   6.326   4.916   3.254
 6084SOL    HW119151   6.423   4.929   3.238
 6084SOL    HW219152   6.312   4.869   3.341
 6085SOL     OW19153   0.918   6.261   1.410
 6085SOL    HW119154   0.959   6.321   1.478
 6085SOL    HW219155   0.966   6.271   1.323
 6086SOL     OW19156   4.851   3.077   0.508
 6086SOL    HW119157   4.762   3.088   0.464
 6086SOL    HW219158   4.904   3.007   0.461
 6087SOL     OW19159   3.946   1.172   6.663
 6087SOL    HW119160   3.879   1.101   6.643
 6087SOL    HW219161   3.923   1.216   6.749
 6088SOL     OW19162   3.877   6.289   2.599
 6088SOL    HW119163   3.976   6.302   2.602
 6088SOL    HW219164   3.854   6.202   2.643
 6089SOL     OW19165   6.053   5.401   2.692
 6089SOL    HW119166   6.116   5.359   2.758
 6089SOL    HW219167   5.984   5.454   2.741
 6090SOL     OW19168   3.786   5.848   4.599
 6090SOL    HW119169   3.820   5.936   4.566
 6090SOL    HW219170   3.807   5.776   4.532
 6091SOL     OW19171   0.362   2.735   2.122
 6091SOL    HW119172   0.433   2.767   2.185
 6091SOL    HW219173   0.278   2.788   2.136
 6092SOL     OW19174   1.897   6.729   0.881
 6092SOL    HW119175   1.894   6.815   0.830
 6092SOL    HW219176   1.883   6.653   0.818
 6093SOL     OW19177   3.639   3.332   2.444
 6093SOL    HW119178   3.673   3.423   2.418
 6093SOL    HW219179   3.656   3.316   2.541
 6094SOL     OW19180   0.418   6.956   5.649
 6094SOL    HW119181   0.510   6.932   5.679
 6094SOL    HW219182   0.400   6.915   5.559
 6095SOL     OW19183   5.298   4.903   2.291
 6095SOL    HW119184   5.359   4.858   2.356
 6095SOL    HW219185   5.333   4.994   2.270
 6096SOL     OW19186   4.757   6.182   3.136
 6096SOL    HW119187   4.830   6.200   3.202
 6096SOL    HW219188   4.757   6.252   3.065
 6097SOL     OW19189   1.688   5.039   0.712
 6097SOL    HW119190   1.718   4.980   0.787
 6097SOL    HW219191   1.618   5.103   0.744
 6098SOL     OW19192   5.856   1.793   5.204
 6098SOL    HW119193   5.870   1.807   5.302
 6098SOL    HW219194   5.887   1.701   5.180
 6099SOL     OW19195   3.368   6.861   5.660
 6099SOL    HW119196   3.444   6.846   5.597
 6099SOL    HW219197   3.285   6.819   5.624
 6100SOL     OW19198   6.708   5.595   5.800
 6100SOL    HW119199   6.657   5.603   5.886
 6100SOL    HW219200   6.700   5.680   5.748
 6101SOL     OW19201   1.189   2.744   0.562
 6101SOL    HW119202   1.152   2.724   0.472
 6101SOL    HW219203   1.116   2.742   0.630
 6102SOL     OW19204   2.548   0.457   2.647
 6102SOL    HW119205   2.634   0.508   2.647
 6102SOL    HW219206   2.567   0.360   2.630
 6103SOL     OW19207   5.690   0.377   2.862
 6103SOL    HW119208   5.632   0.407   2.787
 6103SOL    HW219209   5.728   0.457   2.909
 6104SOL     OW19210   0.084   0.483   5.284
 6104SOL    HW119211   0.100   0.406   5.347
 6104SOL    HW219212   0.133   0.467   5.199
 6105SOL     OW19213   3.919   4.904   6.541
 6105SOL    HW119214   3.869   4.953   6.470
 6105SOL    HW219215   3.954   4.969   6.608
 6106SOL     OW19216   6.379   3.762   5.404
 6106SOL    HW119217   6.388   3.704   5.485
 6106SOL    HW219218   6.430   3.722   5.328
 6107SOL     OW19219   6.564   4.595   4.916
 6107SOL    HW119220   6.496   4.543   4.864
 6107SOL    HW219221   6.519   4.667   4.969
 6108SOL     OW19222   3.352   0.466   6.100
 6108SOL    HW119223   3.267   0.482   6.150
 6108SOL    HW219224   3.397   0.384   6.135
 6109SOL     OW19225   6.302   6.467   3.593
 6109SOL    HW119226   6.352   6.480   3.507
 6109SOL    HW219227   6.341   6.526   3.663
 6110SOL     OW19228   0.656   1.869   4.024
 6110SOL    HW119229   0.567   1.830   4.050
 6110SOL    HW219230   0.683   1.939   4.091
 6111SOL     OW19231   2.936   3.061   1.131
 6111SOL    HW119232   2.881   3.141   1.152
 6111SOL    HW219233   3.015   3.088   1.077
 6112SOL     OW19234   4.789   5.809   4.006
 6112SOL    HW119235   4.872   5.779   3.961
 6112SOL    HW219236   4.765   5.744   4.078
 6113SOL     OW19237   3.468   4.971   1.318
 6113SOL    HW119238   3.429   4.967   1.225
 6113SOL    HW219239   3.522   5.054   1.327
 6114SOL     OW19240   4.979   3.580   1.523
 6114SOL    HW119241   4.977   3.670   1.566
 6114SOL    HW219242   4.907   3.523   1.562
 6115SOL     OW19243   6.066   1.178   4.532
 6115SOL    HW119244   6.146   1.168   4.474
 6115SOL    HW219245   5.989   1.130   4.491
 6116SOL     OW19246   6.088   2.445   0.459
 6116SOL    HW119247   6.188   2.443   0.454
 6116SOL    HW219248   6.054   2.519   0.402
 6117SOL     OW19249   3.210   2.287   1.241
 6117SOL    HW119250   3.226   2.285   1.340
 6117SOL    HW219251   3.288   2.330   1.196
 6118SOL     OW19252   6.134   0.300   1.561
 6118SOL    HW119253   6.141   0.217   1.617
 6118SOL    HW219254   6.041   0.309   1.526
 6119SOL     OW19255   0.588   1.187   6.020
 6119SOL    HW119256   0.564   1.234   6.105
 6119SOL    HW219257   0.511   1.192   5.957
 6120SOL     OW19258   3.341   1.308   3.575
 6120SOL    HW119259   3.341   1.387   3.513
 6120SOL    HW219260   3.284   1.328   3.654
 6121SOL     OW19261   4.160   0.907   5.626
 6121SOL    HW119262   4.222   0.833   5.599
 6121SOL    HW219263   4.072   0.896   5.581
 6122SOL     OW19264   4.619   4.401   4.907
 6122SOL    HW119265   4.639   4.482   4.852
 6122SOL    HW219266   4.524   4.405   4.939
 6123SOL     OW19267   6.526   1.653   5.472
 6123SOL    HW119268   6.484   1.705   5.397
 6123SOL    HW219269   6.585   1.582   5.434
 6124SOL     OW19270   2.093   6.163   3.652
 6124SOL    HW119271   2.077   6.220   3.734
 6124SOL    HW219272   2.160   6.208   3.593
 6125SOL     OW19273   2.933   1.122   5.883
 6125SOL    HW119274   3.009   1.113   5.819
 6125SOL    HW219275   2.968   1.124   5.977
 6126SOL     OW19276   6.225   2.932   6.526
 6126SOL    HW119277   6.275   2.865   6.471
 6126SOL    HW219278   6.131   2.901   6.540
 6127SOL     OW19279   5.009   2.061   3.039
 6127SOL    HW119280   4.948   1.986   3.063
 6127SOL    HW219281   4.964   2.124   2.976
 6128SOL     OW19282   5.987   5.514   4.731
 6128SOL    HW119283   6.060   5.483   4.792
 6128SOL    HW219284   5.898   5.502   4.775
 6129SOL     OW19285   2.334   5.915   3.138
 6129SOL    HW119286   2.255   5.972   3.114
 6129SOL    HW219287   2.379   5.884   3.054
 6130SOL     OW19288   6.825   2.397   0.088
 6130SOL    HW119289   6.759   2.366   0.020
 6130SOL    HW219290   6.916   2.403   0.046
 6131SOL     OW19291   6.093   3.096   2.292
 6131SOL    HW119292   6.191   3.075   2.299
 6131SOL    HW219293   6.063   3.083   2.198
 6132SOL     OW19294   4.686   5.934   6.702
 6132SOL    HW119295   4.660   5.988   6.782
 6132SOL    HW219296   4.608   5.925   6.641
 6133SOL     OW19297   0.135   2.730   3.721
 6133SOL    HW119298   0.133   2.634   3.693
 6133SOL    HW219299   0.085   2.786   3.655
 6134SOL     OW19300   0.864   6.946   4.650
 6134SOL    HW119301   0.907   0.018   4.646
 6134SOL    HW219302   0.897   6.891   4.573
 6135SOL     OW19303   6.196   6.376   0.213
 6135SOL    HW119304   6.229   6.469   0.233
 6135SOL    HW219305   6.104   6.365   0.251
 6136SOL     OW19306   0.809   2.510   2.807
 6136SOL    HW119307   0.716   2.548   2.806
 6136SOL    HW219308   0.875   2.585   2.798
 6137SOL     OW19309   0.071   4.816   1.024
 6137SOL    HW119310   6.992   4.793   1.021
 6137SOL    HW219311   0.091   4.886   0.956
 6138SOL     OW19312   4.939   0.814   2.727
 6138SOL    HW119313   4.901   0.740   2.783
 6138SOL    HW219314   5.019   0.780   2.678
 6139SOL     OW19315   1.736   2.016   5.604
 6139SOL    HW119316   1.669   1.990   5.674
 6139SOL    HW219317   1.699   1.993   5.514
 6140SOL     OW19318   2.222   0.558   3.800
 6140SOL    HW119319   2.130   0.519   3.806
 6140SOL    HW219320   2.239   0.591   3.707
 6141SOL     OW19321   1.203   0.461   0.548
 6141SOL    HW119322   1.104   0.466   0.533
 6141SOL    HW219323   1.222   0.400   0.625
 6142SOL     OW19324   0.257   0.146   1.514
 6142SOL    HW119325   0.252   0.206   1.594
 6142SOL    HW219326   0.284   0.199   1.434
 6143SOL     OW19327   1.592   2.968   5.464
 6143SOL    HW119328   1.660   2.973   5.391
 6143SOL    HW219329   1.532   3.048   5.459
 6144SOL     OW19330   3.432   6.174   2.650
 6144SOL    HW119331   3.447   6.131   2.738
 6144SOL    HW219332   3.456   6.110   2.577
 6145SOL     OW19333   5.700   3.363   4.154
 6145SOL    HW119334   5.677   3.397   4.063
 6145SOL    HW219335   5.681   3.265   4.159
 6146SOL     OW19336   6.223   1.451   5.723
 6146SOL    HW119337   6.266   1.361   5.724
 6146SOL    HW219338   6.186   1.471   5.814
 6147SOL     OW19339   1.169   1.666   5.416
 6147SOL    HW119340   1.105   1.713   5.355
 6147SOL    HW219341   1.209   1.588   5.368
 6148SOL     OW19342   4.005   5.132   6.700
 6148SOL    HW119343   4.037   5.224   6.724
 6148SOL    HW219344   3.986   5.081   6.783
 6149SOL     OW19345   4.095   1.719   1.684
 6149SOL    HW119346   4.021   1.725   1.752
 6149SOL    HW219347   4.123   1.624   1.673
 6150SOL     OW19348   0.684   4.743   3.850
 6150SOL    HW119349   0.782   4.758   3.860
 6150SOL    HW219350   0.661   4.731   3.754
 6151SOL     OW19351   3.962   5.259   2.290
 6151SOL    HW119352   4.024   5.310   2.230
 6151SOL    HW219353   4.011   5.181   2.329
 6152SOL     OW19354   0.464   3.925   3.180
 6152SOL    HW119355   0.477   3.831   3.209
 6152SOL    HW219356   0.368   3.940   3.155
 6153SOL     OW19357   5.882   6.351   1.542
 6153SOL    HW119358   5.922   6.375   1.631
 6153SOL    HW219359   5.816   6.420   1.515
 6154SOL     OW19360   3.653   5.341   2.734
 6154SOL    HW119361   3.693   5.268   2.679
 6154SOL    HW219362   3.570   5.307   2.779
 6155SOL     OW19363   1.746   1.867   4.336
 6155SOL    HW119364   1.724   1.791   4.275
 6155SOL    HW219365   1.803   1.933   4.288
 6156SOL     OW19366   4.492   4.495   2.730
 6156SOL    HW119367   4.467   4.453   2.817
 6156SOL    HW219368   4.459   4.590   2.728
 6157SOL     OW19369   0.568   2.409   1.521
 6157SOL    HW119370   0.547   2.427   1.617
 6157SOL    HW219371   0.651   2.354   1.514
 6158SOL     OW19372   3.326   0.580   6.480
 6158SOL    HW119373   3.294   0.554   6.571
 6158SOL    HW219374   3.257   0.555   6.412
 6159SOL     OW19375   6.682   1.466   0.746
 6159SOL    HW119376   6.626   1.395   0.704
 6159SOL    HW219377   6.749   1.500   0.680
 6160SOL     OW19378   1.233   6.845   0.834
 6160SOL    HW119379   1.133   6.837   0.838
 6160SOL    HW219380   1.261   6.854   0.738
 6161SOL     OW19381   6.262   4.022   0.159
 6161SOL    HW119382   6.181   4.069   0.124
 6161SOL    HW219383   6.234   3.954   0.227
 6162SOL     OW19384   6.212   6.086   1.254
 6162SOL    HW119385   6.131   6.030   1.236
 6162SOL    HW219386   6.228   6.147   1.177
 6163SOL     OW19387   5.213   5.516   2.777
 6163SOL    HW119388   5.303   5.482   2.803
 6163SOL    HW219389   5.152   5.513   2.856
 6164SOL     OW19390   3.427   4.165   4.534
 6164SOL    HW119391   3.475   4.250   4.555
 6164SOL    HW219392   3.466   4.125   4.452
 6165SOL     OW19393   3.617   0.457   0.072
 6165SOL    HW119394   3.575   0.417   0.154
 6165SOL    HW219395   3.639   0.385   0.007
 6166SOL     OW19396   3.226   1.442   5.732
 6166SOL    HW119397   3.136   1.470   5.766
 6166SOL    HW219398   3.250   1.353   5.771
 6167SOL     OW19399   1.336   3.670   2.401
 6167SOL    HW119400   1.409   3.713   2.347
 6167SOL    HW219401   1.274   3.621   2.341
 6168SOL     OW19402   0.519   3.887   3.961
 6168SOL    HW119403   0.477   3.825   3.895
 6168SOL    HW219404   0.484   3.980   3.946
 6169SOL     OW19405   2.656   1.231   0.979
 6169SOL    HW119406   2.643   1.329   0.969
 6169SOL    HW219407   2.680   1.190   0.891
 6170SOL     OW19408   2.675   4.593   0.958
 6170SOL    HW119409   2.598   4.547   1.003
 6170SOL    HW219410   2.754   4.592   1.019
 6171SOL     OW19411   2.260   4.230   2.038
 6171SOL    HW119412   2.329   4.245   1.967
 6171SOL    HW219413   2.244   4.132   2.049
 6172SOL     OW19414   2.358   4.951   1.824
 6172SOL    HW119415   2.380   5.044   1.795
 6172SOL    HW219416   2.263   4.947   1.855
 6173SOL     OW19417   0.867   5.486   2.841
 6173SOL    HW119418   0.814   5.484   2.926
 6173SOL    HW219419   0.887   5.580   2.816
 6174SOL     OW19420   6.068   4.492   1.714
 6174SOL    HW119421   6.153   4.445   1.740
 6174SOL    HW219422   6.086   4.554   1.638
 6175SOL     OW19423   5.370   7.013   4.154
 6175SOL    HW119424   5.465   0.010   4.181
 6175SOL    HW219425   5.346   6.917   4.171
 6176SOL     OW19426   6.981   3.214   0.476
 6176SOL    HW119427   6.928   3.269   0.540
 6176SOL    HW219428   6.941   3.220   0.385
 6177SOL     OW19429   6.162   2.408   2.552
 6177SOL    HW119430   6.120   2.317   2.548
 6177SOL    HW219431   6.228   2.417   2.477
 6178SOL     OW19432   6.867   3.612   0.784
 6178SOL    HW119433   6.967   3.616   0.786
 6178SOL    HW219434   6.834   3.575   0.870
 6179SOL     OW19435   0.640   1.521   5.779
 6179SOL    HW119436   0.649   1.436   5.727
 6179SOL    HW219437   0.608   1.594   5.719
 6180SOL     OW19438   3.203   0.839   6.580
 6180SOL    HW119439   3.201   0.749   6.537
 6180SOL    HW219440   3.297   0.873   6.583
 6181SOL     OW19441   4.326   6.560   6.194
 6181SOL    HW119442   4.266   6.481   6.205
 6181SOL    HW219443   4.313   6.623   6.271
 6182SOL     OW19444   4.611   0.129   5.424
 6182SOL    HW119445   4.530   0.171   5.465
 6182SOL    HW219446   4.615   0.032   5.449
 6183SOL     OW19447   2.584   7.006   2.386
 6183SOL    HW119448   2.636   0.042   2.320
 6183SOL    HW219449   2.487   7.008   2.362
 6184SOL     OW19450   6.846   0.391   5.336
 6184SOL    HW119451   6.916   0.462   5.345
 6184SOL    HW219452   6.760   0.423   5.375
 6185SOL     OW19453   2.553   2.500   0.085
 6185SOL    HW119454   2.637   2.534   0.041
 6185SOL    HW219455   2.565   2.404   0.110
 6186SOL     OW19456   4.113   1.358   4.127
 6186SOL    HW119457   4.086   1.321   4.216
 6186SOL    HW219458   4.047   1.427   4.098
 6187SOL     OW19459   3.241   5.031   4.552
 6187SOL    HW119460   3.281   4.991   4.469
 6187SOL    HW219461   3.306   5.023   4.627
 6188SOL     OW19462   2.593   0.188   2.592
 6188SOL    HW119463   2.532   0.126   2.543
 6188SOL    HW219464   2.688   0.163   2.573
 6189SOL     OW19465   5.468   4.774   3.085
 6189SOL    HW119466   5.436   4.841   3.152
 6189SOL    HW219467   5.540   4.717   3.125
 6190SOL     OW19468   5.403   3.069   5.478
 6190SOL    HW119469   5.306   3.095   5.477
 6190SOL    HW219470   5.457   3.143   5.438
 6191SOL     OW19471   0.302   1.535   6.416
 6191SOL    HW119472   0.302   1.617   6.358
 6191SOL    HW219473   0.210   1.518   6.450
 6192SOL     OW19474   3.328   1.825   0.397
 6192SOL    HW119475   3.284   1.915   0.404
 6192SOL    HW219476   3.323   1.779   0.485
 6193SOL     OW19477   0.083   6.960   1.560
 6193SOL    HW119478   0.098   6.963   1.658
 6193SOL    HW219479   0.141   0.009   1.515
 6194SOL     OW19480   3.003   0.520   1.397
 6194SOL    HW119481   3.046   0.562   1.317
 6194SOL    HW219482   3.037   0.565   1.480
 6195SOL     OW19483   2.335   0.690   5.546
 6195SOL    HW119484   2.412   0.750   5.570
 6195SOL    HW219485   2.369   0.599   5.522
 6196SOL     OW19486   1.308   1.907   5.537
 6196SOL    HW119487   1.219   1.952   5.540
 6196SOL    HW219488   1.308   1.836   5.467
 6197SOL     OW19489   2.632   2.732   1.511
 6197SOL    HW119490   2.611   2.790   1.590
 6197SOL    HW219491   2.693   2.658   1.540
 6198SOL     OW19492   3.044   5.685   2.127
 6198SOL    HW119493   3.086   5.732   2.049
 6198SOL    HW219494   2.962   5.637   2.096
 6199SOL     OW19495   0.216   0.406   6.687
 6199SOL    HW119496   0.201   0.370   6.595
 6199SOL    HW219497   0.313   0.399   6.710
 6200SOL     OW19498   4.016   0.544   5.716
 6200SOL    HW119499   3.952   0.492   5.773
 6200SOL    HW219500   4.109   0.511   5.733
 6201SOL     OW19501   2.400   5.450   4.700
 6201SOL    HW119502   2.440   5.445   4.608
 6201SOL    HW219503   2.449   5.388   4.761
 6202SOL     OW19504   2.040   2.522   1.186
 6202SOL    HW119505   2.105   2.471   1.242
 6202SOL    HW219506   2.084   2.548   1.100
 6203SOL     OW19507   5.810   2.308   4.394
 6203SOL    HW119508   5.758   2.261   4.323
 6203SOL    HW219509   5.748   2.338   4.466
 6204SOL     OW19510   1.199   6.956   5.420
 6204SOL    HW119511   1.170   6.865   5.451
 6204SOL    HW219512   1.194   0.002   5.496
 6205SOL     OW19513   4.219   6.621   6.821
 6205SOL    HW119514   4.254   6.602   6.913
 6205SOL    HW219515   4.296   6.624   6.757
 6206SOL     OW19516   4.510   6.980   3.611
 6206SOL    HW119517   4.425   6.946   3.572
 6206SOL    HW219518   4.526   6.937   3.700
 6207SOL     OW19519   2.296   4.222   4.540
 6207SOL    HW119520   2.219   4.236   4.603
 6207SOL    HW219521   2.272   4.152   4.473
 6208SOL     OW19522   5.126   4.525   5.738
 6208SOL    HW119523   5.041   4.517   5.791
 6208SOL    HW219524   5.104   4.537   5.641
 6209SOL     OW19525   1.642   5.690   0.857
 6209SOL    HW119526   1.664   5.748   0.935
 6209SOL    HW219527   1.573   5.622   0.883
 6210SOL     OW19528   0.122   4.303   2.936
 6210SOL    HW119529   0.108   4.370   2.863
 6210SOL    HW219530   0.185   4.232   2.904
 6211SOL     OW19531   2.631   0.199   4.760
 6211SOL    HW119532   2.631   0.264   4.684
 6211SOL    HW219533   2.549   0.213   4.816
 6212SOL     OW19534   6.476   0.796   4.304
 6212SOL    HW119535   6.536   0.782   4.225
 6212SOL    HW219536   6.512   0.868   4.362
 6213SOL     OW19537   6.810   6.626   0.195
 6213SOL    HW119538   6.725   6.678   0.204
 6213SOL    HW219539   6.811   6.551   0.261
 6214SOL     OW19540   4.802   4.349   1.690
 6214SOL    HW119541   4.900   4.337   1.699
 6214SOL    HW219542   4.763   4.375   1.778
 6215SOL     OW19543   3.546   4.528   1.429
 6215SOL    HW119544   3.476   4.468   1.468
 6215SOL    HW219545   3.583   4.587   1.501
 6216SOL     OW19546   6.188   1.728   2.693
 6216SOL    HW119547   6.210   1.690   2.603
 6216SOL    HW219548   6.090   1.751   2.696
 6217SOL     OW19549   4.366   1.836   1.684
 6217SOL    HW119550   4.292   1.770   1.669
 6217SOL    HW219551   4.447   1.789   1.718
 6218SOL     OW19552   4.500   5.948   4.484
 6218SOL    HW119553   4.508   6.036   4.438
 6218SOL    HW219554   4.403   5.929   4.504
 6219SOL     OW19555   0.246   1.024   4.634
 6219SOL    HW119556   0.313   0.957   4.667
 6219SOL    HW219557   0.282   1.116   4.647
 6220SOL     OW19558   0.899   3.488   4.932
 6220SOL    HW119559   0.986   3.527   4.963
 6220SOL    HW219560   0.915   3.433   4.850
 6221SOL     OW19561   4.530   4.524   4.297
 6221SOL    HW119562   4.454   4.561   4.245
 6221SOL    HW219563   4.615   4.533   4.244
 6222SOL     OW19564   6.740   1.807   1.252
 6222SOL    HW119565   6.790   1.874   1.307
 6222SOL    HW219566   6.791   1.721   1.252
 6223SOL     OW19567   5.187   4.432   3.586
 6223SOL    HW119568   5.125   4.354   3.588
 6223SOL    HW219569   5.227   4.440   3.494
 6224SOL     OW19570   2.656   0.192   4.076
 6224SOL    HW119571   2.687   0.168   3.985
 6224SOL    HW219572   2.563   0.230   4.072
 6225SOL     OW19573   4.024   1.637   6.670
 6225SOL    HW119574   4.101   1.679   6.720
 6225SOL    HW219575   3.960   1.597   6.736
 6226SOL     OW19576   6.927   5.794   4.525
 6226SOL    HW119577   6.892   5.872   4.577
 6226SOL    HW219578   6.851   5.747   4.481
 6227SOL     OW19579   2.733   4.082   6.752
 6227SOL    HW119580   2.742   4.011   6.683
 6227SOL    HW219581   2.644   4.072   6.798
 6228SOL     OW19582   6.995   2.602   2.979
 6228SOL    HW119583   6.918   2.539   2.981
 6228SOL    HW219584   6.962   2.696   2.967
 6229SOL     OW19585   1.425   2.776   2.409
 6229SOL    HW119586   1.501   2.823   2.365
 6229SOL    HW219587   1.421   2.682   2.378
 6230SOL     OW19588   2.149   2.614   3.885
 6230SOL    HW119589   2.061   2.615   3.932
 6230SOL    HW219590   2.135   2.590   3.789
 6231SOL     OW19591   6.423   4.411   2.319
 6231SOL    HW119592   6.478   4.464   2.254
 6231SOL    HW219593   6.470   4.325   2.339
 6232SOL     OW19594   1.163   0.680   0.198
 6232SOL    HW119595   1.178   0.764   0.249
 6232SOL    HW219596   1.066   0.668   0.180
 6233SOL     OW19597   4.096   0.847   6.441
 6233SOL    HW119598   4.192   0.818   6.445
 6233SOL    HW219599   4.078   0.889   6.352
 6234SOL     OW19600   2.767   2.354   3.338
 6234SOL    HW119601   2.732   2.264   3.364
 6234SOL    HW219602   2.842   2.379   3.400
 6235SOL     OW19603   2.052   5.506   1.456
 6235SOL    HW119604   2.109   5.554   1.522
 6235SOL    HW219605   2.005   5.430   1.502
 6236SOL     OW19606   0.419   3.939   0.014
 6236SOL    HW119607   0.362   3.913   0.092
 6236SOL    HW219608   0.371   3.917   6.948
 6237SOL     OW19609   3.510   6.094   6.135
 6237SOL    HW119610   3.483   6.178   6.182
 6237SOL    HW219611   3.472   6.015   6.183
 6238SOL     OW19612   5.025   3.522   1.254
 6238SOL    HW119613   5.026   3.550   1.350
 6238SOL    HW219614   5.094   3.451   1.239
 6239SOL     OW19615   3.519   6.074   3.976
 6239SOL    HW119616   3.473   6.102   3.892
 6239SOL    HW219617   3.479   5.987   4.007
 6240SOL     OW19618   2.239   4.362   0.310
 6240SOL    HW119619   2.329   4.401   0.295
 6240SOL    HW219620   2.234   4.322   0.401
 6241SOL     OW19621   4.296   7.003   2.775
 6241SOL    HW119622   4.283   6.905   2.790
 6241SOL    HW219623   4.269   0.035   2.857
 6242SOL     OW19624   3.440   2.104   2.462
 6242SOL    HW119625   3.457   2.124   2.365
 6242SOL    HW219626   3.507   2.036   2.493
 6243SOL     OW19627   6.221   5.986   2.799
 6243SOL    HW119628   6.287   5.924   2.841
 6243SOL    HW219629   6.266   6.071   2.772
 6244SOL     OW19630   1.339   1.911   1.487
 6244SOL    HW119631   1.260   1.961   1.523
 6244SOL    HW219632   1.339   1.818   1.523
 6245SOL     OW19633   2.476   3.493   0.222
 6245SOL    HW119634   2.474   3.564   0.152
 6245SOL    HW219635   2.418   3.519   0.299
 6246SOL     OW19636   4.247   6.565   0.080
 6246SOL    HW119637   4.317   6.624   0.119
 6246SOL    HW219638   4.164   6.569   0.136
 6247SOL     OW19639   6.400   6.944   2.740
 6247SOL    HW119640   6.301   6.952   2.729
 6247SOL    HW219641   6.428   6.849   2.725
 6248SOL     OW19642   1.040   5.421   0.787
 6248SOL    HW119643   1.116   5.445   0.848
 6248SOL    HW219644   1.049   5.470   0.701
 6249SOL     OW19645   6.513   2.907   6.059
 6249SOL    HW119646   6.433   2.964   6.040
 6249SOL    HW219647   6.595   2.964   6.062
 6250SOL     OW19648   6.886   4.106   6.398
 6250SOL    HW119649   6.967   4.052   6.372
 6250SOL    HW219650   6.883   4.189   6.344
 6251SOL     OW19651   4.643   1.230   0.469
 6251SOL    HW119652   4.640   1.295   0.545
 6251SOL    HW219653   4.737   1.219   0.438
 6252SOL     OW19654   1.721   6.463   5.358
 6252SOL    HW119655   1.817   6.459   5.331
 6252SOL    HW219656   1.680   6.548   5.324
 6253SOL     OW19657   2.462   3.635   1.429
 6253SOL    HW119658   2.394   3.587   1.486
 6253SOL    HW219659   2.425   3.723   1.401
 6254SOL     OW19660   5.601   0.381   0.077
 6254SOL    HW119661   5.698   0.372   0.099
 6254SOL    HW219662   5.553   0.298   0.105
 6255SOL     OW19663   0.690   3.726   2.839
 6255SOL    HW119664   0.706   3.666   2.761
 6255SOL    HW219665   0.774   3.776   2.861
 6256SOL     OW19666   4.356   5.267   4.465
 6256SOL    HW119667   4.300   5.185   4.475
 6256SOL    HW219668   4.416   5.276   4.544
 6257SOL     OW19669   4.182   3.056   6.672
 6257SOL    HW119670   4.095   3.061   6.623
 6257SOL    HW219671   4.229   3.144   6.666
 6258SOL     OW19672   4.557   1.817   3.174
 6258SOL    HW119673   4.548   1.908   3.134
 6258SOL    HW219674   4.546   1.748   3.103
 6259SOL     OW19675   3.509   2.391   1.666
 6259SOL    HW119676   3.418   2.360   1.694
 6259SOL    HW219677   3.574   2.376   1.740
 6260SOL     OW19678   3.973   4.356   1.353
 6260SOL    HW119679   4.059   4.384   1.394
 6260SOL    HW219680   3.926   4.291   1.414
 6261SOL     OW19681   4.893   6.527   6.025
 6261SOL    HW119682   4.941   6.482   5.949
 6261SOL    HW219683   4.864   6.618   5.996
 6262SOL     OW19684   0.043   5.731   5.122
 6262SOL    HW119685   0.044   5.824   5.085
 6262SOL    HW219686   0.116   5.721   5.189
 6263SOL     OW19687   6.665   0.517   1.428
 6263SOL    HW119688   6.690   0.574   1.350
 6263SOL    HW219689   6.641   0.425   1.396
 6264SOL     OW19690   2.717   1.422   0.280
 6264SOL    HW119691   2.626   1.380   0.291
 6264SOL    HW219692   2.787   1.353   0.293
 6265SOL     OW19693   6.463   3.482   0.488
 6265SOL    HW119694   6.441   3.573   0.453
 6265SOL    HW219695   6.411   3.413   0.438
 6266SOL     OW19696   2.382   6.699   2.686
 6266SOL    HW119697   2.331   6.785   2.700
 6266SOL    HW219698   2.466   6.718   2.634
 6267SOL     OW19699   3.097   6.405   6.791
 6267SOL    HW119700   3.120   6.502   6.802
 6267SOL    HW219701   3.021   6.382   6.851
 6268SOL     OW19702   2.456   6.451   1.997
 6268SOL    HW119703   2.534   6.390   1.981
 6268SOL    HW219704   2.382   6.399   2.038
 6269SOL     OW19705   6.832   4.372   6.234
 6269SOL    HW119706   6.810   4.468   6.215
 6269SOL    HW219707   6.922   4.351   6.195
 6270SOL     OW19708   0.808   1.428   4.259
 6270SOL    HW119709   0.758   1.342   4.268
 6270SOL    HW219710   0.746   1.505   4.275
 6271SOL     OW19711   5.793   1.579   1.172
 6271SOL    HW119712   5.813   1.566   1.075
 6271SOL    HW219713   5.705   1.626   1.182
 6272SOL     OW19714   3.014   2.225   3.829
 6272SOL    HW119715   2.940   2.160   3.845
 6272SOL    HW219716   3.010   2.257   3.734
 6273SOL     OW19717   3.616   1.558   2.709
 6273SOL    HW119718   3.576   1.555   2.618
 6273SOL    HW219719   3.606   1.469   2.753
 6274SOL     OW19720   2.980   5.565   6.918
 6274SOL    HW119721   2.967   5.502   6.995
 6274SOL    HW219722   3.068   5.544   6.874
 6275SOL     OW19723   3.279   0.859   4.544
 6275SOL    HW119724   3.270   0.903   4.633
 6275SOL    HW219725   3.208   0.893   4.482
 6276SOL     OW19726   0.664   5.490   3.473
 6276SOL    HW119727   0.718   5.521   3.395
 6276SOL    HW219728   0.722   5.437   3.535
 6277SOL     OW19729   6.497   3.491   4.152
 6277SOL    HW119730   6.588   3.526   4.173
 6277SOL    HW219731   6.432   3.520   4.222
 6278SOL     OW19732   4.763   1.148   3.427
 6278SOL    HW119733   4.785   1.242   3.454
 6278SOL    HW219734   4.671   1.125   3.460
 6279SOL     OW19735   3.663   1.470   5.932
 6279SOL    HW119736   3.711   1.531   5.994
 6279SOL    HW219737   3.573   1.507   5.911
 6280SOL     OW19738   1.350   5.026   5.490
 6280SOL    HW119739   1.296   5.102   5.453
 6280SOL    HW219740   1.336   4.945   5.433
 6281SOL     OW19741   3.518   5.955   4.796
 6281SOL    HW119742   3.617   5.952   4.807
 6281SOL    HW219743   3.474   5.930   4.882
 6282SOL     OW19744   0.755   6.179   4.707
 6282SOL    HW119745   0.688   6.184   4.633
 6282SOL    HW219746   0.759   6.267   4.754
 6283SOL     OW19747   1.047   2.872   4.684
 6283SOL    HW119748   1.048   2.879   4.784
 6283SOL    HW219749   1.064   2.962   4.644
 6284SOL     OW19750   2.495   4.698   0.072
 6284SOL    HW119751   2.417   4.676   0.013
 6284SOL    HW219752   2.488   4.645   0.157
 6285SOL     OW19753   2.149   4.017   2.504
 6285SOL    HW119754   2.145   4.050   2.598
 6285SOL    HW219755   2.218   4.070   2.454
 6286SOL     OW19756   6.995   6.417   4.165
 6286SOL    HW119757   0.011   6.446   4.076
 6286SOL    HW219758   6.925   6.347   4.152
 6287SOL     OW19759   3.359   4.936   3.170
 6287SOL    HW119760   3.384   4.916   3.076
 6287SOL    HW219761   3.441   4.933   3.228
 6288SOL     OW19762   0.088   3.768   1.083
 6288SOL    HW119763   7.009   3.780   1.103
 6288SOL    HW219764   0.116   3.677   1.112
 6289SOL     OW19765   0.273   0.086   2.869
 6289SOL    HW119766   0.239   0.089   2.774
 6289SOL    HW219767   0.214   0.027   2.923
 6290SOL     OW19768   5.429   3.487   3.903
 6290SOL    HW119769   5.441   3.444   3.814
 6290SOL    HW219770   5.509   3.543   3.924
 6291SOL     OW19771   3.475   4.111   3.494
 6291SOL    HW119772   3.437   4.146   3.580
 6291SOL    HW219773   3.574   4.105   3.501
 6292SOL     OW19774   0.101   1.072   1.416
 6292SOL    HW119775   0.099   0.973   1.433
 6292SOL    HW219776   0.016   1.099   1.370
 6293SOL     OW19777   5.808   4.258   5.990
 6293SOL    HW119778   5.805   4.313   5.906
 6293SOL    HW219779   5.736   4.289   6.053
 6294SOL     OW19780   2.914   6.440   0.695
 6294SOL    HW119781   2.885   6.392   0.777
 6294SOL    HW219782   3.010   6.467   0.704
 6295SOL     OW19783   6.322   5.698   6.348
 6295SOL    HW119784   6.307   5.621   6.411
 6295SOL    HW219785   6.243   5.759   6.352
 6296SOL     OW19786   6.185   1.747   3.404
 6296SOL    HW119787   6.258   1.733   3.338
 6296SOL    HW219788   6.113   1.802   3.362
 6297SOL     OW19789   5.416   1.958   5.713
 6297SOL    HW119790   5.508   1.967   5.751
 6297SOL    HW219791   5.417   1.989   5.618
 6298SOL     OW19792   6.124   2.633   4.302
 6298SOL    HW119793   6.165   2.693   4.233
 6298SOL    HW219794   6.189   2.619   4.377
 6299SOL     OW19795   0.406   2.365   0.230
 6299SOL    HW119796   0.393   2.428   0.153
 6299SOL    HW219797   0.418   2.272   0.194
 6300SOL     OW19798   5.317   1.073   3.747
 6300SOL    HW119799   5.389   1.140   3.764
 6300SOL    HW219800   5.347   0.983   3.779
 6301SOL     OW19801   3.107   0.270   1.425
 6301SOL    HW119802   3.127   0.204   1.352
 6301SOL    HW219803   3.040   0.336   1.393
 6302SOL     OW19804   6.401   0.456   3.143
 6302SOL    HW119805   6.431   0.461   3.239
 6302SOL    HW219806   6.339   0.532   3.123
 6303SOL     OW19807   2.567   5.275   4.802
 6303SOL    HW119808   2.545   5.234   4.714
 6303SOL    HW219809   2.665   5.265   4.819
 6304SOL     OW19810   4.271   0.852   4.960
 6304SOL    HW119811   4.283   0.951   4.964
 6304SOL    HW219812   4.352   0.810   4.920
 6305SOL     OW19813   5.024   6.975   3.184
 6305SOL    HW119814   5.067   6.921   3.257
 6305SOL    HW219815   4.992   6.914   3.112
 6306SOL     OW19816   6.364   2.947   4.452
 6306SOL    HW119817   6.349   2.913   4.544
 6306SOL    HW219818   6.463   2.947   4.433
 6307SOL     OW19819   2.185   4.673   0.261
 6307SOL    HW119820   2.225   4.644   0.174
 6307SOL    HW219821   2.124   4.601   0.295
 6308SOL     OW19822   3.786   2.579   6.460
 6308SOL    HW119823   3.822   2.494   6.500
 6308SOL    HW219824   3.701   2.604   6.506
 6309SOL     OW19825   6.222   2.383   5.257
 6309SOL    HW119826   6.174   2.295   5.249
 6309SOL    HW219827   6.157   2.454   5.282
 6310SOL     OW19828   6.877   5.694   5.514
 6310SOL    HW119829   6.898   5.687   5.416
 6310SOL    HW219830   6.884   5.604   5.557
 6311SOL     OW19831   6.403   6.924   4.970
 6311SOL    HW119832   6.332   6.947   5.036
 6311SOL    HW219833   6.374   6.953   4.879
 6312SOL     OW19834   5.865   3.993   5.870
 6312SOL    HW119835   5.937   3.997   5.801
 6312SOL    HW219836   5.863   4.079   5.922
 6313SOL     OW19837   2.407   5.857   3.862
 6313SOL    HW119838   2.451   5.768   3.875
 6313SOL    HW219839   2.320   5.859   3.911
 6314SOL     OW19840   1.230   0.328   3.004
 6314SOL    HW119841   1.136   0.335   2.970
 6314SOL    HW219842   1.290   0.293   2.932
 6315SOL     OW19843   1.592   3.385   0.601
 6315SOL    HW119844   1.520   3.451   0.577
 6315SOL    HW219845   1.681   3.431   0.598
 6316SOL     OW19846   4.374   1.326   4.759
 6316SOL    HW119847   4.281   1.291   4.749
 6316SOL    HW219848   4.434   1.279   4.693
 6317SOL     OW19849   6.817   5.834   4.254
 6317SOL    HW119850   6.914   5.859   4.249
 6317SOL    HW219851   6.790   5.788   4.169
 6318SOL     OW19852   1.713   2.750   3.962
 6318SOL    HW119853   1.649   2.692   3.910
 6318SOL    HW219854   1.672   2.840   3.976
 6319SOL     OW19855   1.224   2.160   3.155
 6319SOL    HW119856   1.183   2.232   3.211
 6319SOL    HW219857   1.282   2.200   3.085
 6320SOL     OW19858   0.146   2.397   2.416
 6320SOL    HW119859   0.116   2.415   2.323
 6320SOL    HW219860   0.237   2.355   2.414
 6321SOL     OW19861   2.318   4.068   5.903
 6321SOL    HW119862   2.288   4.059   5.998
 6321SOL    HW219863   2.383   3.996   5.882
 6322SOL     OW19864   2.433   6.797   0.096
 6322SOL    HW119865   2.442   6.867   0.167
 6322SOL    HW219866   2.390   6.836   0.015
 6323SOL     OW19867   4.512   1.658   1.825
 6323SOL    HW119868   4.517   1.673   1.924
 6323SOL    HW219869   4.418   1.636   1.799
 6324SOL     OW19870   3.191   1.965   1.501
 6324SOL    HW119871   3.282   1.978   1.540
 6324SOL    HW219872   3.180   1.869   1.475
 6325SOL     OW19873   1.915   3.407   3.214
 6325SOL    HW119874   1.866   3.321   3.197
 6325SOL    HW219875   1.918   3.461   3.130
 6326SOL     OW19876   4.423   6.471   1.516
 6326SOL    HW119877   4.495   6.444   1.580
 6326SOL    HW219878   4.335   6.469   1.563
 6327SOL     OW19879   3.844   5.531   5.411
 6327SOL    HW119880   3.777   5.458   5.396
 6327SOL    HW219881   3.889   5.553   5.324
 6328SOL     OW19882   3.560   4.449   0.338
 6328SOL    HW119883   3.601   4.395   0.411
 6328SOL    HW219884   3.615   4.532   0.323
 6329SOL     OW19885   0.754   2.716   3.240
 6329SOL    HW119886   0.669   2.706   3.188
 6329SOL    HW219887   0.810   2.787   3.198
 6330SOL     OW19888   3.391   0.148   6.945
 6330SOL    HW119889   3.489   0.169   6.936
 6330SOL    HW219890   3.380   0.058   6.989
 6331SOL     OW19891   5.388   2.580   1.330
 6331SOL    HW119892   5.473   2.559   1.377
 6331SOL    HW219893   5.315   2.522   1.366
 6332SOL     OW19894   4.148   6.189   1.851
 6332SOL    HW119895   4.168   6.092   1.840
 6332SOL    HW219896   4.089   6.203   1.931
 6333SOL     OW19897   2.158   5.801   2.452
 6333SOL    HW119898   2.078   5.859   2.437
 6333SOL    HW219899   2.131   5.720   2.506
 6334SOL     OW19900   2.340   0.339   1.812
 6334SOL    HW119901   2.334   0.299   1.721
 6334SOL    HW219902   2.263   0.307   1.868
 6335SOL     OW19903   6.411   0.983   6.967
 6335SOL    HW119904   6.316   0.962   6.989
 6335SOL    HW219905   6.455   1.025   0.028
 6336SOL     OW19906   1.872   2.600   5.317
 6336SOL    HW119907   1.923   2.619   5.401
 6336SOL    HW219908   1.783   2.559   5.340
 6337SOL     OW19909   0.734   4.518   5.160
 6337SOL    HW119910   0.739   4.462   5.243
 6337SOL    HW219911   0.660   4.585   5.169
 6338SOL     OW19912   3.468   1.058   4.099
 6338SOL    HW119913   3.536   1.124   4.131
 6338SOL    HW219914   3.430   1.089   4.012
 6339SOL     OW19915   6.477   2.422   4.294
 6339SOL    HW119916   6.561   2.433   4.347
 6339SOL    HW219917   6.474   2.490   4.221
 6340SOL     OW19918   3.144   5.491   3.717
 6340SOL    HW119919   3.153   5.445   3.805
 6340SOL    HW219920   3.061   5.548   3.717
 6341SOL     OW19921   5.870   4.839   1.965
 6341SOL    HW119922   5.912   4.929   1.976
 6341SOL    HW219923   5.780   4.850   1.921
 6342SOL     OW19924   1.142   3.491   0.171
 6342SOL    HW119925   1.131   3.519   0.266
 6342SOL    HW219926   1.208   3.415   0.167
 6343SOL     OW19927   3.561   1.717   0.182
 6343SOL    HW119928   3.590   1.696   0.275
 6343SOL    HW219929   3.534   1.813   0.176
 6344SOL     OW19930   6.083   4.908   4.175
 6344SOL    HW119931   6.017   4.982   4.160
 6344SOL    HW219932   6.122   4.881   4.087
 6345SOL     OW19933   2.155   2.001   1.109
 6345SOL    HW119934   2.126   2.068   1.178
 6345SOL    HW219935   2.115   1.912   1.130
 6346SOL     OW19936   0.649   4.946   4.206
 6346SOL    HW119937   0.637   4.860   4.255
 6346SOL    HW219938   0.740   4.983   4.225
 6347SOL     OW19939   2.865   0.519   0.562
 6347SOL    HW119940   2.893   0.608   0.526
 6347SOL    HW219941   2.911   0.447   0.511
 6348SOL     OW19942   0.251   2.002   4.239
 6348SOL    HW119943   0.154   2.026   4.247
 6348SOL    HW219944   0.284   2.029   4.148
 6349SOL     OW19945   0.517   0.785   0.121
 6349SOL    HW119946   0.427   0.763   0.159
 6349SOL    HW219947   0.510   0.793   0.022
 6350SOL     OW19948   6.994   5.343   3.194
 6350SOL    HW119949   6.994   5.285   3.276
 6350SOL    HW219950   6.943   5.427   3.213
 6351SOL     OW19951   0.225   2.517   2.647
 6351SOL    HW119952   0.274   2.442   2.691
 6351SOL    HW219953   0.194   2.489   2.556
 6352SOL     OW19954   6.190   4.174   2.999
 6352SOL    HW119955   6.157   4.180   2.904
 6352SOL    HW219956   6.240   4.089   3.011
 6353SOL     OW19957   6.340   0.582   2.073
 6353SOL    HW119958   6.301   0.674   2.067
 6353SOL    HW219959   6.356   0.547   1.980
 6354SOL     OW19960   6.684   0.236   5.211
 6354SOL    HW119961   6.712   0.177   5.135
 6354SOL    HW219962   6.763   0.287   5.245
 6355SOL     OW19963   1.159   1.520   0.953
 6355SOL    HW119964   1.199   1.503   0.863
 6355SOL    HW219965   1.092   1.449   0.974
 6356SOL     OW19966   3.536   3.858   1.472
 6356SOL    HW119967   3.599   3.815   1.536
 6356SOL    HW219968   3.527   3.955   1.495
 6357SOL     OW19969   5.170   1.597   1.085
 6357SOL    HW119970   5.220   1.513   1.105
 6357SOL    HW219971   5.211   1.642   1.006
 6358SOL     OW19972   1.151   2.787   5.380
 6358SOL    HW119973   1.141   2.887   5.375
 6358SOL    HW219974   1.245   2.762   5.358
 6359SOL     OW19975   0.251   0.266   6.218
 6359SOL    HW119976   0.204   0.193   6.167
 6359SOL    HW219977   0.343   0.278   6.182
 6360SOL     OW19978   2.088   5.181   3.857
 6360SOL    HW119979   2.065   5.089   3.824
 6360SOL    HW219980   2.073   5.185   3.956
 6361SOL     OW19981   3.052   6.061   5.339
 6361SOL    HW119982   2.989   6.082   5.413
 6361SOL    HW219983   3.001   6.042   5.256
 6362SOL     OW19984   6.686   4.493   5.780
 6362SOL    HW119985   6.693   4.528   5.873
 6362SOL    HW219986   6.760   4.530   5.724
 6363SOL     OW19987   0.742   5.895   3.520
 6363SOL    HW119988   0.646   5.869   3.508
 6363SOL    HW219989   0.800   5.815   3.505
 6364SOL     OW19990   2.591   1.677   6.976
 6364SOL    HW119991   2.652   1.600   6.992
 6364SOL    HW219992   2.596   1.704   6.879
 6365SOL     OW19993   4.008   5.662   2.357
 6365SOL    HW119994   4.006   5.762   2.350
 6365SOL    HW219995   4.072   5.625   2.291
 6366SOL     OW19996   0.516   4.019   5.179
 6366SOL    HW119997   0.595   4.079   5.163
 6366SOL    HW219998   0.443   4.042   5.115
 6367SOL     OW19999   5.050   5.325   2.138
 6367SOL    HW120000   5.050   5.310   2.237
 6367SOL    HW220001   5.142   5.348   2.107
 6368SOL     OW20002   2.753   1.644   2.096
 6368SOL    HW120003   2.800   1.662   2.010
 6368SOL    HW220004   2.782   1.555   2.132
 6369SOL     OW20005   2.185   5.918   4.802
 6369SOL    HW120006   2.203   5.877   4.891
 6369SOL    HW220007   2.252   5.989   4.783
 6370SOL     OW20008   5.071   2.265   2.140
 6370SOL    HW120009   5.130   2.337   2.176
 6370SOL    HW220010   4.977   2.299   2.136
 6371SOL     OW20011   4.593   1.712   3.421
 6371SOL    HW120012   4.639   1.627   3.396
 6371SOL    HW220013   4.549   1.751   3.340
 6372SOL     OW20014   2.858   0.211   2.882
 6372SOL    HW120015   2.850   0.157   2.798
 6372SOL    HW220016   2.796   0.174   2.951
 6373SOL     OW20017   3.446   4.693   6.917
 6373SOL    HW120018   3.365   4.676   6.973
 6373SOL    HW220019   3.487   4.606   6.890
 6374SOL     OW20020   3.080   3.142   4.791
 6374SOL    HW120021   3.090   3.124   4.693
 6374SOL    HW220022   3.060   3.056   4.838
 6375SOL     OW20023   2.131   5.707   1.914
 6375SOL    HW120024   2.161   5.749   1.999
 6375SOL    HW220025   2.086   5.620   1.933
 6376SOL     OW20026   0.888   1.245   5.398
 6376SOL    HW120027   0.848   1.182   5.331
 6376SOL    HW220028   0.907   1.332   5.353
 6377SOL     OW20029   0.229   2.694   3.364
 6377SOL    HW120030   0.166   2.771   3.356
 6377SOL    HW220031   0.224   2.637   3.281
 6378SOL     OW20032   3.723   5.338   3.802
 6378SOL    HW120033   3.636   5.341   3.852
 6378SOL    HW220034   3.780   5.266   3.842
 6379SOL     OW20035   2.105   4.189   1.789
 6379SOL    HW120036   2.066   4.265   1.841
 6379SOL    HW220037   2.202   4.207   1.770
 6380SOL     OW20038   0.803   0.374   6.228
 6380SOL    HW120039   0.766   0.463   6.202
 6380SOL    HW220040   0.900   0.370   6.202
 6381SOL     OW20041   3.821   3.463   3.196
 6381SOL    HW120042   3.905   3.460   3.251
 6381SOL    HW220043   3.745   3.427   3.250
 6382SOL     OW20044   1.090   4.448   5.359
 6382SOL    HW120045   1.107   4.490   5.270
 6382SOL    HW220046   1.171   4.396   5.387
 6383SOL     OW20047   4.055   1.913   3.850
 6383SOL    HW120048   4.022   1.927   3.943
 6383SOL    HW220049   4.122   1.839   3.849
 6384SOL     OW20050   6.565   4.530   2.100
 6384SOL    HW120051   6.606   4.471   2.031
 6384SOL    HW220052   6.622   4.612   2.112
 6385SOL     OW20053   0.997   5.720   5.175
 6385SOL    HW120054   1.092   5.741   5.151
 6385SOL    HW220055   0.941   5.802   5.167
 6386SOL     OW20056   1.903   5.531   2.920
 6386SOL    HW120057   1.870   5.437   2.907
 6386SOL    HW220058   1.987   5.530   2.973
 6387SOL     OW20059   5.626   1.162   5.062
 6387SOL    HW120060   5.716   1.196   5.034
 6387SOL    HW220061   5.568   1.148   4.982
 6388SOL     OW20062   2.321   5.321   1.902
 6388SOL    HW120063   2.386   5.270   1.845
 6388SOL    HW220064   2.349   5.313   1.998
 6389SOL     OW20065   1.570   3.611   0.987
 6389SOL    HW120066   1.533   3.670   1.059
 6389SOL    HW220067   1.498   3.551   0.952
 6390SOL     OW20068   0.794   3.064   4.796
 6390SOL    HW120069   0.743   3.115   4.866
 6390SOL    HW220070   0.742   3.062   4.711
 6391SOL     OW20071   4.158   0.568   0.868
 6391SOL    HW120072   4.066   0.607   0.853
 6391SOL    HW220073   4.157   0.472   0.842
 6392SOL     OW20074   1.466   5.959   4.482
 6392SOL    HW120075   1.527   5.967   4.403
 6392SOL    HW220076   1.473   5.867   4.520
 6393SOL     OW20077   4.777   1.086   6.570
 6393SOL    HW120078   4.730   1.139   6.641
 6393SOL    HW220079   4.717   1.075   6.492
 6394SOL     OW20080   3.763   5.528   2.325
 6394SOL    HW120081   3.841   5.590   2.329
 6394SOL    HW220082   3.795   5.433   2.320
 6395SOL     OW20083   5.832   1.517   0.043
 6395SOL    HW120084   5.829   1.434   7.006
 6395SOL    HW220085   5.786   1.500   0.131
 6396SOL     OW20086   6.827   1.889   6.852
 6396SOL    HW120087   6.825   1.888   6.952
 6396SOL    HW220088   6.776   1.968   6.818
 6397SOL     OW20089   0.183   0.238   0.360
 6397SOL    HW120090   0.265   0.249   0.415
 6397SOL    HW220091   0.198   0.278   0.269
 6398SOL     OW20092   4.675   1.197   1.794
 6398SOL    HW120093   4.623   1.181   1.878
 6398SOL    HW220094   4.761   1.144   1.797
 6399SOL     OW20095   1.115   6.796   6.378
 6399SOL    HW120096   1.132   6.699   6.359
 6399SOL    HW220097   1.152   6.851   6.303
 6400SOL     OW20098   3.171   4.838   4.986
 6400SOL    HW120099   3.167   4.764   4.919
 6400SOL    HW220100   3.078   4.864   5.012
 6401SOL     OW20101   6.944   4.838   5.532
 6401SOL    HW120102   6.985   4.886   5.454
 6401SOL    HW220103   7.012   4.829   5.605
 6402SOL     OW20104   2.256   3.989   2.970
 6402SOL    HW120105   2.222   3.903   2.933
 6402SOL    HW220106   2.194   4.063   2.944
 6403SOL     OW20107   0.207   6.406   1.834
 6403SOL    HW120108   0.175   6.395   1.740
 6403SOL    HW220109   0.262   6.327   1.860
 6404SOL     OW20110   4.864   0.189   2.229
 6404SOL    HW120111   4.935   0.223   2.168
 6404SOL    HW220112   4.774   0.206   2.189
 6405SOL     OW20113   3.584   6.377   1.932
 6405SOL    HW120114   3.495   6.407   1.897
 6405SOL    HW220115   3.608   6.433   2.012
 6406SOL     OW20116   2.138   2.413   3.394
 6406SOL    HW120117   2.138   2.459   3.482
 6406SOL    HW220118   2.226   2.367   3.380
 6407SOL     OW20119   5.456   6.525   0.227
 6407SOL    HW120120   5.430   6.616   0.260
 6407SOL    HW220121   5.374   6.478   0.192
 6408SOL     OW20122   6.375   2.267   0.826
 6408SOL    HW120123   6.413   2.175   0.817
 6408SOL    HW220124   6.301   2.266   0.893
 6409SOL     OW20125   1.183   4.936   1.684
 6409SOL    HW120126   1.280   4.929   1.705
 6409SOL    HW220127   1.162   4.880   1.604
 6410SOL     OW20128   6.671   6.966   0.978
 6410SOL    HW120129   6.609   6.918   1.041
 6410SOL    HW220130   6.753   6.910   0.965
 6411SOL     OW20131   1.798   1.915   3.278
 6411SOL    HW120132   1.738   1.843   3.241
 6411SOL    HW220133   1.865   1.941   3.209
 6412SOL     OW20134   5.841   2.349   5.325
 6412SOL    HW120135   5.880   2.336   5.416
 6412SOL    HW220136   5.748   2.311   5.323
 6413SOL     OW20137   0.029   5.436   1.020
 6413SOL    HW120138   6.984   5.488   1.076
 6413SOL    HW220139   0.063   5.358   1.072
 6414SOL     OW20140   6.386   0.106   3.827
 6414SOL    HW120141   6.342   0.046   3.760
 6414SOL    HW220142   6.446   0.052   3.885
 6415SOL     OW20143   1.625   1.714   2.208
 6415SOL    HW120144   1.585   1.757   2.127
 6415SOL    HW220145   1.572   1.740   2.289
 6416SOL     OW20146   3.113   6.076   6.651
 6416SOL    HW120147   3.058   6.139   6.706
 6416SOL    HW220148   3.080   5.982   6.666
 6417SOL     OW20149   6.812   6.208   4.134
 6417SOL    HW120150   6.737   6.197   4.199
 6417SOL    HW220151   6.782   6.179   4.043
 6418SOL     OW20152   6.622   5.025   2.244
 6418SOL    HW120153   6.533   4.991   2.213
 6418SOL    HW220154   6.671   5.066   2.167
 6419SOL     OW20155   2.918   2.115   0.785
 6419SOL    HW120156   2.952   2.070   0.703
 6419SOL    HW220157   2.995   2.150   0.839
 6420SOL     OW20158   0.748   1.991   0.034
 6420SOL    HW120159   0.716   2.072   7.004
 6420SOL    HW220160   0.758   1.915   6.988
 6421SOL     OW20161   5.819   1.636   0.392
 6421SOL    HW120162   5.861   1.620   0.302
 6421SOL    HW220163   5.819   1.734   0.412
 6422SOL     OW20164   5.154   2.418   3.208
 6422SOL    HW120165   5.156   2.322   3.236
 6422SOL    HW220166   5.246   2.446   3.178
 6423SOL     OW20167   5.566   3.555   0.651
 6423SOL    HW120168   5.475   3.592   0.633
 6423SOL    HW220169   5.557   3.465   0.694
 6424SOL     OW20170   6.318   3.546   4.938
 6424SOL    HW120171   6.249   3.500   4.993
 6424SOL    HW220172   6.369   3.610   4.995
 6425SOL     OW20173   0.811   5.275   0.860
 6425SOL    HW120174   0.832   5.207   0.930
 6425SOL    HW220175   0.892   5.330   0.842
 6426SOL     OW20176   6.574   3.996   3.382
 6426SOL    HW120177   6.524   4.041   3.308
 6426SOL    HW220178   6.620   4.064   3.438
 6427SOL     OW20179   1.212   3.555   5.936
 6427SOL    HW120180   1.282   3.580   5.869
 6427SOL    HW220181   1.240   3.474   5.986
 6428SOL     OW20182   6.421   3.989   5.537
 6428SOL    HW120183   6.396   3.914   5.475
 6428SOL    HW220184   6.339   4.024   5.582
 6429SOL     OW20185   1.349   0.409   4.525
 6429SOL    HW120186   1.397   0.363   4.600
 6429SOL    HW220187   1.266   0.452   4.561
 6430SOL     OW20188   6.519   3.169   6.817
 6430SOL    HW120189   6.547   3.186   6.912
 6430SOL    HW220190   6.423   3.140   6.815
 6431SOL     OW20191   5.457   1.335   2.110
 6431SOL    HW120192   5.536   1.277   2.089
 6431SOL    HW220193   5.479   1.393   2.188
 6432SOL     OW20194   6.258   3.788   0.858
 6432SOL    HW120195   6.296   3.697   0.841
 6432SOL    HW220196   6.314   3.856   0.811
 6433SOL     OW20197   2.224   3.243   1.624
 6433SOL    HW120198   2.216   3.224   1.526
 6433SOL    HW220199   2.307   3.297   1.640
 6434SOL     OW20200   1.792   6.149   0.778
 6434SOL    HW120201   1.745   6.214   0.837
 6434SOL    HW220202   1.796   6.060   0.823
 6435SOL     OW20203   5.928   3.432   0.755
 6435SOL    HW120204   5.896   3.520   0.789
 6435SOL    HW220205   5.992   3.446   0.680
 6436SOL     OW20206   3.172   2.206   0.897
 6436SOL    HW120207   3.141   2.301   0.892
 6436SOL    HW220208   3.246   2.191   0.831
 6437SOL     OW20209   6.932   1.121   2.133
 6437SOL    HW120210   6.885   1.159   2.213
 6437SOL    HW220211   6.936   1.022   2.140
 6438SOL     OW20212   0.519   3.868   4.463
 6438SOL    HW120213   0.481   3.891   4.373
 6438SOL    HW220214   0.540   3.952   4.513
 6439SOL     OW20215   0.436   6.367   2.415
 6439SOL    HW120216   0.466   6.299   2.348
 6439SOL    HW220217   0.439   6.458   2.375
 6440SOL     OW20218   0.720   0.495   2.103
 6440SOL    HW120219   0.737   0.547   2.019
 6440SOL    HW220220   0.696   0.559   2.176
 6441SOL     OW20221   5.248   2.177   3.146
 6441SOL    HW120222   5.293   2.090   3.167
 6441SOL    HW220223   5.163   2.160   3.097
 6442SOL     OW20224   1.322   2.171   3.736
 6442SOL    HW120225   1.243   2.228   3.760
 6442SOL    HW220226   1.295   2.105   3.666
 6443SOL     OW20227   2.515   0.819   0.754
 6443SOL    HW120228   2.595   0.857   0.802
 6443SOL    HW220229   2.546   0.753   0.686
 6444SOL     OW20230   0.890   1.442   2.552
 6444SOL    HW120231   0.821   1.426   2.623
 6444SOL    HW220232   0.883   1.536   2.519
 6445SOL     OW20233   3.727   4.367   6.143
 6445SOL    HW120234   3.663   4.300   6.107
 6445SOL    HW220235   3.692   4.460   6.128
 6446SOL     OW20236   0.441   1.191   1.086
 6446SOL    HW120237   0.361   1.202   1.144
 6446SOL    HW220238   0.523   1.179   1.142
 6447SOL     OW20239   1.868   1.237   3.503
 6447SOL    HW120240   1.789   1.183   3.532
 6447SOL    HW220241   1.839   1.330   3.480
 6448SOL     OW20242   6.282   1.959   1.992
 6448SOL    HW120243   6.323   1.975   2.082
 6448SOL    HW220244   6.238   1.870   1.992
 6449SOL     OW20245   4.832   2.449   0.422
 6449SOL    HW120246   4.819   2.487   0.331
 6449SOL    HW220247   4.898   2.504   0.473
 6450SOL     OW20248   6.675   2.518   0.581
 6450SOL    HW120249   6.678   2.475   0.491
 6450SOL    HW220250   6.767   2.519   0.620
 6451SOL     OW20251   3.100   6.478   4.845
 6451SOL    HW120252   3.179   6.502   4.902
 6451SOL    HW220253   3.085   6.379   4.847
 6452SOL     OW20254   3.797   5.957   4.840
 6452SOL    HW120255   3.867   5.910   4.893
 6452SOL    HW220256   3.774   5.903   4.759
 6453SOL     OW20257   2.755   5.069   6.839
 6453SOL    HW120258   2.729   5.021   6.922
 6453SOL    HW220259   2.828   5.019   6.793
 6454SOL     OW20260   3.799   0.940   5.057
 6454SOL    HW120261   3.804   0.890   5.144
 6454SOL    HW220262   3.754   1.028   5.072
 6455SOL     OW20263   5.907   3.181   0.183
 6455SOL    HW120264   5.932   3.181   0.086
 6455SOL    HW220265   5.985   3.212   0.238
 6456SOL     OW20266   6.403   1.901   4.078
 6456SOL    HW120267   6.439   1.943   4.160
 6456SOL    HW220268   6.303   1.902   4.080
 6457SOL     OW20269   5.845   3.197   1.458
 6457SOL    HW120270   5.882   3.104   1.464
 6457SOL    HW220271   5.781   3.213   1.533
 6458SOL     OW20272   1.141   5.639   3.825
 6458SOL    HW120273   1.207   5.620   3.897
 6458SOL    HW220274   1.050   5.612   3.855
 6459SOL     OW20275   5.761   3.805   6.799
 6459SOL    HW120276   5.840   3.842   6.752
 6459SOL    HW220277   5.780   3.798   6.897
 6460SOL     OW20278   3.870   5.078   1.936
 6460SOL    HW120279   3.964   5.060   1.964
 6460SOL    HW220280   3.867   5.165   1.885
 6461SOL     OW20281   2.990   5.860   4.283
 6461SOL    HW120282   2.906   5.814   4.313
 6461SOL    HW220283   3.042   5.891   4.363
 6462SOL     OW20284   1.848   4.501   2.659
 6462SOL    HW120285   1.816   4.435   2.592
 6462SOL    HW220286   1.940   4.533   2.633
 6463SOL     OW20287   2.414   3.184   5.657
 6463SOL    HW120288   2.398   3.253   5.588
 6463SOL    HW220289   2.327   3.143   5.685
 6464SOL     OW20290   1.118   5.367   1.972
 6464SOL    HW120291   1.021   5.378   1.955
 6464SOL    HW220292   1.153   5.447   2.021
 6465SOL     OW20293   6.370   0.142   3.188
 6465SOL    HW120294   6.456   0.183   3.217
 6465SOL    HW220295   6.295   0.182   3.240
 6466SOL     OW20296   6.347   2.491   4.766
 6466SOL    HW120297   6.313   2.541   4.686
 6466SOL    HW220298   6.281   2.498   4.841
 6467SOL     OW20299   3.738   0.356   5.810
 6467SOL    HW120300   3.707   0.278   5.756
 6467SOL    HW220301   3.761   0.327   5.902
 6468SOL     OW20302   6.565   4.622   2.484
 6468SOL    HW120303   6.599   4.715   2.472
 6468SOL    HW220304   6.467   4.618   2.463
 6469SOL     OW20305   6.165   2.578   6.008
 6469SOL    HW120306   6.117   2.666   6.004
 6469SOL    HW220307   6.186   2.555   6.103
 6470SOL     OW20308   6.499   6.339   4.891
 6470SOL    HW120309   6.493   6.244   4.862
 6470SOL    HW220310   6.460   6.398   4.821
 6471SOL     OW20311   6.651   0.032   5.013
 6471SOL    HW120312   6.735   7.001   5.035
 6471SOL    HW220313   6.573   6.988   5.017
 6472SOL     OW20314   1.522   6.988   1.818
 6472SOL    HW120315   1.506   0.046   1.756
 6472SOL    HW220316   1.503   6.902   1.770
 6473SOL     OW20317   2.356   1.659   5.716
 6473SOL    HW120318   2.423   1.616   5.655
 6473SOL    HW220319   2.271   1.677   5.665
 6474SOL     OW20320   2.074   2.860   6.748
 6474SOL    HW120321   1.984   2.902   6.757
 6474SOL    HW220322   2.136   2.898   6.817
 6475SOL     OW20323   4.132   5.265   3.769
 6475SOL    HW120324   4.190   5.328   3.820
 6475SOL    HW220325   4.036   5.281   3.794
 6476SOL     OW20326   4.647   5.946   3.216
 6476SOL    HW120327   4.682   5.894   3.138
 6476SOL    HW220328   4.694   6.034   3.222
 6477SOL     OW20329   6.598   5.872   0.431
 6477SOL    HW120330   6.666   5.810   0.470
 6477SOL    HW220331   6.630   5.904   0.341
 6478SOL     OW20332   4.365   6.314   0.816
 6478SOL    HW120333   4.446   6.316   0.757
 6478SOL    HW220334   4.392   6.288   0.909
 6479SOL     OW20335   2.790   5.958   2.393
 6479SOL    HW120336   2.887   5.940   2.402
 6479SOL    HW220337   2.741   5.918   2.471
 6480SOL     OW20338   2.147   1.210   0.749
 6480SOL    HW120339   2.238   1.237   0.717
 6480SOL    HW220340   2.155   1.163   0.837
 6481SOL     OW20341   4.553   0.946   0.789
 6481SOL    HW120342   4.523   1.005   0.864
 6481SOL    HW220343   4.574   0.855   0.824
 6482SOL     OW20344   6.955   0.260   5.685
 6482SOL    HW120345   6.894   0.325   5.732
 6482SOL    HW220346   6.900   0.200   5.626
 6483SOL     OW20347   1.165   5.416   1.320
 6483SOL    HW120348   1.182   5.425   1.222
 6483SOL    HW220349   1.080   5.365   1.334
 6484SOL     OW20350   4.212   0.506   2.679
 6484SOL    HW120351   4.290   0.443   2.684
 6484SOL    HW220352   4.146   0.472   2.611
 6485SOL     OW20353   6.733   2.316   2.322
 6485SOL    HW120354   6.728   2.368   2.407
 6485SOL    HW220355   6.806   2.247   2.330
 6486SOL     OW20356   1.506   3.287   3.092
 6486SOL    HW120357   1.417   3.273   3.049
 6486SOL    HW220358   1.503   3.369   3.149
 6487SOL     OW20359   6.188   5.770   3.151
 6487SOL    HW120360   6.109   5.709   3.150
 6487SOL    HW220361   6.265   5.725   3.195
 6488SOL     OW20362   3.325   5.199   4.216
 6488SOL    HW120363   3.235   5.236   4.237
 6488SOL    HW220364   3.386   5.213   4.295
 6489SOL     OW20365   2.933   0.843   6.662
 6489SOL    HW120366   2.883   0.877   6.583
 6489SOL    HW220367   3.031   0.837   6.640
 6490SOL     OW20368   4.076   0.949   0.003
 6490SOL    HW120369   4.136   0.954   0.083
 6490SOL    HW220370   3.991   0.998   0.023
 6491SOL     OW20371   4.813   0.969   5.816
 6491SOL    HW120372   4.781   0.983   5.722
 6491SOL    HW220373   4.907   1.002   5.824
 6492SOL     OW20374   5.849   5.331   6.447
 6492SOL    HW120375   5.859   5.266   6.372
 6492SOL    HW220376   5.901   5.414   6.426
 6493SOL     OW20377   6.882   6.330   5.321
 6493SOL    HW120378   6.879   6.427   5.296
 6493SOL    HW220379   6.789   6.294   5.326
 6494SOL     OW20380   0.132   2.876   3.053
 6494SOL    HW120381   0.224   2.894   3.089
 6494SOL    HW220382   0.112   2.778   3.061
 6495SOL     OW20383   5.492   4.721   2.140
 6495SOL    HW120384   5.410   4.752   2.189
 6495SOL    HW220385   5.469   4.645   2.080
 6496SOL     OW20386   6.876   6.737   3.523
 6496SOL    HW120387   6.885   6.768   3.428
 6496SOL    HW220388   6.927   6.798   3.583
 6497SOL     OW20389   1.005   0.274   1.192
 6497SOL    HW120390   1.040   0.345   1.254
 6497SOL    HW220391   1.072   0.200   1.186
 6498SOL     OW20392   1.134   3.804   4.360
 6498SOL    HW120393   1.107   3.891   4.319
 6498SOL    HW220394   1.080   3.788   4.443
 6499SOL     OW20395   6.092   1.325   2.995
 6499SOL    HW120396   6.023   1.341   3.066
 6499SOL    HW220397   6.109   1.227   2.986
 6500SOL     OW20398   5.591   4.819   1.891
 6500SOL    HW120399   5.532   4.763   1.833
 6500SOL    HW220400   5.570   4.799   1.987
 6501SOL     OW20401   6.688   4.198   0.723
 6501SOL    HW120402   6.717   4.160   0.635
 6501SOL    HW220403   6.628   4.276   0.708
 6502SOL     OW20404   0.262   5.350   2.019
 6502SOL    HW120405   0.203   5.281   1.978
 6502SOL    HW220406   0.287   5.418   1.950
 6503SOL     OW20407   3.666   0.285   4.042
 6503SOL    HW120408   3.579   0.321   4.007
 6503SOL    HW220409   3.649   0.206   4.100
 6504SOL     OW20410   2.503   2.726   0.203
 6504SOL    HW120411   2.498   2.741   0.302
 6504SOL    HW220412   2.491   2.629   0.183
 6505SOL     OW20413   5.438   5.185   0.731
 6505SOL    HW120414   5.535   5.207   0.718
 6505SOL    HW220415   5.393   5.181   0.642
 6506SOL     OW20416   2.427   1.442   1.760
 6506SOL    HW120417   2.389   1.454   1.668
 6506SOL    HW220418   2.496   1.512   1.776
 6507SOL     OW20419   2.917   0.837   1.594
 6507SOL    HW120420   2.856   0.761   1.618
 6507SOL    HW220421   2.899   0.866   1.500
 6508SOL     OW20422   1.233   3.105   1.729
 6508SOL    HW120423   1.251   3.092   1.631
 6508SOL    HW220424   1.304   3.165   1.767
 6509SOL     OW20425   1.621   2.979   4.038
 6509SOL    HW120426   1.620   3.072   4.002
 6509SOL    HW220427   1.572   2.977   4.126
 6510SOL     OW20428   6.224   4.036   6.664
 6510SOL    HW120429   6.226   3.962   6.731
 6510SOL    HW220430   6.151   4.100   6.687
 6511SOL     OW20431   6.683   6.854   5.917
 6511SOL    HW120432   6.749   6.779   5.919
 6511SOL    HW220433   6.676   6.894   6.008
 6512SOL     OW20434   5.503   6.686   4.444
 6512SOL    HW120435   5.425   6.680   4.382
 6512SOL    HW220436   5.488   6.626   4.522
 6513SOL     OW20437   1.228   6.992   3.528
 6513SOL    HW120438   1.289   6.986   3.449
 6513SOL    HW220439   1.197   0.067   3.539
 6514SOL     OW20440   2.786   0.828   4.045
 6514SOL    HW120441   2.697   0.784   4.033
 6514SOL    HW220442   2.857   0.758   4.055
 6515SOL     OW20443   1.411   1.049   3.508
 6515SOL    HW120444   1.504   1.013   3.500
 6515SOL    HW220445   1.402   1.099   3.594
 6516SOL     OW20446   2.217   1.415   5.791
 6516SOL    HW120447   2.290   1.483   5.795
 6516SOL    HW220448   2.129   1.462   5.788
 6517SOL     OW20449   3.181   2.053   1.118
 6517SOL    HW120450   3.189   2.119   1.192
 6517SOL    HW220451   3.176   2.101   1.030
 6518SOL     OW20452   5.216   5.971   1.470
 6518SOL    HW120453   5.258   6.045   1.417
 6518SOL    HW220454   5.127   6.002   1.503
 6519SOL     OW20455   0.359   2.089   3.598
 6519SOL    HW120456   0.443   2.117   3.551
 6519SOL    HW220457   0.328   2.002   3.561
 6520SOL     OW20458   6.105   5.348   1.015
 6520SOL    HW120459   6.073   5.437   0.982
 6520SOL    HW220460   6.052   5.321   1.095
 6521SOL     OW20461   1.186   2.171   6.105
 6521SOL    HW120462   1.230   2.081   6.098
 6521SOL    HW220463   1.220   2.230   6.032
 6522SOL     OW20464   2.597   4.555   4.320
 6522SOL    HW120465   2.668   4.605   4.369
 6522SOL    HW220466   2.605   4.573   4.222
 6523SOL     OW20467   2.645   2.550   1.194
 6523SOL    HW120468   2.602   2.640   1.196
 6523SOL    HW220469   2.717   2.549   1.124
 6524SOL     OW20470   3.874   2.383   5.350
 6524SOL    HW120471   3.828   2.328   5.280
 6524SOL    HW220472   3.811   2.451   5.386
 6525SOL     OW20473   0.307   2.481   4.720
 6525SOL    HW120474   0.223   2.505   4.672
 6525SOL    HW220475   0.372   2.557   4.715
 6526SOL     OW20476   1.655   6.299   3.201
 6526SOL    HW120477   1.647   6.229   3.273
 6526SOL    HW220478   1.617   6.263   3.116
 6527SOL     OW20479   2.008   1.325   4.818
 6527SOL    HW120480   2.052   1.305   4.731
 6527SOL    HW220481   2.027   1.252   4.883
 6528SOL     OW20482   6.578   0.781   2.864
 6528SOL    HW120483   6.489   0.752   2.829
 6528SOL    HW220484   6.638   0.701   2.872
 6529SOL     OW20485   5.931   3.289   2.449
 6529SOL    HW120486   5.929   3.372   2.393
 6529SOL    HW220487   5.995   3.224   2.410
 6530SOL     OW20488   0.159   0.610   0.188
 6530SOL    HW120489   0.193   0.576   0.276
 6530SOL    HW220490   0.081   0.670   0.203
 6531SOL     OW20491   5.091   2.246   5.792
 6531SOL    HW120492   5.068   2.258   5.696
 6531SOL    HW220493   5.081   2.150   5.817
 6532SOL     OW20494   1.592   1.377   6.409
 6532SOL    HW120495   1.615   1.438   6.486
 6532SOL    HW220496   1.631   1.286   6.427
 6533SOL     OW20497   5.111   0.556   0.180
 6533SOL    HW120498   5.114   0.519   0.087
 6533SOL    HW220499   5.024   0.604   0.193
 6534SOL     OW20500   3.954   2.672   6.810
 6534SOL    HW120501   4.027   2.698   6.747
 6534SOL    HW220502   3.971   2.580   6.844
 6535SOL     OW20503   1.944   2.530   4.815
 6535SOL    HW120504   2.018   2.464   4.810
 6535SOL    HW220505   1.965   2.609   4.758
 6536SOL     OW20506   0.650   1.463   0.898
 6536SOL    HW120507   0.633   1.388   0.835
 6536SOL    HW220508   0.582   1.535   0.885
 6537SOL     OW20509   0.194   0.973   6.162
 6537SOL    HW120510   0.115   1.035   6.159
 6537SOL    HW220511   0.258   1.005   6.232
 6538SOL     OW20512   3.190   2.496   5.620
 6538SOL    HW120513   3.130   2.507   5.541
 6538SOL    HW220514   3.258   2.424   5.601
 6539SOL     OW20515   3.276   1.153   6.771
 6539SOL    HW120516   3.236   1.178   6.859
 6539SOL    HW220517   3.350   1.087   6.786
 6540SOL     OW20518   4.218   1.897   2.973
 6540SOL    HW120519   4.269   1.866   2.892
 6540SOL    HW220520   4.229   1.996   2.983
 6541SOL     OW20521   3.144   1.931   5.301
 6541SOL    HW120522   3.097   1.981   5.373
 6541SOL    HW220523   3.087   1.928   5.219
 6542SOL     OW20524   4.451   4.748   2.771
 6542SOL    HW120525   4.464   4.786   2.863
 6542SOL    HW220526   4.522   4.785   2.710
 6543SOL     OW20527   1.448   6.473   6.251
 6543SOL    HW120528   1.498   6.407   6.194
 6543SOL    HW220529   1.502   6.557   6.260
 6544SOL     OW20530   0.705   5.014   2.571
 6544SOL    HW120531   0.781   5.059   2.526
 6544SOL    HW220532   0.739   4.936   2.624
 6545SOL     OW20533   6.111   2.298   6.509
 6545SOL    HW120534   6.039   2.296   6.578
 6545SOL    HW220535   6.133   2.204   6.480
 6546SOL     OW20536   3.005   4.517   6.271
 6546SOL    HW120537   3.036   4.427   6.301
 6546SOL    HW220538   3.062   4.588   6.312
 6547SOL     OW20539   4.262   1.346   5.833
 6547SOL    HW120540   4.220   1.292   5.760
 6547SOL    HW220541   4.310   1.424   5.793
 6548SOL     OW20542   4.898   3.792   5.605
 6548SOL    HW120543   4.908   3.698   5.574
 6548SOL    HW220544   4.953   3.807   5.687
 6549SOL     OW20545   2.497   2.043   2.267
 6549SOL    HW120546   2.406   2.007   2.292
 6549SOL    HW220547   2.519   2.017   2.173
 6550SOL     OW20548   0.944   5.904   2.170
 6550SOL    HW120549   0.915   5.811   2.191
 6550SOL    HW220550   1.006   5.903   2.091
 6551SOL     OW20551   3.304   5.146   2.148
 6551SOL    HW120552   3.382   5.103   2.103
 6551SOL    HW220553   3.237   5.076   2.172
 6552SOL     OW20554   4.650   4.753   5.700
 6552SOL    HW120555   4.650   4.759   5.600
 6552SOL    HW220556   4.574   4.695   5.731
 6553SOL     OW20557   6.315   3.556   2.864
 6553SOL    HW120558   6.221   3.586   2.877
 6553SOL    HW220559   6.360   3.549   2.953
 6554SOL     OW20560   6.638   2.916   4.451
 6554SOL    HW120561   6.714   2.976   4.475
 6554SOL    HW220562   6.674   2.834   4.405
 6555SOL     OW20563   0.657   1.575   1.572
 6555SOL    HW120564   0.571   1.618   1.545
 6555SOL    HW220565   0.639   1.482   1.603
 6556SOL     OW20566   2.982   6.945   2.979
 6556SOL    HW120567   2.989   6.886   2.899
 6556SOL    HW220568   2.937   6.896   3.053
 6557SOL     OW20569   4.977   6.184   0.622
 6557SOL    HW120570   5.068   6.224   0.636
 6557SOL    HW220571   4.956   6.182   0.524
 6558SOL     OW20572   5.951   6.763   6.355
 6558SOL    HW120573   6.032   6.789   6.303
 6558SOL    HW220574   5.873   6.755   6.293
 6559SOL     OW20575   3.196   4.031   0.951
 6559SOL    HW120576   3.255   3.964   0.997
 6559SOL    HW220577   3.225   4.041   0.856
 6560SOL     OW20578   4.621   1.900   1.165
 6560SOL    HW120579   4.632   1.990   1.209
 6560SOL    HW220580   4.560   1.909   1.087
 6561SOL     OW20581   3.333   3.184   4.857
 6561SOL    HW120582   3.239   3.167   4.829
 6561SOL    HW220583   3.333   3.239   4.940
 6562SOL     OW20584   0.185   4.365   5.188
 6562SOL    HW120585   0.092   4.395   5.207
 6562SOL    HW220586   0.184   4.271   5.155
 6563SOL     OW20587   1.167   6.462   2.435
 6563SOL    HW120588   1.091   6.519   2.406
 6563SOL    HW220589   1.226   6.443   2.356
 6564SOL     OW20590   1.796   5.034   2.931
 6564SOL    HW120591   1.884   5.010   2.972
 6564SOL    HW220592   1.734   4.957   2.936
 6565SOL     OW20593   0.228   3.500   5.372
 6565SOL    HW120594   0.206   3.592   5.403
 6565SOL    HW220595   0.147   3.442   5.381
 6566SOL     OW20596   4.513   1.430   0.653
 6566SOL    HW120597   4.554   1.512   0.691
 6566SOL    HW220598   4.488   1.446   0.557
 6567SOL     OW20599   0.090   2.617   0.839
 6567SOL    HW120600   0.080   2.670   0.755
 6567SOL    HW220601   0.014   2.553   0.848
 6568SOL     OW20602   5.217   3.403   1.510
 6568SOL    HW120603   5.232   3.340   1.586
 6568SOL    HW220604   5.134   3.457   1.527
 6569SOL     OW20605   1.191   4.199   5.841
 6569SOL    HW120606   1.120   4.167   5.904
 6569SOL    HW220607   1.153   4.268   5.780
 6570SOL     OW20608   0.411   3.962   2.203
 6570SOL    HW120609   0.414   4.048   2.255
 6570SOL    HW220610   0.319   3.924   2.206
 6571SOL     OW20611   2.037   5.236   4.145
 6571SOL    HW120612   1.986   5.150   4.145
 6571SOL    HW220613   1.985   5.305   4.196
 6572SOL     OW20614   1.854   3.467   5.146
 6572SOL    HW120615   1.826   3.371   5.133
 6572SOL    HW220616   1.801   3.525   5.085
 6573SOL     OW20617   1.300   2.394   1.456
 6573SOL    HW120618   1.343   2.457   1.391
 6573SOL    HW220619   1.290   2.304   1.414
 6574SOL     OW20620   2.125   5.027   4.480
 6574SOL    HW120621   2.186   5.011   4.402
 6574SOL    HW220622   2.166   5.096   4.541
 6575SOL     OW20623   1.534   1.169   2.468
 6575SOL    HW120624   1.489   1.138   2.383
 6575SOL    HW220625   1.496   1.257   2.496
 6576SOL     OW20626   0.220   5.352   4.229
 6576SOL    HW120627   0.191   5.311   4.316
 6576SOL    HW220628   0.228   5.451   4.241
 6577SOL     OW20629   0.949   3.840   5.567
 6577SOL    HW120630   0.898   3.834   5.653
 6577SOL    HW220631   0.997   3.753   5.550
 6578SOL     OW20632   5.710   5.978   4.204
 6578SOL    HW120633   5.783   5.915   4.176
 6578SOL    HW220634   5.749   6.053   4.258
 6579SOL     OW20635   0.260   4.039   3.942
 6579SOL    HW120636   0.236   4.048   4.039
 6579SOL    HW220637   0.258   3.942   3.916
 6580SOL     OW20638   5.564   2.470   1.014
 6580SOL    HW120639   5.479   2.522   0.998
 6580SOL    HW220640   5.640   2.534   1.027
 6581SOL     OW20641   2.787   1.850   5.279
 6581SOL    HW120642   2.753   1.892   5.363
 6581SOL    HW220643   2.813   1.922   5.214
 6582SOL     OW20644   6.022   0.371   2.657
 6582SOL    HW120645   6.099   0.408   2.605
 6582SOL    HW220646   6.014   0.420   2.743
 6583SOL     OW20647   5.970   0.596   6.211
 6583SOL    HW120648   6.005   0.553   6.127
 6583SOL    HW220649   5.873   0.618   6.199
 6584SOL     OW20650   5.956   2.246   0.599
 6584SOL    HW120651   5.861   2.252   0.568
 6584SOL    HW220652   6.012   2.313   0.549
 6585SOL     OW20653   2.341   0.717   2.775
 6585SOL    HW120654   2.304   0.632   2.812
 6585SOL    HW220655   2.386   0.768   2.848
 6586SOL     OW20656   5.914   0.372   6.610
 6586SOL    HW120657   5.880   0.416   6.526
 6586SOL    HW220658   5.864   0.407   6.689
 6587SOL     OW20659   1.859   5.903   1.989
 6587SOL    HW120660   1.954   5.901   2.020
 6587SOL    HW220661   1.857   5.899   1.889
 6588SOL     OW20662   3.665   3.608   0.297
 6588SOL    HW120663   3.643   3.550   0.376
 6588SOL    HW220664   3.745   3.664   0.318
 6589SOL     OW20665   4.641   1.770   5.825
 6589SOL    HW120666   4.732   1.740   5.853
 6589SOL    HW220667   4.610   1.844   5.886
 6590SOL     OW20668   6.458   2.070   5.609
 6590SOL    HW120669   6.440   2.044   5.514
 6590SOL    HW220670   6.534   2.015   5.644
 6591SOL     OW20671   4.673   0.169   2.499
 6591SOL    HW120672   4.662   0.075   2.468
 6591SOL    HW220673   4.752   0.210   2.453
 6592SOL     OW20674   6.075   4.761   5.391
 6592SOL    HW120675   6.023   4.846   5.389
 6592SOL    HW220676   6.023   4.690   5.437
 6593SOL     OW20677   5.402   1.360   2.577
 6593SOL    HW120678   5.441   1.401   2.660
 6593SOL    HW220679   5.339   1.287   2.603
 6594SOL     OW20680   5.447   0.453   6.826
 6594SOL    HW120681   5.500   0.438   6.743
 6594SOL    HW220682   5.499   0.421   6.905
 6595SOL     OW20683   3.930   2.969   6.321
 6595SOL    HW120684   3.871   3.027   6.265
 6595SOL    HW220685   3.906   2.980   6.418
 6596SOL     OW20686   2.190   5.531   4.860
 6596SOL    HW120687   2.263   5.535   4.792
 6596SOL    HW220688   2.105   5.565   4.820
 6597SOL     OW20689   0.166   4.188   0.470
 6597SOL    HW120690   0.093   4.253   0.491
 6597SOL    HW220691   0.220   4.171   0.553
 6598SOL     OW20692   3.295   6.369   4.178
 6598SOL    HW120693   3.259   6.445   4.232
 6598SOL    HW220694   3.264   6.283   4.218
 6599SOL     OW20695   4.234   3.882   5.952
 6599SOL    HW120696   4.139   3.913   5.948
 6599SOL    HW220697   4.253   3.825   5.872
 6600SOL     OW20698   4.491   4.760   4.978
 6600SOL    HW120699   4.438   4.681   4.947
 6600SOL    HW220700   4.582   4.758   4.936
 6601SOL     OW20701   1.139   1.124   2.506
 6601SOL    HW120702   1.066   1.190   2.488
 6601SOL    HW220703   1.207   1.129   2.432
 6602SOL     OW20704   5.498   1.560   1.238
 6602SOL    HW120705   5.521   1.514   1.323
 6602SOL    HW220706   5.451   1.496   1.177
 6603SOL     OW20707   3.145   2.233   1.506
 6603SOL    HW120708   3.143   2.133   1.502
 6603SOL    HW220709   3.179   2.262   1.596
 6604SOL     OW20710   4.570   5.286   5.141
 6604SOL    HW120711   4.541   5.191   5.145
 6604SOL    HW220712   4.489   5.345   5.136
 6605SOL     OW20713   4.983   5.580   0.886
 6605SOL    HW120714   5.055   5.613   0.824
 6605SOL    HW220715   4.915   5.652   0.898
 6606SOL     OW20716   0.409   2.937   3.127
 6606SOL    HW120717   0.466   2.949   3.208
 6606SOL    HW220718   0.413   3.019   3.071
 6607SOL     OW20719   2.117   3.796   2.851
 6607SOL    HW120720   2.157   3.731   2.786
 6607SOL    HW220721   2.019   3.805   2.832
 6608SOL     OW20722   5.161   4.349   4.608
 6608SOL    HW120723   5.237   4.284   4.614
 6608SOL    HW220724   5.080   4.302   4.573
 6609SOL     OW20725   5.684   2.551   6.580
 6609SOL    HW120726   5.623   2.476   6.606
 6609SOL    HW220727   5.686   2.560   6.480
 6610SOL     OW20728   4.259   1.084   0.453
 6610SOL    HW120729   4.343   1.082   0.507
 6610SOL    HW220730   4.193   1.144   0.498
 6611SOL     OW20731   5.990   3.034   2.031
 6611SOL    HW120732   6.003   2.935   2.026
 6611SOL    HW220733   5.899   3.057   1.995
 6612SOL     OW20734   0.525   5.441   6.533
 6612SOL    HW120735   0.512   5.505   6.609
 6612SOL    HW220736   0.440   5.392   6.516
 6613SOL     OW20737   6.049   4.896   0.482
 6613SOL    HW120738   6.113   4.849   0.542
 6613SOL    HW220739   5.996   4.830   0.430
 6614SOL     OW20740   5.737   4.022   6.516
 6614SOL    HW120741   5.731   4.028   6.416
 6614SOL    HW220742   5.649   3.995   6.554
 6615SOL     OW20743   0.263   3.459   4.735
 6615SOL    HW120744   0.315   3.538   4.702
 6615SOL    HW220745   0.302   3.428   4.822
 6616SOL     OW20746   5.000   1.487   3.984
 6616SOL    HW120747   4.985   1.412   4.049
 6616SOL    HW220748   5.009   1.449   3.892
 6617SOL     OW20749   4.086   0.885   4.220
 6617SOL    HW120750   4.060   0.814   4.154
 6617SOL    HW220751   4.021   0.961   4.215
 6618SOL     OW20752   0.067   4.382   1.350
 6618SOL    HW120753   0.073   4.283   1.347
 6618SOL    HW220754   7.000   4.412   1.309
 6619SOL     OW20755   5.867   5.625   2.471
 6619SOL    HW120756   5.941   5.630   2.538
 6619SOL    HW220757   5.832   5.717   2.453
 6620SOL     OW20758   5.160   3.379   5.415
 6620SOL    HW120759   5.132   3.353   5.323
 6620SOL    HW220760   5.227   3.453   5.411
 6621SOL     OW20761   4.060   3.474   1.554
 6621SOL    HW120762   4.015   3.479   1.643
 6621SOL    HW220763   4.056   3.380   1.520
 6622SOL     OW20764   5.864   5.166   0.269
 6622SOL    HW120765   5.902   5.256   0.291
 6622SOL    HW220766   5.876   5.104   0.346
 6623SOL     OW20767   3.027   3.799   2.739
 6623SOL    HW120768   2.983   3.810   2.650
 6623SOL    HW220769   3.022   3.885   2.790
 6624SOL     OW20770   4.482   4.788   4.438
 6624SOL    HW120771   4.491   4.836   4.525
 6624SOL    HW220772   4.514   4.693   4.448
 6625SOL     OW20773   5.257   6.286   0.294
 6625SOL    HW120774   5.279   6.298   0.391
 6625SOL    HW220775   5.294   6.198   0.262
 6626SOL     OW20776   2.457   5.307   4.431
 6626SOL    HW120777   2.539   5.317   4.375
 6626SOL    HW220778   2.378   5.343   4.381
 6627SOL     OW20779   0.389   0.894   1.215
 6627SOL    HW120780   0.317   0.961   1.204
 6627SOL    HW220781   0.441   0.886   1.130
 6628SOL     OW20782   3.582   6.113   4.362
 6628SOL    HW120783   3.592   6.168   4.280
 6628SOL    HW220784   3.498   6.139   4.410
 6629SOL     OW20785   2.798   4.526   0.453
 6629SOL    HW120786   2.895   4.505   0.460
 6629SOL    HW220787   2.751   4.491   0.534
 6630SOL     OW20788   2.962   0.986   6.141
 6630SOL    HW120789   2.968   1.085   6.154
 6630SOL    HW220790   3.052   0.945   6.157
 6631SOL     OW20791   3.626   6.787   2.060
 6631SOL    HW120792   3.592   6.875   2.095
 6631SOL    HW220793   3.723   6.778   2.083
 6632SOL     OW20794   6.058   3.244   1.677
 6632SOL    HW120795   5.974   3.219   1.629
 6632SOL    HW220796   6.131   3.260   1.610
 6633SOL     OW20797   1.158   6.019   3.156
 6633SOL    HW120798   1.186   6.010   3.251
 6633SOL    HW220799   1.161   6.115   3.129
 6634SOL     OW20800   6.559   2.151   4.986
 6634SOL    HW120801   6.576   2.163   4.889
 6634SOL    HW220802   6.480   2.091   4.999
 6635SOL     OW20803   3.899   5.177   3.917
 6635SOL    HW120804   3.948   5.234   3.983
 6635SOL    HW220805   3.896   5.083   3.950
 6636SOL     OW20806   2.048   3.361   2.421
 6636SOL    HW120807   1.966   3.413   2.447
 6636SOL    HW220808   2.066   3.375   2.323
 6637SOL     OW20809   0.159   2.614   0.253
 6637SOL    HW120810   0.109   2.529   0.235
 6637SOL    HW220811   0.128   2.653   0.340
 6638SOL     OW20812   1.632   0.584   6.596
 6638SOL    HW120813   1.679   0.514   6.650
 6638SOL    HW220814   1.599   0.543   6.511
 6639SOL     OW20815   3.918   5.304   6.299
 6639SOL    HW120816   3.884   5.265   6.213
 6639SOL    HW220817   3.866   5.266   6.375
 6640SOL     OW20818   5.095   3.986   3.319
 6640SOL    HW120819   5.128   3.892   3.322
 6640SOL    HW220820   4.995   3.986   3.321
 6641SOL     OW20821   2.444   5.051   6.436
 6641SOL    HW120822   2.468   5.124   6.372
 6641SOL    HW220823   2.527   5.021   6.485
 6642SOL     OW20824   6.437   6.332   5.882
 6642SOL    HW120825   6.526   6.293   5.907
 6642SOL    HW220826   6.397   6.376   5.962
 6643SOL     OW20827   4.349   5.720   0.805
 6643SOL    HW120828   4.371   5.640   0.861
 6643SOL    HW220829   4.281   5.695   0.736
 6644SOL     OW20830   0.884   3.347   2.294
 6644SOL    HW120831   0.954   3.418   2.305
 6644SOL    HW220832   0.896   3.302   2.206
 6645SOL     OW20833   0.315   5.073   5.354
 6645SOL    HW120834   0.274   5.164   5.355
 6645SOL    HW220835   0.413   5.081   5.336
 6646SOL     OW20836   1.917   5.738   3.598
 6646SOL    HW120837   1.995   5.708   3.543
 6646SOL    HW220838   1.915   5.687   3.684
 6647SOL     OW20839   4.348   1.399   1.936
 6647SOL    HW120840   4.288   1.447   2.000
 6647SOL    HW220841   4.346   1.446   1.848
 6648SOL     OW20842   3.449   5.484   2.153
 6648SOL    HW120843   3.506   5.468   2.233
 6648SOL    HW220844   3.504   5.476   2.070
 6649SOL     OW20845   4.088   1.988   5.572
 6649SOL    HW120846   4.111   1.894   5.599
 6649SOL    HW220847   3.990   1.995   5.556
 6650SOL     OW20848   3.356   1.445   4.109
 6650SOL    HW120849   3.297   1.437   4.189
 6650SOL    HW220850   3.437   1.387   4.121
 6651SOL     OW20851   0.752   1.685   1.283
 6651SOL    HW120852   0.676   1.660   1.343
 6651SOL    HW220853   0.779   1.780   1.302
 6652SOL     OW20854   0.461   5.368   3.630
 6652SOL    HW120855   0.387   5.322   3.582
 6652SOL    HW220856   0.508   5.430   3.567
 6653SOL     OW20857   3.573   4.132   4.012
 6653SOL    HW120858   3.648   4.183   4.055
 6653SOL    HW220859   3.593   4.034   4.016
 6654SOL     OW20860   1.274   3.406   1.895
 6654SOL    HW120861   1.353   3.347   1.880
 6654SOL    HW220862   1.260   3.465   1.815
 6655SOL     OW20863   1.551   1.083   6.901
 6655SOL    HW120864   1.568   0.993   6.862
 6655SOL    HW220865   1.511   1.073   6.993
 6656SOL     OW20866   6.569   1.698   1.610
 6656SOL    HW120867   6.552   1.752   1.528
 6656SOL    HW220868   6.483   1.682   1.658
 6657SOL     OW20869   3.633   4.719   5.568
 6657SOL    HW120870   3.680   4.631   5.565
 6657SOL    HW220871   3.552   4.711   5.625
 6658SOL     OW20872   6.140   6.982   5.436
 6658SOL    HW120873   6.173   6.997   5.343
 6658SOL    HW220874   6.139   6.884   5.455
 6659SOL     OW20875   2.553   2.957   0.453
 6659SOL    HW120876   2.490   3.027   0.487
 6659SOL    HW220877   2.544   2.874   0.508
 6660SOL     OW20878   6.708   6.763   2.963
 6660SOL    HW120879   6.629   6.817   2.993
 6660SOL    HW220880   6.714   6.680   3.018
 6661SOL     OW20881   6.553   6.973   3.999
 6661SOL    HW120882   6.574   0.031   4.060
 6661SOL    HW220883   6.627   6.906   4.004
 6662SOL     OW20884   1.800   3.602   5.673
 6662SOL    HW120885   1.843   3.693   5.667
 6662SOL    HW220886   1.845   3.550   5.746
 6663SOL     OW20887   0.821   5.402   1.902
 6663SOL    HW120888   0.807   5.478   1.839
 6663SOL    HW220889   0.735   5.352   1.914
 6664SOL     OW20890   0.080   1.933   1.634
 6664SOL    HW120891   0.032   1.987   1.704
 6664SOL    HW220892   0.018   1.865   1.596
 6665SOL     OW20893   1.898   6.724   3.477
 6665SOL    HW120894   1.964   6.725   3.402
 6665SOL    HW220895   1.932   6.782   3.551
 6666SOL     OW20896   6.009   0.490   0.348
 6666SOL    HW120897   6.061   0.425   0.404
 6666SOL    HW220898   6.073   0.543   0.292
 6667SOL     OW20899   5.751   5.028   5.602
 6667SOL    HW120900   5.709   5.113   5.634
 6667SOL    HW220901   5.758   4.964   5.679
 6668SOL     OW20902   6.261   6.233   1.007
 6668SOL    HW120903   6.239   6.315   0.954
 6668SOL    HW220904   6.295   6.162   0.946
 6669SOL     OW20905   0.816   4.870   3.487
 6669SOL    HW120906   0.728   4.827   3.505
 6669SOL    HW220907   0.802   4.968   3.472
 6670SOL     OW20908   5.427   4.779   0.469
 6670SOL    HW120909   5.385   4.808   0.555
 6670SOL    HW220910   5.482   4.854   0.432
 6671SOL     OW20911   1.320   2.271   5.337
 6671SOL    HW120912   1.303   2.317   5.423
 6671SOL    HW220913   1.234   2.258   5.288
 6672SOL     OW20914   6.914   1.418   4.960
 6672SOL    HW120915   6.886   1.393   5.052
 6672SOL    HW220916   6.916   1.518   4.951
 6673SOL     OW20917   3.181   6.068   1.578
 6673SOL    HW120918   3.095   6.042   1.624
 6673SOL    HW220919   3.194   6.167   1.586
 6674SOL     OW20920   0.942   5.862   4.818
 6674SOL    HW120921   0.976   5.772   4.844
 6674SOL    HW220922   0.936   5.868   4.718
 6675SOL     OW20923   6.581   6.665   6.275
 6675SOL    HW120924   6.616   6.709   6.357
 6675SOL    HW220925   6.575   6.567   6.289
 6676SOL     OW20926   0.372   1.258   0.794
 6676SOL    HW120927   0.371   1.230   0.890
 6676SOL    HW220928   0.446   1.209   0.747
 6677SOL     OW20929   0.776   4.541   0.618
 6677SOL    HW120930   0.708   4.506   0.682
 6677SOL    HW220931   0.810   4.466   0.560
 6678SOL     OW20932   0.439   3.934   4.219
 6678SOL    HW120933   0.341   3.952   4.220
 6678SOL    HW220934   0.470   3.923   4.125
 6679SOL     OW20935   2.437   1.508   4.660
 6679SOL    HW120936   2.421   1.500   4.758
 6679SOL    HW220937   2.494   1.588   4.641
 6680SOL     OW20938   3.031   0.851   0.059
 6680SOL    HW120939   3.017   0.923   7.009
 6680SOL    HW220940   3.023   0.762   0.014
 6681SOL     OW20941   5.893   5.097   6.591
 6681SOL    HW120942   5.989   5.096   6.620
 6681SOL    HW220943   5.874   5.180   6.539
 6682SOL     OW20944   6.271   4.723   2.545
 6682SOL    HW120945   6.227   4.807   2.511
 6682SOL    HW220946   6.260   4.717   2.644
 6683SOL     OW20947   5.706   3.104   3.942
 6683SOL    HW120948   5.682   3.067   4.031
 6683SOL    HW220949   5.802   3.129   3.941
 6684SOL     OW20950   1.708   0.691   1.747
 6684SOL    HW120951   1.654   0.734   1.819
 6684SOL    HW220952   1.703   0.747   1.664
 6685SOL     OW20953   6.195   2.784   6.964
 6685SOL    HW120954   6.223   2.875   6.994
 6685SOL    HW220955   6.210   2.718   0.019
 6686SOL     OW20956   4.938   4.428   3.871
 6686SOL    HW120957   4.961   4.522   3.895
 6686SOL    HW220958   4.913   4.378   3.954
 6687SOL     OW20959   0.439   6.813   6.838
 6687SOL    HW120960   0.371   6.886   6.827
 6687SOL    HW220961   0.498   6.810   6.758
 6688SOL     OW20962   0.578   4.632   2.977
 6688SOL    HW120963   0.496   4.595   3.020
 6688SOL    HW220964   0.653   4.631   3.043
 6689SOL     OW20965   5.902   3.520   0.373
 6689SOL    HW120966   5.869   3.513   0.279
 6689SOL    HW220967   5.860   3.600   0.416
 6690SOL     OW20968   0.365   1.083   0.469
 6690SOL    HW120969   0.279   1.129   0.494
 6690SOL    HW220970   0.440   1.122   0.523
 6691SOL     OW20971   0.890   5.450   1.142
 6691SOL    HW120972   0.802   5.496   1.153
 6691SOL    HW220973   0.875   5.358   1.107
 6692SOL     OW20974   4.893   3.363   6.431
 6692SOL    HW120975   4.863   3.458   6.432
 6692SOL    HW220976   4.991   3.358   6.413
 6693SOL     OW20977   3.796   3.215   6.183
 6693SOL    HW120978   3.785   3.152   6.107
 6693SOL    HW220979   3.715   3.211   6.242
 6694SOL     OW20980   2.599   5.733   0.302
 6694SOL    HW120981   2.627   5.790   0.225
 6694SOL    HW220982   2.570   5.643   0.268
 6695SOL     OW20983   1.848   1.618   0.073
 6695SOL    HW120984   1.810   1.525   0.071
 6695SOL    HW220985   1.916   1.628   0.000
 6696SOL     OW20986   1.581   2.045   1.094
 6696SOL    HW120987   1.495   1.994   1.100
 6696SOL    HW220988   1.640   2.003   1.025
 6697SOL     OW20989   5.305   3.662   4.639
 6697SOL    HW120990   5.255   3.749   4.639
 6697SOL    HW220991   5.392   3.674   4.688
 6698SOL     OW20992   2.378   4.538   5.676
 6698SOL    HW120993   2.363   4.467   5.745
 6698SOL    HW220994   2.448   4.507   5.612
 6699SOL     OW20995   1.670   3.256   6.798
 6699SOL    HW120996   1.613   3.222   6.872
 6699SOL    HW220997   1.680   3.185   6.728
 6700SOL     OW20998   0.281   6.255   6.290
 6700SOL    HW120999   0.288   6.259   6.190
 6700SOL    HW221000   0.188   6.230   6.316
 6701SOL     OW21001   1.707   2.129   6.866
 6701SOL    HW121002   1.796   2.174   6.863
 6701SOL    HW221003   1.656   2.162   6.946
 6702SOL     OW21004   3.196   3.265   0.684
 6702SOL    HW121005   3.111   3.272   0.633
 6702SOL    HW221006   3.221   3.355   0.721
 6703SOL     OW21007   0.600   1.938   0.413
 6703SOL    HW121008   0.549   1.965   0.495
 6703SOL    HW221009   0.632   2.020   0.366
 6704SOL     OW21010   5.151   3.351   2.647
 6704SOL    HW121011   5.202   3.297   2.580
 6704SOL    HW221012   5.193   3.441   2.656
 6705SOL     OW21013   4.889   2.513   0.997
 6705SOL    HW121014   4.967   2.543   1.053
 6705SOL    HW221015   4.885   2.568   0.914
 6706SOL     OW21016   1.447   6.817   6.644
 6706SOL    HW121017   1.380   6.746   6.669
 6706SOL    HW221018   1.400   6.892   6.597
 6707SOL     OW21019   1.026   5.202   3.407
 6707SOL    HW121020   0.931   5.200   3.376
 6707SOL    HW221021   1.073   5.280   3.364
 6708SOL     OW21022   2.527   5.864   1.001
 6708SOL    HW121023   2.555   5.960   0.999
 6708SOL    HW221024   2.459   5.848   0.930
 6709SOL     OW21025   5.020   1.790   3.968
 6709SOL    HW121026   5.011   1.691   3.971
 6709SOL    HW221027   5.039   1.818   3.874
 6710SOL     OW21028   2.761   2.307   0.656
 6710SOL    HW121029   2.820   2.253   0.716
 6710SOL    HW221030   2.729   2.249   0.581
 6711SOL     OW21031   5.763   3.576   6.151
 6711SOL    HW121032   5.700   3.534   6.216
 6711SOL    HW221033   5.711   3.606   6.071
 6712SOL     OW21034   3.426   6.366   0.454
 6712SOL    HW121035   3.367   6.322   0.521
 6712SOL    HW221036   3.520   6.366   0.487
 6713SOL     OW21037   0.537   2.682   3.102
 6713SOL    HW121038   0.497   2.773   3.095
 6713SOL    HW221039   0.466   2.616   3.126
 6714SOL     OW21040   6.566   1.125   5.092
 6714SOL    HW121041   6.578   1.219   5.121
 6714SOL    HW221042   6.470   1.100   5.098
 6715SOL     OW21043   5.177   2.854   1.557
 6715SOL    HW121044   5.187   2.809   1.646
 6715SOL    HW221045   5.234   2.936   1.554
 6716SOL     OW21046   3.500   5.756   1.082
 6716SOL    HW121047   3.566   5.800   1.142
 6716SOL    HW221048   3.538   5.746   0.990
 6717SOL     OW21049   3.521   0.974   7.010
 6717SOL    HW121050   3.568   0.908   0.051
 6717SOL    HW221051   3.429   0.990   0.027
 6718SOL     OW21052   4.443   0.278   6.540
 6718SOL    HW121053   4.475   0.373   6.551
 6718SOL    HW221054   4.385   0.272   6.459
 6719SOL     OW21055   1.174   2.017   5.075
 6719SOL    HW121056   1.249   1.976   5.022
 6719SOL    HW221057   1.195   2.112   5.094
 6720SOL     OW21058   1.642   4.633   0.246
 6720SOL    HW121059   1.708   4.627   0.171
 6720SOL    HW221060   1.689   4.655   0.331
 6721SOL     OW21061   6.122   6.597   2.665
 6721SOL    HW121062   6.045   6.541   2.637
 6721SOL    HW221063   6.146   6.660   2.592
 6722SOL     OW21064   3.822   4.611   6.624
 6722SOL    HW121065   3.726   4.640   6.627
 6722SOL    HW221066   3.874   4.659   6.695
 6723SOL     OW21067   3.655   1.974   2.614
 6723SOL    HW121068   3.688   1.880   2.600
 6723SOL    HW221069   3.733   2.037   2.615
 6724SOL     OW21070   3.612   4.740   5.881
 6724SOL    HW121071   3.625   4.817   5.944
 6724SOL    HW221072   3.517   4.708   5.887
 6725SOL     OW21073   0.730   6.177   1.635
 6725SOL    HW121074   0.778   6.196   1.549
 6725SOL    HW221075   0.758   6.243   1.704
 6726SOL     OW21076   2.326   2.498   1.641
 6726SOL    HW121077   2.411   2.447   1.625
 6726SOL    HW221078   2.323   2.577   1.580
 6727SOL     OW21079   2.897   4.058   1.293
 6727SOL    HW121080   2.895   4.144   1.242
 6727SOL    HW221081   2.953   4.070   1.374
 6728SOL     OW21082   4.224   1.687   3.882
 6728SOL    HW121083   4.281   1.605   3.878
 6728SOL    HW221084   4.183   1.696   3.973
 6729SOL     OW21085   3.784   5.585   3.502
 6729SOL    HW121086   3.757   5.514   3.438
 6729SOL    HW221087   3.787   5.673   3.454
 6730SOL     OW21088   1.248   6.756   2.841
 6730SOL    HW121089   1.320   6.759   2.772
 6730SOL    HW221090   1.165   6.797   2.804
 6731SOL     OW21091   1.811   4.023   0.938
 6731SOL    HW121092   1.832   4.118   0.961
 6731SOL    HW221093   1.836   3.964   1.015
 6732SOL     OW21094   3.497   5.682   0.382
 6732SOL    HW121095   3.435   5.622   0.432
 6732SOL    HW221096   3.525   5.638   0.296
 6733SOL     OW21097   6.431   5.810   4.343
 6733SOL    HW121098   6.524   5.838   4.368
 6733SOL    HW221099   6.421   5.812   4.243
 6734SOL     OW21100   2.851   3.713   6.830
 6734SOL    HW121101   2.893   3.635   6.784
 6734SOL    HW221102   2.821   3.780   6.762
 6735SOL     OW21103   0.393   6.490   5.812
 6735SOL    HW121104   0.492   6.500   5.803
 6735SOL    HW221105   0.348   6.575   5.783
 6736SOL     OW21106   2.011   4.360   2.032
 6736SOL    HW121107   2.109   4.343   2.044
 6736SOL    HW221108   1.993   4.458   2.043
 6737SOL     OW21109   1.564   0.133   1.183
 6737SOL    HW121110   1.485   0.183   1.218
 6737SOL    HW221111   1.589   0.060   1.247
 6738SOL     OW21112   5.060   1.686   0.631
 6738SOL    HW121113   5.128   1.633   0.680
 6738SOL    HW221114   5.001   1.733   0.697
 6739SOL     OW21115   3.802   5.261   6.045
 6739SOL    HW121116   3.771   5.351   6.016
 6739SOL    HW221117   3.849   5.216   5.969
 6740SOL     OW21118   5.543   2.433   5.590
 6740SOL    HW121119   5.499   2.461   5.504
 6740SOL    HW221120   5.639   2.459   5.588
 6741SOL     OW21121   0.260   0.854   5.463
 6741SOL    HW121122   0.336   0.908   5.428
 6741SOL    HW221123   0.289   0.760   5.478
 6742SOL     OW21124   5.834   5.765   5.244
 6742SOL    HW121125   5.929   5.792   5.226
 6742SOL    HW221126   5.805   5.801   5.333
 6743SOL     OW21127   5.814   2.151   0.908
 6743SOL    HW121128   5.772   2.104   0.985
 6743SOL    HW221129   5.838   2.245   0.935
 6744SOL     OW21130   4.090   0.720   3.710
 6744SOL    HW121131   4.111   0.788   3.780
 6744SOL    HW221132   4.003   0.675   3.732
 6745SOL     OW21133   0.961   3.907   3.472
 6745SOL    HW121134   1.052   3.905   3.513
 6745SOL    HW221135   0.893   3.876   3.539
 6746SOL     OW21136   6.347   0.181   0.102
 6746SOL    HW121137   6.306   0.106   0.153
 6746SOL    HW221138   6.349   0.264   0.159
 6747SOL     OW21139   5.138   5.400   5.917
 6747SOL    HW121140   5.171   5.436   6.004
 6747SOL    HW221141   5.083   5.318   5.933
 6748SOL     OW21142   6.076   6.826   2.286
 6748SOL    HW121143   6.166   6.810   2.328
 6748SOL    HW221144   6.022   6.886   2.346
 6749SOL     OW21145   3.097   4.959   0.931
 6749SOL    HW121146   3.162   4.934   1.003
 6749SOL    HW221147   3.005   4.936   0.961
 6750SOL     OW21148   2.122   3.105   5.129
 6750SOL    HW121149   2.219   3.083   5.118
 6750SOL    HW221150   2.089   3.152   5.047
 6751SOL     OW21151   4.808   2.543   5.673
 6751SOL    HW121152   4.859   2.569   5.755
 6751SOL    HW221153   4.711   2.562   5.686
 6752SOL     OW21154   6.276   1.058   0.336
 6752SOL    HW121155   6.367   1.018   0.347
 6752SOL    HW221156   6.271   1.143   0.389
 6753SOL     OW21157   5.678   0.587   6.146
 6753SOL    HW121158   5.704   0.499   6.187
 6753SOL    HW221159   5.606   0.573   6.079
 6754SOL     OW21160   4.263   1.353   6.742
 6754SOL    HW121161   4.274   1.452   6.745
 6754SOL    HW221162   4.224   1.326   6.654
 6755SOL     OW21163   4.984   1.591   2.935
 6755SOL    HW121164   5.049   1.587   2.859
 6755SOL    HW221165   4.958   1.687   2.950
 6756SOL     OW21166   4.140   5.044   2.856
 6756SOL    HW121167   4.131   5.099   2.940
 6756SOL    HW221168   4.227   5.065   2.812
 6757SOL     OW21169   6.200   3.837   1.530
 6757SOL    HW121170   6.172   3.816   1.436
 6757SOL    HW221171   6.288   3.792   1.549
 6758SOL     OW21172   6.866   2.400   2.540
 6758SOL    HW121173   6.958   2.379   2.572
 6758SOL    HW221174   6.810   2.430   2.617
 6759SOL     OW21175   6.981   5.485   4.327
 6759SOL    HW121176   0.003   5.403   4.367
 6759SOL    HW221177   0.027   5.561   4.335
 6760SOL     OW21178   0.760   3.610   5.308
 6760SOL    HW121179   0.793   3.683   5.248
 6760SOL    HW221180   0.693   3.647   5.372
 6761SOL     OW21181   6.553   2.768   6.773
 6761SOL    HW121182   6.558   2.670   6.752
 6761SOL    HW221183   6.558   2.821   6.688
 6762SOL     OW21184   7.006   1.682   4.253
 6762SOL    HW121185   0.074   1.639   4.279
 6762SOL    HW221186   0.001   1.737   4.171
 6763SOL     OW21187   5.257   6.561   5.527
 6763SOL    HW121188   5.342   6.593   5.486
 6763SOL    HW221189   5.251   6.593   5.622
 6764SOL     OW21190   1.779   3.773   0.033
 6764SOL    HW121191   1.699   3.820   0.070
 6764SOL    HW221192   1.774   3.676   0.055
 6765SOL     OW21193   4.840   5.650   1.974
 6765SOL    HW121194   4.839   5.561   1.929
 6765SOL    HW221195   4.819   5.639   2.071
 6766SOL     OW21196   2.754   2.185   5.077
 6766SOL    HW121197   2.685   2.120   5.106
 6766SOL    HW221198   2.829   2.186   5.143
 6767SOL     OW21199   0.694   2.803   5.963
 6767SOL    HW121200   0.641   2.864   6.023
 6767SOL    HW221201   0.787   2.793   6.000
 6768SOL     OW21202   6.618   0.276   5.521
 6768SOL    HW121203   6.678   0.204   5.487
 6768SOL    HW221204   6.547   0.296   5.453
 6769SOL     OW21205   1.274   2.496   6.434
 6769SOL    HW121206   1.320   2.529   6.351
 6769SOL    HW221207   1.295   2.399   6.446
 6770SOL     OW21208   0.238   2.246   3.415
 6770SOL    HW121209   0.269   2.193   3.494
 6770SOL    HW221210   0.303   2.320   3.397
 6771SOL     OW21211   5.537   2.269   1.950
 6771SOL    HW121212   5.454   2.311   1.913
 6771SOL    HW221213   5.617   2.321   1.919
 6772SOL     OW21214   1.522   6.748   1.677
 6772SOL    HW121215   1.498   6.658   1.713
 6772SOL    HW221216   1.521   6.745   1.577
 6773SOL     OW21217   1.778   1.509   3.348
 6773SOL    HW121218   1.694   1.503   3.402
 6773SOL    HW221219   1.756   1.541   3.255
 6774SOL     OW21220   3.616   0.919   5.382
 6774SOL    HW121221   3.610   0.914   5.482
 6774SOL    HW221222   3.529   0.952   5.345
 6775SOL     OW21223   1.551   2.750   5.125
 6775SOL    HW121224   1.631   2.810   5.131
 6775SOL    HW221225   1.555   2.697   5.041
 6776SOL     OW21226   3.349   3.218   4.151
 6776SOL    HW121227   3.275   3.157   4.180
 6776SOL    HW221228   3.311   3.307   4.127
 6777SOL     OW21229   7.009   0.173   5.192
 6777SOL    HW121230   7.001   0.235   5.114
 6777SOL    HW221231   6.963   0.212   5.271
 6778SOL     OW21232   6.657   5.619   1.476
 6778SOL    HW121233   6.729   5.685   1.457
 6778SOL    HW221234   6.625   5.631   1.571
 6779SOL     OW21235   5.886   3.120   5.630
 6779SOL    HW121236   5.862   3.031   5.592
 6779SOL    HW221237   5.822   3.189   5.596
 6780SOL     OW21238   4.671   0.771   2.140
 6780SOL    HW121239   4.624   0.707   2.078
 6780SOL    HW221240   4.632   0.763   2.232
 6781SOL     OW21241   5.293   3.876   2.940
 6781SOL    HW121242   5.251   3.786   2.950
 6781SOL    HW221243   5.226   3.947   2.961
 6782SOL     OW21244   6.592   1.694   2.842
 6782SOL    HW121245   6.683   1.653   2.846
 6782SOL    HW221246   6.599   1.786   2.804
 6783SOL     OW21247   0.627   6.955   6.523
 6783SOL    HW121248   0.584   0.012   6.571
 6783SOL    HW221249   0.594   6.868   6.560
 6784SOL     OW21250   1.374   4.832   6.418
 6784SOL    HW121251   1.406   4.746   6.377
 6784SOL    HW221252   1.452   4.893   6.433
 6785SOL     OW21253   5.618   4.218   1.360
 6785SOL    HW121254   5.649   4.312   1.345
 6785SOL    HW221255   5.617   4.168   1.273
 6786SOL     OW21256   6.606   1.283   6.539
 6786SOL    HW121257   6.550   1.260   6.618
 6786SOL    HW221258   6.627   1.200   6.487
 6787SOL     OW21259   4.203   2.426   1.657
 6787SOL    HW121260   4.133   2.497   1.661
 6787SOL    HW221261   4.260   2.440   1.576
 6788SOL     OW21262   1.302   4.480   1.289
 6788SOL    HW121263   1.293   4.579   1.282
 6788SOL    HW221264   1.262   4.437   1.208
 6789SOL     OW21265   5.960   2.668   2.533
 6789SOL    HW121266   6.039   2.625   2.577
 6789SOL    HW221267   5.890   2.600   2.516
 6790SOL     OW21268   0.857   5.906   6.710
 6790SOL    HW121269   0.888   6.001   6.713
 6790SOL    HW221270   0.877   5.862   6.798
 6791SOL     OW21271   1.703   6.664   3.910
 6791SOL    HW121272   1.644   6.707   3.978
 6791SOL    HW221273   1.799   6.681   3.934
 6792SOL     OW21274   3.294   5.891   0.381
 6792SOL    HW121275   3.346   5.807   0.365
 6792SOL    HW221276   3.352   5.970   0.364
 6793SOL     OW21277   1.962   3.251   5.841
 6793SOL    HW121278   1.949   3.349   5.856
 6793SOL    HW221279   2.044   3.236   5.786
 6794SOL     OW21280   4.269   2.262   3.655
 6794SOL    HW121281   4.290   2.355   3.625
 6794SOL    HW221282   4.342   2.200   3.624
 6795SOL     OW21283   0.721   0.213   2.373
 6795SOL    HW121284   0.622   0.219   2.382
 6795SOL    HW221285   0.745   0.124   2.332
 6796SOL     OW21286   6.020   2.278   2.185
 6796SOL    HW121287   6.116   2.282   2.209
 6796SOL    HW221288   6.005   2.325   2.098
 6797SOL     OW21289   1.760   4.257   0.296
 6797SOL    HW121290   1.858   4.273   0.282
 6797SOL    HW221291   1.742   4.246   0.394
 6798SOL     OW21292   5.298   2.219   1.566
 6798SOL    HW121293   5.241   2.142   1.595
 6798SOL    HW221294   5.319   2.277   1.644
 6799SOL     OW21295   4.060   6.547   2.968
 6799SOL    HW121296   4.088   6.451   2.960
 6799SOL    HW221297   3.960   6.553   2.971
 6800SOL     OW21298   6.753   2.753   2.650
 6800SOL    HW121299   6.694   2.676   2.624
 6800SOL    HW221300   6.847   2.733   2.624
 6801SOL     OW21301   2.125   5.210   5.328
 6801SOL    HW121302   2.069   5.176   5.403
 6801SOL    HW221303   2.182   5.135   5.293
 6802SOL     OW21304   2.256   4.424   2.599
 6802SOL    HW121305   2.290   4.461   2.685
 6802SOL    HW221306   2.269   4.491   2.526
 6803SOL     OW21307   6.321   5.348   6.158
 6803SOL    HW121308   6.409   5.386   6.185
 6803SOL    HW221309   6.308   5.260   6.205
 6804SOL     OW21310   3.312   5.947   1.355
 6804SOL    HW121311   3.259   5.864   1.337
 6804SOL    HW221312   3.270   5.998   1.431
 6805SOL     OW21313   0.364   4.107   4.530
 6805SOL    HW121314   0.419   4.069   4.604
 6805SOL    HW221315   0.404   4.193   4.498
 6806SOL     OW21316   5.568   3.621   2.339
 6806SOL    HW121317   5.516   3.693   2.386
 6806SOL    HW221318   5.541   3.532   2.374
 6807SOL     OW21319   3.978   3.413   2.609
 6807SOL    HW121320   3.906   3.437   2.674
 6807SOL    HW221321   3.975   3.315   2.591
 6808SOL     OW21322   2.509   6.294   4.428
 6808SOL    HW121323   2.424   6.325   4.471
 6808SOL    HW221324   2.533   6.203   4.463
 6809SOL     OW21325   6.346   2.477   0.505
 6809SOL    HW121326   6.421   2.456   0.441
 6809SOL    HW221327   6.374   2.552   0.565
 6810SOL     OW21328   3.444   6.999   4.883
 6810SOL    HW121329   3.439   0.053   4.814
 6810SOL    HW221330   3.351   6.974   4.912
 6811SOL     OW21331   6.646   2.123   1.606
 6811SOL    HW121332   6.578   2.056   1.635
 6811SOL    HW221333   6.658   2.192   1.678
 6812SOL     OW21334   3.300   4.762   5.506
 6812SOL    HW121335   3.329   4.682   5.559
 6812SOL    HW221336   3.262   4.731   5.418
 6813SOL     OW21337   0.202   3.101   1.544
 6813SOL    HW121338   0.298   3.127   1.546
 6813SOL    HW221339   0.150   3.160   1.606
 6814SOL     OW21340   4.896   2.068   1.455
 6814SOL    HW121341   4.915   2.153   1.505
 6814SOL    HW221342   4.907   1.990   1.516
 6815SOL     OW21343   1.656   6.175   1.155
 6815SOL    HW121344   1.749   6.195   1.126
 6815SOL    HW221345   1.598   6.256   1.142
 6816SOL     OW21346   5.533   0.282   3.455
 6816SOL    HW121347   5.626   0.245   3.451
 6816SOL    HW221348   5.482   0.238   3.529
 6817SOL     OW21349   6.238   0.969   1.031
 6817SOL    HW121350   6.259   0.878   0.995
 6817SOL    HW221351   6.216   0.962   1.128
 6818SOL     OW21352   0.075   6.519   5.683
 6818SOL    HW121353   0.046   6.442   5.626
 6818SOL    HW221354   0.136   6.579   5.631
 6819SOL     OW21355   6.369   3.963   0.694
 6819SOL    HW121356   6.456   3.954   0.646
 6819SOL    HW221357   6.300   4.001   0.632
 6820SOL     OW21358   2.498   4.489   1.122
 6820SOL    HW121359   2.400   4.490   1.105
 6820SOL    HW221360   2.516   4.516   1.217
 6821SOL     OW21361   2.528   3.805   5.963
 6821SOL    HW121362   2.491   3.784   6.053
 6821SOL    HW221363   2.565   3.721   5.923
 6822SOL     OW21364   0.699   4.282   4.899
 6822SOL    HW121365   0.708   4.360   4.961
 6822SOL    HW221366   0.613   4.235   4.917
 6823SOL     OW21367   6.799   3.209   5.610
 6823SOL    HW121368   6.868   3.218   5.539
 6823SOL    HW221369   6.714   3.174   5.570
 6824SOL     OW21370   1.442   0.630   3.613
 6824SOL    HW121371   1.366   0.640   3.677
 6824SOL    HW221372   1.415   0.666   3.524
 6825SOL     OW21373   4.900   5.131   1.371
 6825SOL    HW121374   4.929   5.196   1.441
 6825SOL    HW221375   4.844   5.178   1.303
 6826SOL     OW21376   5.470   0.694   4.251
 6826SOL    HW121377   5.423   0.782   4.255
 6826SOL    HW221378   5.549   0.700   4.191
 6827SOL     OW21379   5.635   5.233   5.361
 6827SOL    HW121380   5.538   5.233   5.385
 6827SOL    HW221381   5.682   5.303   5.414
 6828SOL     OW21382   2.347   1.621   2.527
 6828SOL    HW121383   2.258   1.593   2.491
 6828SOL    HW221384   2.419   1.565   2.488
 6829SOL     OW21385   5.690   6.403   5.144
 6829SOL    HW121386   5.706   6.414   5.242
 6829SOL    HW221387   5.718   6.311   5.116
 6830SOL     OW21388   3.934   6.535   3.740
 6830SOL    HW121389   3.997   6.508   3.667
 6830SOL    HW221390   3.863   6.594   3.701
 6831SOL     OW21391   1.821   0.364   6.672
 6831SOL    HW121392   1.732   0.324   6.692
 6831SOL    HW221393   1.866   0.312   6.599
 6832SOL     OW21394   4.183   3.866   0.412
 6832SOL    HW121395   4.153   3.838   0.320
 6832SOL    HW221396   4.219   3.787   0.461
 6833SOL     OW21397   4.108   5.682   0.660
 6833SOL    HW121398   4.150   5.660   0.572
 6833SOL    HW221399   4.030   5.743   0.647
 6834SOL     OW21400   6.574   5.696   5.032
 6834SOL    HW121401   6.662   5.735   5.003
 6834SOL    HW221402   6.577   5.597   5.021
 6835SOL     OW21403   3.421   0.440   3.178
 6835SOL    HW121404   3.443   0.381   3.100
 6835SOL    HW221405   3.498   0.501   3.196
 6836SOL     OW21406   0.961   4.542   6.438
 6836SOL    HW121407   1.043   4.504   6.482
 6836SOL    HW221408   0.884   4.537   6.501
 6837SOL     OW21409   6.048   2.503   1.616
 6837SOL    HW121410   6.004   2.472   1.701
 6837SOL    HW221411   6.119   2.438   1.589
 6838SOL     OW21412   2.118   4.647   6.801
 6838SOL    HW121413   2.048   4.716   6.820
 6838SOL    HW221414   2.110   4.616   6.706
 6839SOL     OW21415   6.907   2.684   5.274
 6839SOL    HW121416   6.977   2.612   5.284
 6839SOL    HW221417   6.869   2.706   5.364
 6840SOL     OW21418   3.055   0.364   4.340
 6840SOL    HW121419   3.046   0.458   4.305
 6840SOL    HW221420   2.994   0.304   4.288
 6841SOL     OW21421   5.067   5.906   0.644
 6841SOL    HW121422   5.075   5.903   0.744
 6841SOL    HW221423   5.002   5.978   0.619
 6842SOL     OW21424   6.871   3.532   3.035
 6842SOL    HW121425   6.946   3.535   2.969
 6842SOL    HW221426   6.784   3.524   2.987
 6843SOL     OW21427   4.382   3.075   1.683
 6843SOL    HW121428   4.450   3.039   1.746
 6843SOL    HW221429   4.303   3.013   1.680
 6844SOL     OW21430   3.329   6.445   3.880
 6844SOL    HW121431   3.318   6.353   3.842
 6844SOL    HW221432   3.357   6.437   3.976
 6845SOL     OW21433   4.022   4.435   0.027
 6845SOL    HW121434   3.946   4.491   7.013
 6845SOL    HW221435   3.993   4.381   0.106
 6846SOL     OW21436   3.629   3.147   4.161
 6846SOL    HW121437   3.647   3.210   4.236
 6846SOL    HW221438   3.531   3.151   4.137
 6847SOL     OW21439   5.155   3.437   0.912
 6847SOL    HW121440   5.243   3.413   0.954
 6847SOL    HW221441   5.137   3.534   0.929
 6848SOL     OW21442   1.126   5.993   4.389
 6848SOL    HW121443   1.073   5.974   4.306
 6848SOL    HW221444   1.201   6.056   4.367
 6849SOL     OW21445   2.571   0.551   4.372
 6849SOL    HW121446   2.487   0.528   4.322
 6849SOL    HW221447   2.577   0.651   4.381
 6850SOL     OW21448   0.177   2.257   1.769
 6850SOL    HW121449   0.226   2.173   1.791
 6850SOL    HW221450   0.087   2.234   1.731
 6851SOL     OW21451   2.122   5.273   0.895
 6851SOL    HW121452   2.098   5.217   0.816
 6851SOL    HW221453   2.122   5.216   0.978
 6852SOL     OW21454   4.810   4.873   2.898
 6852SOL    HW121455   4.819   4.779   2.866
 6852SOL    HW221456   4.897   4.905   2.934
 6853SOL     OW21457   6.104   4.268   4.449
 6853SOL    HW121458   6.080   4.266   4.352
 6853SOL    HW221459   6.022   4.276   4.505
 6854SOL     OW21460   5.985   0.708   6.503
 6854SOL    HW121461   6.029   0.651   6.434
 6854SOL    HW221462   6.022   0.687   6.593
 6855SOL     OW21463   2.819   6.830   3.181
 6855SOL    HW121464   2.781   6.737   3.182
 6855SOL    HW221465   2.798   6.875   3.267
 6856SOL     OW21466   0.822   5.304   5.786
 6856SOL    HW121467   0.867   5.229   5.737
 6856SOL    HW221468   0.742   5.269   5.834
 6857SOL     OW21469   4.597   1.026   6.326
 6857SOL    HW121470   4.656   1.007   6.247
 6857SOL    HW221471   4.581   0.941   6.376
 6858SOL     OW21472   3.428   3.125   6.520
 6858SOL    HW121473   3.361   3.200   6.515
 6858SOL    HW221474   3.388   3.048   6.571
 6859SOL     OW21475   4.235   6.631   1.363
 6859SOL    HW121476   4.283   6.606   1.447
 6859SOL    HW221477   4.301   6.637   1.288
 6860SOL     OW21478   4.790   3.248   0.113
 6860SOL    HW121479   4.849   3.288   0.183
 6860SOL    HW221480   4.750   3.321   0.058
 6861SOL     OW21481   6.268   3.390   0.080
 6861SOL    HW121482   6.184   3.410   0.030
 6861SOL    HW221483   6.337   3.460   0.059
 6862SOL     OW21484   2.717   4.725   4.501
 6862SOL    HW121485   2.663   4.695   4.580
 6862SOL    HW221486   2.808   4.753   4.531
 6863SOL     OW21487   0.754   3.714   3.839
 6863SOL    HW121488   0.735   3.770   3.758
 6863SOL    HW221489   0.822   3.760   3.896
 6864SOL     OW21490   3.027   5.642   6.020
 6864SOL    HW121491   2.984   5.553   6.003
 6864SOL    HW221492   3.029   5.695   5.935
 6865SOL     OW21493   0.851   2.463   5.582
 6865SOL    HW121494   0.918   2.395   5.552
 6865SOL    HW221495   0.790   2.422   5.650
 6866SOL     OW21496   0.611   4.473   2.745
 6866SOL    HW121497   0.574   4.380   2.746
 6866SOL    HW221498   0.596   4.515   2.835
 6867SOL     OW21499   2.903   5.600   3.721
 6867SOL    HW121500   2.871   5.693   3.703
 6867SOL    HW221501   2.834   5.534   3.689
 6868SOL     OW21502   2.130   5.891   5.427
 6868SOL    HW121503   2.101   5.797   5.409
 6868SOL    HW221504   2.068   5.934   5.492
 6869SOL     OW21505   0.404   2.467   3.926
 6869SOL    HW121506   0.445   2.539   3.869
 6869SOL    HW221507   0.420   2.378   3.883
 6870SOL     OW21508   4.742   4.154   3.070
 6870SOL    HW121509   4.710   4.070   3.114
 6870SOL    HW221510   4.797   4.130   2.990
 6871SOL     OW21511   4.288   6.139   2.426
 6871SOL    HW121512   4.236   6.181   2.500
 6871SOL    HW221513   4.378   6.111   2.459
 6872SOL     OW21514   3.329   4.091   1.288
 6872SOL    HW121515   3.393   4.134   1.351
 6872SOL    HW221516   3.299   4.158   1.220
 6873SOL     OW21517   4.736   4.658   5.130
 6873SOL    HW121518   4.771   4.565   5.141
 6873SOL    HW221519   4.802   4.713   5.080
 6874SOL     OW21520   1.488   1.501   6.186
 6874SOL    HW121521   1.533   1.462   6.266
 6874SOL    HW221522   1.493   1.601   6.190
 6875SOL     OW21523   3.621   6.308   5.022
 6875SOL    HW121524   3.677   6.282   5.100
 6875SOL    HW221525   3.665   6.382   4.971
 6876SOL     OW21526   2.958   6.849   5.008
 6876SOL    HW121527   3.045   6.842   4.959
 6876SOL    HW221528   2.975   6.857   5.106
 6877SOL     OW21529   1.895   4.376   0.753
 6877SOL    HW121530   1.856   4.296   0.707
 6877SOL    HW221531   1.894   4.362   0.852
 6878SOL     OW21532   2.216   1.729   4.955
 6878SOL    HW121533   2.264   1.644   4.937
 6878SOL    HW221534   2.200   1.738   5.053
 6879SOL     OW21535   6.336   1.090   6.123
 6879SOL    HW121536   6.308   1.009   6.175
 6879SOL    HW221537   6.435   1.101   6.130
 6880SOL     OW21538   1.209   5.171   4.351
 6880SOL    HW121539   1.185   5.074   4.360
 6880SOL    HW221540   1.272   5.198   4.424
 6881SOL     OW21541   4.983   6.464   1.284
 6881SOL    HW121542   4.991   6.506   1.374
 6881SOL    HW221543   4.925   6.520   1.225
 6882SOL     OW21544   2.639   6.151   5.243
 6882SOL    HW121545   2.712   6.218   5.241
 6882SOL    HW221546   2.644   6.099   5.329
 6883SOL     OW21547   2.720   6.847   2.140
 6883SOL    HW121548   2.783   6.780   2.181
 6883SOL    HW221549   2.629   6.807   2.134
 6884SOL     OW21550   1.722   5.288   3.231
 6884SOL    HW121551   1.664   5.335   3.297
 6884SOL    HW221552   1.721   5.189   3.250
 6885SOL     OW21553   4.405   4.625   4.685
 6885SOL    HW121554   4.480   4.582   4.635
 6885SOL    HW221555   4.389   4.575   4.770
 6886SOL     OW21556   5.629   6.610   0.941
 6886SOL    HW121557   5.548   6.585   0.994
 6886SOL    HW221558   5.651   6.537   0.877
 6887SOL     OW21559   6.892   0.628   4.953
 6887SOL    HW121560   6.801   0.660   4.927
 6887SOL    HW221561   6.937   0.698   5.008
 6888SOL     OW21562   6.721   6.557   3.947
 6888SOL    HW121563   6.668   6.546   4.030
 6888SOL    HW221564   6.790   6.629   3.960
 6889SOL     OW21565   1.950   3.979   6.350
 6889SOL    HW121566   2.033   3.988   6.405
 6889SOL    HW221567   1.940   4.058   6.290
 6890SOL     OW21568   1.357   0.459   1.336
 6890SOL    HW121569   1.414   0.500   1.264
 6890SOL    HW221570   1.350   0.522   1.413
 6891SOL     OW21571   5.195   5.634   5.416
 6891SOL    HW121572   5.269   5.700   5.402
 6891SOL    HW221573   5.146   5.620   5.330
 6892SOL     OW21574   2.981   1.958   4.224
 6892SOL    HW121575   3.027   2.046   4.214
 6892SOL    HW221576   3.045   1.891   4.263
 6893SOL     OW21577   5.305   0.470   0.617
 6893SOL    HW121578   5.376   0.535   0.588
 6893SOL    HW221579   5.245   0.449   0.539
 6894SOL     OW21580   5.719   4.314   5.213
 6894SOL    HW121581   5.743   4.397   5.162
 6894SOL    HW221582   5.792   4.292   5.277
 6895SOL     OW21583   4.948   4.713   3.879
 6895SOL    HW121584   4.848   4.718   3.887
 6895SOL    HW221585   4.989   4.776   3.945
 6896SOL     OW21586   5.186   1.690   2.122
 6896SOL    HW121587   5.152   1.782   2.105
 6896SOL    HW221588   5.188   1.673   2.221
 6897SOL     OW21589   4.560   1.496   1.408
 6897SOL    HW121590   4.631   1.443   1.455
 6897SOL    HW221591   4.474   1.486   1.458
 6898SOL     OW21592   4.280   1.499   1.678
 6898SOL    HW121593   4.307   1.475   1.585
 6898SOL    HW221594   4.192   1.456   1.700
 6899SOL     OW21595   5.485   4.341   5.880
 6899SOL    HW121596   5.532   4.428   5.895
 6899SOL    HW221597   5.436   4.344   5.793
 6900SOL     OW21598   4.217   0.455   5.916
 6900SOL    HW121599   4.186   0.502   5.998
 6900SOL    HW221600   4.220   0.356   5.933
 6901SOL     OW21601   1.738   0.775   7.000
 6901SOL    HW121602   1.706   0.786   6.906
 6901SOL    HW221603   1.674   0.821   0.043
 6902SOL     OW21604   6.330   5.154   2.579
 6902SOL    HW121605   6.326   5.226   2.509
 6902SOL    HW221606   6.308   5.192   2.668
 6903SOL     OW21607   6.246   4.713   0.255
 6903SOL    HW121608   6.302   4.653   0.312
 6903SOL    HW221609   6.304   4.780   0.209
 6904SOL     OW21610   0.671   1.125   2.124
 6904SOL    HW121611   0.611   1.089   2.195
 6904SOL    HW221612   0.767   1.109   2.150
 6905SOL     OW21613   3.503   5.320   0.631
 6905SOL    HW121614   3.580   5.384   0.630
 6905SOL    HW221615   3.469   5.310   0.725
 6906SOL     OW21616   5.827   6.151   2.487
 6906SOL    HW121617   5.861   6.206   2.563
 6906SOL    HW221618   5.864   6.186   2.401
 6907SOL     OW21619   3.680   1.357   1.607
 6907SOL    HW121620   3.713   1.413   1.683
 6907SOL    HW221621   3.757   1.310   1.564
 6908SOL     OW21622   5.293   6.839   0.285
 6908SOL    HW121623   5.267   6.931   0.256
 6908SOL    HW221624   5.222   6.801   0.344
 6909SOL     OW21625   2.632   2.042   6.962
 6909SOL    HW121626   2.553   2.042   6.901
 6909SOL    HW221627   2.698   2.111   6.931
 6910SOL     OW21628   4.051   0.958   0.721
 6910SOL    HW121629   4.041   1.026   0.794
 6910SOL    HW221630   3.983   0.886   0.734
 6911SOL     OW21631   3.847   6.280   5.616
 6911SOL    HW121632   3.757   6.259   5.579
 6911SOL    HW221633   3.912   6.210   5.586
 6912SOL     OW21634   3.488   5.764   1.730
 6912SOL    HW121635   3.530   5.782   1.819
 6912SOL    HW221636   3.389   5.755   1.741
 6913SOL     OW21637   3.920   5.912   5.974
 6913SOL    HW121638   3.959   5.825   5.944
 6913SOL    HW221639   3.848   5.895   6.041
 6914SOL     OW21640   0.094   5.152   0.092
 6914SOL    HW121641   0.191   5.176   0.086
 6914SOL    HW221642   0.073   5.118   0.184
 6915SOL     OW21643   0.968   0.173   6.707
 6915SOL    HW121644   0.980   0.074   6.698
 6915SOL    HW221645   0.910   0.207   6.634
 6916SOL     OW21646   6.200   0.508   6.459
 6916SOL    HW121647   6.269   0.449   6.419
 6916SOL    HW221648   6.203   0.500   6.559
 6917SOL     OW21649   4.054   6.091   6.195
 6917SOL    HW121650   4.124   6.021   6.185
 6917SOL    HW221651   3.974   6.067   6.139
 6918SOL     OW21652   1.946   2.583   4.047
 6918SOL    HW121653   1.872   2.640   4.010
 6918SOL    HW221654   1.926   2.560   4.142
 6919SOL     OW21655   1.897   5.959   3.743
 6919SOL    HW121656   1.966   6.029   3.728
 6919SOL    HW221657   1.908   5.885   3.677
 6920SOL     OW21658   5.935   5.794   4.001
 6920SOL    HW121659   5.899   5.708   3.967
 6920SOL    HW221660   6.003   5.776   4.072
 6921SOL     OW21661   1.820   4.895   2.611
 6921SOL    HW121662   1.814   4.964   2.540
 6921SOL    HW221663   1.836   4.939   2.699
 6922SOL     OW21664   1.780   6.371   1.367
 6922SOL    HW121665   1.688   6.334   1.358
 6922SOL    HW221666   1.798   6.435   1.292
 6923SOL     OW21667   5.310   5.694   4.823
 6923SOL    HW121668   5.331   5.765   4.890
 6923SOL    HW221669   5.283   5.736   4.736
 6924SOL     OW21670   5.447   5.942   2.537
 6924SOL    HW121671   5.483   5.971   2.449
 6924SOL    HW221672   5.350   5.922   2.528
 6925SOL     OW21673   4.279   5.786   2.087
 6925SOL    HW121674   4.337   5.710   2.117
 6925SOL    HW221675   4.233   5.825   2.167
 6926SOL     OW21676   2.743   4.311   5.311
 6926SOL    HW121677   2.763   4.372   5.234
 6926SOL    HW221678   2.662   4.256   5.290
 6927SOL     OW21679   4.312   3.554   0.624
 6927SOL    HW121680   4.307   3.474   0.684
 6927SOL    HW221681   4.406   3.589   0.624
 6928SOL     OW21682   6.714   0.175   6.731
 6928SOL    HW121683   6.730   0.141   6.639
 6928SOL    HW221684   6.675   0.267   6.726
 6929SOL     OW21685   4.092   6.053   0.952
 6929SOL    HW121686   4.109   6.110   1.032
 6929SOL    HW221687   4.180   6.027   0.911
 6930SOL     OW21688   6.980   0.689   3.321
 6930SOL    HW121689   6.958   0.626   3.247
 6930SOL    HW221690   6.993   0.637   3.405
 6931SOL     OW21691   2.343   6.706   1.128
 6931SOL    HW121692   2.394   6.772   1.073
 6931SOL    HW221693   2.271   6.664   1.072
 6932SOL     OW21694   3.352   2.653   0.582
 6932SOL    HW121695   3.291   2.704   0.521
 6932SOL    HW221696   3.443   2.694   0.580
 6933SOL     OW21697   2.951   6.290   5.205
 6933SOL    HW121698   2.970   6.204   5.158
 6933SOL    HW221699   3.035   6.328   5.242
 6934SOL     OW21700   5.303   5.014   6.903
 6934SOL    HW121701   5.253   4.928   6.893
 6934SOL    HW221702   5.401   4.996   6.901
 6935SOL     OW21703   4.380   5.614   3.375
 6935SOL    HW121704   4.355   5.608   3.471
 6935SOL    HW221705   4.302   5.587   3.318
 6936SOL     OW21706   1.231   4.661   0.677
 6936SOL    HW121707   1.174   4.670   0.595
 6936SOL    HW221708   1.317   4.710   0.663
 6937SOL     OW21709   4.392   6.006   6.770
 6937SOL    HW121710   4.412   6.067   6.694
 6937SOL    HW221711   4.335   5.930   6.738
 6938SOL     OW21712   6.691   2.039   5.314
 6938SOL    HW121713   6.608   1.983   5.324
 6938SOL    HW221714   6.758   2.010   5.382
 6939SOL     OW21715   6.280   4.318   1.811
 6939SOL    HW121716   6.365   4.297   1.761
 6939SOL    HW221717   6.267   4.250   1.883
 6940SOL     OW21718   3.971   0.726   4.058
 6940SOL    HW121719   3.987   0.647   4.000
 6940SOL    HW221720   3.873   0.747   4.059
 6941SOL     OW21721   3.573   2.837   5.051
 6941SOL    HW121722   3.478   2.855   5.075
 6941SOL    HW221723   3.624   2.815   5.134
 6942SOL     OW21724   6.454   1.469   6.282
 6942SOL    HW121725   6.546   1.434   6.265
 6942SOL    HW221726   6.413   1.420   6.360
 6943SOL     OW21727   5.946   4.059   0.279
 6943SOL    HW121728   5.984   4.132   0.222
 6943SOL    HW221729   6.018   3.992   0.300
 6944SOL     OW21730   2.032   0.343   6.999
 6944SOL    HW121731   2.010   0.407   6.926
 6944SOL    HW221732   2.059   0.393   0.062
 6945SOL     OW21733   3.415   1.363   6.576
 6945SOL    HW121734   3.356   1.327   6.647
 6945SOL    HW221735   3.473   1.289   6.540
 6946SOL     OW21736   6.124   3.916   2.602
 6946SOL    HW121737   6.053   3.946   2.539
 6946SOL    HW221738   6.146   3.820   2.584
 6947SOL     OW21739   3.793   6.940   0.839
 6947SOL    HW121740   3.722   6.909   0.776
 6947SOL    HW221741   3.826   6.863   0.893
 6948SOL     OW21742   3.594   1.581   6.256
 6948SOL    HW121743   3.683   1.612   6.222
 6948SOL    HW221744   3.560   1.646   6.324
 6949SOL     OW21745   5.282   6.907   2.709
 6949SOL    HW121746   5.315   6.906   2.803
 6949SOL    HW221747   5.311   6.823   2.663
 6950SOL     OW21748   3.135   1.903   3.386
 6950SOL    HW121749   3.111   1.859   3.299
 6950SOL    HW221750   3.077   1.865   3.459
 6951SOL     OW21751   4.186   3.710   5.668
 6951SOL    HW121752   4.089   3.733   5.656
 6951SOL    HW221753   4.242   3.781   5.624
 6952SOL     OW21754   0.353   3.610   6.416
 6952SOL    HW121755   0.287   3.571   6.352
 6952SOL    HW221756   0.445   3.578   6.392
 6953SOL     OW21757   5.974   2.385   4.870
 6953SOL    HW121758   5.885   2.427   4.884
 6953SOL    HW221759   5.966   2.286   4.875
 6954SOL     OW21760   0.173   4.750   1.957
 6954SOL    HW121761   0.139   4.808   1.883
 6954SOL    HW221762   0.248   4.693   1.923
 6955SOL     OW21763   0.171   0.861   3.731
 6955SOL    HW121764   0.113   0.882   3.653
 6955SOL    HW221765   0.123   0.800   3.794
 6956SOL     OW21766   3.793   4.154   1.508
 6956SOL    HW121767   3.830   4.134   1.598
 6956SOL    HW221768   3.838   4.097   1.440
 6957SOL     OW21769   1.429   4.467   0.792
 6957SOL    HW121770   1.523   4.459   0.758
 6957SOL    HW221771   1.368   4.488   0.716
 6958SOL     OW21772   1.964   3.526   5.886
 6958SOL    HW121773   1.924   3.583   5.958
 6958SOL    HW221774   2.048   3.569   5.852
 6959SOL     OW21775   4.126   1.286   5.141
 6959SOL    HW121776   4.078   1.345   5.076
 6959SOL    HW221777   4.072   1.203   5.155
 6960SOL     OW21778   1.167   5.993   6.416
 6960SOL    HW121779   1.076   5.953   6.410
 6960SOL    HW221780   1.233   5.932   6.372
 6961SOL     OW21781   5.960   0.693   3.954
 6961SOL    HW121782   5.957   0.674   3.856
 6961SOL    HW221783   5.867   0.700   3.989
 6962SOL     OW21784   3.478   3.245   1.001
 6962SOL    HW121785   3.479   3.157   0.954
 6962SOL    HW221786   3.572   3.275   1.017
 6963SOL     OW21787   6.472   6.104   1.626
 6963SOL    HW121788   6.464   6.198   1.591
 6963SOL    HW221789   6.454   6.040   1.551
 6964SOL     OW21790   4.032   5.256   5.423
 6964SOL    HW121791   3.986   5.305   5.498
 6964SOL    HW221792   4.103   5.197   5.460
 6965SOL     OW21793   6.241   0.844   6.241
 6965SOL    HW121794   6.322   0.790   6.217
 6965SOL    HW221795   6.159   0.791   6.220
 6966SOL     OW21796   3.987   2.262   3.291
 6966SOL    HW121797   3.991   2.180   3.235
 6966SOL    HW221798   3.891   2.282   3.314
 6967SOL     OW21799   2.907   2.968   6.687
 6967SOL    HW121800   2.813   3.003   6.691
 6967SOL    HW221801   2.905   2.869   6.677
 6968SOL     OW21802   3.553   0.682   3.338
 6968SOL    HW121803   3.578   0.778   3.337
 6968SOL    HW221804   3.488   0.665   3.413
 6969SOL     OW21805   3.894   3.420   1.791
 6969SOL    HW121806   3.950   3.377   1.862
 6969SOL    HW221807   3.816   3.361   1.770
 6970SOL     OW21808   5.213   4.083   0.395
 6970SOL    HW121809   5.128   4.111   0.349
 6970SOL    HW221810   5.211   3.985   0.412
 6971SOL     OW21811   5.929   1.674   2.419
 6971SOL    HW121812   5.905   1.770   2.401
 6971SOL    HW221813   5.864   1.615   2.372
 6972SOL     OW21814   4.924   5.850   4.424
 6972SOL    HW121815   4.896   5.933   4.375
 6972SOL    HW221816   4.843   5.795   4.445
 6973SOL     OW21817   1.750   4.392   2.891
 6973SOL    HW121818   1.657   4.362   2.868
 6973SOL    HW221819   1.790   4.440   2.812
 6974SOL     OW21820   2.830   3.681   5.088
 6974SOL    HW121821   2.757   3.708   5.025
 6974SOL    HW221822   2.799   3.603   5.142
 6975SOL     OW21823   1.796   6.839   6.130
 6975SOL    HW121824   1.729   6.766   6.143
 6975SOL    HW221825   1.797   6.866   6.034
 6976SOL     OW21826   1.194   5.744   1.384
 6976SOL    HW121827   1.114   5.803   1.398
 6976SOL    HW221828   1.277   5.794   1.405
 6977SOL     OW21829   5.793   2.768   1.176
 6977SOL    HW121830   5.870   2.831   1.167
 6977SOL    HW221831   5.731   2.781   1.099
 6978SOL     OW21832   5.383   2.782   3.660
 6978SOL    HW121833   5.473   2.743   3.683
 6978SOL    HW221834   5.337   2.810   3.745
 6979SOL     OW21835   0.049   3.605   4.525
 6979SOL    HW121836   0.013   3.570   4.611
 6979SOL    HW221837   0.148   3.617   4.532
 6980SOL     OW21838   4.847   2.035   4.786
 6980SOL    HW121839   4.820   2.032   4.882
 6980SOL    HW221840   4.832   1.945   4.744
 6981SOL     OW21841   3.200   3.497   6.375
 6981SOL    HW121842   3.243   3.445   6.302
 6981SOL    HW221843   3.270   3.536   6.434
 6982SOL     OW21844   1.289   0.415   4.250
 6982SOL    HW121845   1.368   0.398   4.190
 6982SOL    HW221846   1.314   0.395   4.344
 6983SOL     OW21847   6.113   1.059   2.914
 6983SOL    HW121848   6.168   1.043   2.832
 6983SOL    HW221849   6.020   1.087   2.887
 6984SOL     OW21850   2.256   0.950   6.448
 6984SOL    HW121851   2.237   0.956   6.546
 6984SOL    HW221852   2.352   0.926   6.434
 6985SOL     OW21853   4.466   6.976   4.104
 6985SOL    HW121854   4.515   7.007   4.022
 6985SOL    HW221855   4.531   6.955   4.176
 6986SOL     OW21856   2.627   6.385   5.497
 6986SOL    HW121857   2.589   6.468   5.538
 6986SOL    HW221858   2.592   6.305   5.547
 6987SOL     OW21859   6.804   3.521   6.072
 6987SOL    HW121860   6.719   3.573   6.085
 6987SOL    HW221861   6.825   3.470   6.156
 6988SOL     OW21862   5.345   1.599   6.810
 6988SOL    HW121863   5.277   1.593   6.737
 6988SOL    HW221864   5.318   1.670   6.875
 6989SOL     OW21865   2.164   3.716   4.349
 6989SOL    HW121866   2.163   3.632   4.403
 6989SOL    HW221867   2.165   3.694   4.252
 6990SOL     OW21868   4.227   3.639   1.809
 6990SOL    HW121869   4.213   3.696   1.727
 6990SOL    HW221870   4.238   3.544   1.781
 6991SOL     OW21871   4.711   4.802   5.439
 6991SOL    HW121872   4.805   4.820   5.466
 6991SOL    HW221873   4.686   4.861   5.363
 6992SOL     OW21874   6.711   6.571   5.210
 6992SOL    HW121875   6.757   6.652   5.174
 6992SOL    HW221876   6.642   6.599   5.277
 6993SOL     OW21877   0.390   0.586   2.804
 6993SOL    HW121878   0.297   0.603   2.772
 6993SOL    HW221879   0.440   0.673   2.807
 6994SOL     OW21880   2.180   2.561   0.374
 6994SOL    HW121881   2.187   2.616   0.458
 6994SOL    HW221882   2.170   2.465   0.398
 6995SOL     OW21883   0.828   5.408   3.668
 6995SOL    HW121884   0.882   5.324   3.661
 6995SOL    HW221885   0.823   5.436   3.764
 6996SOL     OW21886   1.639   0.160   4.964
 6996SOL    HW121887   1.688   0.111   5.037
 6996SOL    HW221888   1.597   0.094   4.902
 6997SOL     OW21889   4.753   5.000   4.633
 6997SOL    HW121890   4.657   4.996   4.659
 6997SOL    HW221891   4.769   5.082   4.578
 6998SOL     OW21892   2.484   2.126   1.754
 6998SOL    HW121893   2.393   2.113   1.795
 6998SOL    HW221894   2.548   2.156   1.825
 6999SOL     OW21895   5.607   2.065   6.961
 6999SOL    HW121896   5.623   2.000   6.887
 6999SOL    HW221897   5.610   2.158   6.924
 7000SOL     OW21898   6.732   0.047   1.724
 7000SOL    HW121899   6.681   0.122   1.681
 7000SOL    HW221900   6.778   0.081   1.806
 7001SOL     OW21901   2.409   1.292   6.702
 7001SOL    HW121902   2.406   1.288   6.802
 7001SOL    HW221903   2.504   1.295   6.672
 7002SOL     OW21904   2.927   5.439   1.441
 7002SOL    HW121905   3.027   5.448   1.440
 7002SOL    HW221906   2.901   5.352   1.401
 7003SOL     OW21907   1.211   6.331   6.138
 7003SOL    HW121908   1.257   6.417   6.159
 7003SOL    HW221909   1.160   6.341   6.052
 7004SOL     OW21910   2.185   3.956   6.526
 7004SOL    HW121911   2.184   3.861   6.557
 7004SOL    HW221912   2.280   3.988   6.521
 7005SOL     OW21913   6.422   0.489   5.688
 7005SOL    HW121914   6.408   0.504   5.591
 7005SOL    HW221915   6.434   0.391   5.706
 7006SOL     OW21916   5.207   5.518   4.212
 7006SOL    HW121917   5.162   5.441   4.167
 7006SOL    HW221918   5.295   5.487   4.250
 7007SOL     OW21919   5.354   4.846   1.088
 7007SOL    HW121920   5.422   4.910   1.051
 7007SOL    HW221921   5.381   4.818   1.180
 7008SOL     OW21922   0.700   6.730   3.948
 7008SOL    HW121923   0.653   6.642   3.956
 7008SOL    HW221924   0.720   6.766   4.039
 7009SOL     OW21925   6.904   4.007   1.537
 7009SOL    HW121926   6.973   4.079   1.531
 7009SOL    HW221927   6.855   4.000   1.451
 7010SOL     OW21928   4.937   4.216   5.888
 7010SOL    HW121929   4.983   4.200   5.800
 7010SOL    HW221930   4.877   4.296   5.880
 7011SOL     OW21931   1.151   0.115   5.634
 7011SOL    HW121932   1.072   0.157   5.677
 7011SOL    HW221933   1.234   0.137   5.686
 7012SOL     OW21934   0.300   0.659   1.929
 7012SOL    HW121935   0.257   0.672   1.840
 7012SOL    HW221936   0.391   0.620   1.917
 7013SOL     OW21937   6.421   2.072   1.259
 7013SOL    HW121938   6.456   2.166   1.267
 7013SOL    HW221939   6.326   2.074   1.226
 7014SOL     OW21940   2.440   5.241   1.103
 7014SOL    HW121941   2.450   5.316   1.038
 7014SOL    HW221942   2.423   5.156   1.053
 7015SOL     OW21943   4.616   2.121   2.201
 7015SOL    HW121944   4.519   2.140   2.184
 7015SOL    HW221945   4.643   2.162   2.288
 7016SOL     OW21946   5.254   4.608   0.333
 7016SOL    HW121947   5.307   4.590   0.250
 7016SOL    HW221948   5.301   4.678   0.388
 7017SOL     OW21949   5.245   2.389   5.360
 7017SOL    HW121950   5.269   2.357   5.451
 7017SOL    HW221951   5.149   2.370   5.341
 7018SOL     OW21952   0.670   4.287   3.381
 7018SOL    HW121953   0.707   4.285   3.474
 7018SOL    HW221954   0.582   4.239   3.380
 7019SOL     OW21955   6.471   6.198   2.343
 7019SOL    HW121956   6.505   6.283   2.303
 7019SOL    HW221957   6.534   6.124   2.322
 7020SOL     OW21958   6.581   5.526   0.336
 7020SOL    HW121959   6.577   5.429   0.312
 7020SOL    HW221960   6.488   5.562   0.348
 7021SOL     OW21961   3.147   6.672   5.574
 7021SOL    HW121962   3.069   6.733   5.587
 7021SOL    HW221963   3.168   6.666   5.476
 7022SOL     OW21964   3.757   4.491   5.557
 7022SOL    HW121965   3.745   4.415   5.621
 7022SOL    HW221966   3.765   4.456   5.464
 7023SOL     OW21967   4.668   5.208   2.437
 7023SOL    HW121968   4.628   5.227   2.527
 7023SOL    HW221969   4.678   5.294   2.387
 7024SOL     OW21970   6.187   6.835   2.017
 7024SOL    HW121971   6.145   6.924   1.999
 7024SOL    HW221972   6.158   6.802   2.107
 7025SOL     OW21973   3.100   0.233   1.684
 7025SOL    HW121974   3.103   0.237   1.584
 7025SOL    HW221975   3.008   0.207   1.713
 7026SOL     OW21976   4.451   2.579   0.368
 7026SOL    HW121977   4.419   2.669   0.339
 7026SOL    HW221978   4.482   2.584   0.463
 7027SOL     OW21979   5.770   5.792   4.963
 7027SOL    HW121980   5.797   5.772   5.058
 7027SOL    HW221981   5.799   5.717   4.904
 7028SOL     OW21982   3.321   0.601   4.657
 7028SOL    HW121983   3.289   0.638   4.744
 7028SOL    HW221984   3.310   0.670   4.586
 7029SOL     OW21985   3.500   6.902   4.032
 7029SOL    HW121986   3.539   6.834   4.094
 7029SOL    HW221987   3.413   6.935   4.069
 7030SOL     OW21988   0.977   3.813   3.995
 7030SOL    HW121989   1.020   3.896   4.030
 7030SOL    HW221990   1.012   3.734   4.044
 7031SOL     OW21991   1.946   0.917   4.295
 7031SOL    HW121992   1.955   0.826   4.255
 7031SOL    HW221993   1.990   0.985   4.236
 7032SOL     OW21994   6.113   2.197   3.550
 7032SOL    HW121995   6.050   2.262   3.592
 7032SOL    HW221996   6.208   2.225   3.568
 7033SOL     OW21997   6.966   0.872   5.061
 7033SOL    HW121998   7.017   0.932   5.000
 7033SOL    HW221999   6.895   0.924   5.109
 7034SOL     OW22000   6.969   5.056   4.187
 7034SOL    HW122001   6.980   4.982   4.121
 7034SOL    HW222002   6.986   5.144   4.143
 7035SOL     OW22003   6.864   4.702   1.105
 7035SOL    HW122004   6.886   4.618   1.153
 7035SOL    HW222005   6.776   4.737   1.136
 7036SOL     OW22006   6.314   5.646   0.635
 7036SOL    HW122007   6.225   5.643   0.589
 7036SOL    HW222008   6.365   5.563   0.615
 7037SOL     OW22009   1.272   0.247   6.395
 7037SOL    HW122010   1.343   0.248   6.466
 7037SOL    HW222011   1.214   0.328   6.406
 7038SOL     OW22012   2.407   2.429   3.933
 7038SOL    HW122013   2.360   2.406   4.018
 7038SOL    HW222014   2.339   2.440   3.860
 7039SOL     OW22015   4.120   2.005   6.312
 7039SOL    HW122016   4.051   2.033   6.378
 7039SOL    HW222017   4.142   2.082   6.252
 7040SOL     OW22018   6.628   2.055   6.741
 7040SOL    HW122019   6.553   2.028   6.801
 7040SOL    HW222020   6.611   2.021   6.649
 7041SOL     OW22021   2.119   1.240   3.408
 7041SOL    HW122022   2.032   1.242   3.457
 7041SOL    HW222023   2.141   1.333   3.376
 7042SOL     OW22024   2.048   0.927   6.899
 7042SOL    HW122025   2.052   1.027   6.901
 7042SOL    HW222026   2.023   0.893   6.989
 7043SOL     OW22027   1.768   2.499   1.242
 7043SOL    HW122028   1.732   2.539   1.158
 7043SOL    HW222029   1.867   2.489   1.235
 7044SOL     OW22030   0.239   5.778   0.835
 7044SOL    HW122031   0.252   5.700   0.773
 7044SOL    HW222032   0.142   5.793   0.850
 7045SOL     OW22033   0.330   4.356   0.312
 7045SOL    HW122034   0.264   4.315   0.376
 7045SOL    HW222035   0.377   4.283   0.263
 7046SOL     OW22036   2.534   2.018   3.627
 7046SOL    HW122037   2.541   1.918   3.632
 7046SOL    HW222038   2.470   2.050   3.696
 7047SOL     OW22039   1.104   6.710   3.411
 7047SOL    HW122040   1.170   6.655   3.360
 7047SOL    HW222041   1.150   6.789   3.451
 7048SOL     OW22042   0.211   5.451   6.793
 7048SOL    HW122043   0.216   5.427   6.696
 7048SOL    HW222044   0.299   5.431   6.837
 7049SOL     OW22045   2.654   1.303   6.624
 7049SOL    HW122046   2.661   1.367   6.548
 7049SOL    HW222047   2.740   1.303   6.676
 7050SOL     OW22048   3.439   3.489   5.952
 7050SOL    HW122049   3.527   3.512   5.993
 7050SOL    HW222050   3.454   3.446   5.863
 7051SOL     OW22051   5.709   6.177   1.819
 7051SOL    HW122052   5.775   6.107   1.791
 7051SOL    HW222053   5.683   6.162   1.914
 7052SOL     OW22054   6.309   0.757   4.704
 7052SOL    HW122055   6.224   0.789   4.662
 7052SOL    HW222056   6.386   0.811   4.671
 7053SOL     OW22057   6.157   3.531   6.231
 7053SOL    HW122058   6.190   3.582   6.151
 7053SOL    HW222059   6.083   3.583   6.275
 7054SOL     OW22060   5.727   2.536   2.721
 7054SOL    HW122061   5.766   2.472   2.655
 7054SOL    HW222062   5.800   2.589   2.764
 7055SOL     OW22063   4.164   2.019   3.330
 7055SOL    HW122064   4.120   2.076   3.400
 7055SOL    HW222065   4.260   2.044   3.321
 7056SOL     OW22066   4.720   5.761   4.779
 7056SOL    HW122067   4.674   5.700   4.715
 7056SOL    HW222068   4.654   5.800   4.843
 7057SOL     OW22069   5.621   6.195   2.981
 7057SOL    HW122070   5.646   6.261   2.910
 7057SOL    HW222071   5.577   6.116   2.939
 7058SOL     OW22072   6.965   3.928   4.852
 7058SOL    HW122073   6.943   3.897   4.759
 7058SOL    HW222074   6.949   4.027   4.858
 7059SOL     OW22075   1.364   0.439   1.960
 7059SOL    HW122076   1.461   0.445   1.984
 7059SOL    HW222077   1.354   0.418   1.863
 7060SOL     OW22078   3.988   0.045   1.437
 7060SOL    HW122079   3.902   0.052   1.488
 7060SOL    HW222080   4.016   6.967   1.433
 7061SOL     OW22081   1.001   1.329   2.835
 7061SOL    HW122082   0.915   1.331   2.784
 7061SOL    HW222083   0.997   1.393   2.911
 7062SOL     OW22084   6.361   1.215   5.718
 7062SOL    HW122085   6.389   1.163   5.637
 7062SOL    HW222086   6.442   1.246   5.767
 7063SOL     OW22087   1.971   6.802   1.593
 7063SOL    HW122088   1.975   6.793   1.493
 7063SOL    HW222089   1.934   6.891   1.618
 7064SOL     OW22090   3.424   3.050   0.798
 7064SOL    HW122091   3.374   2.964   0.813
 7064SOL    HW222092   3.374   3.106   0.732
 7065SOL     OW22093   3.271   3.699   2.651
 7065SOL    HW122094   3.200   3.736   2.712
 7065SOL    HW222095   3.319   3.774   2.606
 7066SOL     OW22096   2.486   4.782   1.662
 7066SOL    HW122097   2.435   4.840   1.726
 7066SOL    HW222098   2.582   4.780   1.688
 7067SOL     OW22099   1.300   4.022   4.833
 7067SOL    HW122100   1.286   4.036   4.931
 7067SOL    HW222101   1.227   3.964   4.797
 7068SOL     OW22102   0.638   1.354   3.024
 7068SOL    HW122103   0.612   1.285   3.091
 7068SOL    HW222104   0.699   1.421   3.066
 7069SOL     OW22105   1.724   4.097   5.337
 7069SOL    HW122106   1.786   4.019   5.349
 7069SOL    HW222107   1.774   4.182   5.353
 7070SOL     OW22108   5.489   5.481   2.765
 7070SOL    HW122109   5.515   5.527   2.680
 7070SOL    HW222110   5.496   5.382   2.752
 7071SOL     OW22111   1.705   6.776   5.592
 7071SOL    HW122112   1.790   6.723   5.600
 7071SOL    HW222113   1.722   6.857   5.535
 7072SOL     OW22114   0.149   0.026   6.626
 7072SOL    HW122115   0.064   0.056   6.668
 7072SOL    HW222116   0.184   0.097   6.566
 7073SOL     OW22117   2.317   2.482   6.895
 7073SOL    HW122118   2.284   2.532   6.815
 7073SOL    HW222119   2.407   2.518   6.921
 7074SOL     OW22120   4.060   1.393   6.550
 7074SOL    HW122121   4.041   1.480   6.595
 7074SOL    HW222122   4.013   1.320   6.599
 7075SOL     OW22123   0.794   6.149   3.353
 7075SOL    HW122124   0.792   6.063   3.404
 7075SOL    HW222125   0.818   6.224   3.415
 7076SOL     OW22126   2.989   1.249   6.145
 7076SOL    HW122127   2.940   1.335   6.144
 7076SOL    HW222128   3.058   1.251   6.218
 7077SOL     OW22129   1.072   5.694   6.239
 7077SOL    HW122130   1.091   5.636   6.318
 7077SOL    HW222131   0.974   5.694   6.220
 7078SOL     OW22132   0.362   0.626   1.331
 7078SOL    HW122133   0.366   0.618   1.431
 7078SOL    HW222134   0.381   0.721   1.305
 7079SOL     OW22135   5.059   6.421   4.296
 7079SOL    HW122136   5.027   6.339   4.250
 7079SOL    HW222137   5.155   6.436   4.274
 7080SOL     OW22138   6.088   0.252   3.963
 7080SOL    HW122139   6.043   0.276   4.049
 7080SOL    HW222140   6.029   0.278   3.886
 7081SOL     OW22141   4.503   1.116   4.614
 7081SOL    HW122142   4.458   1.134   4.527
 7081SOL    HW222143   4.463   1.034   4.656
 7082SOL     OW22144   5.950   1.273   0.408
 7082SOL    HW122145   5.851   1.282   0.419
 7082SOL    HW222146   5.970   1.229   0.320
 7083SOL     OW22147   4.275   0.299   5.053
 7083SOL    HW122148   4.256   0.394   5.081
 7083SOL    HW222149   4.359   0.268   5.099
 7084SOL     OW22150   6.011   5.665   0.179
 7084SOL    HW122151   5.980   5.750   0.136
 7084SOL    HW222152   5.937   5.598   0.176
 7085SOL     OW22153   5.194   1.718   1.340
 7085SOL    HW122154   5.161   1.649   1.275
 7085SOL    HW222155   5.287   1.744   1.315
 7086SOL     OW22156   1.591   0.727   5.821
 7086SOL    HW122157   1.670   0.707   5.878
 7086SOL    HW222158   1.619   0.786   5.745
 7087SOL     OW22159   2.452   2.629   4.663
 7087SOL    HW122160   2.463   2.626   4.762
 7087SOL    HW222161   2.367   2.676   4.640
 7088SOL     OW22162   6.788   1.345   4.530
 7088SOL    HW122163   6.692   1.346   4.502
 7088SOL    HW222164   6.794   1.331   4.629
 7089SOL     OW22165   2.597   1.939   2.023
 7089SOL    HW122166   2.689   1.949   1.985
 7089SOL    HW222167   2.553   1.859   1.981
 7090SOL     OW22168   3.194   0.612   5.190
 7090SOL    HW122169   3.108   0.647   5.228
 7090SOL    HW222170   3.254   0.584   5.266
 7091SOL     OW22171   6.549   5.204   6.842
 7091SOL    HW122172   6.600   5.279   6.800
 7091SOL    HW222173   6.577   5.194   6.937
 7092SOL     OW22174   3.629   2.298   0.718
 7092SOL    HW122175   3.692   2.270   0.645
 7092SOL    HW222176   3.644   2.395   0.739
 7093SOL     OW22177   3.718   3.571   5.965
 7093SOL    HW122178   3.733   3.491   5.907
 7093SOL    HW222179   3.730   3.654   5.910
 7094SOL     OW22180   5.902   0.957   6.853
 7094SOL    HW122181   5.973   1.016   6.815
 7094SOL    HW222182   5.813   0.985   6.818
 7095SOL     OW22183   1.034   4.309   1.562
 7095SOL    HW122184   1.031   4.318   1.662
 7095SOL    HW222185   1.020   4.398   1.520
 7096SOL     OW22186   3.617   0.059   3.188
 7096SOL    HW122187   3.593   0.142   3.137
 7096SOL    HW222188   3.568   0.060   3.276
 7097SOL     OW22189   1.526   1.361   1.632
 7097SOL    HW122190   1.493   1.438   1.686
 7097SOL    HW222191   1.538   1.389   1.537
 7098SOL     OW22192   1.448   0.931   6.555
 7098SOL    HW122193   1.498   0.923   6.642
 7098SOL    HW222194   1.405   0.844   6.533
 7099SOL     OW22195   0.077   1.218   4.520
 7099SOL    HW122196   0.093   1.120   4.524
 7099SOL    HW222197   0.066   1.254   4.613
 7100SOL     OW22198   5.366   1.931   0.692
 7100SOL    HW122199   5.428   1.955   0.766
 7100SOL    HW222200   5.402   1.851   0.643
 7101SOL     OW22201   1.636   0.615   4.885
 7101SOL    HW122202   1.632   0.715   4.894
 7101SOL    HW222203   1.543   0.579   4.880
 7102SOL     OW22204   4.264   2.541   0.091
 7102SOL    HW122205   4.354   2.543   0.048
 7102SOL    HW222206   4.225   2.633   0.091
 7103SOL     OW22207   2.087   0.214   6.267
 7103SOL    HW122208   2.178   0.221   6.226
 7103SOL    HW222209   2.022   0.179   6.199
 7104SOL     OW22210   0.314   3.594   1.490
 7104SOL    HW122211   0.219   3.563   1.491
 7104SOL    HW222212   0.366   3.546   1.560
 7105SOL     OW22213   2.180   2.382   4.803
 7105SOL    HW122214   2.239   2.396   4.882
 7105SOL    HW222215   2.205   2.296   4.758
 7106SOL     OW22216   3.152   2.825   5.353
 7106SOL    HW122217   3.151   2.819   5.453
 7106SOL    HW222218   3.059   2.820   5.318
 7107SOL     OW22219   2.201   1.644   0.166
 7107SOL    HW122220   2.295   1.613   0.152
 7107SOL    HW222221   2.186   1.661   0.263
 7108SOL     OW22222   4.429   6.659   2.648
 7108SOL    HW122223   4.504   6.715   2.615
 7108SOL    HW222224   4.429   6.657   2.748
 7109SOL     OW22225   4.672   5.659   6.779
 7109SOL    HW122226   4.746   5.597   6.805
 7109SOL    HW222227   4.711   5.740   6.735
 7110SOL     OW22228   3.665   5.091   4.224
 7110SOL    HW122229   3.614   5.101   4.309
 7110SOL    HW222230   3.602   5.069   4.150
 7111SOL     OW22231   1.008   3.375   3.261
 7111SOL    HW122232   1.072   3.308   3.225
 7111SOL    HW222233   1.024   3.387   3.359
 7112SOL     OW22234   1.992   6.159   2.826
 7112SOL    HW122235   2.032   6.245   2.858
 7112SOL    HW222236   1.895   6.172   2.806
 7113SOL     OW22237   3.725   3.945   6.082
 7113SOL    HW122238   3.721   3.855   6.126
 7113SOL    HW222239   3.638   3.992   6.093
 7114SOL     OW22240   3.756   6.393   0.958
 7114SOL    HW122241   3.804   6.473   0.994
 7114SOL    HW222242   3.727   6.411   0.864
 7115SOL     OW22243   4.089   2.246   1.883
 7115SOL    HW122244   4.057   2.260   1.790
 7115SOL    HW222245   4.186   2.271   1.889
 7116SOL     OW22246   6.264   4.133   3.672
 7116SOL    HW122247   6.293   4.226   3.695
 7116SOL    HW222248   6.325   4.067   3.717
 7117SOL     OW22249   5.637   0.072   2.529
 7117SOL    HW122250   5.552   0.083   2.579
 7117SOL    HW222251   5.631   7.010   2.470
 7118SOL     OW22252   6.713   3.598   3.776
 7118SOL    HW122253   6.774   3.519   3.768
 7118SOL    HW222254   6.738   3.667   3.708
 7119SOL     OW22255   0.836   2.296   2.165
 7119SOL    HW122256   0.834   2.291   2.065
 7119SOL    HW222257   0.757   2.346   2.198
 7120SOL     OW22258   4.522   6.186   4.358
 7120SOL    HW122259   4.582   6.239   4.299
 7120SOL    HW222260   4.440   6.158   4.308
 7121SOL     OW22261   1.695   6.357   0.937
 7121SOL    HW122262   1.661   6.417   0.864
 7121SOL    HW222263   1.742   6.413   1.006
 7122SOL     OW22264   0.199   6.129   0.151
 7122SOL    HW122265   0.143   6.192   0.206
 7122SOL    HW222266   0.140   6.062   0.106
 7123SOL     OW22267   3.347   4.566   0.722
 7123SOL    HW122268   3.342   4.573   0.821
 7123SOL    HW222269   3.398   4.644   0.685
 7124SOL     OW22270   0.254   5.179   6.811
 7124SOL    HW122271   0.301   5.265   6.789
 7124SOL    HW222272   0.156   5.196   6.819
 7125SOL     OW22273   1.194   5.639   3.276
 7125SOL    HW122274   1.292   5.651   3.258
 7125SOL    HW222275   1.182   5.592   3.364
 7126SOL     OW22276   1.571   4.506   1.374
 7126SOL    HW122277   1.616   4.464   1.452
 7126SOL    HW222278   1.472   4.493   1.381
 7127SOL     OW22279   2.355   0.211   4.951
 7127SOL    HW122280   2.331   0.304   4.979
 7127SOL    HW222281   2.373   0.155   5.032
 7128SOL     OW22282   3.436   3.566   2.837
 7128SOL    HW122283   3.518   3.523   2.798
 7128SOL    HW222284   3.390   3.620   2.766
 7129SOL     OW22285   3.398   1.675   0.610
 7129SOL    HW122286   3.411   1.583   0.574
 7129SOL    HW222287   3.486   1.723   0.609
 7130SOL     OW22288   1.655   0.409   2.676
 7130SOL    HW122289   1.660   0.411   2.576
 7130SOL    HW222290   1.687   0.497   2.713
 7131SOL     OW22291   2.799   1.213   3.222
 7131SOL    HW122292   2.785   1.179   3.129
 7131SOL    HW222293   2.890   1.186   3.254
 7132SOL     OW22294   2.943   3.857   2.496
 7132SOL    HW122295   2.857   3.817   2.464
 7132SOL    HW222296   3.019   3.817   2.445
 7133SOL     OW22297   6.306   3.879   1.917
 7133SOL    HW122298   6.373   3.821   1.963
 7133SOL    HW222299   6.216   3.837   1.923
 7134SOL     OW22300   4.430   4.655   2.445
 7134SOL    HW122301   4.389   4.625   2.359
 7134SOL    HW222302   4.469   4.577   2.493
 7135SOL     OW22303   0.125   1.587   5.511
 7135SOL    HW122304   0.158   1.512   5.569
 7135SOL    HW222305   0.201   1.644   5.482
 7136SOL     OW22306   1.766   2.074   6.412
 7136SOL    HW122307   1.674   2.035   6.418
 7136SOL    HW222308   1.799   2.067   6.318
 7137SOL     OW22309   5.347   1.637   5.193
 7137SOL    HW122310   5.442   1.605   5.201
 7137SOL    HW222311   5.345   1.737   5.200
 7138SOL     OW22312   2.311   2.063   6.465
 7138SOL    HW122313   2.332   2.078   6.368
 7138SOL    HW222314   2.369   2.121   6.521
 7139SOL     OW22315   2.058   1.410   0.130
 7139SOL    HW122316   2.080   1.508   0.124
 7139SOL    HW222317   2.070   1.379   0.224
 7140SOL     OW22318   6.625   4.627   4.538
 7140SOL    HW122319   6.536   4.605   4.576
 7140SOL    HW222320   6.671   4.543   4.510
 7141SOL     OW22321   0.933   0.316   2.131
 7141SOL    HW122322   0.849   0.369   2.134
 7141SOL    HW222323   1.011   0.377   2.146
 7142SOL     OW22324   3.600   6.735   4.210
 7142SOL    HW122325   3.664   6.658   4.201
 7142SOL    HW222326   3.622   6.786   4.293
 7143SOL     OW22327   1.796   2.968   3.765
 7143SOL    HW122328   1.794   2.885   3.821
 7143SOL    HW222329   1.844   3.040   3.815
 7144SOL     OW22330   1.332   3.433   3.605
 7144SOL    HW122331   1.387   3.481   3.537
 7144SOL    HW222332   1.384   3.426   3.690
 7145SOL     OW22333   3.583   5.929   6.864
 7145SOL    HW122334   3.531   5.986   6.927
 7145SOL    HW222335   3.543   5.935   6.772
 7146SOL     OW22336   3.790   4.792   1.388
 7146SOL    HW122337   3.750   4.805   1.297
 7146SOL    HW222338   3.722   4.753   1.449
 7147SOL     OW22339   0.692   1.429   3.657
 7147SOL    HW122340   0.653   1.514   3.622
 7147SOL    HW222341   0.664   1.353   3.599
 7148SOL     OW22342   6.904   2.463   0.729
 7148SOL    HW122343   6.940   2.370   0.726
 7148SOL    HW222344   6.813   2.462   0.770
 7149SOL     OW22345   1.126   0.529   4.647
 7149SOL    HW122346   1.053   0.569   4.591
 7149SOL    HW222347   1.168   0.600   4.703
 7150SOL     OW22348   6.469   2.755   5.810
 7150SOL    HW122349   6.491   2.817   5.886
 7150SOL    HW222350   6.417   2.677   5.844
 7151SOL     OW22351   1.192   0.207   0.219
 7151SOL    HW122352   1.236   0.185   0.132
 7151SOL    HW222353   1.094   0.187   0.212
 7152SOL     OW22354   0.859   2.547   4.467
 7152SOL    HW122355   0.824   2.578   4.555
 7152SOL    HW222356   0.784   2.543   4.400
 7153SOL     OW22357   4.737   2.067   3.260
 7153SOL    HW122358   4.658   2.036   3.313
 7153SOL    HW222359   4.707   2.132   3.190
 7154SOL     OW22360   3.220   0.116   4.369
 7154SOL    HW122361   3.141   0.164   4.409
 7154SOL    HW222362   3.283   0.183   4.330
 7155SOL     OW22363   2.538   1.490   4.134
 7155SOL    HW122364   2.586   1.574   4.107
 7155SOL    HW222365   2.560   1.467   4.228
 7156SOL     OW22366   2.136   5.615   5.417
 7156SOL    HW122367   2.094   5.586   5.331
 7156SOL    HW222368   2.235   5.607   5.411
 7157SOL     OW22369   5.933   4.353   0.609
 7157SOL    HW122370   5.889   4.356   0.699
 7157SOL    HW222371   5.889   4.283   0.552
 7158SOL     OW22372   3.746   0.626   3.097
 7158SOL    HW122373   3.688   0.656   3.172
 7158SOL    HW222374   3.836   0.669   3.105
 7159SOL     OW22375   1.295   6.192   6.992
 7159SOL    HW122376   1.353   6.112   7.002
 7159SOL    HW222377   1.214   6.183   0.031
 7160SOL     OW22378   0.139   0.445   2.025
 7160SOL    HW122379   0.042   0.466   2.033
 7160SOL    HW222380   0.191   0.530   2.014
 7161SOL     OW22381   2.922   3.777   4.826
 7161SOL    HW122382   2.929   3.700   4.890
 7161SOL    HW222383   2.937   3.862   4.875
 7162SOL     OW22384   3.419   4.998   4.057
 7162SOL    HW122385   3.337   4.946   4.031
 7162SOL    HW222386   3.393   5.068   4.123
 7163SOL     OW22387   1.047   6.354   3.762
 7163SOL    HW122388   1.100   6.276   3.729
 7163SOL    HW222389   1.092   6.439   3.735
 7164SOL     OW22390   3.872   1.457   4.330
 7164SOL    HW122391   3.790   1.500   4.291
 7164SOL    HW222392   3.844   1.392   4.402
 7165SOL     OW22393   4.273   5.197   1.874
 7165SOL    HW122394   4.195   5.257   1.856
 7165SOL    HW222395   4.348   5.221   1.812
 7166SOL     OW22396   3.436   6.426   2.521
 7166SOL    HW122397   3.456   6.333   2.554
 7166SOL    HW222398   3.339   6.433   2.498
 7167SOL     OW22399   6.089   3.058   0.473
 7167SOL    HW122400   5.990   3.050   0.463
 7167SOL    HW222401   6.133   2.980   0.427
 7168SOL     OW22402   6.553   1.061   4.409
 7168SOL    HW122403   6.594   1.124   4.343
 7168SOL    HW222404   6.593   1.076   4.499
 7169SOL     OW22405   2.658   2.814   0.003
 7169SOL    HW122406   2.657   2.914   0.003
 7169SOL    HW222407   2.591   2.781   0.070
 7170SOL     OW22408   4.842   3.962   4.515
 7170SOL    HW122409   4.805   4.017   4.590
 7170SOL    HW222410   4.868   3.872   4.550
 7171SOL     OW22411   3.591   3.749   5.201
 7171SOL    HW122412   3.507   3.713   5.240
 7171SOL    HW222413   3.594   3.848   5.213
 7172SOL     OW22414   5.641   6.027   1.450
 7172SOL    HW122415   5.636   6.086   1.369
 7172SOL    HW222416   5.730   5.982   1.453
 7173SOL     OW22417   6.711   6.440   4.448
 7173SOL    HW122418   6.658   6.525   4.455
 7173SOL    HW222419   6.726   6.417   4.352
 7174SOL     OW22420   1.254   6.754   5.969
 7174SOL    HW122421   1.214   6.828   6.023
 7174SOL    HW222422   1.252   6.778   5.872
 7175SOL     OW22423   6.181   3.565   5.835
 7175SOL    HW122424   6.229   3.619   5.766
 7175SOL    HW222425   6.224   3.475   5.844
 7176SOL     OW22426   1.126   3.500   1.150
 7176SOL    HW122427   1.030   3.474   1.160
 7176SOL    HW222428   1.177   3.426   1.107
 7177SOL     OW22429   0.658   5.268   1.402
 7177SOL    HW122430   0.604   5.340   1.361
 7177SOL    HW222431   0.629   5.179   1.366
 7178SOL     OW22432   6.395   0.671   6.589
 7178SOL    HW122433   6.330   0.620   6.532
 7178SOL    HW222434   6.445   0.606   6.646
 7179SOL     OW22435   0.736   3.739   5.734
 7179SOL    HW122436   0.808   3.714   5.799
 7179SOL    HW222437   0.687   3.656   5.705
 7180SOL     OW22438   6.880   0.853   2.109
 7180SOL    HW122439   6.869   0.757   2.136
 7180SOL    HW222440   6.790   0.896   2.101
 7181SOL     OW22441   5.234   6.008   2.304
 7181SOL    HW122442   5.323   6.050   2.318
 7181SOL    HW222443   5.171   6.038   2.377
 7182SOL     OW22444   3.778   3.822   5.840
 7182SOL    HW122445   3.711   3.867   5.781
 7182SOL    HW222446   3.771   3.859   5.933
 7183SOL     OW22447   2.308   2.789   2.885
 7183SOL    HW122448   2.365   2.707   2.888
 7183SOL    HW222449   2.213   2.764   2.905
 7184SOL     OW22450   2.592   5.365   2.966
 7184SOL    HW122451   2.517   5.414   2.920
 7184SOL    HW222452   2.639   5.307   2.900
 7185SOL     OW22453   5.491   2.137   6.487
 7185SOL    HW122454   5.587   2.137   6.459
 7185SOL    HW222455   5.433   2.147   6.407
 7186SOL     OW22456   1.360   6.623   4.443
 7186SOL    HW122457   1.375   6.720   4.462
 7186SOL    HW222458   1.293   6.613   4.369
 7187SOL     OW22459   1.551   4.990   1.056
 7187SOL    HW122460   1.624   4.994   1.124
 7187SOL    HW222461   1.499   5.076   1.058
 7188SOL     OW22462   4.556   0.331   1.735
 7188SOL    HW122463   4.587   0.242   1.702
 7188SOL    HW222464   4.466   0.321   1.779
 7189SOL     OW22465   5.990   0.996   5.749
 7189SOL    HW122466   5.907   0.996   5.692
 7189SOL    HW222467   6.061   1.049   5.703
 7190SOL     OW22468   4.453   5.072   2.295
 7190SOL    HW122469   4.547   5.065   2.327
 7190SOL    HW222470   4.435   5.002   2.226
 7191SOL     OW22471   0.852   3.650   1.714
 7191SOL    HW122472   0.763   3.611   1.694
 7191SOL    HW222473   0.869   3.728   1.653
 7192SOL     OW22474   3.147   4.239   5.947
 7192SOL    HW122475   3.057   4.273   5.920
 7192SOL    HW222476   3.147   4.220   6.045
 7193SOL     OW22477   5.819   2.132   4.835
 7193SOL    HW122478   5.894   2.096   4.781
 7193SOL    HW222479   5.787   2.062   4.899
 7194SOL     OW22480   3.366   0.766   2.001
 7194SOL    HW122481   3.291   0.736   1.943
 7194SOL    HW222482   3.368   0.866   2.005
 7195SOL     OW22483   0.279   0.256   3.075
 7195SOL    HW122484   0.318   0.348   3.083
 7195SOL    HW222485   0.322   0.208   2.999
 7196SOL     OW22486   4.094   4.108   1.551
 7196SOL    HW122487   4.154   4.123   1.472
 7196SOL    HW222488   4.125   4.027   1.602
 7197SOL     OW22489   2.078   1.030   4.089
 7197SOL    HW122490   2.120   1.117   4.114
 7197SOL    HW222491   2.143   0.975   4.037
 7198SOL     OW22492   0.049   6.884   5.739
 7198SOL    HW122493   0.121   6.815   5.744
 7198SOL    HW222494   0.090   6.975   5.745
 7199SOL     OW22495   6.355   5.802   1.617
 7199SOL    HW122496   6.340   5.787   1.519
 7199SOL    HW222497   6.309   5.886   1.646
 7200SOL     OW22498   1.209   1.836   2.574
 7200SOL    HW122499   1.280   1.869   2.636
 7200SOL    HW222500   1.138   1.905   2.564
 7201SOL     OW22501   1.597   4.654   3.075
 7201SOL    HW122502   1.585   4.575   3.135
 7201SOL    HW222503   1.680   4.642   3.020
 7202SOL     OW22504   2.272   6.734   5.475
 7202SOL    HW122505   2.265   6.742   5.575
 7202SOL    HW222506   2.273   6.825   5.434
 7203SOL     OW22507   5.622   0.665   6.984
 7203SOL    HW122508   5.630   0.579   0.017
 7203SOL    HW222509   5.555   0.724   0.010
 7204SOL     OW22510   0.403   3.414   2.605
 7204SOL    HW122511   0.382   3.340   2.669
 7204SOL    HW222512   0.502   3.431   2.605
 7205SOL     OW22513   0.991   4.239   1.142
 7205SOL    HW122514   0.953   4.332   1.141
 7205SOL    HW222515   1.059   4.230   1.069
 7206SOL     OW22516   6.716   0.793   1.631
 7206SOL    HW122517   6.650   0.739   1.683
 7206SOL    HW222518   6.685   0.803   1.537
 7207SOL     OW22519   3.905   0.319   1.347
 7207SOL    HW122520   3.926   0.223   1.363
 7207SOL    HW222521   3.836   0.349   1.414
 7208SOL     OW22522   2.616   6.994   5.000
 7208SOL    HW122523   2.651   0.060   4.961
 7208SOL    HW222524   2.570   7.014   5.087
 7209SOL     OW22525   2.595   3.785   5.581
 7209SOL    HW122526   2.693   3.781   5.598
 7209SOL    HW222527   2.578   3.786   5.482
 7210SOL     OW22528   4.351   0.613   4.177
 7210SOL    HW122529   4.331   0.663   4.262
 7210SOL    HW222530   4.359   0.516   4.197
 7211SOL     OW22531   0.712   5.394   3.074
 7211SOL    HW122532   0.726   5.320   3.007
 7211SOL    HW222533   0.631   5.447   3.048
 7212SOL     OW22534   5.737   6.563   2.955
 7212SOL    HW122535   5.824   6.610   2.970
 7212SOL    HW222536   5.754   6.480   2.901
 7213SOL     OW22537   5.498   6.386   5.696
 7213SOL    HW122538   5.547   6.473   5.692
 7213SOL    HW222539   5.563   6.311   5.704
 7214SOL     OW22540   1.393   5.118   6.096
 7214SOL    HW122541   1.364   5.180   6.023
 7214SOL    HW222542   1.363   5.154   6.184
 7215SOL     OW22543   1.424   3.028   1.242
 7215SOL    HW122544   1.412   2.929   1.252
 7215SOL    HW222545   1.394   3.074   1.325
 7216SOL     OW22546   2.679   1.921   2.719
 7216SOL    HW122547   2.732   1.848   2.675
 7216SOL    HW222548   2.648   1.986   2.650
 7217SOL     OW22549   1.219   3.794   1.940
 7217SOL    HW122550   1.137   3.737   1.934
 7217SOL    HW222551   1.248   3.820   1.848
 7218SOL     OW22552   6.330   2.891   3.534
 7218SOL    HW122553   6.243   2.873   3.580
 7218SOL    HW222554   6.388   2.946   3.594
 7219SOL     OW22555   2.171   1.301   1.455
 7219SOL    HW122556   2.175   1.249   1.540
 7219SOL    HW222557   2.226   1.384   1.465
 7220SOL     OW22558   6.873   1.759   2.994
 7220SOL    HW122559   6.859   1.681   2.933
 7220SOL    HW222560   6.966   1.756   3.031
 7221SOL     OW22561   6.622   3.704   4.738
 7221SOL    HW122562   6.632   3.781   4.676
 7221SOL    HW222563   6.653   3.730   4.830
 7222SOL     OW22564   6.544   0.068   2.498
 7222SOL    HW122565   6.504   0.025   2.578
 7222SOL    HW222566   6.496   0.037   2.416
 7223SOL     OW22567   4.845   1.189   4.264
 7223SOL    HW122568   4.844   1.089   4.262
 7223SOL    HW222569   4.754   1.222   4.290
 7224SOL     OW22570   5.488   1.472   3.388
 7224SOL    HW122571   5.566   1.486   3.448
 7224SOL    HW222572   5.466   1.374   3.384
 7225SOL     OW22573   2.697   0.400   1.591
 7225SOL    HW122574   2.701   0.375   1.494
 7225SOL    HW222575   2.701   0.318   1.647
 7226SOL     OW22576   5.509   6.647   5.484
 7226SOL    HW122577   5.492   6.733   5.435
 7226SOL    HW222578   5.562   6.586   5.425
 7227SOL     OW22579   0.750   2.593   5.345
 7227SOL    HW122580   0.770   2.578   5.442
 7227SOL    HW222581   0.834   2.618   5.297
 7228SOL     OW22582   1.418   0.294   2.762
 7228SOL    HW122583   1.378   0.281   2.672
 7228SOL    HW222584   1.510   0.331   2.753
 7229SOL     OW22585   6.265   6.897   3.697
 7229SOL    HW122586   6.251   6.810   3.745
 7229SOL    HW222587   6.322   6.881   3.616
 7230SOL     OW22588   6.362   5.469   1.082
 7230SOL    HW122589   6.393   5.436   1.171
 7230SOL    HW222590   6.272   5.430   1.062
 7231SOL     OW22591   5.980   0.701   6.822
 7231SOL    HW122592   5.934   0.789   6.834
 7231SOL    HW222593   5.911   0.628   6.820
 7232SOL     OW22594   3.147   3.771   0.619
 7232SOL    HW122595   3.190   3.848   0.667
 7232SOL    HW222596   3.095   3.716   0.685
 7233SOL     OW22597   1.165   1.731   6.574
 7233SOL    HW122598   1.262   1.750   6.588
 7233SOL    HW222599   1.155   1.652   6.513
 7234SOL     OW22600   5.419   2.469   3.616
 7234SOL    HW122601   5.341   2.521   3.582
 7234SOL    HW222602   5.502   2.523   3.604
 7235SOL     OW22603   5.632   2.392   4.564
 7235SOL    HW122604   5.580   2.470   4.529
 7235SOL    HW222605   5.569   2.318   4.587
 7236SOL     OW22606   0.989   1.808   3.176
 7236SOL    HW122607   1.006   1.881   3.110
 7236SOL    HW222608   1.064   1.804   3.242
 7237SOL     OW22609   6.167   5.125   5.496
 7237SOL    HW122610   6.150   5.153   5.591
 7237SOL    HW222611   6.082   5.093   5.455
 7238SOL     OW22612   1.319   0.215   2.509
 7238SOL    HW122613   1.326   0.183   2.414
 7238SOL    HW222614   1.318   0.136   2.571
 7239SOL     OW22615   4.947   1.558   2.289
 7239SOL    HW122616   5.035   1.523   2.321
 7239SOL    HW222617   4.934   1.652   2.321
 7240SOL     OW22618   3.124   3.254   3.797
 7240SOL    HW122619   3.084   3.242   3.706
 7240SOL    HW222620   3.109   3.171   3.851
 7241SOL     OW22621   4.523   0.226   5.143
 7241SOL    HW122622   4.544   0.242   5.240
 7241SOL    HW222623   4.580   0.151   5.109
 7242SOL     OW22624   6.052   5.636   0.449
 7242SOL    HW122625   6.063   5.537   0.447
 7242SOL    HW222626   6.055   5.673   0.356
 7243SOL     OW22627   0.839   5.792   1.321
 7243SOL    HW122628   0.854   5.701   1.361
 7243SOL    HW222629   0.748   5.796   1.281
 7244SOL     OW22630   5.123   1.713   1.603
 7244SOL    HW122631   5.176   1.641   1.648
 7244SOL    HW222632   5.136   1.708   1.504
 7245SOL     OW22633   5.941   1.589   3.342
 7245SOL    HW122634   5.967   1.589   3.245
 7245SOL    HW222635   6.015   1.628   3.396
 7246SOL     OW22636   0.692   5.685   5.561
 7246SOL    HW122637   0.715   5.771   5.605
 7246SOL    HW222638   0.772   5.651   5.511
 7247SOL     OW22639   3.999   5.543   3.672
 7247SOL    HW122640   3.922   5.540   3.609
 7247SOL    HW222641   3.966   5.554   3.766
 7248SOL     OW22642   2.933   1.023   5.128
 7248SOL    HW122643   2.909   0.972   5.210
 7248SOL    HW222644   2.863   1.009   5.058
 7249SOL     OW22645   5.021   2.604   6.219
 7249SOL    HW122646   5.057   2.646   6.303
 7249SOL    HW222647   4.921   2.610   6.220
 7250SOL     OW22648   3.212   2.943   0.182
 7250SOL    HW122649   3.311   2.940   0.193
 7250SOL    HW222650   3.189   2.994   0.099
 7251SOL     OW22651   6.116   1.151   5.541
 7251SOL    HW122652   6.205   1.181   5.576
 7251SOL    HW222653   6.055   1.229   5.532
 7252SOL     OW22654   4.474   3.612   5.377
 7252SOL    HW122655   4.530   3.604   5.295
 7252SOL    HW222656   4.514   3.558   5.451
 7253SOL     OW22657   4.886   5.096   0.141
 7253SOL    HW122658   4.853   5.003   0.156
 7253SOL    HW222659   4.931   5.129   0.225
 7254SOL     OW22660   5.408   6.065   5.343
 7254SOL    HW122661   5.367   6.149   5.377
 7254SOL    HW222662   5.414   6.069   5.243
 7255SOL     OW22663   3.592   3.580   3.613
 7255SOL    HW122664   3.587   3.675   3.583
 7255SOL    HW222665   3.500   3.540   3.611
 7256SOL     OW22666   3.460   5.861   3.565
 7256SOL    HW122667   3.367   5.850   3.530
 7256SOL    HW222668   3.484   5.781   3.620
 7257SOL     OW22669   6.083   5.215   2.309
 7257SOL    HW122670   5.985   5.234   2.313
 7257SOL    HW222671   6.129   5.263   2.384
 7258SOL     OW22672   2.842   0.853   6.362
 7258SOL    HW122673   2.771   0.911   6.402
 7258SOL    HW222674   2.886   0.902   6.286
 7259SOL     OW22675   3.510   4.212   6.055
 7259SOL    HW122676   3.452   4.269   5.998
 7259SOL    HW222677   3.481   4.116   6.047
 7260SOL     OW22678   4.395   2.246   2.441
 7260SOL    HW122679   4.458   2.321   2.458
 7260SOL    HW222680   4.379   2.237   2.343
 7261SOL     OW22681   2.498   4.616   1.341
 7261SOL    HW122682   2.517   4.582   1.433
 7261SOL    HW222683   2.503   4.715   1.339
 7262SOL     OW22684   5.821   0.066   4.728
 7262SOL    HW122685   5.872   7.009   4.686
 7262SOL    HW222686   5.754   0.101   4.662
 7263SOL     OW22687   4.802   4.790   1.329
 7263SOL    HW122688   4.893   4.818   1.359
 7263SOL    HW222689   4.740   4.787   1.408
 7264SOL     OW22690   6.887   0.065   4.650
 7264SOL    HW122691   6.879   6.991   4.686
 7264SOL    HW222692   6.814   0.123   4.686
 7265SOL     OW22693   4.431   2.814   6.570
 7265SOL    HW122694   4.436   2.914   6.569
 7265SOL    HW222695   4.446   2.780   6.477
 7266SOL     OW22696   4.281   0.785   2.856
 7266SOL    HW122697   4.193   0.815   2.819
 7266SOL    HW222698   4.305   0.840   2.936
 7267SOL     OW22699   4.953   2.126   3.838
 7267SOL    HW122700   4.935   2.116   3.936
 7267SOL    HW222701   5.029   2.067   3.813
 7268SOL     OW22702   3.947   6.512   6.763
 7268SOL    HW122703   3.923   6.528   6.668
 7268SOL    HW222704   4.005   6.586   6.796
 7269SOL     OW22705   1.568   0.101   3.741
 7269SOL    HW122706   1.559   0.001   3.735
 7269SOL    HW222707   1.503   0.144   3.678
 7270SOL     OW22708   3.555   2.765   1.564
 7270SOL    HW122709   3.606   2.746   1.648
 7270SOL    HW222710   3.506   2.851   1.574
 7271SOL     OW22711   4.897   6.078   3.933
 7271SOL    HW122712   4.913   6.149   4.002
 7271SOL    HW222713   4.864   5.995   3.978
 7272SOL     OW22714   5.706   1.311   1.925
 7272SOL    HW122715   5.778   1.377   1.946
 7272SOL    HW222716   5.698   1.245   2.000
 7273SOL     OW22717   6.133   5.133   4.408
 7273SOL    HW122718   6.209   5.106   4.350
 7273SOL    HW222719   6.147   5.228   4.438
 7274SOL     OW22720   5.892   4.760   3.773
 7274SOL    HW122721   5.807   4.790   3.818
 7274SOL    HW222722   5.896   4.660   3.776
 7275SOL     OW22723   5.433   0.014   2.134
 7275SOL    HW122724   5.457   0.109   2.111
 7275SOL    HW222725   5.345   7.010   2.094
 7276SOL     OW22726   4.081   1.613   2.875
 7276SOL    HW122727   4.162   1.628   2.931
 7276SOL    HW222728   4.013   1.684   2.895
 7277SOL     OW22729   6.119   2.396   3.957
 7277SOL    HW122730   6.212   2.363   3.970
 7277SOL    HW222731   6.070   2.393   4.045
 7278SOL     OW22732   3.808   1.643   3.019
 7278SOL    HW122733   3.750   1.696   2.957
 7278SOL    HW222734   3.788   1.545   3.009
 7279SOL     OW22735   3.565   3.579   1.973
 7279SOL    HW122736   3.598   3.486   1.991
 7279SOL    HW222737   3.509   3.610   2.049
 7280SOL     OW22738   6.446   1.573   5.976
 7280SOL    HW122739   6.483   1.513   6.047
 7280SOL    HW222740   6.482   1.545   5.887
 7281SOL     OW22741   3.844   6.846   3.897
 7281SOL    HW122742   3.854   6.881   3.990
 7281SOL    HW222743   3.862   6.920   3.832
 7282SOL     OW22744   0.724   3.784   1.384
 7282SOL    HW122745   0.793   3.758   1.452
 7282SOL    HW222746   0.683   3.702   1.345
 7283SOL     OW22747   2.865   6.196   2.750
 7283SOL    HW122748   2.908   6.109   2.726
 7283SOL    HW222749   2.766   6.188   2.739
 7284SOL     OW22750   0.520   0.606   3.793
 7284SOL    HW122751   0.435   0.555   3.782
 7284SOL    HW222752   0.583   0.554   3.851
 7285SOL     OW22753   4.830   2.359   2.109
 7285SOL    HW122754   4.740   2.315   2.104
 7285SOL    HW222755   4.825   2.450   2.067
 7286SOL     OW22756   6.626   1.396   4.862
 7286SOL    HW122757   6.552   1.435   4.917
 7286SOL    HW222758   6.713   1.412   4.908
 7287SOL     OW22759   3.439   1.482   4.476
 7287SOL    HW122760   3.342   1.486   4.453
 7287SOL    HW222761   3.453   1.423   4.555
 7288SOL     OW22762   2.866   1.669   1.448
 7288SOL    HW122763   2.801   1.739   1.418
 7288SOL    HW222764   2.880   1.602   1.375
 7289SOL     OW22765   6.922   2.491   1.123
 7289SOL    HW122766   6.921   2.521   1.218
 7289SOL    HW222767   6.868   2.554   1.067
 7290SOL     OW22768   3.378   2.106   4.959
 7290SOL    HW122769   3.311   2.177   4.979
 7290SOL    HW222770   3.429   2.131   4.876
 7291SOL     OW22771   1.094   0.950   0.333
 7291SOL    HW122772   1.117   1.002   0.416
 7291SOL    HW222773   1.013   0.991   0.290
 7292SOL     OW22774   3.402   1.351   2.497
 7292SOL    HW122775   3.432   1.284   2.565
 7292SOL    HW222776   3.411   1.443   2.535
 7293SOL     OW22777   6.160   1.363   4.242
 7293SOL    HW122778   6.102   1.285   4.222
 7293SOL    HW222779   6.124   1.444   4.196
 7294SOL     OW22780   2.177   1.298   2.456
 7294SOL    HW122781   2.147   1.243   2.379
 7294SOL    HW222782   2.101   1.353   2.490
 7295SOL     OW22783   5.179   4.623   1.430
 7295SOL    HW122784   5.149   4.711   1.467
 7295SOL    HW222785   5.279   4.619   1.428
 7296SOL     OW22786   3.016   0.387   2.768
 7296SOL    HW122787   2.934   0.441   2.749
 7296SOL    HW222788   2.990   0.299   2.806
 7297SOL     OW22789   4.781   0.623   6.987
 7297SOL    HW122790   4.740   0.688   0.032
 7297SOL    HW222791   4.880   0.617   7.004
 7298SOL     OW22792   4.213   4.515   0.695
 7298SOL    HW122793   4.147   4.585   0.719
 7298SOL    HW222794   4.169   4.445   0.640
 7299SOL     OW22795   0.095   2.877   0.255
 7299SOL    HW122796   0.182   2.901   0.300
 7299SOL    HW222797   0.104   2.788   0.212
 7300SOL     OW22798   0.469   4.174   2.366
 7300SOL    HW122799   0.547   4.221   2.407
 7300SOL    HW222800   0.388   4.234   2.369
 7301SOL     OW22801   3.768   1.898   0.702
 7301SOL    HW122802   3.813   1.985   0.724
 7301SOL    HW222803   3.758   1.890   0.603
 7302SOL     OW22804   5.791   1.363   6.717
 7302SOL    HW122805   5.797   1.318   6.807
 7302SOL    HW222806   5.792   1.294   6.645
 7303SOL     OW22807   3.861   2.466   1.101
 7303SOL    HW122808   3.763   2.482   1.086
 7303SOL    HW222809   3.894   2.398   1.036
 7304SOL     OW22810   3.225   0.174   0.728
 7304SOL    HW122811   3.259   0.088   0.766
 7304SOL    HW222812   3.137   0.159   0.683
 7305SOL     OW22813   6.915   6.958   6.370
 7305SOL    HW122814   7.011   6.987   6.373
 7305SOL    HW222815   6.899   6.907   6.286
 7306SOL     OW22816   1.796   3.533   1.089
 7306SOL    HW122817   1.699   3.542   1.065
 7306SOL    HW222818   1.848   3.509   1.007
 7307SOL     OW22819   4.573   6.588   1.034
 7307SOL    HW122820   4.620   6.621   0.951
 7307SOL    HW222821   4.484   6.552   1.010
 7308SOL     OW22822   3.651   2.110   2.859
 7308SOL    HW122823   3.741   2.154   2.859
 7308SOL    HW222824   3.652   2.030   2.799
 7309SOL     OW22825   2.435   5.421   3.451
 7309SOL    HW122826   2.384   5.338   3.431
 7309SOL    HW222827   2.422   5.487   3.377
 7310SOL     OW22828   5.260   3.176   0.188
 7310SOL    HW122829   5.197   3.105   0.158
 7310SOL    HW222830   5.230   3.212   0.277
 7311SOL     OW22831   1.212   6.693   5.525
 7311SOL    HW122832   1.302   6.657   5.549
 7311SOL    HW222833   1.157   6.620   5.484
 7312SOL     OW22834   5.627   1.776   4.500
 7312SOL    HW122835   5.612   1.798   4.403
 7312SOL    HW222836   5.619   1.860   4.555
 7313SOL     OW22837   3.252   1.039   3.258
 7313SOL    HW122838   3.318   1.057   3.185
 7313SOL    HW222839   3.290   0.972   3.321
 7314SOL     OW22840   2.617   5.601   4.900
 7314SOL    HW122841   2.620   5.654   4.985
 7314SOL    HW222842   2.607   5.504   4.922
 7315SOL     OW22843   2.425   4.864   2.261
 7315SOL    HW122844   2.327   4.846   2.253
 7315SOL    HW222845   2.457   4.834   2.350
 7316SOL     OW22846   2.900   0.918   2.618
 7316SOL    HW122847   2.953   0.959   2.692
 7316SOL    HW222848   2.827   0.861   2.656
 7317SOL     OW22849   5.557   1.349   1.448
 7317SOL    HW122850   5.527   1.429   1.500
 7317SOL    HW222851   5.654   1.360   1.424
 7318SOL     OW22852   5.177   6.806   1.601
 7318SOL    HW122853   5.105   6.835   1.537
 7318SOL    HW222854   5.138   6.799   1.693
 7319SOL     OW22855   4.569   5.075   6.046
 7319SOL    HW122856   4.470   5.081   6.061
 7319SOL    HW222857   4.602   5.162   6.010
 7320SOL     OW22858   1.921   3.049   0.470
 7320SOL    HW122859   1.863   2.984   0.421
 7320SOL    HW222860   1.886   3.142   0.457
 7321SOL     OW22861   2.498   2.372   5.234
 7321SOL    HW122862   2.466   2.304   5.300
 7321SOL    HW222863   2.427   2.387   5.165
 7322SOL     OW22864   2.742   2.001   3.832
 7322SOL    HW122865   2.683   1.996   3.752
 7322SOL    HW222866   2.692   2.042   3.908
 7323SOL     OW22867   2.154   1.925   0.144
 7323SOL    HW122868   2.171   1.971   0.057
 7323SOL    HW222869   2.179   1.829   0.136
 7324SOL     OW22870   5.750   4.037   5.117
 7324SOL    HW122871   5.740   4.127   5.158
 7324SOL    HW222872   5.786   4.046   5.024
 7325SOL     OW22873   3.333   0.693   0.129
 7325SOL    HW122874   3.271   0.621   0.159
 7325SOL    HW222875   3.307   0.780   0.171
 7326SOL     OW22876   3.762   6.896   0.433
 7326SOL    HW122877   3.726   6.929   0.346
 7326SOL    HW222878   3.824   6.964   0.472
 7327SOL     OW22879   1.915   4.733   3.306
 7327SOL    HW122880   1.882   4.643   3.334
 7327SOL    HW222881   1.959   4.726   3.216
 7328SOL     OW22882   4.182   5.803   6.849
 7328SOL    HW122883   4.227   5.840   6.931
 7328SOL    HW222884   4.100   5.752   6.876
 7329SOL     OW22885   2.731   3.853   6.608
 7329SOL    HW122886   2.819   3.860   6.561
 7329SOL    HW222887   2.661   3.826   6.542
 7330SOL     OW22888   2.580   3.677   1.676
 7330SOL    HW122889   2.533   3.615   1.738
 7330SOL    HW222890   2.545   3.664   1.583
 7331SOL     OW22891   5.445   1.938   2.879
 7331SOL    HW122892   5.487   1.934   2.789
 7331SOL    HW222893   5.365   1.997   2.877
 7332SOL     OW22894   1.503   0.310   4.730
 7332SOL    HW122895   1.601   0.305   4.750
 7332SOL    HW222896   1.463   0.387   4.780
 7333SOL     OW22897   6.322   1.715   1.730
 7333SOL    HW122898   6.283   1.718   1.822
 7333SOL    HW222899   6.258   1.671   1.668
 7334SOL     OW22900   1.063   4.876   5.093
 7334SOL    HW122901   1.022   4.785   5.092
 7334SOL    HW222902   1.102   4.896   5.003
 7335SOL     OW22903   6.364   2.487   1.772
 7335SOL    HW122904   6.396   2.560   1.711
 7335SOL    HW222905   6.325   2.413   1.718
 7336SOL     OW22906   2.508   0.105   1.217
 7336SOL    HW122907   2.581   0.091   1.151
 7336SOL    HW222908   2.514   0.036   1.289
 7337SOL     OW22909   3.003   1.620   1.942
 7337SOL    HW122910   2.965   1.636   1.851
 7337SOL    HW222911   3.060   1.538   1.940
 7338SOL     OW22912   5.202   2.226   0.014
 7338SOL    HW122913   5.137   2.150   0.008
 7338SOL    HW222914   5.157   2.311   7.004
 7339SOL     OW22915   6.609   6.613   3.495
 7339SOL    HW122916   6.690   6.671   3.509
 7339SOL    HW222917   6.618   6.530   3.551
 7340SOL     OW22918   3.191   0.156   0.274
 7340SOL    HW122919   3.175   0.158   0.175
 7340SOL    HW222920   3.288   0.140   0.291
 7341SOL     OW22921   5.800   5.181   2.914
 7341SOL    HW122922   5.771   5.161   2.821
 7341SOL    HW222923   5.756   5.265   2.945
 7342SOL     OW22924   6.881   4.998   6.733
 7342SOL    HW122925   6.976   5.016   6.706
 7342SOL    HW222926   6.877   4.980   6.831
 7343SOL     OW22927   0.489   2.308   3.231
 7343SOL    HW122928   0.533   2.295   3.320
 7343SOL    HW222929   0.559   2.316   3.160
 7344SOL     OW22930   1.430   1.332   5.555
 7344SOL    HW122931   1.425   1.418   5.505
 7344SOL    HW222932   1.413   1.256   5.493
 7345SOL     OW22933   1.692   6.758   6.896
 7345SOL    HW122934   1.716   6.661   6.895
 7345SOL    HW222935   1.595   6.769   6.871
 7346SOL     OW22936   3.245   5.620   3.064
 7346SOL    HW122937   3.270   5.621   3.161
 7346SOL    HW222938   3.293   5.693   3.016
 7347SOL     OW22939   5.802   2.957   3.343
 7347SOL    HW122940   5.890   2.935   3.300
 7347SOL    HW222941   5.750   3.018   3.283
 7348SOL     OW22942   5.578   0.397   6.589
 7348SOL    HW122943   5.500   0.346   6.553
 7348SOL    HW222944   5.649   0.403   6.519
 7349SOL     OW22945   3.937   1.924   0.986
 7349SOL    HW122946   3.885   1.842   1.013
 7349SOL    HW222947   3.950   1.982   1.067
 7350SOL     OW22948   1.886   1.694   2.161
 7350SOL    HW122949   1.787   1.698   2.157
 7350SOL    HW222950   1.924   1.706   2.069
 7351SOL     OW22951   5.883   5.005   0.066
 7351SOL    HW122952   5.866   5.074   0.136
 7351SOL    HW222953   5.848   5.038   6.997
 7352SOL     OW22954   6.827   1.559   2.784
 7352SOL    HW122955   6.850   1.481   2.842
 7352SOL    HW222956   6.905   1.581   2.726
 7353SOL     OW22957   5.844   1.454   4.268
 7353SOL    HW122958   5.852   1.383   4.198
 7353SOL    HW222959   5.897   1.535   4.240
 7354SOL     OW22960   5.950   4.463   5.006
 7354SOL    HW122961   6.017   4.456   4.932
 7354SOL    HW222962   5.991   4.431   5.091
 7355SOL     OW22963   6.816   5.668   0.411
 7355SOL    HW122964   6.830   5.616   0.495
 7355SOL    HW222965   6.747   5.622   0.355
 7356SOL     OW22966   6.750   2.240   6.446
 7356SOL    HW122967   6.735   2.149   6.408
 7356SOL    HW222968   6.723   2.240   6.542
 7357SOL     OW22969   1.029   0.736   1.488
 7357SOL    HW122970   0.998   0.662   1.428
 7357SOL    HW222971   0.961   0.751   1.560
 7358SOL     OW22972   3.581   1.355   3.786
 7358SOL    HW122973   3.501   1.413   3.771
 7358SOL    HW222974   3.655   1.383   3.724
 7359SOL     OW22975   3.381   3.815   4.297
 7359SOL    HW122976   3.366   3.784   4.391
 7359SOL    HW222977   3.350   3.910   4.287
 7360SOL     OW22978   1.852   4.932   5.640
 7360SOL    HW122979   1.795   4.946   5.559
 7360SOL    HW222980   1.813   4.860   5.697
 7361SOL     OW22981   4.692   0.100   1.616
 7361SOL    HW122982   4.675   0.020   1.558
 7361SOL    HW222983   4.744   0.168   1.564
 7362SOL     OW22984   1.236   4.944   0.315
 7362SOL    HW122985   1.182   4.868   0.352
 7362SOL    HW222986   1.179   5.026   0.312
 7363SOL     OW22987   5.123   2.334   6.315
 7363SOL    HW122988   5.076   2.417   6.284
 7363SOL    HW222989   5.087   2.255   6.265
 7364SOL     OW22990   4.929   6.433   0.273
 7364SOL    HW122991   4.830   6.436   0.286
 7364SOL    HW222992   4.949   6.409   0.178
 7365SOL     OW22993   5.272   0.148   1.755
 7365SOL    HW122994   5.185   0.183   1.720
 7365SOL    HW222995   5.255   0.084   1.829
 7366SOL     OW22996   3.249   6.931   0.838
 7366SOL    HW122997   3.241   6.883   0.925
 7366SOL    HW222998   3.218   6.871   0.764
 7367SOL     OW22999   4.932   2.840   6.044
 7367SOL    HW123000   4.980   2.877   6.123
 7367SOL    HW223001   4.834   2.832   6.065
 7368SOL     OW23002   3.290   2.793   5.111
 7368SOL    HW123003   3.271   2.709   5.060
 7368SOL    HW223004   3.228   2.799   5.189
 7369SOL     OW23005   0.272   6.583   6.452
 7369SOL    HW123006   0.186   6.542   6.483
 7369SOL    HW223007   0.336   6.511   6.425
 7370SOL     OW23008   6.693   5.713   1.094
 7370SOL    HW123009   6.778   5.765   1.100
 7370SOL    HW223010   6.713   5.616   1.094
 7371SOL     OW23011   2.347   5.174   3.399
 7371SOL    HW123012   2.284   5.097   3.409
 7371SOL    HW223013   2.382   5.176   3.305
 7372SOL     OW23014   2.049   6.844   5.005
 7372SOL    HW123015   2.133   6.849   5.059
 7372SOL    HW223016   2.070   6.859   4.909
 7373SOL     OW23017   4.107   1.739   0.656
 7373SOL    HW123018   4.200   1.730   0.690
 7373SOL    HW223019   4.043   1.693   0.718
 7374SOL     OW23020   2.388   4.026   0.802
 7374SOL    HW123021   2.291   4.023   0.825
 7374SOL    HW223022   2.425   3.933   0.803
 7375SOL     OW23023   2.116   5.505   2.501
 7375SOL    HW123024   2.076   5.450   2.574
 7375SOL    HW223025   2.216   5.501   2.506
 7376SOL     OW23026   3.571   4.793   0.123
 7376SOL    HW123027   3.556   4.890   0.140
 7376SOL    HW223028   3.541   4.770   0.030
 7377SOL     OW23029   4.921   5.922   1.309
 7377SOL    HW123030   4.986   5.877   1.248
 7377SOL    HW223031   4.904   6.015   1.277
 7378SOL     OW23032   0.854   1.382   6.459
 7378SOL    HW123033   0.933   1.416   6.407
 7378SOL    HW223034   0.771   1.425   6.425
 7379SOL     OW23035   4.619   1.125   6.943
 7379SOL    HW123036   4.702   1.073   6.959
 7379SOL    HW223037   4.546   1.091   7.003
 7380SOL     OW23038   0.250   3.154   6.223
 7380SOL    HW123039   0.346   3.175   6.204
 7380SOL    HW223040   0.215   3.217   6.293
 7381SOL     OW23041   5.843   2.958   0.588
 7381SOL    HW123042   5.916   2.938   0.653
 7381SOL    HW223043   5.808   3.050   0.606
 7382SOL     OW23044   0.659   5.643   3.759
 7382SOL    HW123045   0.725   5.595   3.700
 7382SOL    HW223046   0.699   5.727   3.793
 7383SOL     OW23047   1.829   4.829   1.905
 7383SOL    HW123048   1.812   4.791   1.814
 7383SOL    HW223049   1.841   4.755   1.970
 7384SOL     OW23050   5.753   0.969   1.449
 7384SOL    HW123051   5.721   1.029   1.376
 7384SOL    HW223052   5.745   0.874   1.420
 7385SOL     OW23053   5.212   6.767   2.415
 7385SOL    HW123054   5.117   6.740   2.431
 7385SOL    HW223055   5.214   6.853   2.364
 7386SOL     OW23056   6.346   1.721   5.262
 7386SOL    HW123057   6.267   1.661   5.274
 7386SOL    HW223058   6.345   1.760   5.170
 7387SOL     OW23059   5.318   5.477   4.483
 7387SOL    HW123060   5.391   5.521   4.432
 7387SOL    HW223061   5.255   5.546   4.517
 7388SOL     OW23062   4.900   3.504   4.477
 7388SOL    HW123063   4.967   3.551   4.420
 7388SOL    HW223064   4.899   3.407   4.454
 7389SOL     OW23065   2.194   3.626   5.850
 7389SOL    HW123066   2.238   3.676   5.776
 7389SOL    HW223067   2.240   3.538   5.863
 7390SOL     OW23068   4.634   5.961   0.623
 7390SOL    HW123069   4.679   5.975   0.535
 7390SOL    HW223070   4.535   5.954   0.608
 7391SOL     OW23071   0.153   4.980   0.820
 7391SOL    HW123072   0.088   5.026   0.760
 7391SOL    HW223073   0.225   4.937   0.765
 7392SOL     OW23074   1.301   4.379   1.558
 7392SOL    HW123075   1.307   4.423   1.468
 7392SOL    HW223076   1.228   4.312   1.558
 7393SOL     OW23077   1.355   3.853   0.659
 7393SOL    HW123078   1.344   3.901   0.747
 7393SOL    HW223079   1.288   3.889   0.594
 7394SOL     OW23080   2.960   4.148   6.927
 7394SOL    HW123081   2.904   4.150   6.845
 7394SOL    HW223082   3.054   4.122   6.903
 7395SOL     OW23083   2.595   7.016   0.587
 7395SOL    HW123084   2.602   6.932   0.642
 7395SOL    HW223085   2.501   0.030   0.588
 7396SOL     OW23086   6.628   6.863   2.213
 7396SOL    HW123087   6.673   6.834   2.129
 7396SOL    HW223088   6.541   6.815   2.224
 7397SOL     OW23089   5.578   4.301   4.197
 7397SOL    HW123090   5.644   4.226   4.191
 7397SOL    HW223091   5.550   4.313   4.293
 7398SOL     OW23092   4.111   5.510   3.256
 7398SOL    HW123093   4.096   5.459   3.341
 7398SOL    HW223094   4.023   5.535   3.216
 7399SOL     OW23095   4.976   6.197   4.170
 7399SOL    HW123096   5.058   6.143   4.149
 7399SOL    HW223097   4.909   6.140   4.216
 7400SOL     OW23098   2.544   4.421   6.778
 7400SOL    HW123099   2.627   4.397   6.829
 7400SOL    HW223100   2.466   4.422   6.840
 7401SOL     OW23101   6.461   2.963   3.817
 7401SOL    HW123102   6.519   3.003   3.888
 7401SOL    HW223103   6.516   2.899   3.762
 7402SOL     OW23104   1.671   6.242   5.216
 7402SOL    HW123105   1.574   6.221   5.232
 7402SOL    HW223106   1.690   6.336   5.245
 7403SOL     OW23107   2.215   3.170   1.362
 7403SOL    HW123108   2.157   3.088   1.359
 7403SOL    HW223109   2.289   3.160   1.295
 7404SOL     OW23110   1.424   2.980   2.883
 7404SOL    HW123111   1.483   2.968   2.804
 7404SOL    HW223112   1.391   3.075   2.885
 7405SOL     OW23113   3.291   5.459   5.717
 7405SOL    HW123114   3.351   5.451   5.797
 7405SOL    HW223115   3.274   5.556   5.698
 7406SOL     OW23116   5.706   5.830   2.727
 7406SOL    HW123117   5.685   5.827   2.825
 7406SOL    HW223118   5.637   5.778   2.677
 7407SOL     OW23119   4.184   1.751   5.901
 7407SOL    HW123120   4.252   1.691   5.859
 7407SOL    HW223121   4.092   1.714   5.882
 7408SOL     OW23122   0.614   3.203   4.958
 7408SOL    HW123123   0.520   3.229   4.935
 7408SOL    HW223124   0.613   3.146   5.041
 7409SOL     OW23125   2.093   0.258   4.504
 7409SOL    HW123126   1.994   0.261   4.506
 7409SOL    HW223127   2.123   0.182   4.446
 7410SOL     OW23128   3.888   5.121   5.849
 7410SOL    HW123129   3.840   5.036   5.827
 7410SOL    HW223130   3.857   5.194   5.788
 7411SOL     OW23131   5.951   3.437   5.676
 7411SOL    HW123132   5.984   3.502   5.745
 7411SOL    HW223133   6.027   3.380   5.645
 7412SOL     OW23134   1.315   0.618   6.973
 7412SOL    HW123135   1.262   0.649   0.033
 7412SOL    HW223136   1.306   0.519   6.964
 7413SOL     OW23137   6.495   3.755   3.014
 7413SOL    HW123138   6.423   3.791   2.955
 7413SOL    HW223139   6.568   3.822   3.023
 7414SOL     OW23140   0.212   5.557   2.219
 7414SOL    HW123141   0.223   5.488   2.147
 7414SOL    HW223142   0.301   5.591   2.247
 7415SOL     OW23143   2.735   1.490   3.497
 7415SOL    HW123144   2.649   1.476   3.546
 7415SOL    HW223145   2.808   1.440   3.543
 7416SOL     OW23146   6.338   0.707   2.355
 7416SOL    HW123147   6.251   0.734   2.314
 7416SOL    HW223148   6.361   0.771   2.429
 7417SOL     OW23149   0.152   5.327   1.607
 7417SOL    HW123150   0.138   5.426   1.603
 7417SOL    HW223151   0.235   5.303   1.558
 7418SOL     OW23152   1.935   3.472   0.875
 7418SOL    HW123153   2.015   3.532   0.876
 7418SOL    HW223154   1.963   3.380   0.903
 7419SOL     OW23155   6.104   2.010   5.525
 7419SOL    HW123156   6.130   2.099   5.561
 7419SOL    HW223157   6.171   1.941   5.553
 7420SOL     OW23158   0.645   6.569   1.914
 7420SOL    HW123159   0.639   6.605   1.821
 7420SOL    HW223160   0.587   6.623   1.975
 7421SOL     OW23161   4.451   2.161   0.976
 7421SOL    HW123162   4.447   2.215   1.060
 7421SOL    HW223163   4.507   2.208   0.908
 7422SOL     OW23164   1.723   1.767   0.252
 7422SOL    HW123165   1.673   1.708   0.316
 7422SOL    HW223166   1.777   1.711   0.190
 7423SOL     OW23167   3.030   4.208   0.567
 7423SOL    HW123168   3.059   4.295   0.608
 7423SOL    HW223169   2.958   4.167   0.623
 7424SOL     OW23170   5.681   6.241   3.628
 7424SOL    HW123171   5.667   6.164   3.691
 7424SOL    HW223172   5.735   6.211   3.550
 7425SOL     OW23173   4.205   6.917   4.965
 7425SOL    HW123174   4.125   6.918   4.905
 7425SOL    HW223175   4.181   6.955   5.054
 7426SOL     OW23176   0.136   0.266   6.461
 7426SOL    HW123177   0.184   0.258   6.373
 7426SOL    HW223178   0.039   0.281   6.444
 7427SOL     OW23179   5.111   5.008   6.292
 7427SOL    HW123180   5.162   4.935   6.248
 7427SOL    HW223181   5.032   4.970   6.340
 7428SOL     OW23182   5.612   1.586   5.238
 7428SOL    HW123183   5.669   1.653   5.191
 7428SOL    HW223184   5.670   1.512   5.273
 7429SOL     OW23185   5.575   6.735   3.143
 7429SOL    HW123186   5.509   6.752   3.070
 7429SOL    HW223187   5.633   6.658   3.118
 7430SOL     OW23188   0.639   4.112   4.589
 7430SOL    HW123189   0.653   4.183   4.519
 7430SOL    HW223190   0.725   4.096   4.638
 7431SOL     OW23191   6.739   4.014   2.787
 7431SOL    HW123192   6.729   3.956   2.868
 7431SOL    HW223193   6.676   3.983   2.716
 7432SOL     OW23194   2.213   6.457   5.819
 7432SOL    HW123195   2.137   6.469   5.883
 7432SOL    HW223196   2.207   6.367   5.776
 7433SOL     OW23197   0.753   6.785   0.781
 7433SOL    HW123198   0.660   6.815   0.803
 7433SOL    HW223199   0.760   6.767   0.683
 7434SOL     OW23200   4.447   0.008   0.675
 7434SOL    HW123201   4.386   0.078   0.639
 7434SOL    HW223202   4.523   0.052   0.724
 7435SOL     OW23203   0.899   4.330   6.910
 7435SOL    HW123204   0.901   4.386   6.993
 7435SOL    HW223205   0.856   4.242   6.931
 7436SOL     OW23206   5.136   3.684   6.854
 7436SOL    HW123207   5.213   3.699   6.916
 7436SOL    HW223208   5.169   3.646   6.768
 7437SOL     OW23209   6.632   6.703   5.660
 7437SOL    HW123210   6.702   6.634   5.676
 7437SOL    HW223211   6.608   6.748   5.746
 7438SOL     OW23212   6.938   4.002   1.089
 7438SOL    HW123213   6.894   3.964   1.007
 7438SOL    HW223214   0.012   3.965   1.097
 7439SOL     OW23215   1.671   6.607   2.461
 7439SOL    HW123216   1.761   6.645   2.483
 7439SOL    HW223217   1.630   6.569   2.543
 7440SOL     OW23218   1.518   0.732   4.590
 7440SOL    HW123219   1.582   0.786   4.536
 7440SOL    HW223220   1.559   0.644   4.613
 7441SOL     OW23221   7.014   0.912   3.510
 7441SOL    HW123222   7.006   0.838   3.444
 7441SOL    HW223223   6.926   0.959   3.518
 7442SOL     OW23224   1.964   0.851   0.140
 7442SOL    HW123225   1.872   0.827   0.109
 7442SOL    HW223226   1.978   0.816   0.233
 7443SOL     OW23227   6.047   1.438   1.527
 7443SOL    HW123228   6.043   1.398   1.618
 7443SOL    HW223229   6.091   1.528   1.532
 7444SOL     OW23230   1.974   2.839   4.940
 7444SOL    HW123231   2.052   2.885   4.898
 7444SOL    HW223232   2.007   2.774   5.008
 7445SOL     OW23233   5.910   2.919   2.448
 7445SOL    HW123234   5.986   2.980   2.423
 7445SOL    HW223235   5.944   2.826   2.460
 7446SOL     OW23236   4.598   4.359   2.470
 7446SOL    HW123237   4.658   4.426   2.514
 7446SOL    HW223238   4.517   4.345   2.526
 7447SOL     OW23239   1.515   3.049   6.275
 7447SOL    HW123240   1.550   3.143   6.274
 7447SOL    HW223241   1.458   3.034   6.194
 7448SOL     OW23242   6.917   1.120   5.464
 7448SOL    HW123243   6.985   1.177   5.419
 7448SOL    HW223244   6.963   1.049   5.518
 7449SOL     OW23245   3.010   1.318   2.775
 7449SOL    HW123246   2.984   1.223   2.791
 7449SOL    HW223247   2.972   1.376   2.847
 7450SOL     OW23248   3.928   2.056   1.973
 7450SOL    HW123249   4.009   2.114   1.961
 7450SOL    HW223250   3.847   2.114   1.976
 7451SOL     OW23251   0.846   0.779   1.686
 7451SOL    HW123252   0.845   0.736   1.777
 7451SOL    HW223253   0.860   0.878   1.696
 7452SOL     OW23254   2.114   5.488   3.084
 7452SOL    HW123255   2.078   5.413   3.139
 7452SOL    HW223256   2.101   5.574   3.133
 7453SOL     OW23257   6.101   4.573   4.567
 7453SOL    HW123258   6.184   4.627   4.553
 7453SOL    HW223259   6.084   4.516   4.487
 7454SOL     OW23260   3.024   2.277   0.024
 7454SOL    HW123261   3.087   2.201   0.008
 7454SOL    HW223262   2.975   2.261   0.110
 7455SOL     OW23263   5.195   0.280   0.821
 7455SOL    HW123264   5.192   0.184   0.792
 7455SOL    HW223265   5.250   0.333   0.756
 7456SOL     OW23266   1.961   3.216   6.350
 7456SOL    HW123267   1.995   3.184   6.439
 7456SOL    HW223268   1.886   3.158   6.320
 7457SOL     OW23269   0.515   6.440   5.402
 7457SOL    HW123270   0.612   6.460   5.386
 7457SOL    HW223271   0.507   6.366   5.469
 7458SOL     OW23272   3.024   0.651   2.075
 7458SOL    HW123273   2.942   0.611   2.035
 7458SOL    HW223274   3.093   0.666   2.004
 7459SOL     OW23275   3.619   5.340   3.505
 7459SOL    HW123276   3.696   5.315   3.446
 7459SOL    HW223277   3.533   5.323   3.457
 7460SOL     OW23278   1.259   5.200   6.321
 7460SOL    HW123279   1.263   5.146   6.406
 7460SOL    HW223280   1.168   5.190   6.281
 7461SOL     OW23281   3.510   1.672   4.136
 7461SOL    HW123282   3.441   1.605   4.108
 7461SOL    HW223283   3.471   1.764   4.132
 7462SOL     OW23284   1.476   2.398   4.071
 7462SOL    HW123285   1.525   2.449   3.999
 7462SOL    HW223286   1.397   2.451   4.101
 7463SOL     OW23287   4.050   3.656   2.468
 7463SOL    HW123288   4.065   3.566   2.511
 7463SOL    HW223289   4.046   3.726   2.539
 7464SOL     OW23290   4.516   5.579   0.623
 7464SOL    HW123291   4.470   5.641   0.685
 7464SOL    HW223292   4.611   5.607   0.611
 7465SOL     OW23293   2.764   1.646   2.655
 7465SOL    HW123294   2.806   1.648   2.564
 7465SOL    HW223295   2.739   1.552   2.679
 7466SOL     OW23296   0.390   6.360   0.738
 7466SOL    HW123297   0.296   6.392   0.743
 7466SOL    HW223298   0.440   6.389   0.820
 7467SOL     OW23299   4.309   2.446   0.932
 7467SOL    HW123300   4.278   2.352   0.947
 7467SOL    HW223301   4.298   2.499   1.016
 7468SOL     OW23302   5.247   4.846   4.466
 7468SOL    HW123303   5.240   4.895   4.553
 7468SOL    HW223304   5.190   4.764   4.469
 7469SOL     OW23305   5.279   2.292   0.722
 7469SOL    HW123306   5.182   2.289   0.695
 7469SOL    HW223307   5.286   2.275   0.820
 7470SOL     OW23308   0.482   3.634   3.219
 7470SOL    HW123309   0.483   3.545   3.174
 7470SOL    HW223310   0.513   3.625   3.313
 7471SOL     OW23311   6.614   4.200   5.787
 7471SOL    HW123312   6.679   4.196   5.863
 7471SOL    HW223313   6.654   4.252   5.711
 7472SOL     OW23314   4.443   5.764   2.850
 7472SOL    HW123315   4.431   5.779   2.949
 7472SOL    HW223316   4.479   5.672   2.835
 7473SOL     OW23317   1.488   2.362   6.007
 7473SOL    HW123318   1.538   2.276   5.995
 7473SOL    HW223319   1.546   2.428   6.055
 7474SOL     OW23320   2.467   1.313   2.014
 7474SOL    HW123321   2.421   1.355   1.936
 7474SOL    HW223322   2.502   1.384   2.075
 7475SOL     OW23323   5.307   1.023   6.321
 7475SOL    HW123324   5.402   1.041   6.346
 7475SOL    HW223325   5.263   0.971   6.394
 7476SOL     OW23326   1.842   6.694   4.731
 7476SOL    HW123327   1.933   6.735   4.736
 7476SOL    HW223328   1.809   6.696   4.637
 7477SOL     OW23329   4.798   4.246   5.035
 7477SOL    HW123330   4.737   4.216   5.108
 7477SOL    HW223331   4.748   4.302   4.969
 7478SOL     OW23332   6.841   4.440   1.223
 7478SOL    HW123333   6.832   4.384   1.141
 7478SOL    HW223334   6.761   4.428   1.282
 7479SOL     OW23335   3.681   0.223   4.638
 7479SOL    HW123336   3.716   0.315   4.654
 7479SOL    HW223337   3.627   0.223   4.554
 7480SOL     OW23338   5.601   4.941   6.972
 7480SOL    HW123339   5.662   4.869   6.940
 7480SOL    HW223340   5.578   4.927   0.049
 7481SOL     OW23341   5.457   6.579   0.591
 7481SOL    HW123342   5.494   6.672   0.594
 7481SOL    HW223343   5.529   6.515   0.619
 7482SOL     OW23344   4.808   0.306   4.906
 7482SOL    HW123345   4.808   0.207   4.925
 7482SOL    HW223346   4.893   0.331   4.862
 7483SOL     OW23347   3.914   0.028   6.618
 7483SOL    HW123348   3.815   0.017   6.609
 7483SOL    HW223349   3.933   0.101   6.683
 7484SOL     OW23350   3.233   6.270   0.636
 7484SOL    HW123351   3.144   6.225   0.629
 7484SOL    HW223352   3.279   6.242   0.720
 7485SOL     OW23353   1.239   0.307   5.032
 7485SOL    HW123354   1.214   0.322   4.937
 7485SOL    HW223355   1.174   0.355   5.092
 7486SOL     OW23356   1.717   2.319   5.153
 7486SOL    HW123357   1.667   2.232   5.157
 7486SOL    HW223358   1.674   2.385   5.215
 7487SOL     OW23359   2.344   6.186   2.397
 7487SOL    HW123360   2.383   6.166   2.307
 7487SOL    HW223361   2.245   6.172   2.394
 7488SOL     OW23362   4.494   2.195   4.672
 7488SOL    HW123363   4.592   2.215   4.676
 7488SOL    HW223364   4.449   2.235   4.751
 7489SOL     OW23365   1.263   3.608   3.224
 7489SOL    HW123366   1.202   3.534   3.255
 7489SOL    HW223367   1.208   3.684   3.191
 7490SOL     OW23368   5.759   0.597   2.564
 7490SOL    HW123369   5.693   0.536   2.609
 7490SOL    HW223370   5.830   0.542   2.519
 7491SOL     OW23371   1.103   0.015   1.130
 7491SOL    HW123372   1.192   0.008   1.085
 7491SOL    HW223373   1.037   6.974   1.083
 7492SOL     OW23374   1.365   2.408   2.726
 7492SOL    HW123375   1.384   2.385   2.630
 7492SOL    HW223376   1.451   2.406   2.778
 7493SOL     OW23377   5.799   3.900   0.099
 7493SOL    HW123378   5.769   3.967   0.031
 7493SOL    HW223379   5.814   3.945   0.187
 7494SOL     OW23380   5.360   2.256   0.989
 7494SOL    HW123381   5.369   2.256   1.089
 7494SOL    HW223382   5.447   2.282   0.948
 7495SOL     OW23383   1.406   1.929   3.431
 7495SOL    HW123384   1.388   1.893   3.340
 7495SOL    HW223385   1.320   1.956   3.474
 7496SOL     OW23386   0.255   5.035   5.801
 7496SOL    HW123387   0.163   5.057   5.833
 7496SOL    HW223388   0.321   5.052   5.874
 7497SOL     OW23389   0.497   4.287   2.946
 7497SOL    HW123390   0.557   4.238   3.009
 7497SOL    HW223391   0.415   4.232   2.930
 7498SOL     OW23392   4.868   1.657   4.213
 7498SOL    HW123393   4.872   1.585   4.144
 7498SOL    HW223394   4.946   1.718   4.203
 7499SOL     OW23395   3.207   4.888   3.698
 7499SOL    HW123396   3.158   4.931   3.622
 7499SOL    HW223397   3.305   4.891   3.681
 7500SOL     OW23398   4.819   4.058   1.886
 7500SOL    HW123399   4.909   4.099   1.873
 7500SOL    HW223400   4.778   4.092   1.970
 7501SOL     OW23401   0.857   4.508   3.633
 7501SOL    HW123402   0.931   4.528   3.697
 7501SOL    HW223403   0.836   4.410   3.637
 7502SOL     OW23404   1.133   2.026   4.652
 7502SOL    HW123405   1.133   1.995   4.557
 7502SOL    HW223406   1.151   1.948   4.712
 7503SOL     OW23407   2.284   2.228   0.686
 7503SOL    HW123408   2.200   2.198   0.732
 7503SOL    HW223409   2.361   2.221   0.749
 7504SOL     OW23410   5.493   5.241   6.193
 7504SOL    HW123411   5.393   5.248   6.201
 7504SOL    HW223412   5.535   5.324   6.231
 7505SOL     OW23413   1.612   1.770   3.093
 7505SOL    HW123414   1.582   1.851   3.042
 7505SOL    HW223415   1.538   1.738   3.152
 7506SOL     OW23416   3.610   0.556   2.868
 7506SOL    HW123417   3.681   0.606   2.918
 7506SOL    HW223418   3.645   0.529   2.778
 7507SOL     OW23419   1.670   6.591   5.029
 7507SOL    HW123420   1.671   6.669   4.967
 7507SOL    HW223421   1.633   6.620   5.118
 7508SOL     OW23422   4.962   5.798   3.361
 7508SOL    HW123423   4.899   5.723   3.383
 7508SOL    HW223424   4.986   5.794   3.264
 7509SOL     OW23425   2.559   4.344   6.503
 7509SOL    HW123426   2.511   4.424   6.468
 7509SOL    HW223427   2.570   4.352   6.602
 7510SOL     OW23428   3.881   3.104   4.347
 7510SOL    HW123429   3.811   3.172   4.370
 7510SOL    HW223430   3.845   3.041   4.278
 7511SOL     OW23431   1.379   1.095   2.260
 7511SOL    HW123432   1.297   1.053   2.223
 7511SOL    HW223433   1.416   1.161   2.194
 7512SOL     OW23434   2.033   2.671   2.852
 7512SOL    HW123435   1.945   2.675   2.899
 7512SOL    HW223436   2.060   2.576   2.837
 7513SOL     OW23437   2.359   2.908   6.815
 7513SOL    HW123438   2.369   3.007   6.811
 7513SOL    HW223439   2.317   2.882   6.902
 7514SOL     OW23440   2.834   5.380   3.133
 7514SOL    HW123441   2.768   5.391   3.059
 7514SOL    HW223442   2.883   5.293   3.121
 7515SOL     OW23443   6.956   5.136   3.395
 7515SOL    HW123444   6.883   5.096   3.450
 7515SOL    HW223445   0.025   5.125   3.442
 7516SOL     OW23446   1.565   3.801   1.221
 7516SOL    HW123447   1.473   3.771   1.245
 7516SOL    HW223448   1.632   3.749   1.275
 7517SOL     OW23449   1.568   5.393   2.504
 7517SOL    HW123450   1.528   5.402   2.413
 7517SOL    HW223451   1.518   5.451   2.568
 7518SOL     OW23452   4.862   3.761   2.155
 7518SOL    HW123453   4.843   3.758   2.057
 7518SOL    HW223454   4.815   3.840   2.195
 7519SOL     OW23455   2.169   0.769   4.859
 7519SOL    HW123456   2.119   0.787   4.944
 7519SOL    HW223457   2.132   0.827   4.786
 7520SOL     OW23458   1.804   0.166   4.224
 7520SOL    HW123459   1.809   0.123   4.134
 7520SOL    HW223460   1.748   0.109   4.285
 7521SOL     OW23461   4.273   2.875   5.865
 7521SOL    HW123462   4.182   2.893   5.829
 7521SOL    HW223463   4.275   2.784   5.906
 7522SOL     OW23464   1.865   6.599   2.166
 7522SOL    HW123465   1.912   6.560   2.245
 7522SOL    HW223466   1.818   6.526   2.116
 7523SOL     OW23467   6.626   6.112   6.375
 7523SOL    HW123468   6.585   6.194   6.333
 7523SOL    HW223469   6.558   6.038   6.376
 7524SOL     OW23470   6.367   1.709   6.211
 7524SOL    HW123471   6.395   1.712   6.115
 7524SOL    HW223472   6.383   1.617   6.248
 7525SOL     OW23473   0.272   6.932   0.343
 7525SOL    HW123474   0.287   7.016   0.395
 7525SOL    HW223475   0.212   6.951   0.266
 7526SOL     OW23476   4.209   3.303   5.202
 7526SOL    HW123477   4.140   3.304   5.130
 7526SOL    HW223478   4.213   3.213   5.244
 7527SOL     OW23479   2.294   6.487   1.469
 7527SOL    HW123480   2.218   6.445   1.518
 7527SOL    HW223481   2.380   6.465   1.516
 7528SOL     OW23482   6.103   1.987   0.577
 7528SOL    HW123483   6.147   1.975   0.666
 7528SOL    HW223484   6.063   2.079   0.572
 7529SOL     OW23485   1.208   0.343   3.821
 7529SOL    HW123486   1.183   0.318   3.728
 7529SOL    HW223487   1.267   0.273   3.861
 7530SOL     OW23488   0.143   3.220   3.007
 7530SOL    HW123489   0.184   3.298   3.055
 7530SOL    HW223490   0.045   3.215   3.029
 7531SOL     OW23491   1.602   2.607   4.327
 7531SOL    HW123492   1.521   2.606   4.267
 7531SOL    HW223493   1.574   2.588   4.421
 7532SOL     OW23494   4.548   4.425   2.215
 7532SOL    HW123495   4.571   4.374   2.298
 7532SOL    HW223496   4.545   4.363   2.137
 7533SOL     OW23497   3.822   6.540   5.229
 7533SOL    HW123498   3.871   6.453   5.224
 7533SOL    HW223499   3.888   6.616   5.231
 7534SOL     OW23500   4.442   6.510   4.198
 7534SOL    HW123501   4.438   6.482   4.103
 7534SOL    HW223502   4.412   6.435   4.257
 7535SOL     OW23503   3.065   4.608   6.556
 7535SOL    HW123504   2.990   4.545   6.578
 7535SOL    HW223505   3.151   4.571   6.590
 7536SOL     OW23506   4.346   5.233   6.803
 7536SOL    HW123507   4.337   5.332   6.802
 7536SOL    HW223508   4.289   5.193   6.732
 7537SOL     OW23509   2.244   4.472   4.638
 7537SOL    HW123510   2.220   4.519   4.553
 7537SOL    HW223511   2.300   4.392   4.618
 7538SOL     OW23512   3.516   4.104   5.491
 7538SOL    HW123513   3.565   4.053   5.420
 7538SOL    HW223514   3.500   4.197   5.458
 7539SOL     OW23515   1.151   3.098   4.540
 7539SOL    HW123516   1.236   3.089   4.487
 7539SOL    HW223517   1.151   3.186   4.588
 7540SOL     OW23518   2.876   1.216   0.280
 7540SOL    HW123519   2.856   1.120   0.296
 7540SOL    HW223520   2.975   1.232   0.282
 7541SOL     OW23521   0.544   1.905   5.956
 7541SOL    HW123522   0.589   1.993   5.972
 7541SOL    HW223523   0.608   1.841   5.913
 7542SOL     OW23524   1.924   0.561   4.561
 7542SOL    HW123525   1.937   0.486   4.497
 7542SOL    HW223526   1.974   0.542   4.645
 7543SOL     OW23527   2.758   2.578   1.735
 7543SOL    HW123528   2.662   2.551   1.731
 7543SOL    HW223529   2.807   2.517   1.797
 7544SOL     OW23530   1.181   2.182   2.516
 7544SOL    HW123531   1.122   2.101   2.510
 7544SOL    HW223532   1.161   2.243   2.440
 7545SOL     OW23533   3.915   0.356   3.905
 7545SOL    HW123534   3.834   0.344   3.962
 7545SOL    HW223535   3.991   0.304   3.944
 7546SOL     OW23536   4.999   6.818   4.769
 7546SOL    HW123537   4.932   6.752   4.802
 7546SOL    HW223538   5.035   6.871   4.846
 7547SOL     OW23539   1.923   6.553   0.632
 7547SOL    HW123540   2.007   6.607   0.628
 7547SOL    HW223541   1.884   6.544   0.541
 7548SOL     OW23542   2.585   4.223   0.851
 7548SOL    HW123543   2.645   4.204   0.773
 7548SOL    HW223544   2.506   4.162   0.849
 7549SOL     OW23545   5.977   7.017   2.468
 7549SOL    HW123546   5.909   0.049   2.415
 7549SOL    HW223547   6.061   0.052   2.476
 7550SOL     OW23548   1.079   5.574   0.575
 7550SOL    HW123549   1.155   5.617   0.526
 7550SOL    HW223550   0.997   5.578   0.518
 7551SOL     OW23551   4.939   3.792   6.187
 7551SOL    HW123552   4.969   3.860   6.120
 7551SOL    HW223553   4.891   3.718   6.141
 7552SOL     OW23554   3.501   5.865   4.471
 7552SOL    HW123555   3.502   5.938   4.402
 7552SOL    HW223556   3.583   5.872   4.528
 7553SOL     OW23557   4.345   4.203   5.631
 7553SOL    HW123558   4.259   4.182   5.677
 7553SOL    HW223559   4.333   4.281   5.570
 7554SOL     OW23560   6.851   1.195   0.689
 7554SOL    HW123561   6.932   1.162   0.737
 7554SOL    HW223562   6.865   1.290   0.660
 7555SOL     OW23563   2.400   6.737   6.546
 7555SOL    HW123564   2.486   6.728   6.597
 7555SOL    HW223565   2.363   6.647   6.528
 7556SOL     OW23566   0.006   3.840   2.555
 7556SOL    HW123567   0.074   3.899   2.599
 7556SOL    HW223568   0.032   3.744   2.568
 7557SOL     OW23569   4.742   4.105   0.994
 7557SOL    HW123570   4.722   4.195   0.956
 7557SOL    HW223571   4.684   4.037   0.950
 7558SOL     OW23572   1.416   3.944   3.779
 7558SOL    HW123573   1.459   4.007   3.845
 7558SOL    HW223574   1.362   3.876   3.828
 7559SOL     OW23575   0.796   4.988   0.187
 7559SOL    HW123576   0.849   4.989   0.271
 7559SOL    HW223577   0.850   4.946   0.114
 7560SOL     OW23578   4.369   7.004   6.138
 7560SOL    HW123579   4.438   6.986   6.207
 7560SOL    HW223580   4.346   6.919   6.090
 7561SOL     OW23581   1.795   2.837   0.304
 7561SOL    HW123582   1.775   2.817   0.400
 7561SOL    HW223583   1.809   2.751   0.255
 7562SOL     OW23584   4.695   6.146   4.945
 7562SOL    HW123585   4.666   6.088   4.870
 7562SOL    HW223586   4.632   6.223   4.956
 7563SOL     OW23587   1.947   1.768   3.776
 7563SOL    HW123588   1.961   1.690   3.838
 7563SOL    HW223589   1.959   1.853   3.826
 7564SOL     OW23590   6.267   5.536   4.086
 7564SOL    HW123591   6.255   5.626   4.043
 7564SOL    HW223592   6.183   5.512   4.135
 7565SOL     OW23593   4.877   4.895   6.426
 7565SOL    HW123594   4.845   4.830   6.494
 7565SOL    HW223595   4.816   4.896   6.347
 7566SOL     OW23596   1.547   5.460   3.825
 7566SOL    HW123597   1.611   5.416   3.888
 7566SOL    HW223598   1.587   5.546   3.792
 7567SOL     OW23599   2.799   4.042   0.124
 7567SOL    HW123600   2.865   4.078   0.057
 7567SOL    HW223601   2.813   4.087   0.212
 7568SOL     OW23602   4.104   4.753   4.009
 7568SOL    HW123603   4.141   4.778   4.099
 7568SOL    HW223604   4.007   4.731   4.018
 7569SOL     OW23605   3.469   0.144   2.720
 7569SOL    HW123606   3.427   0.054   2.726
 7569SOL    HW223607   3.568   0.135   2.727
 7570SOL     OW23608   6.296   5.207   5.056
 7570SOL    HW123609   6.396   5.210   5.051
 7570SOL    HW223610   6.258   5.282   5.002
 7571SOL     OW23611   6.839   4.368   0.433
 7571SOL    HW123612   6.860   4.412   0.520
 7571SOL    HW223613   6.821   4.271   0.448
 7572SOL     OW23614   6.046   1.341   3.680
 7572SOL    HW123615   6.020   1.256   3.726
 7572SOL    HW223616   6.010   1.419   3.730
 7573SOL     OW23617   2.898   5.045   3.866
 7573SOL    HW123618   2.869   5.020   3.958
 7573SOL    HW223619   2.902   5.145   3.858
 7574SOL     OW23620   4.140   6.187   1.439
 7574SOL    HW123621   4.059   6.139   1.473
 7574SOL    HW223622   4.212   6.121   1.417
 7575SOL     OW23623   4.918   3.288   4.081
 7575SOL    HW123624   4.954   3.197   4.059
 7575SOL    HW223625   4.890   3.333   3.996
 7576SOL     OW23626   0.321   4.645   1.751
 7576SOL    HW123627   0.366   4.569   1.797
 7576SOL    HW223628   0.278   4.612   1.666
 7577SOL     OW23629   3.943   1.550   4.011
 7577SOL    HW123630   3.851   1.586   3.994
 7577SOL    HW223631   4.011   1.620   3.989
 7578SOL     OW23632   1.947   5.517   5.604
 7578SOL    HW123633   2.034   5.529   5.556
 7578SOL    HW223634   1.872   5.517   5.538
 7579SOL     OW23635   4.447   2.401   4.398
 7579SOL    HW123636   4.511   2.339   4.444
 7579SOL    HW223637   4.360   2.400   4.446
 7580SOL     OW23638   1.638   3.296   2.378
 7580SOL    HW123639   1.549   3.340   2.363
 7580SOL    HW223640   1.700   3.360   2.422
 7581SOL     OW23641   5.758   0.963   1.122
 7581SOL    HW123642   5.659   0.965   1.111
 7581SOL    HW223643   5.791   1.053   1.150
 7582SOL     OW23644   4.039   3.226   1.470
 7582SOL    HW123645   4.089   3.147   1.435
 7582SOL    HW223646   3.941   3.205   1.472
 7583SOL     OW23647   6.073   4.052   3.480
 7583SOL    HW123648   6.153   4.058   3.540
 7583SOL    HW223649   6.006   3.990   3.520
 7584SOL     OW23650   1.898   2.788   1.899
 7584SOL    HW123651   1.997   2.793   1.906
 7584SOL    HW223652   1.868   2.823   1.810
 7585SOL     OW23653   3.254   4.113   0.691
 7585SOL    HW123654   3.166   4.136   0.649
 7585SOL    HW223655   3.325   4.174   0.656
 7586SOL     OW23656   1.254   2.725   3.426
 7586SOL    HW123657   1.215   2.697   3.338
 7586SOL    HW223658   1.188   2.783   3.474
 7587SOL     OW23659   3.134   0.569   5.633
 7587SOL    HW123660   3.197   0.605   5.702
 7587SOL    HW223661   3.171   0.485   5.595
 7588SOL     OW23662   0.235   4.544   1.510
 7588SOL    HW123663   0.174   4.475   1.472
 7588SOL    HW223664   0.273   4.600   1.436
 7589SOL     OW23665   4.464   5.590   5.977
 7589SOL    HW123666   4.382   5.642   5.956
 7589SOL    HW223667   4.522   5.585   5.896
 7590SOL     OW23668   2.524   0.570   5.079
 7590SOL    HW123669   2.583   0.522   5.144
 7590SOL    HW223670   2.581   0.619   5.012
 7591SOL     OW23671   6.571   5.595   6.057
 7591SOL    HW123672   6.615   5.684   6.060
 7591SOL    HW223673   6.593   5.544   6.141
 7592SOL     OW23674   4.748   4.897   5.919
 7592SOL    HW123675   4.740   4.874   5.822
 7592SOL    HW223676   4.702   4.984   5.937
 7593SOL     OW23677   6.587   4.829   0.051
 7593SOL    HW123678   6.577   4.764   6.994
 7593SOL    HW223679   6.644   4.788   0.122
 7594SOL     OW23680   1.164   0.090   4.407
 7594SOL    HW123681   1.110   0.108   4.325
 7594SOL    HW223682   1.258   0.066   4.381
 7595SOL     OW23683   0.226   3.915   6.803
 7595SOL    HW123684   0.240   3.912   6.704
 7595SOL    HW223685   0.128   3.924   6.822
 7596SOL     OW23686   5.350   5.178   2.358
 7596SOL    HW123687   5.445   5.203   2.336
 7596SOL    HW223688   5.305   5.255   2.402
 7597SOL     OW23689   2.347   4.654   2.823
 7597SOL    HW123690   2.433   4.698   2.846
 7597SOL    HW223691   2.302   4.623   2.907
 7598SOL     OW23692   6.664   1.477   2.484
 7598SOL    HW123693   6.612   1.483   2.399
 7598SOL    HW223694   6.717   1.561   2.496
 7599SOL     OW23695   5.255   3.951   2.014
 7599SOL    HW123696   5.221   3.878   2.073
 7599SOL    HW223697   5.287   3.911   1.928
 7600SOL     OW23698   2.285   2.349   2.607
 7600SOL    HW123699   2.327   2.284   2.670
 7600SOL    HW223700   2.281   2.310   2.516
 7601SOL     OW23701   2.195   0.695   5.298
 7601SOL    HW123702   2.250   0.678   5.379
 7601SOL    HW223703   2.100   0.672   5.316
 7602SOL     OW23704   2.073   2.870   5.275
 7602SOL    HW123705   2.130   2.795   5.243
 7602SOL    HW223706   2.077   2.945   5.209
 7603SOL     OW23707   6.162   1.215   2.366
 7603SOL    HW123708   6.171   1.237   2.269
 7603SOL    HW223709   6.208   1.285   2.420
 7604SOL     OW23710   5.821   5.694   6.566
 7604SOL    HW123711   5.818   5.642   6.652
 7604SOL    HW223712   5.908   5.677   6.520
 7605SOL     OW23713   5.016   3.250   5.601
 7605SOL    HW123714   5.051   3.157   5.605
 7605SOL    HW223715   5.060   3.300   5.527
 7606SOL     OW23716   5.737   1.004   3.893
 7606SOL    HW123717   5.707   0.976   3.802
 7606SOL    HW223718   5.663   1.052   3.939
 7607SOL     OW23719   4.862   6.060   6.051
 7607SOL    HW123720   4.886   6.051   5.954
 7607SOL    HW223721   4.945   6.067   6.106
 7608SOL     OW23722   3.750   3.462   4.711
 7608SOL    HW123723   3.683   3.388   4.701
 7608SOL    HW223724   3.704   3.550   4.697
 7609SOL     OW23725   1.130   3.040   3.185
 7609SOL    HW123726   1.181   3.120   3.152
 7609SOL    HW223727   1.137   2.966   3.117
 7610SOL     OW23728   5.803   0.311   2.470
 7610SOL    HW123729   5.729   0.246   2.486
 7610SOL    HW223730   5.861   0.315   2.552
 7611SOL     OW23731   1.374   1.818   1.849
 7611SOL    HW123732   1.335   1.908   1.869
 7611SOL    HW223733   1.356   1.793   1.754
 7612SOL     OW23734   3.410   1.143   2.744
 7612SOL    HW123735   3.320   1.100   2.733
 7612SOL    HW223736   3.479   1.089   2.695
 7613SOL     OW23737   6.565   0.706   2.205
 7613SOL    HW123738   6.553   0.694   2.106
 7613SOL    HW223739   6.478   0.690   2.251
 7614SOL     OW23740   4.180   0.928   0.263
 7614SOL    HW123741   4.110   0.860   0.284
 7614SOL    HW223742   4.204   0.978   0.347
 7615SOL     OW23743   4.337   4.627   6.026
 7615SOL    HW123744   4.265   4.696   6.026
 7615SOL    HW223745   4.334   4.575   5.940
 7616SOL     OW23746   6.975   6.267   3.392
 7616SOL    HW123747   6.881   6.262   3.359
 7616SOL    HW223748   6.992   6.194   3.457
 7617SOL     OW23749   4.127   5.175   3.094
 7617SOL    HW123750   4.069   5.138   3.166
 7617SOL    HW223751   4.149   5.270   3.115
 7618SOL     OW23752   3.174   1.573   0.312
 7618SOL    HW123753   3.228   1.655   0.294
 7618SOL    HW223754   3.101   1.566   0.243
 7619SOL     OW23755   5.739   3.648   5.656
 7619SOL    HW123756   5.800   3.726   5.642
 7619SOL    HW223757   5.793   3.569   5.685
 7620SOL     OW23758   2.466   5.554   2.113
 7620SOL    HW123759   2.495   5.604   2.032
 7620SOL    HW223760   2.380   5.593   2.147
 7621SOL     OW23761   2.842   3.126   1.475
 7621SOL    HW123762   2.928   3.077   1.457
 7621SOL    HW223763   2.849   3.219   1.438
 7622SOL     OW23764   4.927   1.800   0.844
 7622SOL    HW123765   4.923   1.771   0.940
 7622SOL    HW223766   4.867   1.878   0.830
 7623SOL     OW23767   6.780   6.787   4.743
 7623SOL    HW123768   6.770   6.690   4.723
 7623SOL    HW223769   6.823   6.799   4.833
 7624SOL     OW23770   6.998   1.228   4.775
 7624SOL    HW123771   0.005   1.149   4.830
 7624SOL    HW223772   6.966   1.302   4.834
 7625SOL     OW23773   2.309   4.677   0.525
 7625SOL    HW123774   2.260   4.675   0.438
 7625SOL    HW223775   2.391   4.620   0.519
 7626SOL     OW23776   2.645   3.836   5.313
 7626SOL    HW123777   2.740   3.860   5.291
 7626SOL    HW223778   2.583   3.893   5.258
 7627SOL     OW23779   6.986   0.419   6.793
 7627SOL    HW123780   6.952   0.509   6.767
 7627SOL    HW223781   0.062   0.408   6.760
 7628SOL     OW23782   4.028   1.624   0.123
 7628SOL    HW123783   4.045   1.607   0.220
 7628SOL    HW223784   3.933   1.650   0.110
 7629SOL     OW23785   6.209   5.410   2.461
 7629SOL    HW123786   6.222   5.486   2.397
 7629SOL    HW223787   6.152   5.440   2.537
 7630SOL     OW23788   5.664   1.639   2.035
 7630SOL    HW123789   5.572   1.603   2.018
 7630SOL    HW223790   5.658   1.734   2.064
 7631SOL     OW23791   0.582   0.300   3.727
 7631SOL    HW123792   0.500   0.340   3.767
 7631SOL    HW223793   0.601   0.212   3.769
 7632SOL     OW23794   4.809   0.945   4.610
 7632SOL    HW123795   4.854   0.868   4.656
 7632SOL    HW223796   4.711   0.926   4.602
 7633SOL     OW23797   5.552   3.370   6.012
 7633SOL    HW123798   5.622   3.325   5.957
 7633SOL    HW223799   5.470   3.385   5.957
 7634SOL     OW23800   0.911   2.598   1.878
 7634SOL    HW123801   0.980   2.620   1.947
 7634SOL    HW223802   0.901   2.676   1.816
 7635SOL     OW23803   2.068   4.822   5.945
 7635SOL    HW123804   2.084   4.724   5.947
 7635SOL    HW223805   1.975   4.842   5.975
 7636SOL     OW23806   0.742   1.769   3.289
 7636SOL    HW123807   0.819   1.781   3.226
 7636SOL    HW223808   0.776   1.742   3.379
 7637SOL     OW23809   2.971   6.283   3.984
 7637SOL    HW123810   3.063   6.258   3.957
 7637SOL    HW223811   2.963   6.383   3.989
 7638SOL     OW23812   4.734   4.964   2.060
 7638SOL    HW123813   4.746   4.969   1.961
 7638SOL    HW223814   4.675   4.886   2.082
 7639SOL     OW23815   0.849   2.017   4.543
 7639SOL    HW123816   0.880   2.107   4.576
 7639SOL    HW223817   0.876   2.007   4.447
 7640SOL     OW23818   2.076   2.718   6.028
 7640SOL    HW123819   2.013   2.767   6.088
 7640SOL    HW223820   2.025   2.677   5.952
 7641SOL     OW23821   5.736   3.317   1.694
 7641SOL    HW123822   5.648   3.276   1.668
 7641SOL    HW223823   5.720   3.398   1.751
 7642SOL     OW23824   0.956   3.570   3.046
 7642SOL    HW123825   0.988   3.502   3.113
 7642SOL    HW223826   0.860   3.553   3.024
 7643SOL     OW23827   5.473   3.845   3.558
 7643SOL    HW123828   5.539   3.770   3.555
 7643SOL    HW223829   5.473   3.894   3.471
 7644SOL     OW23830   6.488   2.520   3.750
 7644SOL    HW123831   6.465   2.567   3.835
 7644SOL    HW223832   6.431   2.438   3.741
 7645SOL     OW23833   4.169   2.895   0.771
 7645SOL    HW123834   4.146   2.861   0.680
 7645SOL    HW223835   4.145   2.992   0.777
 7646SOL     OW23836   0.744   0.658   2.334
 7646SOL    HW123837   0.823   0.689   2.282
 7646SOL    HW223838   0.763   0.568   2.373
 7647SOL     OW23839   2.538   4.042   0.108
 7647SOL    HW123840   2.636   4.045   0.126
 7647SOL    HW223841   2.488   4.044   0.195
 7648SOL     OW23842   2.250   0.520   3.521
 7648SOL    HW123843   2.151   0.531   3.526
 7648SOL    HW223844   2.272   0.446   3.458
 7649SOL     OW23845   4.082   1.981   0.762
 7649SOL    HW123846   4.064   1.886   0.734
 7649SOL    HW223847   4.032   1.999   0.847
 7650SOL     OW23848   0.250   4.637   0.932
 7650SOL    HW123849   0.172   4.699   0.928
 7650SOL    HW223850   0.334   4.687   0.914
 7651SOL     OW23851   5.751   1.845   5.998
 7651SOL    HW123852   5.804   1.773   6.042
 7651SOL    HW223853   5.672   1.868   6.056
 7652SOL     OW23854   0.514   2.876   2.284
 7652SOL    HW123855   0.461   2.860   2.368
 7652SOL    HW223856   0.602   2.829   2.292
 7653SOL     OW23857   4.673   2.373   1.586
 7653SOL    HW123858   4.739   2.341   1.654
 7653SOL    HW223859   4.722   2.417   1.511
 7654SOL     OW23860   5.601   3.829   5.193
 7654SOL    HW123861   5.572   3.831   5.289
 7654SOL    HW223862   5.656   3.910   5.173
 7655SOL     OW23863   5.312   4.774   6.244
 7655SOL    HW123864   5.240   4.724   6.292
 7655SOL    HW223865   5.343   4.721   6.165
 7656SOL     OW23866   0.226   0.056   5.302
 7656SOL    HW123867   0.146   0.109   5.329
 7656SOL    HW223868   0.290   0.114   5.253
 7657SOL     OW23869   3.508   2.146   3.383
 7657SOL    HW123870   3.456   2.075   3.430
 7657SOL    HW223871   3.513   2.125   3.285
 7658SOL     OW23872   4.541   1.126   5.719
 7658SOL    HW123873   4.451   1.162   5.695
 7658SOL    HW223874   4.541   1.096   5.814
 7659SOL     OW23875   5.037   5.977   6.267
 7659SOL    HW123876   4.989   5.895   6.298
 7659SOL    HW223877   5.135   5.961   6.268
 7660SOL     OW23878   5.443   5.224   3.634
 7660SOL    HW123879   5.378   5.260   3.702
 7660SOL    HW223880   5.505   5.159   3.678
 7661SOL     OW23881   5.761   3.275   3.569
 7661SOL    HW123882   5.800   3.215   3.639
 7661SOL    HW223883   5.813   3.266   3.485
 7662SOL     OW23884   6.219   5.181   3.324
 7662SOL    HW123885   6.272   5.108   3.283
 7662SOL    HW223886   6.124   5.151   3.339
 7663SOL     OW23887   0.998   6.705   6.877
 7663SOL    HW123888   1.049   6.765   6.816
 7663SOL    HW223889   0.995   6.746   6.969
 7664SOL     OW23890   5.138   4.811   4.930
 7664SOL    HW123891   5.090   4.781   4.847
 7664SOL    HW223892   5.215   4.869   4.905
 7665SOL     OW23893   2.235   5.922   3.654
 7665SOL    HW123894   2.201   6.013   3.632
 7665SOL    HW223895   2.279   5.923   3.744
 7666SOL     OW23896   2.096   0.255   2.630
 7666SOL    HW123897   2.137   0.167   2.607
 7666SOL    HW223898   2.007   0.239   2.674
 7667SOL     OW23899   5.403   0.208   5.648
 7667SOL    HW123900   5.349   0.292   5.650
 7667SOL    HW223901   5.497   0.229   5.618
 7668SOL     OW23902   2.978   3.603   2.988
 7668SOL    HW123903   2.949   3.519   2.942
 7668SOL    HW223904   3.006   3.671   2.920
 7669SOL     OW23905   4.647   6.668   5.212
 7669SOL    HW123906   4.581   6.593   5.205
 7669SOL    HW223907   4.680   6.693   5.121
 7670SOL     OW23908   1.454   5.847   1.421
 7670SOL    HW123909   1.447   5.798   1.508
 7670SOL    HW223910   1.537   5.818   1.373
 7671SOL     OW23911   4.660   2.793   4.833
 7671SOL    HW123912   4.640   2.840   4.919
 7671SOL    HW223913   4.604   2.709   4.827
 7672SOL     OW23914   5.444   6.985   1.558
 7672SOL    HW123915   5.464   6.956   1.652
 7672SOL    HW223916   5.345   6.988   1.544
 7673SOL     OW23917   1.731   3.937   0.362
 7673SOL    HW123918   1.728   3.844   0.327
 7673SOL    HW223919   1.667   3.947   0.438
 7674SOL     OW23920   6.159   1.532   5.985
 7674SOL    HW123921   6.101   1.596   5.934
 7674SOL    HW223922   6.252   1.569   5.990
 7675SOL     OW23923   5.421   6.823   3.413
 7675SOL    HW123924   5.461   6.785   3.330
 7675SOL    HW223925   5.324   6.844   3.397
 7676SOL     OW23926   2.316   0.126   0.958
 7676SOL    HW123927   2.227   0.115   1.001
 7676SOL    HW223928   2.353   0.216   0.980
 7677SOL     OW23929   1.849   2.267   2.635
 7677SOL    HW123930   1.917   2.301   2.701
 7677SOL    HW223931   1.838   2.334   2.561
 7678SOL     OW23932   4.840   6.911   5.732
 7678SOL    HW123933   4.768   6.980   5.729
 7678SOL    HW223934   4.887   6.907   5.644
 7679SOL     OW23935   1.821   5.012   4.491
 7679SOL    HW123936   1.798   4.946   4.563
 7679SOL    HW223937   1.918   5.036   4.498
 7680SOL     OW23938   4.422   0.492   0.940
 7680SOL    HW123939   4.330   0.528   0.924
 7680SOL    HW223940   4.428   0.456   1.033
 7681SOL     OW23941   4.171   2.530   5.534
 7681SOL    HW123942   4.138   2.504   5.624
 7681SOL    HW223943   4.245   2.597   5.543
 7682SOL     OW23944   3.166   1.143   0.060
 7682SOL    HW123945   3.156   1.089   0.143
 7682SOL    HW223946   3.238   1.212   0.073
 7683SOL     OW23947   6.658   3.579   2.845
 7683SOL    HW123948   6.658   3.609   2.750
 7683SOL    HW223949   6.610   3.646   2.901
 7684SOL     OW23950   4.004   1.852   6.125
 7684SOL    HW123951   4.047   1.910   6.194
 7684SOL    HW223952   4.075   1.817   6.063
 7685SOL     OW23953   4.502   4.599   1.469
 7685SOL    HW123954   4.587   4.569   1.426
 7685SOL    HW223955   4.479   4.537   1.544
 7686SOL     OW23956   2.206   0.595   2.074
 7686SOL    HW123957   2.246   0.610   2.164
 7686SOL    HW223958   2.243   0.662   2.009
 7687SOL     OW23959   5.007   4.158   5.172
 7687SOL    HW123960   5.010   4.071   5.221
 7687SOL    HW223961   4.918   4.166   5.126
 7688SOL     OW23962   6.538   0.350   3.837
 7688SOL    HW123963   6.496   0.439   3.820
 7688SOL    HW223964   6.470   0.278   3.819
 7689SOL     OW23965   3.341   0.022   5.200
 7689SOL    HW123966   3.358   6.943   5.212
 7689SOL    HW223967   3.423   0.067   5.165
 7690SOL     OW23968   0.982   5.129   3.092
 7690SOL    HW123969   0.895   5.140   3.141
 7690SOL    HW223970   1.043   5.204   3.117
 7691SOL     OW23971   6.683   3.454   5.531
 7691SOL    HW123972   6.656   3.496   5.618
 7691SOL    HW223973   6.723   3.364   5.549
 7692SOL     OW23974   1.543   6.138   1.422
 7692SOL    HW123975   1.475   6.066   1.439
 7692SOL    HW223976   1.594   6.118   1.339
 7693SOL     OW23977   4.403   0.975   0.099
 7693SOL    HW123978   4.359   1.006   0.015
 7693SOL    HW223979   4.333   0.962   0.169
 7694SOL     OW23980   5.446   5.478   3.936
 7694SOL    HW123981   5.484   5.568   3.956
 7694SOL    HW223982   5.514   5.407   3.955
 7695SOL     OW23983   5.246   6.809   6.550
 7695SOL    HW123984   5.213   6.894   6.592
 7695SOL    HW223985   5.186   6.785   6.473
 7696SOL     OW23986   1.242   4.221   5.388
 7696SOL    HW123987   1.240   4.177   5.298
 7696SOL    HW223988   1.268   4.154   5.457
 7697SOL     OW23989   4.458   0.647   2.613
 7697SOL    HW123990   4.494   0.665   2.705
 7697SOL    HW223991   4.361   0.623   2.620
 7698SOL     OW23992   0.177   2.181   6.266
 7698SOL    HW123993   0.079   2.169   6.278
 7698SOL    HW223994   0.212   2.243   6.336
 7699SOL     OW23995   3.427   3.306   1.277
 7699SOL    HW123996   3.345   3.277   1.327
 7699SOL    HW223997   3.414   3.290   1.179
 7700SOL     OW23998   5.419   0.916   5.350
 7700SOL    HW123999   5.433   1.002   5.400
 7700SOL    HW224000   5.453   0.840   5.405
 7701SOL     OW24001   6.746   2.433   5.028
 7701SOL    HW124002   6.679   2.486   4.976
 7701SOL    HW224003   6.838   2.462   5.005
 7702SOL     OW24004   1.062   6.218   0.118
 7702SOL    HW124005   1.026   6.309   0.140
 7702SOL    HW224006   1.037   6.154   0.190
 7703SOL     OW24007   0.899   2.364   0.202
 7703SOL    HW124008   0.949   2.359   0.288
 7703SOL    HW224009   0.957   2.403   0.131
 7704SOL     OW24010   3.945   4.036   1.271
 7704SOL    HW124011   3.979   4.130   1.259
 7704SOL    HW224012   4.023   3.973   1.272
 7705SOL     OW24013   4.009   3.429   4.625
 7705SOL    HW124014   4.040   3.516   4.588
 7705SOL    HW224015   3.909   3.428   4.629
 7706SOL     OW24016   5.299   1.469   5.576
 7706SOL    HW124017   5.379   1.516   5.615
 7706SOL    HW224018   5.311   1.461   5.477
 7707SOL     OW24019   0.255   4.927   6.061
 7707SOL    HW124020   0.201   4.843   6.064
 7707SOL    HW224021   0.343   4.909   6.017
 7708SOL     OW24022   4.540   1.586   5.410
 7708SOL    HW124023   4.467   1.546   5.465
 7708SOL    HW224024   4.629   1.564   5.451
 7709SOL     OW24025   4.037   2.641   1.683
 7709SOL    HW124026   3.969   2.660   1.612
 7709SOL    HW224027   4.047   2.721   1.742
 7710SOL     OW24028   3.320   1.550   6.388
 7710SOL    HW124029   3.359   1.627   6.438
 7710SOL    HW224030   3.368   1.466   6.412
 7711SOL     OW24031   4.873   6.419   4.487
 7711SOL    HW124032   4.950   6.406   4.424
 7711SOL    HW224033   4.864   6.339   4.546
 7712SOL     OW24034   6.215   4.523   6.110
 7712SOL    HW124035   6.127   4.521   6.062
 7712SOL    HW224036   6.276   4.454   6.070
 7713SOL     OW24037   0.744   4.941   6.542
 7713SOL    HW124038   0.675   4.996   6.589
 7713SOL    HW224039   0.790   4.882   6.609
 7714SOL     OW24040   6.088   4.801   4.992
 7714SOL    HW124041   6.123   4.737   5.061
 7714SOL    HW224042   6.063   4.887   5.037
 7715SOL     OW24043   3.709   2.104   1.442
 7715SOL    HW124044   3.759   2.113   1.528
 7715SOL    HW224045   3.667   2.192   1.419
 7716SOL     OW24046   3.839   2.071   4.371
 7716SOL    HW124047   3.791   2.064   4.284
 7716SOL    HW224048   3.911   2.002   4.374
 7717SOL     OW24049   2.795   6.525   0.431
 7717SOL    HW124050   2.839   6.490   0.513
 7717SOL    HW224051   2.864   6.552   0.364
 7718SOL     OW24052   1.416   6.268   3.069
 7718SOL    HW124053   1.370   6.268   3.158
 7718SOL    HW224054   1.367   6.329   3.006
 7719SOL     OW24055   5.360   2.780   5.394
 7719SOL    HW124056   5.390   2.854   5.454
 7719SOL    HW224057   5.287   2.728   5.440
 7720SOL     OW24058   4.672   6.637   1.593
 7720SOL    HW124059   4.767   6.609   1.608
 7720SOL    HW224060   4.614   6.600   1.666
 7721SOL     OW24061   0.488   4.967   3.452
 7721SOL    HW124062   0.437   5.043   3.413
 7721SOL    HW224063   0.521   4.993   3.543
 7722SOL     OW24064   0.363   6.039   3.638
 7722SOL    HW124065   0.424   5.969   3.600
 7722SOL    HW224066   0.278   6.041   3.586
 7723SOL     OW24067   0.158   2.314   5.968
 7723SOL    HW124068   0.239   2.332   6.025
 7723SOL    HW224069   0.082   2.285   6.027
 7724SOL     OW24070   2.899   6.124   6.829
 7724SOL    HW124071   2.853   6.209   6.856
 7724SOL    HW224072   2.937   6.079   6.910
 7725SOL     OW24073   5.127   4.102   3.606
 7725SOL    HW124074   5.122   4.064   3.514
 7725SOL    HW224075   5.221   4.093   3.640
 7726SOL     OW24076   5.135   5.967   3.814
 7726SOL    HW124077   5.044   5.999   3.838
 7726SOL    HW224078   5.159   5.998   3.722
 7727SOL     OW24079   6.030   3.750   2.242
 7727SOL    HW124080   6.061   3.755   2.148
 7727SOL    HW224081   6.005   3.841   2.274
 7728SOL     OW24082   1.947   3.335   2.762
 7728SOL    HW124083   1.849   3.320   2.775
 7728SOL    HW224084   1.987   3.257   2.715
 7729SOL     OW24085   5.624   1.332   6.064
 7729SOL    HW124086   5.674   1.286   5.991
 7729SOL    HW224087   5.526   1.326   6.047
 7730SOL     OW24088   4.205   6.045   3.331
 7730SOL    HW124089   4.302   6.063   3.347
 7730SOL    HW224090   4.180   5.959   3.376
 7731SOL     OW24091   5.897   1.789   4.017
 7731SOL    HW124092   5.888   1.815   4.113
 7731SOL    HW224093   5.901   1.871   3.960
 7732SOL     OW24094   4.045   4.890   0.839
 7732SOL    HW124095   4.144   4.897   0.852
 7732SOL    HW224096   4.022   4.913   0.745
 7733SOL     OW24097   3.712   5.377   1.526
 7733SOL    HW124098   3.761   5.451   1.480
 7733SOL    HW224099   3.624   5.411   1.560
 7734SOL     OW24100   1.164   3.295   2.135
 7734SOL    HW124101   1.164   3.197   2.116
 7734SOL    HW224102   1.218   3.343   2.065
 7735SOL     OW24103   5.798   4.111   0.520
 7735SOL    HW124104   5.832   4.068   0.436
 7735SOL    HW224105   5.703   4.084   0.535
 7736SOL     OW24106   5.532   4.367   6.862
 7736SOL    HW124107   5.470   4.445   6.857
 7736SOL    HW224108   5.522   4.311   6.780
 7737SOL     OW24109   5.092   2.678   0.176
 7737SOL    HW124110   5.099   2.673   0.076
 7737SOL    HW224111   5.133   2.597   0.216
 7738SOL     OW24112   1.896   5.058   6.651
 7738SOL    HW124113   1.992   5.029   6.652
 7738SOL    HW224114   1.892   5.158   6.639
 7739SOL     OW24115   6.004   4.250   2.369
 7739SOL    HW124116   6.030   4.216   2.279
 7739SOL    HW224117   6.086   4.280   2.418
 7740SOL     OW24118   6.638   5.985   3.223
 7740SOL    HW124119   6.678   5.900   3.258
 7740SOL    HW224120   6.539   5.983   3.239
 7741SOL     OW24121   2.714   4.968   3.633
 7741SOL    HW124122   2.757   4.993   3.719
 7741SOL    HW224123   2.746   4.877   3.605
 7742SOL     OW24124   0.115   0.672   4.473
 7742SOL    HW124125   0.056   0.664   4.554
 7742SOL    HW224126   0.113   0.766   4.439
 7743SOL     OW24127   4.911   3.417   1.920
 7743SOL    HW124128   4.910   3.325   1.959
 7743SOL    HW224129   4.858   3.418   1.835
 7744SOL     OW24130   0.062   6.304   4.441
 7744SOL    HW124131   0.040   6.348   4.354
 7744SOL    HW224132   0.097   6.212   4.424
 7745SOL     OW24133   6.082   2.663   5.654
 7745SOL    HW124134   6.080   2.725   5.732
 7745SOL    HW224135   6.066   2.714   5.569
 7746SOL     OW24136   2.308   0.568   6.388
 7746SOL    HW124137   2.289   0.531   6.298
 7746SOL    HW224138   2.271   0.660   6.395
 7747SOL     OW24139   5.024   5.137   0.717
 7747SOL    HW124140   5.059   5.133   0.811
 7747SOL    HW224141   4.988   5.047   0.691
 7748SOL     OW24142   1.584   3.533   6.690
 7748SOL    HW124143   1.507   3.473   6.670
 7748SOL    HW224144   1.646   3.488   6.756
 7749SOL     OW24145   5.760   3.252   5.864
 7749SOL    HW124146   5.798   3.276   5.775
 7749SOL    HW224147   5.735   3.155   5.866
 7750SOL     OW24148   4.057   5.927   3.057
 7750SOL    HW124149   4.057   5.941   2.958
 7750SOL    HW224150   3.989   5.858   3.082
 7751SOL     OW24151   1.112   2.715   1.500
 7751SOL    HW124152   1.161   2.671   1.575
 7751SOL    HW224153   1.172   2.721   1.420
 7752SOL     OW24154   2.732   1.217   2.666
 7752SOL    HW124155   2.702   1.129   2.629
 7752SOL    HW224156   2.795   1.261   2.602
 7753SOL     OW24157   4.554   0.401   4.943
 7753SOL    HW124158   4.560   0.360   5.034
 7753SOL    HW224159   4.645   0.401   4.901
 7754SOL     OW24160   4.715   6.095   1.145
 7754SOL    HW124161   4.687   6.074   1.051
 7754SOL    HW224162   4.671   6.030   1.207
 7755SOL     OW24163   1.341   3.326   6.106
 7755SOL    HW124164   1.359   3.375   6.191
 7755SOL    HW224165   1.306   3.235   6.127
 7756SOL     OW24166   1.591   3.759   2.299
 7756SOL    HW124167   1.548   3.830   2.356
 7756SOL    HW224168   1.682   3.739   2.334
 7757SOL     OW24169   0.813   4.334   0.446
 7757SOL    HW124170   0.737   4.296   0.393
 7757SOL    HW224171   0.899   4.316   0.399
 7758SOL     OW24172   6.844   1.076   5.183
 7758SOL    HW124173   6.774   1.141   5.156
 7758SOL    HW224174   6.865   1.088   5.280
 7759SOL     OW24175   3.198   1.376   3.059
 7759SOL    HW124176   3.100   1.393   3.070
 7759SOL    HW224177   3.236   1.442   2.995
 7760SOL     OW24178   5.480   2.842   0.547
 7760SOL    HW124179   5.576   2.813   0.545
 7760SOL    HW224180   5.459   2.892   0.463
 7761SOL     OW24181   4.874   5.656   2.831
 7761SOL    HW124182   4.855   5.601   2.750
 7761SOL    HW224183   4.850   5.605   2.913
 7762SOL     OW24184   4.465   1.474   0.395
 7762SOL    HW124185   4.470   1.380   0.362
 7762SOL    HW224186   4.536   1.529   0.353
 7763SOL     OW24187   1.710   0.844   3.088
 7763SOL    HW124188   1.612   0.847   3.110
 7763SOL    HW224189   1.763   0.875   3.166
 7764SOL     OW24190   3.749   4.476   5.274
 7764SOL    HW124191   3.828   4.535   5.293
 7764SOL    HW224192   3.772   4.413   5.199
 7765SOL     OW24193   6.294   4.074   4.532
 7765SOL    HW124194   6.316   4.096   4.627
 7765SOL    HW224195   6.227   4.139   4.497
 7766SOL     OW24196   6.925   2.663   5.892
 7766SOL    HW124197   6.852   2.661   5.823
 7766SOL    HW224198   6.886   2.645   5.982
 7767SOL     OW24199   4.120   0.704   3.433
 7767SOL    HW124200   4.111   0.609   3.402
 7767SOL    HW224201   4.105   0.709   3.531
 7768SOL     OW24202   3.277   5.903   3.928
 7768SOL    HW124203   3.299   5.811   3.959
 7768SOL    HW224204   3.218   5.898   3.847
 7769SOL     OW24205   3.719   2.282   6.150
 7769SOL    HW124206   3.758   2.199   6.111
 7769SOL    HW224207   3.626   2.264   6.182
 7770SOL     OW24208   1.277   3.233   3.425
 7770SOL    HW124209   1.295   3.300   3.497
 7770SOL    HW224210   1.343   3.159   3.431
 7771SOL     OW24211   1.100   3.650   5.271
 7771SOL    HW124212   1.065   3.698   5.190
 7771SOL    HW224213   1.183   3.695   5.302
 7772SOL     OW24214   5.109   6.215   2.085
 7772SOL    HW124215   5.147   6.128   2.116
 7772SOL    HW224216   5.177   6.263   2.029
 7773SOL     OW24217   3.029   6.495   6.130
 7773SOL    HW124218   3.112   6.457   6.088
 7773SOL    HW224219   2.995   6.432   6.200
 7774SOL     OW24220   5.119   0.640   3.055
 7774SOL    HW124221   5.200   0.638   2.997
 7774SOL    HW224222   5.114   0.728   3.102
 7775SOL     OW24223   3.929   2.031   1.274
 7775SOL    HW124224   3.839   2.060   1.309
 7775SOL    HW224225   3.984   1.996   1.350
 7776SOL     OW24226   2.659   1.752   4.007
 7776SOL    HW124227   2.673   1.846   4.037
 7776SOL    HW224228   2.567   1.742   3.969
 7777SOL     OW24229   4.946   4.857   3.271
 7777SOL    HW124230   5.021   4.792   3.259
 7777SOL    HW224231   4.953   4.899   3.361
 7778SOL     OW24232   0.480   3.146   1.636
 7778SOL    HW124233   0.574   3.137   1.606
 7778SOL    HW224234   0.478   3.172   1.733
 7779SOL     OW24235   2.478   1.096   3.956
 7779SOL    HW124236   2.441   1.185   3.928
 7779SOL    HW224237   2.407   1.026   3.948
 7780SOL     OW24238   6.273   5.782   3.984
 7780SOL    HW124239   6.254   5.793   3.887
 7780SOL    HW224240   6.362   5.823   4.006
 7781SOL     OW24241   3.075   2.990   1.465
 7781SOL    HW124242   3.115   2.950   1.547
 7781SOL    HW224243   3.101   2.936   1.385
 7782SOL     OW24244   5.191   4.926   3.476
 7782SOL    HW124245   5.105   4.970   3.500
 7782SOL    HW224246   5.201   4.840   3.527
 7783SOL     OW24247   0.447   6.692   3.874
 7783SOL    HW124248   0.533   6.741   3.885
 7783SOL    HW224249   0.399   6.688   3.961
 7784SOL     OW24250   0.899   3.215   2.598
 7784SOL    HW124251   0.960   3.295   2.593
 7784SOL    HW224252   0.837   3.215   2.520
 7785SOL     OW24253   6.197   0.153   2.476
 7785SOL    HW124254   6.279   0.139   2.421
 7785SOL    HW224255   6.220   0.207   2.557
 7786SOL     OW24256   5.453   0.707   6.673
 7786SOL    HW124257   5.548   0.709   6.644
 7786SOL    HW224258   5.444   0.647   6.753
 7787SOL     OW24259   0.893   2.185   0.725
 7787SOL    HW124260   0.954   2.107   0.711
 7787SOL    HW224261   0.931   2.244   0.797
 7788SOL     OW24262   1.079   4.425   2.378
 7788SOL    HW124263   1.012   4.354   2.403
 7788SOL    HW224264   1.053   4.512   2.418
 7789SOL     OW24265   3.649   0.197   6.890
 7789SOL    HW124266   3.659   0.214   6.792
 7789SOL    HW224267   3.726   0.143   6.923
 7790SOL     OW24268   4.082   4.946   4.900
 7790SOL    HW124269   4.127   4.889   4.831
 7790SOL    HW224270   4.097   5.042   4.878
 7791SOL     OW24271   2.097   6.592   1.249
 7791SOL    HW124272   2.040   6.653   1.304
 7791SOL    HW224273   2.183   6.638   1.228
 7792SOL     OW24274   1.225   1.595   2.078
 7792SOL    HW124275   1.221   1.508   2.128
 7792SOL    HW224276   1.258   1.667   2.139
 7793SOL     OW24277   5.495   1.344   0.799
 7793SOL    HW124278   5.420   1.281   0.817
 7793SOL    HW224279   5.578   1.313   0.846
 7794SOL     OW24280   1.191   1.538   2.640
 7794SOL    HW124281   1.106   1.487   2.627
 7794SOL    HW224282   1.171   1.636   2.646
 7795SOL     OW24283   4.651   3.541   0.927
 7795SOL    HW124284   4.649   3.598   1.009
 7795SOL    HW224285   4.729   3.479   0.931
 7796SOL     OW24286   3.997   1.141   0.254
 7796SOL    HW124287   4.057   1.061   0.251
 7796SOL    HW224288   4.009   1.189   0.341
 7797SOL     OW24289   1.721   6.186   2.804
 7797SOL    HW124290   1.687   6.141   2.887
 7797SOL    HW224291   1.656   6.175   2.730
 7798SOL     OW24292   2.118   3.244   0.908
 7798SOL    HW124293   2.138   3.172   0.841
 7798SOL    HW224294   2.105   3.202   0.998
 7799SOL     OW24295   1.949   6.027   4.399
 7799SOL    HW124296   1.873   6.071   4.448
 7799SOL    HW224297   2.035   6.048   4.445
 7800SOL     OW24298   0.754   0.741   1.963
 7800SOL    HW124299   0.672   0.718   1.910
 7800SOL    HW224300   0.740   0.829   2.009
 7801SOL     OW24301   2.713   2.124   0.925
 7801SOL    HW124302   2.753   2.169   1.005
 7801SOL    HW224303   2.784   2.111   0.855
 7802SOL     OW24304   6.964   4.831   4.031
 7802SOL    HW124305   6.865   4.831   4.016
 7802SOL    HW224306   7.004   4.750   3.987
 7803SOL     OW24307   3.131   2.308   6.407
 7803SOL    HW124308   3.084   2.384   6.361
 7803SOL    HW224309   3.224   2.301   6.373
 7804SOL     OW24310   3.002   1.271   5.602
 7804SOL    HW124311   2.967   1.329   5.676
 7804SOL    HW224312   3.066   1.324   5.546
 7805SOL     OW24313   6.926   2.125   0.073
 7805SOL    HW124314   6.890   2.045   0.121
 7805SOL    HW224315   6.866   2.203   0.090
 7806SOL     OW24316   6.173   2.516   4.997
 7806SOL    HW124317   6.139   2.531   5.090
 7806SOL    HW224318   6.100   2.476   4.941
 7807SOL     OW24319   2.300   6.081   5.354
 7807SOL    HW124320   2.349   6.099   5.440
 7807SOL    HW224321   2.243   5.999   5.365
 7808SOL     OW24322   0.287   2.832   4.463
 7808SOL    HW124323   0.385   2.817   4.469
 7808SOL    HW224324   0.252   2.862   4.552
 7809SOL     OW24325   2.851   0.825   3.045
 7809SOL    HW124326   2.888   0.785   2.961
 7809SOL    HW224327   2.925   0.865   3.099
 7810SOL     OW24328   2.679   6.594   5.728
 7810SOL    HW124329   2.765   6.546   5.707
 7810SOL    HW224330   2.619   6.533   5.780
 7811SOL     OW24331   1.144   5.397   3.132
 7811SOL    HW124332   1.224   5.336   3.134
 7811SOL    HW224333   1.157   5.471   3.198
 7812SOL     OW24334   2.795   0.132   6.074
 7812SOL    HW124335   2.834   0.180   6.153
 7812SOL    HW224336   2.859   0.060   6.044
 7813SOL     OW24337   6.052   0.771   0.495
 7813SOL    HW124338   5.962   0.767   0.452
 7813SOL    HW224339   6.123   0.768   0.424
 7814SOL     OW24340   0.001   2.006   1.891
 7814SOL    HW124341   7.010   2.066   1.971
 7814SOL    HW224342   6.930   1.976   1.861
 7815SOL     OW24343   4.492   5.727   3.950
 7815SOL    HW124344   4.516   5.650   4.009
 7815SOL    HW224345   4.574   5.781   3.930
 7816SOL     OW24346   1.117   1.215   5.097
 7816SOL    HW124347   1.111   1.150   5.173
 7816SOL    HW224348   1.073   1.176   5.016
 7817SOL     OW24349   4.724   1.057   5.478
 7817SOL    HW124350   4.663   1.100   5.544
 7817SOL    HW224351   4.776   1.127   5.429
 7818SOL     OW24352   4.332   0.516   3.145
 7818SOL    HW124353   4.385   0.586   3.194
 7818SOL    HW224354   4.264   0.559   3.087
 7819SOL     OW24355   2.640   2.407   4.622
 7819SOL    HW124356   2.614   2.382   4.529
 7819SOL    HW224357   2.609   2.500   4.641
 7820SOL     OW24358   1.858   0.683   6.448
 7820SOL    HW124359   1.777   0.654   6.499
 7820SOL    HW224360   1.934   0.698   6.512
 7821SOL     OW24361   3.211   5.715   6.543
 7821SOL    HW124362   3.159   5.762   6.615
 7821SOL    HW224363   3.154   5.642   6.504
 7822SOL     OW24364   0.804   1.320   4.530
 7822SOL    HW124365   0.846   1.347   4.443
 7822SOL    HW224366   0.843   1.232   4.560
 7823SOL     OW24367   2.014   2.557   5.564
 7823SOL    HW124368   2.108   2.578   5.592
 7823SOL    HW224369   2.009   2.462   5.533
 7824SOL     OW24370   6.026   3.850   3.002
 7824SOL    HW124371   5.942   3.901   3.023
 7824SOL    HW224372   6.086   3.850   3.082
 7825SOL     OW24373   2.869   3.426   3.758
 7825SOL    HW124374   2.823   3.364   3.695
 7825SOL    HW224375   2.947   3.380   3.799
 7826SOL     OW24376   6.256   6.405   1.294
 7826SOL    HW124377   6.181   6.390   1.230
 7826SOL    HW224378   6.241   6.351   1.377
 7827SOL     OW24379   5.402   3.838   0.517
 7827SOL    HW124380   5.372   3.830   0.421
 7827SOL    HW224381   5.350   3.774   0.573
 7828SOL     OW24382   0.915   5.976   0.257
 7828SOL    HW124383   0.823   5.996   0.224
 7828SOL    HW224384   0.910   5.945   0.352
 7829SOL     OW24385   3.161   3.958   2.965
 7829SOL    HW124386   3.236   3.892   2.962
 7829SOL    HW224387   3.139   3.979   3.060
 7830SOL     OW24388   0.139   4.663   6.758
 7830SOL    HW124389   0.095   4.586   6.805
 7830SOL    HW224390   0.128   4.746   6.812
 7831SOL     OW24391   3.488   3.440   0.130
 7831SOL    HW124392   3.550   3.493   0.189
 7831SOL    HW224393   3.405   3.493   0.113
 7832SOL     OW24394   4.199   2.682   6.133
 7832SOL    HW124395   4.235   2.598   6.092
 7832SOL    HW224396   4.102   2.669   6.155
 7833SOL     OW24397   6.411   6.672   1.896
 7833SOL    HW124398   6.344   6.713   1.957
 7833SOL    HW224399   6.390   6.695   1.802
 7834SOL     OW24400   5.051   1.210   1.550
 7834SOL    HW124401   5.033   1.269   1.629
 7834SOL    HW224402   4.966   1.192   1.502
 7835SOL     OW24403   2.298   2.072   4.319
 7835SOL    HW124404   2.220   2.075   4.257
 7835SOL    HW224405   2.291   2.145   4.386
 7836SOL     OW24406   2.358   0.117   6.533
 7836SOL    HW124407   2.293   0.190   6.556
 7836SOL    HW224408   2.315   0.054   6.468
 7837SOL     OW24409   5.299   6.365   2.384
 7837SOL    HW124410   5.210   6.406   2.363
 7837SOL    HW224411   5.365   6.395   2.315
 7838SOL     OW24412   3.049   5.316   4.239
 7838SOL    HW124413   2.988   5.262   4.297
 7838SOL    HW224414   3.047   5.411   4.268
 7839SOL     OW24415   0.105   5.446   2.960
 7839SOL    HW124416   0.028   5.474   2.902
 7839SOL    HW224417   0.070   5.399   3.041
 7840SOL     OW24418   4.217   2.954   6.228
 7840SOL    HW124419   4.132   2.975   6.276
 7840SOL    HW224420   4.197   2.894   6.150
 7841SOL     OW24421   1.129   1.642   5.742
 7841SOL    HW124422   1.095   1.723   5.790
 7841SOL    HW224423   1.105   1.647   5.646
 7842SOL     OW24424   1.619   0.815   2.615
 7842SOL    HW124425   1.642   0.895   2.669
 7842SOL    HW224426   1.703   0.769   2.585
 7843SOL     OW24427   0.338   2.063   1.869
 7843SOL    HW124428   0.267   2.028   1.930
 7843SOL    HW224429   0.425   2.070   1.919
 7844SOL     OW24430   3.539   2.066   3.121
 7844SOL    HW124431   3.585   2.085   3.035
 7844SOL    HW224432   3.518   1.968   3.127
 7845SOL     OW24433   1.126   1.271   4.403
 7845SOL    HW124434   1.120   1.356   4.457
 7845SOL    HW224435   1.160   1.293   4.312
 7846SOL     OW24436   4.813   6.397   2.936
 7846SOL    HW124437   4.880   6.449   2.988
 7846SOL    HW224438   4.744   6.459   2.898
 7847SOL     OW24439   0.440   6.734   6.058
 7847SOL    HW124440   0.445   6.810   6.123
 7847SOL    HW224441   0.480   6.652   6.099
 7848SOL     OW24442   4.711   3.481   1.299
 7848SOL    HW124443   4.668   3.404   1.254
 7848SOL    HW224444   4.691   3.565   1.248
 7849SOL     OW24445   6.297   4.371   5.464
 7849SOL    HW124446   6.312   4.431   5.542
 7849SOL    HW224447   6.378   4.371   5.405
 7850SOL     OW24448   1.343   2.895   5.027
 7850SOL    HW124449   1.368   2.990   5.046
 7850SOL    HW224450   1.406   2.834   5.075
 7851SOL     OW24451   2.748   6.632   0.825
 7851SOL    HW124452   2.796   6.699   0.881
 7851SOL    HW224453   2.814   6.572   0.780
 7852SOL     OW24454   2.544   6.645   0.381
 7852SOL    HW124455   2.632   6.611   0.415
 7852SOL    HW224456   2.554   6.741   0.356
 7853SOL     OW24457   2.172   1.579   6.572
 7853SOL    HW124458   2.194   1.660   6.518
 7853SOL    HW224459   2.227   1.502   6.539
 7854SOL     OW24460   3.747   4.135   4.604
 7854SOL    HW124461   3.786   4.227   4.601
 7854SOL    HW224462   3.679   4.129   4.677
 7855SOL     OW24463   3.208   6.809   4.888
 7855SOL    HW124464   3.242   6.716   4.904
 7855SOL    HW224465   3.216   6.830   4.790
 7856SOL     OW24466   2.895   2.728   5.839
 7856SOL    HW124467   2.912   2.731   5.741
 7856SOL    HW224468   2.798   2.743   5.857
 7857SOL     OW24469   0.256   3.072   5.127
 7857SOL    HW124470   0.179   3.110   5.077
 7857SOL    HW224471   0.292   3.140   5.191
 7858SOL     OW24472   5.063   2.720   3.184
 7858SOL    HW124473   4.984   2.778   3.198
 7858SOL    HW224474   5.127   2.732   3.261
 7859SOL     OW24475   6.570   6.811   0.108
 7859SOL    HW124476   6.583   6.909   0.095
 7859SOL    HW224477   6.497   6.779   0.048
 7860SOL     OW24478   4.580   6.312   0.640
 7860SOL    HW124479   4.674   6.311   0.674
 7860SOL    HW224480   4.565   6.395   0.585
 7861SOL     OW24481   6.514   3.570   0.112
 7861SOL    HW124482   6.561   3.486   0.139
 7861SOL    HW224483   6.539   3.593   0.018
 7862SOL     OW24484   2.806   4.546   1.625
 7862SOL    HW124485   2.842   4.523   1.715
 7862SOL    HW224486   2.752   4.469   1.590
 7863SOL     OW24487   4.574   5.784   2.603
 7863SOL    HW124488   4.559   5.825   2.513
 7863SOL    HW224489   4.502   5.813   2.666
 7864SOL     OW24490   1.984   6.042   5.653
 7864SOL    HW124491   1.948   5.961   5.699
 7864SOL    HW224492   1.908   6.102   5.628
 7865SOL     OW24493   4.278   0.350   3.423
 7865SOL    HW124494   4.202   0.407   3.391
 7865SOL    HW224495   4.302   0.376   3.516
 7866SOL     OW24496   2.571   0.286   5.891
 7866SOL    HW124497   2.489   0.233   5.912
 7866SOL    HW224498   2.626   0.299   5.974
 7867SOL     OW24499   0.181   3.074   0.619
 7867SOL    HW124500   0.195   3.010   0.543
 7867SOL    HW224501   0.120   3.147   0.590
 7868SOL     OW24502   5.616   0.022   1.255
 7868SOL    HW124503   5.699   7.003   1.213
 7868SOL    HW224504   5.602   6.999   1.344
 7869SOL     OW24505   6.011   1.701   4.437
 7869SOL    HW124506   6.028   1.758   4.518
 7869SOL    HW224507   5.960   1.755   4.369
 7870SOL     OW24508   6.063   0.100   3.019
 7870SOL    HW124509   6.159   0.086   3.042
 7870SOL    HW224510   6.007   0.035   3.071
 7871SOL     OW24511   5.631   2.859   2.797
 7871SOL    HW124512   5.578   2.932   2.839
 7871SOL    HW224513   5.615   2.773   2.845
 7872SOL     OW24514   5.375   3.784   4.017
 7872SOL    HW124515   5.362   3.756   3.922
 7872SOL    HW224516   5.388   3.883   4.021
 7873SOL     OW24517   0.075   5.989   5.021
 7873SOL    HW124518   0.166   5.951   5.003
 7873SOL    HW224519   0.083   6.064   5.086
 7874SOL     OW24520   6.034   6.641   0.254
 7874SOL    HW124521   6.130   6.637   0.228
 7874SOL    HW224522   6.027   6.651   0.354
 7875SOL     OW24523   5.920   2.320   0.193
 7875SOL    HW124524   6.006   2.271   0.182
 7875SOL    HW224525   5.892   2.317   0.289
 7876SOL     OW24526   6.879   2.275   5.302
 7876SOL    HW124527   6.958   2.223   5.269
 7876SOL    HW224528   6.905   2.326   5.383
 7877SOL     OW24529   5.941   3.499   1.562
 7877SOL    HW124530   5.863   3.459   1.610
 7877SOL    HW224531   6.017   3.435   1.563
 7878SOL     OW24532   3.707   4.124   2.077
 7878SOL    HW124533   3.682   4.189   2.005
 7878SOL    HW224534   3.726   4.035   2.037
 7879SOL     OW24535   6.952   1.689   4.992
 7879SOL    HW124536   6.878   1.755   5.007
 7879SOL    HW224537   0.018   1.725   5.032
 7880SOL     OW24538   1.723   6.410   6.432
 7880SOL    HW124539   1.643   6.373   6.479
 7880SOL    HW224540   1.789   6.336   6.416
 7881SOL     OW24541   0.427   5.001   5.573
 7881SOL    HW124542   0.376   5.005   5.658
 7881SOL    HW224543   0.364   5.008   5.495
 7882SOL     OW24544   1.736   4.989   0.364
 7882SOL    HW124545   1.768   4.921   0.429
 7882SOL    HW224546   1.640   5.010   0.382
 7883SOL     OW24547   2.698   2.362   2.503
 7883SOL    HW124548   2.719   2.353   2.406
 7883SOL    HW224549   2.608   2.405   2.514
 7884SOL     OW24550   0.211   2.260   5.434
 7884SOL    HW124551   0.166   2.174   5.409
 7884SOL    HW224552   0.224   2.263   5.533
 7885SOL     OW24553   5.276   5.061   2.589
 7885SOL    HW124554   5.312   4.968   2.595
 7885SOL    HW224555   5.288   5.095   2.495
 7886SOL     OW24556   3.474   5.245   2.928
 7886SOL    HW124557   3.386   5.265   2.970
 7886SOL    HW224558   3.479   5.147   2.905
 7887SOL     OW24559   0.639   3.475   0.417
 7887SOL    HW124560   0.542   3.498   0.416
 7887SOL    HW224561   0.656   3.399   0.354
 7888SOL     OW24562   0.276   1.721   4.975
 7888SOL    HW124563   0.251   1.642   4.918
 7888SOL    HW224564   0.353   1.768   4.934
 7889SOL     OW24565   5.861   4.707   0.403
 7889SOL    HW124566   5.784   4.643   0.394
 7889SOL    HW224567   5.885   4.743   0.313
 7890SOL     OW24568   1.194   2.595   1.727
 7890SOL    HW124569   1.265   2.548   1.779
 7890SOL    HW224570   1.111   2.540   1.727
 7891SOL     OW24571   6.081   1.031   4.765
 7891SOL    HW124572   6.046   0.943   4.733
 7891SOL    HW224573   6.077   1.097   4.690
 7892SOL     OW24574   0.865   1.921   4.275
 7892SOL    HW124575   0.842   1.846   4.213
 7892SOL    HW224576   0.960   1.913   4.305
 7893SOL     OW24577   5.711   6.072   0.739
 7893SOL    HW124578   5.750   6.051   0.649
 7893SOL    HW224579   5.670   5.989   0.777
 7894SOL     OW24580   3.030   6.928   6.554
 7894SOL    HW124581   2.943   6.975   6.535
 7894SOL    HW224582   3.058   6.946   6.648
 7895SOL     OW24583   4.950   6.645   2.466
 7895SOL    HW124584   4.884   6.707   2.424
 7895SOL    HW224585   4.916   6.551   2.462
 7896SOL     OW24586   3.562   1.985   1.037
 7896SOL    HW124587   3.593   2.078   1.016
 7896SOL    HW224588   3.575   1.967   1.134
 7897SOL     OW24589   5.061   0.803   1.463
 7897SOL    HW124590   4.987   0.851   1.512
 7897SOL    HW224591   5.081   0.717   1.510
 7898SOL     OW24592   3.800   6.613   3.098
 7898SOL    HW124593   3.861   6.561   3.157
 7898SOL    HW224594   3.737   6.666   3.154
 7899SOL     OW24595   5.805   4.557   2.748
 7899SOL    HW124596   5.836   4.602   2.664
 7899SOL    HW224597   5.885   4.520   2.797
 7900SOL     OW24598   0.394   3.775   0.769
 7900SOL    HW124599   0.440   3.848   0.820
 7900SOL    HW224600   0.460   3.729   0.710
 7901SOL     OW24601   6.969   2.687   6.201
 7901SOL    HW124602   6.882   2.725   6.169
 7901SOL    HW224603   6.957   2.589   6.220
 7902SOL     OW24604   1.613   0.220   0.917
 7902SOL    HW124605   1.588   0.178   1.004
 7902SOL    HW224606   1.601   0.154   0.843
 7903SOL     OW24607   3.333   2.276   5.585
 7903SOL    HW124608   3.343   2.287   5.486
 7903SOL    HW224609   3.307   2.182   5.606
 7904SOL     OW24610   5.214   3.169   2.854
 7904SOL    HW124611   5.177   3.232   2.785
 7904SOL    HW224612   5.260   3.093   2.809
 7905SOL     OW24613   6.009   1.942   1.100
 7905SOL    HW124614   6.046   1.894   1.021
 7905SOL    HW224615   5.909   1.932   1.101
 7906SOL     OW24616   6.884   6.022   5.859
 7906SOL    HW124617   6.955   5.997   5.794
 7906SOL    HW224618   6.865   5.945   5.920
 7907SOL     OW24619   5.214   5.548   3.091
 7907SOL    HW124620   5.138   5.613   3.093
 7907SOL    HW224621   5.203   5.483   3.167
 7908SOL     OW24622   1.664   0.032   6.219
 7908SOL    HW124623   1.658   0.036   6.319
 7908SOL    HW224624   1.708   6.964   6.192
 7909SOL     OW24625   6.670   4.354   2.875
 7909SOL    HW124626   6.740   4.301   2.828
 7909SOL    HW224627   6.623   4.413   2.809
 7910SOL     OW24628   1.291   4.219   4.634
 7910SOL    HW124629   1.200   4.221   4.594
 7910SOL    HW224630   1.296   4.144   4.700
 7911SOL     OW24631   6.153   3.895   6.400
 7911SOL    HW124632   6.233   3.922   6.453
 7911SOL    HW224633   6.180   3.834   6.326
 7912SOL     OW24634   5.615   5.734   1.996
 7912SOL    HW124635   5.682   5.775   1.933
 7912SOL    HW224636   5.524   5.739   1.955
 7913SOL     OW24637   1.309   4.049   6.680
 7913SOL    HW124638   1.331   4.134   6.631
 7913SOL    HW224639   1.362   4.045   6.764
 7914SOL     OW24640   1.377   0.526   4.872
 7914SOL    HW124641   1.336   0.616   4.857
 7914SOL    HW224642   1.393   0.513   4.970
 7915SOL     OW24643   3.008   6.356   1.821
 7915SOL    HW124644   3.073   6.365   1.746
 7915SOL    HW224645   2.918   6.390   1.792
 7916SOL     OW24646   2.028   0.652   3.331
 7916SOL    HW124647   2.032   0.565   3.282
 7916SOL    HW224648   2.119   0.694   3.332
 7917SOL     OW24649   4.775   1.471   3.081
 7917SOL    HW124650   4.843   1.519   3.026
 7917SOL    HW224651   4.683   1.491   3.047
 7918SOL     OW24652   1.231   2.630   2.580
 7918SOL    HW124653   1.288   2.710   2.560
 7918SOL    HW224654   1.286   2.563   2.630
 7919SOL     OW24655   1.055   0.305   4.793
 7919SOL    HW124656   1.078   0.386   4.739
 7919SOL    HW224657   1.024   0.232   4.732
 7920SOL     OW24658   5.412   6.938   1.096
 7920SOL    HW124659   5.403   6.976   1.004
 7920SOL    HW224660   5.475   6.995   1.149
 7921SOL     OW24661   6.354   3.563   0.763
 7921SOL    HW124662   6.279   3.560   0.697
 7921SOL    HW224663   6.408   3.479   0.757
 7922SOL     OW24664   1.913   6.252   3.425
 7922SOL    HW124665   1.925   6.338   3.475
 7922SOL    HW224666   2.000   6.202   3.423
 7923SOL     OW24667   5.184   0.621   0.818
 7923SOL    HW124668   5.200   0.575   0.731
 7923SOL    HW224669   5.147   0.556   0.884
 7924SOL     OW24670   5.749   6.133   0.143
 7924SOL    HW124671   5.737   6.052   0.200
 7924SOL    HW224672   5.699   6.210   0.183
 7925SOL     OW24673   2.319   4.543   6.231
 7925SOL    HW124674   2.266   4.587   6.158
 7925SOL    HW224675   2.366   4.613   6.285
 7926SOL     OW24676   4.562   5.500   0.159
 7926SOL    HW124677   4.521   5.568   0.099
 7926SOL    HW224678   4.605   5.428   0.104
 7927SOL     OW24679   4.983   6.824   3.668
 7927SOL    HW124680   4.941   6.819   3.759
 7927SOL    HW224681   5.026   6.736   3.647
 7928SOL     OW24682   5.984   2.417   4.203
 7928SOL    HW124683   5.933   2.372   4.276
 7928SOL    HW224684   6.035   2.494   4.241
 7929SOL     OW24685   4.518   3.981   5.680
 7929SOL    HW124686   4.465   4.066   5.669
 7929SOL    HW224687   4.480   3.910   5.621
 7930SOL     OW24688   3.914   5.590   1.108
 7930SOL    HW124689   3.889   5.685   1.091
 7930SOL    HW224690   3.893   5.535   1.027
 7931SOL     OW24691   5.319   0.752   0.250
 7931SOL    HW124692   5.309   0.774   0.347
 7931SOL    HW224693   5.289   0.658   0.234
 7932SOL     OW24694   0.984   3.938   0.740
 7932SOL    HW124695   0.999   3.843   0.768
 7932SOL    HW224696   0.993   3.946   0.640
 7933SOL     OW24697   1.864   1.022   6.697
 7933SOL    HW124698   1.910   0.970   6.769
 7933SOL    HW224699   1.873   1.120   6.715
 7934SOL     OW24700   6.450   5.409   0.595
 7934SOL    HW124701   6.432   5.368   0.505
 7934SOL    HW224702   6.462   5.337   0.663
 7935SOL     OW24703   6.160   3.697   3.599
 7935SOL    HW124704   6.148   3.598   3.608
 7935SOL    HW224705   6.257   3.718   3.587
 7936SOL     OW24706   2.516   5.930   3.354
 7936SOL    HW124707   2.465   5.962   3.434
 7936SOL    HW224708   2.457   5.930   3.274
 7937SOL     OW24709   3.909   1.113   1.283
 7937SOL    HW124710   3.840   1.170   1.240
 7937SOL    HW224711   3.892   1.016   1.261
 7938SOL     OW24712   1.926   6.976   3.284
 7938SOL    HW124713   1.890   6.888   3.251
 7938SOL    HW224714   1.875   7.004   3.366
 7939SOL     OW24715   1.700   0.070   3.483
 7939SOL    HW124716   1.724   7.018   3.549
 7939SOL    HW224717   1.660   0.149   3.530
 7940SOL     OW24718   6.740   1.492   5.370
 7940SOL    HW124719   6.678   1.435   5.316
 7940SOL    HW224720   6.829   1.497   5.325
 7941SOL     OW24721   2.769   0.249   1.032
 7941SOL    HW124722   2.803   0.174   0.975
 7941SOL    HW224723   2.678   0.276   1.002
 7942SOL     OW24724   1.528   3.606   1.535
 7942SOL    HW124725   1.525   3.552   1.619
 7942SOL    HW224726   1.623   3.626   1.511
 7943SOL     OW24727   1.861   5.592   6.810
 7943SOL    HW124728   1.924   5.515   6.806
 7943SOL    HW224729   1.777   5.568   6.761
 7944SOL     OW24730   1.479   2.096   0.454
 7944SOL    HW124731   1.457   2.071   0.549
 7944SOL    HW224732   1.398   2.081   0.397
 7945SOL     OW24733   6.240   4.653   4.064
 7945SOL    HW124734   6.156   4.600   4.068
 7945SOL    HW224735   6.222   4.742   4.024
 7946SOL     OW24736   5.053   1.535   5.637
 7946SOL    HW124737   5.068   1.588   5.720
 7946SOL    HW224738   5.140   1.498   5.605
 7947SOL     OW24739   0.837   4.077   0.025
 7947SOL    HW124740   0.773   4.000   0.030
 7947SOL    HW224741   0.852   4.113   0.118
 7948SOL     OW24742   1.243   5.742   1.106
 7948SOL    HW124743   1.260   5.840   1.096
 7948SOL    HW224744   1.221   5.721   1.202
 7949SOL     OW24745   3.808   5.612   4.750
 7949SOL    HW124746   3.857   5.592   4.665
 7949SOL    HW224747   3.748   5.691   4.737
 7950SOL     OW24748   6.681   2.368   6.016
 7950SOL    HW124749   6.626   2.334   5.940
 7950SOL    HW224750   6.723   2.291   6.064
 7951SOL     OW24751   3.135   0.472   3.003
 7951SOL    HW124752   3.101   0.434   2.917
 7951SOL    HW224753   3.183   0.557   2.986
 7952SOL     OW24754   0.205   3.371   5.664
 7952SOL    HW124755   0.277   3.304   5.648
 7952SOL    HW224756   0.233   3.460   5.629
 7953SOL     OW24757   0.717   0.857   0.312
 7953SOL    HW124758   0.772   0.927   0.266
 7953SOL    HW224759   0.644   0.826   0.251
 7954SOL     OW24760   3.605   2.597   1.130
 7954SOL    HW124761   3.591   2.684   1.178
 7954SOL    HW224762   3.517   2.552   1.116
 7955SOL     OW24763   6.474   0.368   6.362
 7955SOL    HW124764   6.445   0.305   6.434
 7955SOL    HW224765   6.446   0.331   6.273
 7956SOL     OW24766   0.185   6.940   1.121
 7956SOL    HW124767   0.240   6.941   1.204
 7956SOL    HW224768   0.088   6.944   1.145
 7957SOL     OW24769   6.103   1.784   6.265
 7957SOL    HW124770   6.196   1.769   6.230
 7957SOL    HW224771   6.039   1.727   6.214
 7958SOL     OW24772   4.924   2.707   6.666
 7958SOL    HW124773   5.001   2.731   6.608
 7958SOL    HW224774   4.865   2.641   6.618
 7959SOL     OW24775   5.461   2.810   6.901
 7959SOL    HW124776   5.399   2.835   6.827
 7959SOL    HW224777   5.446   2.870   6.979
 7960SOL     OW24778   0.897   2.360   5.148
 7960SOL    HW124779   0.885   2.454   5.178
 7960SOL    HW224780   0.830   2.339   5.077
 7961SOL     OW24781   5.899   0.117   6.268
 7961SOL    HW124782   5.933   0.076   6.183
 7961SOL    HW224783   5.973   0.169   6.310
 7962SOL     OW24784   5.588   0.284   4.888
 7962SOL    HW124785   5.522   0.266   4.961
 7962SOL    HW224786   5.571   0.222   4.811
 7963SOL     OW24787   5.740   5.878   2.432
 7963SOL    HW124788   5.794   5.949   2.387
 7963SOL    HW224789   5.748   5.887   2.531
 7964SOL     OW24790   0.831   4.414   1.745
 7964SOL    HW124791   0.872   4.499   1.779
 7964SOL    HW224792   0.775   4.433   1.665
 7965SOL     OW24793   4.494   1.700   6.360
 7965SOL    HW124794   4.431   1.638   6.313
 7965SOL    HW224795   4.587   1.663   6.356
 7966SOL     OW24796   5.532   3.693   5.472
 7966SOL    HW124797   5.611   3.660   5.523
 7966SOL    HW224798   5.485   3.764   5.525
 7967SOL     OW24799   2.152   4.091   1.381
 7967SOL    HW124800   2.160   3.996   1.352
 7967SOL    HW224801   2.077   4.100   1.447
 7968SOL     OW24802   1.863   2.344   3.341
 7968SOL    HW124803   1.836   2.426   3.393
 7968SOL    HW224804   1.961   2.348   3.323
 7969SOL     OW24805   2.754   4.169   6.403
 7969SOL    HW124806   2.735   4.176   6.305
 7969SOL    HW224807   2.682   4.217   6.454
 7970SOL     OW24808   6.513   2.822   2.833
 7970SOL    HW124809   6.511   2.920   2.814
 7970SOL    HW224810   6.598   2.783   2.800
 7971SOL     OW24811   2.544   0.271   6.834
 7971SOL    HW124812   2.474   0.342   6.837
 7971SOL    HW224813   2.565   0.249   6.739
 7972SOL     OW24814   3.785   2.955   4.108
 7972SOL    HW124815   3.768   2.876   4.167
 7972SOL    HW224816   3.710   3.020   4.119
 7973SOL     OW24817   0.895   5.628   2.251
 7973SOL    HW124818   0.982   5.626   2.203
 7973SOL    HW224819   0.880   5.540   2.297
 7974SOL     OW24820   6.987   2.975   4.011
 7974SOL    HW124821   6.925   2.905   3.976
 7974SOL    HW224822   0.049   2.931   4.051
 7975SOL     OW24823   4.083   0.548   6.487
 7975SOL    HW124824   4.064   0.646   6.480
 7975SOL    HW224825   4.074   0.519   6.582
 7976SOL     OW24826   0.245   0.334   0.877
 7976SOL    HW124827   0.344   0.350   0.879
 7976SOL    HW224828   0.209   0.359   0.788
 7977SOL     OW24829   5.251   4.766   2.912
 7977SOL    HW124830   5.283   4.710   2.836
 7977SOL    HW224831   5.327   4.786   2.974
 7978SOL     OW24832   0.166   3.834   1.532
 7978SOL    HW124833   0.263   3.811   1.538
 7978SOL    HW224834   0.115   3.755   1.498
 7979SOL     OW24835   3.611   2.705   5.680
 7979SOL    HW124836   3.696   2.709   5.627
 7979SOL    HW224837   3.534   2.731   5.621
 7980SOL     OW24838   4.023   5.849   2.769
 7980SOL    HW124839   4.120   5.872   2.758
 7980SOL    HW224840   4.009   5.752   2.750
 7981SOL     OW24841   0.566   3.107   3.772
 7981SOL    HW124842   0.661   3.135   3.758
 7981SOL    HW224843   0.514   3.121   3.688
 7982SOL     OW24844   6.750   6.677   0.591
 7982SOL    HW124845   6.701   6.686   0.504
 7982SOL    HW224846   6.841   6.639   0.575
 7983SOL     OW24847   3.594   1.534   1.137
 7983SOL    HW124848   3.537   1.576   1.067
 7983SOL    HW224849   3.564   1.565   1.227
 7984SOL     OW24850   6.432   2.021   2.222
 7984SOL    HW124851   6.524   2.054   2.243
 7984SOL    HW224852   6.412   1.940   2.278
 7985SOL     OW24853   3.044   3.708   5.916
 7985SOL    HW124854   3.035   3.609   5.930
 7985SOL    HW224855   2.984   3.756   5.980
 7986SOL     OW24856   2.041   0.989   3.760
 7986SOL    HW124857   2.031   0.979   3.661
 7986SOL    HW224858   1.951   0.980   3.803
 7987SOL     OW24859   1.251   2.858   6.683
 7987SOL    HW124860   1.304   2.777   6.661
 7987SOL    HW224861   1.190   2.839   6.759
 7988SOL     OW24862   6.150   0.050   1.680
 7988SOL    HW124863   6.085   0.033   1.755
 7988SOL    HW224864   6.218   6.996   1.678
 7989SOL     OW24865   0.591   4.715   1.701
 7989SOL    HW124866   0.492   4.717   1.710
 7989SOL    HW224867   0.633   4.729   1.791
 7990SOL     OW24868   4.220   5.135   5.626
 7990SOL    HW124869   4.283   5.103   5.696
 7990SOL    HW224870   4.262   5.208   5.573
 7991SOL     OW24871   5.355   0.962   4.235
 7991SOL    HW124872   5.260   0.954   4.266
 7991SOL    HW224873   5.362   1.037   4.168
 7992SOL     OW24874   2.911   0.960   0.300
 7992SOL    HW124875   2.942   0.925   0.389
 7992SOL    HW224876   2.936   0.894   0.228
 7993SOL     OW24877   6.460   4.990   0.893
 7993SOL    HW124878   6.397   5.068   0.893
 7993SOL    HW224879   6.420   4.915   0.946
 7994SOL     OW24880   0.641   1.641   5.132
 7994SOL    HW124881   0.598   1.672   5.047
 7994SOL    HW224882   0.737   1.618   5.115
 7995SOL     OW24883   0.334   5.911   0.567
 7995SOL    HW124884   0.431   5.894   0.549
 7995SOL    HW224885   0.315   5.893   0.664
 7996SOL     OW24886   1.577   6.185   3.877
 7996SOL    HW124887   1.493   6.185   3.931
 7996SOL    HW224888   1.641   6.119   3.915
 7997SOL     OW24889   2.558   0.580   6.166
 7997SOL    HW124890   2.529   0.527   6.246
 7997SOL    HW224891   2.501   0.555   6.088
 7998SOL     OW24892   1.874   2.025   1.463
 7998SOL    HW124893   1.866   2.074   1.550
 7998SOL    HW224894   1.783   1.999   1.431
 7999SOL     OW24895   0.191   0.687   2.295
 7999SOL    HW124896   0.221   0.707   2.388
 7999SOL    HW224897   0.202   0.769   2.238
 8000SOL     OW24898   4.622   6.056   0.885
 8000SOL    HW124899   4.635   6.037   0.788
 8000SOL    HW224900   4.525   6.049   0.908
 8001SOL     OW24901   4.878   4.811   2.388
 8001SOL    HW124902   4.786   4.840   2.363
 8001SOL    HW224903   4.916   4.875   2.455
 8002SOL     OW24904   1.330   0.672   5.133
 8002SOL    HW124905   1.405   0.678   5.199
 8002SOL    HW224906   1.298   0.764   5.111
 8003SOL     OW24907   2.261   5.317   2.891
 8003SOL    HW124908   2.338   5.342   2.831
 8003SOL    HW224909   2.220   5.400   2.928
 8004SOL     OW24910   2.084   3.807   3.777
 8004SOL    HW124911   2.077   3.717   3.734
 8004SOL    HW224912   2.101   3.876   3.707
 8005SOL     OW24913   2.921   0.228   4.597
 8005SOL    HW124914   2.983   0.205   4.672
 8005SOL    HW224915   2.892   0.324   4.606
 8006SOL     OW24916   4.380   5.283   6.288
 8006SOL    HW124917   4.307   5.341   6.252
 8006SOL    HW224918   4.343   5.226   6.362
 8007SOL     OW24919   7.001   0.444   1.219
 8007SOL    HW124920   6.925   0.386   1.191
 8007SOL    HW224921   0.058   0.387   1.251
 8008SOL     OW24922   5.530   5.554   1.426
 8008SOL    HW124923   5.431   5.545   1.416
 8008SOL    HW224924   5.557   5.528   1.519
 8009SOL     OW24925   6.115   0.263   1.007
 8009SOL    HW124926   6.208   0.249   1.041
 8009SOL    HW224927   6.069   0.332   1.063
 8010SOL     OW24928   2.980   0.341   0.398
 8010SOL    HW124929   3.062   0.284   0.402
 8010SOL    HW224930   2.917   0.303   0.330
 8011SOL     OW24931   3.743   1.843   1.632
 8011SOL    HW124932   3.839   1.847   1.603
 8011SOL    HW224933   3.727   1.908   1.706
 8012SOL     OW24934   5.972   0.816   5.266
 8012SOL    HW124935   5.990   0.747   5.196
 8012SOL    HW224936   5.878   0.848   5.258
 8013SOL     OW24937   3.419   0.309   3.728
 8013SOL    HW124938   3.454   0.349   3.643
 8013SOL    HW224939   3.467   0.223   3.746
 8014SOL     OW24940   2.200   2.544   3.636
 8014SOL    HW124941   2.295   2.513   3.637
 8014SOL    HW224942   2.195   2.634   3.594
 8015SOL     OW24943   3.844   5.694   5.019
 8015SOL    HW124944   3.905   5.628   5.062
 8015SOL    HW224945   3.829   5.668   4.924
 8016SOL     OW24946   3.106   3.513   5.449
 8016SOL    HW124947   3.104   3.576   5.372
 8016SOL    HW224948   3.092   3.419   5.415
 8017SOL     OW24949   5.141   6.233   1.771
 8017SOL    HW124950   5.221   6.267   1.722
 8017SOL    HW224951   5.080   6.185   1.706
 8018SOL     OW24952   3.317   2.885   1.103
 8018SOL    HW124953   3.283   2.805   1.152
 8018SOL    HW224954   3.307   2.871   1.004
 8019SOL     OW24955   2.975   3.372   0.911
 8019SOL    HW124956   2.971   3.414   1.001
 8019SOL    HW224957   3.069   3.344   0.892
 8020SOL     OW24958   0.919   0.109   0.253
 8020SOL    HW124959   0.866   0.096   0.169
 8020SOL    HW224960   0.955   0.021   0.284
 8021SOL     OW24961   1.500   2.393   0.512
 8021SOL    HW124962   1.504   2.405   0.611
 8021SOL    HW224963   1.531   2.301   0.488
 8022SOL     OW24964   3.838   0.263   2.541
 8022SOL    HW124965   3.803   0.170   2.539
 8022SOL    HW224966   3.932   0.263   2.506
 8023SOL     OW24967   3.536   4.958   2.477
 8023SOL    HW124968   3.605   5.031   2.479
 8023SOL    HW224969   3.536   4.914   2.387
 8024SOL     OW24970   2.989   0.609   6.790
 8024SOL    HW124971   2.970   0.700   6.754
 8024SOL    HW224972   2.905   0.568   6.824
 8025SOL     OW24973   0.991   6.773   1.664
 8025SOL    HW124974   0.964   6.744   1.572
 8025SOL    HW224975   1.061   6.712   1.699
 8026SOL     OW24976   0.452   6.501   5.156
 8026SOL    HW124977   0.492   6.589   5.130
 8026SOL    HW224978   0.480   6.477   5.249
 8027SOL     OW24979   3.944   6.813   6.463
 8027SOL    HW124980   3.944   6.846   6.369
 8027SOL    HW224981   3.930   6.890   6.525
 8028SOL     OW24982   3.480   5.695   6.615
 8028SOL    HW124983   3.389   5.689   6.574
 8028SOL    HW224984   3.474   5.671   6.712
 8029SOL     OW24985   1.712   6.726   1.469
 8029SOL    HW124986   1.734   6.657   1.400
 8029SOL    HW224987   1.760   6.704   1.555
 8030SOL     OW24988   0.528   3.675   1.026
 8030SOL    HW124989   0.531   3.767   0.988
 8030SOL    HW224990   0.538   3.679   1.125
 8031SOL     OW24991   0.558   1.111   3.665
 8031SOL    HW124992   0.534   1.062   3.748
 8031SOL    HW224993   0.655   1.094   3.644
 8032SOL     OW24994   0.540   3.337   1.841
 8032SOL    HW124995   0.619   3.320   1.899
 8032SOL    HW224996   0.457   3.300   1.884
 8033SOL     OW24997   4.182   5.333   0.489
 8033SOL    HW124998   4.091   5.360   0.521
 8033SOL    HW224999   4.189   5.349   0.391
 8034SOL     OW25000   0.568   1.573   4.867
 8034SOL    HW125001   0.513   1.490   4.863
 8034SOL    HW225002   0.664   1.552   4.850
 8035SOL     OW25003   5.371   0.321   4.482
 8035SOL    HW125004   5.431   0.388   4.527
 8035SOL    HW225005   5.332   0.362   4.399
 8036SOL     OW25006   5.342   4.842   5.430
 8036SOL    HW125007   5.299   4.921   5.386
 8036SOL    HW225008   5.441   4.843   5.411
 8037SOL     OW25009   3.537   0.980   6.735
 8037SOL    HW125010   3.538   0.888   6.696
 8037SOL    HW225011   3.535   0.974   6.835
 8038SOL     OW25012   5.381   5.812   1.828
 8038SOL    HW125013   5.326   5.732   1.848
 8038SOL    HW225014   5.402   5.815   1.730
 8039SOL     OW25015   1.486   2.640   4.879
 8039SOL    HW125016   1.530   2.551   4.888
 8039SOL    HW225017   1.546   2.702   4.827
 8040SOL     OW25018   0.804   6.844   5.463
 8040SOL    HW125019   0.760   6.844   5.553
 8040SOL    HW225020   0.804   6.937   5.426
 8041SOL     OW25021   3.035   1.701   2.903
 8041SOL    HW125022   3.049   1.772   2.834
 8041SOL    HW225023   2.958   1.643   2.875
 8042SOL     OW25024   4.826   4.250   6.200
 8042SOL    HW125025   4.838   4.179   6.270
 8042SOL    HW225026   4.772   4.214   6.125
 8043SOL     OW25027   5.646   5.353   6.967
 8043SOL    HW125028   5.733   5.304   6.973
 8043SOL    HW225029   5.591   5.313   6.893
 8044SOL     OW25030   0.872   3.096   1.174
 8044SOL    HW125031   0.820   3.049   1.102
 8044SOL    HW225032   0.879   3.037   1.254
 8045SOL     OW25033   5.785   3.219   5.211
 8045SOL    HW125034   5.880   3.248   5.213
 8045SOL    HW225035   5.750   3.224   5.117
 8046SOL     OW25036   0.151   4.118   1.478
 8046SOL    HW125037   0.174   4.021   1.481
 8046SOL    HW225038   0.180   4.162   1.563
 8047SOL     OW25039   2.772   6.367   6.920
 8047SOL    HW125040   2.738   6.344   7.011
 8047SOL    HW225041   2.697   6.367   6.855
 8048SOL     OW25042   4.754   1.667   7.014
 8048SOL    HW125043   4.779   1.671   6.918
 8048SOL    HW225044   4.688   1.594   0.010
 8049SOL     OW25045   2.784   1.580   0.962
 8049SOL    HW125046   2.751   1.519   0.890
 8049SOL    HW225047   2.858   1.637   0.926
 8050SOL     OW25048   6.955   4.770   5.964
 8050SOL    HW125049   6.998   4.750   6.052
 8050SOL    HW225050   6.856   4.764   5.974
 8051SOL     OW25051   3.937   6.967   3.495
 8051SOL    HW125052   3.948   6.999   3.401
 8051SOL    HW225053   3.999   6.890   3.511
 8052SOL     OW25054   2.031   1.720   3.026
 8052SOL    HW125055   2.031   1.818   3.044
 8052SOL    HW225056   1.953   1.677   3.070
 8053SOL     OW25057   2.062   1.113   6.333
 8053SOL    HW125058   2.131   1.043   6.352
 8053SOL    HW225059   2.000   1.081   6.262
 8054SOL     OW25060   4.888   3.870   4.999
 8054SOL    HW125061   4.817   3.926   5.040
 8054SOL    HW225062   4.864   3.773   5.009
 8055SOL     OW25063   7.007   1.081   6.462
 8055SOL    HW125064   6.970   1.004   6.411
 8055SOL    HW225065   0.007   1.053   6.556
 8056SOL     OW25066   1.803   2.713   2.548
 8056SOL    HW125067   1.893   2.744   2.577
 8056SOL    HW225068   1.791   2.617   2.574
 8057SOL     OW25069   2.877   1.729   1.718
 8057SOL    HW125070   2.875   1.707   1.620
 8057SOL    HW225071   2.891   1.827   1.729
 8058SOL     OW25072   3.282   6.092   1.874
 8058SOL    HW125073   3.381   6.108   1.870
 8058SOL    HW225074   3.243   6.100   1.783
 8059SOL     OW25075   4.564   4.314   5.207
 8059SOL    HW125076   4.567   4.249   5.282
 8059SOL    HW225077   4.482   4.299   5.152
 8060SOL     OW25078   0.328   1.100   4.987
 8060SOL    HW125079   0.368   1.158   4.917
 8060SOL    HW225080   0.376   1.114   5.074
 8061SOL     OW25081   6.626   0.766   0.823
 8061SOL    HW125082   6.717   0.794   0.854
 8061SOL    HW225083   6.619   0.781   0.724
 8062SOL     OW25084   4.877   4.643   6.612
 8062SOL    HW125085   4.795   4.602   6.571
 8062SOL    HW225086   4.855   4.735   6.646
 8063SOL     OW25087   2.422   4.579   2.053
 8063SOL    HW125088   2.458   4.530   1.974
 8063SOL    HW225089   2.493   4.640   2.089
 8064SOL     OW25090   6.961   2.427   0.421
 8064SOL    HW125091   6.924   2.364   0.489
 8064SOL    HW225092   0.007   2.379   0.362
 8065SOL     OW25093   4.909   0.182   6.666
 8065SOL    HW125094   4.811   0.172   6.683
 8065SOL    HW225095   4.957   0.196   6.753
 8066SOL     OW25096   6.414   0.817   5.444
 8066SOL    HW125097   6.486   0.863   5.392
 8066SOL    HW225098   6.325   0.856   5.419
 8067SOL     OW25099   5.620   0.597   4.450
 8067SOL    HW125100   5.552   0.624   4.382
 8067SOL    HW225101   5.573   0.568   4.534
 8068SOL     OW25102   0.257   3.992   1.048
 8068SOL    HW125103   0.213   3.912   1.089
 8068SOL    HW225104   0.334   3.963   0.992
 8069SOL     OW25105   0.706   2.983   1.979
 8069SOL    HW125106   0.721   2.944   2.070
 8069SOL    HW225107   0.783   2.958   1.919
 8070SOL     OW25108   5.263   3.855   1.675
 8070SOL    HW125109   5.218   3.935   1.638
 8070SOL    HW225110   5.194   3.788   1.704
 8071SOL     OW25111   1.692   0.284   6.137
 8071SOL    HW125112   1.699   0.196   6.185
 8071SOL    HW225113   1.598   0.298   6.106
 8072SOL     OW25114   2.849   1.608   5.396
 8072SOL    HW125115   2.838   1.694   5.346
 8072SOL    HW225116   2.945   1.581   5.395
 8073SOL     OW25117   5.603   6.315   0.303
 8073SOL    HW125118   5.676   6.382   0.304
 8073SOL    HW225119   5.514   6.362   0.302
 8074SOL     OW25120   6.435   0.328   0.708
 8074SOL    HW125121   6.356   0.382   0.736
 8074SOL    HW225122   6.519   0.368   0.745
 8075SOL     OW25123   0.136   6.598   1.141
 8075SOL    HW125124   0.185   6.683   1.121
 8075SOL    HW225125   0.068   6.615   1.213
 8076SOL     OW25126   6.735   5.987   0.770
 8076SOL    HW125127   6.699   5.894   0.774
 8076SOL    HW225128   6.737   6.019   0.675
 8077SOL     OW25129   6.387   4.406   1.068
 8077SOL    HW125130   6.430   4.320   1.037
 8077SOL    HW225131   6.307   4.425   1.011
 8078SOL     OW25132   5.562   1.746   1.693
 8078SOL    HW125133   5.518   1.753   1.782
 8078SOL    HW225134   5.553   1.832   1.644
 8079SOL     OW25135   0.144   0.787   6.410
 8079SOL    HW125136   0.133   0.772   6.508
 8079SOL    HW225137   0.055   0.783   6.366
 8080SOL     OW25138   6.741   3.528   3.472
 8080SOL    HW125139   6.734   3.589   3.394
 8080SOL    HW225140   6.752   3.433   3.440
 8081SOL     OW25141   5.690   0.918   5.207
 8081SOL    HW125142   5.666   0.985   5.137
 8081SOL    HW225143   5.610   0.900   5.265
 8082SOL     OW25144   4.720   2.293   4.477
 8082SOL    HW125145   4.745   2.281   4.573
 8082SOL    HW225146   4.795   2.260   4.419
 8083SOL     OW25147   6.811   2.782   3.904
 8083SOL    HW125148   6.810   2.685   3.929
 8083SOL    HW225149   6.767   2.793   3.814
 8084SOL     OW25150   5.575   1.413   0.144
 8084SOL    HW125151   5.560   1.322   0.106
 8084SOL    HW225152   5.487   1.456   0.166
 8085SOL     OW25153   1.577   5.978   4.225
 8085SOL    HW125154   1.650   6.010   4.166
 8085SOL    HW225155   1.500   5.946   4.169
 8086SOL     OW25156   0.363   1.940   2.323
 8086SOL    HW125157   0.306   1.882   2.264
 8086SOL    HW225158   0.342   1.920   2.419
 8087SOL     OW25159   6.118   0.935   6.451
 8087SOL    HW125160   6.060   0.856   6.470
 8087SOL    HW225161   6.167   0.920   6.366
 8088SOL     OW25162   6.132   0.028   5.697
 8088SOL    HW125163   6.120   0.013   5.599
 8088SOL    HW225164   6.204   6.986   5.732
 8089SOL     OW25165   6.974   0.440   0.397
 8089SOL    HW125166   6.918   0.464   0.317
 8089SOL    HW225167   0.036   0.390   0.366
 8090SOL     OW25168   4.130   2.268   4.577
 8090SOL    HW125169   4.150   2.244   4.482
 8090SOL    HW225170   4.031   2.264   4.592
 8091SOL     OW25171   1.260   3.362   5.539
 8091SOL    HW125172   1.211   3.281   5.571
 8091SOL    HW225173   1.201   3.442   5.545
 8092SOL     OW25174   4.514   6.878   5.507
 8092SOL    HW125175   4.441   6.820   5.544
 8092SOL    HW225176   4.542   6.842   5.418
 8093SOL     OW25177   3.782   0.354   3.040
 8093SOL    HW125178   3.793   0.444   3.084
 8093SOL    HW225179   3.686   0.339   3.018
 8094SOL     OW25180   2.438   5.195   3.115
 8094SOL    HW125181   2.527   5.236   3.093
 8094SOL    HW225182   2.365   5.256   3.084
 8095SOL     OW25183   1.082   5.316   5.032
 8095SOL    HW125184   1.005   5.366   5.070
 8095SOL    HW225185   1.143   5.287   5.105
 8096SOL     OW25186   0.758   4.829   0.484
 8096SOL    HW125187   0.676   4.797   0.530
 8096SOL    HW225188   0.806   4.895   0.541
 8097SOL     OW25189   4.646   0.844   0.114
 8097SOL    HW125190   4.560   0.881   0.078
 8097SOL    HW225191   4.644   0.845   0.214
 8098SOL     OW25192   2.767   6.471   5.264
 8098SOL    HW125193   2.854   6.421   5.255
 8098SOL    HW225194   2.723   6.446   5.350
 8099SOL     OW25195   2.095   4.231   3.234
 8099SOL    HW125196   2.035   4.256   3.158
 8099SOL    HW225197   2.189   4.223   3.201
 8100SOL     OW25198   0.047   6.299   0.290
 8100SOL    HW125199   7.015   6.239   0.352
 8100SOL    HW225200   0.091   6.372   0.343
 8101SOL     OW25201   3.232   4.721   6.343
 8101SOL    HW125202   3.184   4.692   6.427
 8101SOL    HW225203   3.203   4.813   6.319
 8102SOL     OW25204   1.382   4.465   3.763
 8102SOL    HW125205   1.429   4.382   3.732
 8102SOL    HW225206   1.341   4.512   3.685
 8103SOL     OW25207   5.054   0.476   1.780
 8103SOL    HW125208   5.149   0.504   1.792
 8103SOL    HW225209   5.040   0.387   1.824
 8104SOL     OW25210   1.184   6.705   0.185
 8104SOL    HW125211   1.269   6.731   0.140
 8104SOL    HW225212   1.110   6.764   0.153
 8105SOL     OW25213   6.774   0.021   2.362
 8105SOL    HW125214   6.705   0.056   2.426
 8105SOL    HW225215   6.735   6.966   2.307
 8106SOL     OW25216   3.810   6.142   0.008
 8106SOL    HW125217   3.896   6.133   6.976
 8106SOL    HW225218   3.753   6.212   6.983
 8107SOL     OW25219   0.610   6.318   0.247
 8107SOL    HW125220   0.609   6.274   0.338
 8107SOL    HW225221   0.517   6.321   0.211
 8108SOL     OW25222   1.730   1.025   1.355
 8108SOL    HW125223   1.785   1.090   1.407
 8108SOL    HW225224   1.774   1.010   1.266
 8109SOL     OW25225   0.381   4.438   1.981
 8109SOL    HW125226   0.401   4.511   2.047
 8109SOL    HW225227   0.346   4.358   2.030
 8110SOL     OW25228   4.750   4.556   6.920
 8110SOL    HW125229   4.736   4.588   7.014
 8110SOL    HW225230   4.715   4.462   6.912
 8111SOL     OW25231   5.301   2.190   2.321
 8111SOL    HW125232   5.289   2.256   2.247
 8111SOL    HW225233   5.278   2.234   2.408
 8112SOL     OW25234   2.000   4.768   6.360
 8112SOL    HW125235   1.926   4.749   6.296
 8112SOL    HW225236   2.020   4.866   6.361
 8113SOL     OW25237   5.529   5.303   6.723
 8113SOL    HW125238   5.576   5.378   6.676
 8113SOL    HW225239   5.532   5.221   6.665
 8114SOL     OW25240   2.169   3.022   3.176
 8114SOL    HW125241   2.164   3.008   3.274
 8114SOL    HW225242   2.251   2.978   3.140
 8115SOL     OW25243   2.685   1.512   6.174
 8115SOL    HW125244   2.676   1.413   6.181
 8115SOL    HW225245   2.618   1.547   6.109
 8116SOL     OW25246   4.049   3.235   1.949
 8116SOL    HW125247   4.049   3.176   2.030
 8116SOL    HW225248   4.106   3.194   1.878
 8117SOL     OW25249   1.066   0.864   3.329
 8117SOL    HW125250   0.967   0.866   3.325
 8117SOL    HW225251   1.103   0.818   3.248
 8118SOL     OW25252   6.386   2.236   6.935
 8118SOL    HW125253   6.353   2.302   6.867
 8118SOL    HW225254   6.387   2.145   6.895
 8119SOL     OW25255   5.553   5.073   6.587
 8119SOL    HW125256   5.631   5.014   6.609
 8119SOL    HW225257   5.500   5.033   6.512
 8120SOL     OW25258   1.897   6.743   2.509
 8120SOL    HW125259   1.967   6.680   2.540
 8120SOL    HW225260   1.935   6.804   2.440
 8121SOL     OW25261   1.416   2.504   3.141
 8121SOL    HW125262   1.450   2.596   3.121
 8121SOL    HW225263   1.335   2.486   3.086
 8122SOL     OW25264   0.371   5.275   1.024
 8122SOL    HW125265   0.279   5.238   1.035
 8122SOL    HW225266   0.367   5.374   1.014
 8123SOL     OW25267   6.502   0.607   5.986
 8123SOL    HW125268   6.414   0.621   5.940
 8123SOL    HW225269   6.572   0.663   5.942
 8124SOL     OW25270   6.343   6.084   6.292
 8124SOL    HW125271   6.262   6.132   6.260
 8124SOL    HW225272   6.364   6.008   6.230
 8125SOL     OW25273   0.766   5.944   1.806
 8125SOL    HW125274   0.749   6.027   1.754
 8125SOL    HW225275   0.822   5.966   1.887
 8126SOL     OW25276   3.275   5.845   4.680
 8126SOL    HW125277   3.369   5.865   4.656
 8126SOL    HW225278   3.218   5.843   4.598
 8127SOL     OW25279   4.393   1.937   5.621
 8127SOL    HW125280   4.454   1.991   5.562
 8127SOL    HW225281   4.382   1.984   5.709
 8128SOL     OW25282   3.895   2.733   1.064
 8128SOL    HW125283   3.847   2.674   1.128
 8128SOL    HW225284   3.961   2.679   1.012
 8129SOL     OW25285   6.338   2.740   3.019
 8129SOL    HW125286   6.380   2.758   2.930
 8129SOL    HW225287   6.314   2.827   3.063
 8130SOL     OW25288   0.243   6.052   6.820
 8130SOL    HW125289   0.325   6.109   6.816
 8130SOL    HW225290   0.174   6.097   6.876
 8131SOL     OW25291   2.851   2.537   0.564
 8131SOL    HW125292   2.947   2.559   0.578
 8131SOL    HW225293   2.836   2.440   0.583
 8132SOL     OW25294   6.021   1.572   4.808
 8132SOL    HW125295   5.940   1.631   4.817
 8132SOL    HW225296   6.043   1.562   4.711
 8133SOL     OW25297   4.189   5.397   1.418
 8133SOL    HW125298   4.120   5.324   1.420
 8133SOL    HW225299   4.186   5.448   1.504
 8134SOL     OW25300   6.639   1.676   6.820
 8134SOL    HW125301   6.668   1.581   6.811
 8134SOL    HW225302   6.719   1.735   6.830
 8135SOL     OW25303   2.581   5.946   1.908
 8135SOL    HW125304   2.662   5.898   1.876
 8135SOL    HW225305   2.547   5.903   1.992
 8136SOL     OW25306   4.261   4.860   2.508
 8136SOL    HW125307   4.341   4.801   2.499
 8136SOL    HW225308   4.262   4.928   2.434
 8137SOL     OW25309   3.682   1.246   5.822
 8137SOL    HW125310   3.673   1.326   5.881
 8137SOL    HW225311   3.592   1.222   5.785
 8138SOL     OW25312   6.326   0.672   2.777
 8138SOL    HW125313   6.228   0.691   2.765
 8138SOL    HW225314   6.341   0.573   2.773
 8139SOL     OW25315   0.833   1.528   4.724
 8139SOL    HW125316   0.824   1.436   4.686
 8139SOL    HW225317   0.843   1.594   4.649
 8140SOL     OW25318   4.586   2.631   2.922
 8140SOL    HW125319   4.666   2.686   2.944
 8140SOL    HW225320   4.606   2.574   2.843
 8141SOL     OW25321   6.213   3.962   3.938
 8141SOL    HW125322   6.127   3.984   3.892
 8141SOL    HW225323   6.213   3.866   3.965
 8142SOL     OW25324   0.374   6.084   0.353
 8142SOL    HW125325   0.335   6.098   0.262
 8142SOL    HW225326   0.330   6.005   0.396
 8143SOL     OW25327   6.823   2.460   6.286
 8143SOL    HW125328   6.796   2.388   6.350
 8143SOL    HW225329   6.758   2.536   6.290
 8144SOL     OW25330   4.697   6.125   0.397
 8144SOL    HW125331   4.662   6.218   0.386
 8144SOL    HW225332   4.795   6.124   0.382
 8145SOL     OW25333   4.342   6.704   4.359
 8145SOL    HW125334   4.405   6.738   4.429
 8145SOL    HW225335   4.388   6.635   4.303
 8146SOL     OW25336   3.315   1.727   2.933
 8146SOL    HW125337   3.331   1.759   2.839
 8146SOL    HW225338   3.220   1.698   2.943
 8147SOL     OW25339   4.927   1.641   3.682
 8147SOL    HW125340   4.867   1.721   3.686
 8147SOL    HW225341   5.005   1.662   3.622
 8148SOL     OW25342   0.741   3.376   3.244
 8148SOL    HW125343   0.728   3.432   3.162
 8148SOL    HW225344   0.837   3.378   3.271
 8149SOL     OW25345   3.859   5.267   4.281
 8149SOL    HW125346   3.804   5.188   4.255
 8149SOL    HW225347   3.945   5.265   4.230
 8150SOL     OW25348   1.311   5.696   0.450
 8150SOL    HW125349   1.271   5.768   0.394
 8150SOL    HW225350   1.381   5.735   0.510
 8151SOL     OW25351   0.958   1.860   5.018
 8151SOL    HW125352   0.922   1.869   4.925
 8151SOL    HW225353   1.041   1.916   5.027
 8152SOL     OW25354   0.479   1.171   3.162
 8152SOL    HW125355   0.387   1.145   3.191
 8152SOL    HW225356   0.522   1.093   3.117
 8153SOL     OW25357   2.163   6.259   6.917
 8153SOL    HW125358   2.154   6.296   6.824
 8153SOL    HW225359   2.209   6.326   6.975
 8154SOL     OW25360   1.913   6.481   3.586
 8154SOL    HW125361   1.844   6.451   3.651
 8154SOL    HW225362   1.896   6.576   3.560
 8155SOL     OW25363   3.829   3.854   4.581
 8155SOL    HW125364   3.802   3.949   4.593
 8155SOL    HW225365   3.747   3.796   4.579
 8156SOL     OW25366   0.845   6.448   5.173
 8156SOL    HW125367   0.829   6.545   5.192
 8156SOL    HW225368   0.941   6.435   5.147
 8157SOL     OW25369   5.621   2.330   6.898
 8157SOL    HW125370   5.605   2.398   6.970
 8157SOL    HW225371   5.638   2.377   6.811
 8158SOL     OW25372   1.005   5.736   2.892
 8158SOL    HW125373   1.086   5.780   2.854
 8158SOL    HW225374   1.002   5.749   2.991
 8159SOL     OW25375   0.167   6.484   0.452
 8159SOL    HW125376   0.181   6.452   0.545
 8159SOL    HW225377   0.256   6.496   0.407
 8160SOL     OW25378   5.663   2.263   1.196
 8160SOL    HW125379   5.660   2.341   1.134
 8160SOL    HW225380   5.573   2.250   1.238
 8161SOL     OW25381   4.139   3.753   1.526
 8161SOL    HW125382   4.174   3.659   1.523
 8161SOL    HW225383   4.136   3.790   1.433
 8162SOL     OW25384   6.006   0.728   1.324
 8162SOL    HW125385   6.055   0.812   1.343
 8162SOL    HW225386   5.925   0.747   1.270
 8163SOL     OW25387   2.477   2.918   5.436
 8163SOL    HW125388   2.439   2.990   5.494
 8163SOL    HW225389   2.504   2.957   5.348
 8164SOL     OW25390   5.517   4.240   1.693
 8164SOL    HW125391   5.519   4.240   1.593
 8164SOL    HW225392   5.602   4.279   1.729
 8165SOL     OW25393   1.482   3.246   1.865
 8165SOL    HW125394   1.557   3.248   1.799
 8165SOL    HW225395   1.511   3.194   1.946
 8166SOL     OW25396   2.665   6.934   2.775
 8166SOL    HW125397   2.744   6.899   2.724
 8166SOL    HW225398   2.590   6.951   2.711
 8167SOL     OW25399   5.421   2.980   4.344
 8167SOL    HW125400   5.340   2.938   4.384
 8167SOL    HW225401   5.459   3.049   4.406
 8168SOL     OW25402   2.809   1.934   2.243
 8168SOL    HW125403   2.797   1.852   2.298
 8168SOL    HW225404   2.720   1.968   2.213
 8169SOL     OW25405   5.358   4.064   5.823
 8169SOL    HW125406   5.367   4.032   5.918
 8169SOL    HW225407   5.349   4.163   5.822
 8170SOL     OW25408   0.448   5.280   4.112
 8170SOL    HW125409   0.359   5.314   4.143
 8170SOL    HW225410   0.495   5.352   4.060
 8171SOL     OW25411   1.994   0.528   6.817
 8171SOL    HW125412   2.015   0.611   6.767
 8171SOL    HW225413   1.919   0.479   6.771
 8172SOL     OW25414   6.819   5.858   2.129
 8172SOL    HW125415   6.881   5.829   2.202
 8172SOL    HW225416   6.729   5.879   2.169
 8173SOL     OW25417   6.683   2.940   6.561
 8173SOL    HW125418   6.678   3.037   6.581
 8173SOL    HW225419   6.764   2.900   6.604
 8174SOL     OW25420   4.669   6.666   2.877
 8174SOL    HW125421   4.716   6.709   2.800
 8174SOL    HW225422   4.644   6.736   2.944
 8175SOL     OW25423   1.085   2.374   3.276
 8175SOL    HW125424   1.022   2.410   3.207
 8175SOL    HW225425   1.150   2.446   3.302
 8176SOL     OW25426   4.330   4.999   3.172
 8176SOL    HW125427   4.281   4.921   3.210
 8176SOL    HW225428   4.265   5.073   3.152
 8177SOL     OW25429   2.473   6.821   6.163
 8177SOL    HW125430   2.474   6.830   6.063
 8177SOL    HW225431   2.434   6.903   6.203
 8178SOL     OW25432   1.714   5.957   6.764
 8178SOL    HW125433   1.698   6.055   6.775
 8178SOL    HW225434   1.775   5.925   6.836
 8179SOL     OW25435   4.226   0.218   6.045
 8179SOL    HW125436   4.300   0.155   6.069
 8179SOL    HW225437   4.142   0.191   6.093
 8180SOL     OW25438   4.762   4.082   4.749
 8180SOL    HW125439   4.841   4.038   4.790
 8180SOL    HW225440   4.695   4.105   4.820
 8181SOL     OW25441   2.315   1.773   2.753
 8181SOL    HW125442   2.309   1.729   2.663
 8181SOL    HW225443   2.411   1.788   2.776
 8182SOL     OW25444   5.784   2.868   5.516
 8182SOL    HW125445   5.745   2.899   5.429
 8182SOL    HW225446   5.711   2.853   5.582
 8183SOL     OW25447   2.134   3.916   3.507
 8183SOL    HW125448   2.169   3.839   3.453
 8183SOL    HW225449   2.066   3.966   3.453
 8184SOL     OW25450   6.320   6.407   5.107
 8184SOL    HW125451   6.356   6.338   5.171
 8184SOL    HW225452   6.365   6.396   5.019
 8185SOL     OW25453   0.688   2.661   3.502
 8185SOL    HW125454   0.589   2.663   3.510
 8185SOL    HW225455   0.715   2.678   3.408
 8186SOL     OW25456   4.286   3.318   6.646
 8186SOL    HW125457   4.294   3.353   6.553
 8186SOL    HW225458   4.287   3.394   6.711
 8187SOL     OW25459   2.241   1.795   5.953
 8187SOL    HW125460   2.276   1.726   5.891
 8187SOL    HW225461   2.201   1.751   6.034
 8188SOL     OW25462   4.845   3.791   2.779
 8188SOL    HW125463   4.881   3.699   2.795
 8188SOL    HW225464   4.840   3.808   2.681
 8189SOL     OW25465   6.590   5.297   3.424
 8189SOL    HW125466   6.645   5.378   3.443
 8189SOL    HW225467   6.494   5.317   3.444
 8190SOL     OW25468   5.292   3.433   2.918
 8190SOL    HW125469   5.229   3.509   2.931
 8190SOL    HW225470   5.240   3.348   2.904
 8191SOL     OW25471   6.178   4.471   0.893
 8191SOL    HW125472   6.209   4.506   0.804
 8191SOL    HW225473   6.126   4.387   0.880
 8192SOL     OW25474   1.956   1.415   0.717
 8192SOL    HW125475   2.006   1.328   0.719
 8192SOL    HW225476   1.995   1.478   0.784
 8193SOL     OW25477   3.768   6.209   6.145
 8193SOL    HW125478   3.680   6.162   6.153
 8193SOL    HW225479   3.790   6.224   6.049
 8194SOL     OW25480   1.200   0.711   2.370
 8194SOL    HW125481   1.231   0.616   2.369
 8194SOL    HW225482   1.274   0.770   2.403
 8195SOL     OW25483   6.213   0.934   1.314
 8195SOL    HW125484   6.311   0.941   1.334
 8195SOL    HW225485   6.161   0.968   1.392
 8196SOL     OW25486   2.668   0.943   1.058
 8196SOL    HW125487   2.629   0.903   1.141
 8196SOL    HW225488   2.637   1.038   1.049
 8197SOL     OW25489   0.457   6.688   0.803
 8197SOL    HW125490   0.387   6.752   0.837
 8197SOL    HW225491   0.459   6.607   0.862
 8198SOL     OW25492   2.364   0.856   3.141
 8198SOL    HW125493   2.274   0.825   3.111
 8198SOL    HW225494   2.370   0.848   3.241
 8199SOL     OW25495   5.930   4.639   0.909
 8199SOL    HW125496   6.013   4.585   0.893
 8199SOL    HW225497   5.885   4.656   0.822
 8200SOL     OW25498   4.008   4.703   1.260
 8200SOL    HW125499   3.938   4.754   1.310
 8200SOL    HW225500   4.095   4.751   1.265
 8201SOL     OW25501   0.700   1.276   4.868
 8201SOL    HW125502   0.790   1.238   4.843
 8201SOL    HW225503   0.629   1.229   4.816
 8202SOL     OW25504   1.323   3.785   4.011
 8202SOL    HW125505   1.408   3.796   4.061
 8202SOL    HW225506   1.265   3.865   4.026
 8203SOL     OW25507   6.670   4.121   6.546
 8203SOL    HW125508   6.647   4.216   6.525
 8203SOL    HW225509   6.759   4.099   6.506
 8204SOL     OW25510   3.248   6.917   1.649
 8204SOL    HW125511   3.278   7.005   1.611
 8204SOL    HW225512   3.329   6.864   1.677
 8205SOL     OW25513   3.532   6.869   2.881
 8205SOL    HW125514   3.470   6.868   2.803
 8205SOL    HW225515   3.480   6.882   2.965
 8206SOL     OW25516   3.673   2.029   4.148
 8206SOL    HW125517   3.753   1.971   4.136
 8206SOL    HW225518   3.621   2.032   4.062
 8207SOL     OW25519   2.302   6.521   0.009
 8207SOL    HW125520   2.242   6.545   6.952
 8207SOL    HW225521   2.332   6.604   0.055
 8208SOL     OW25522   1.030   5.761   0.780
 8208SOL    HW125523   1.054   5.697   0.707
 8208SOL    HW225524   1.114   5.793   0.825
 8209SOL     OW25525   1.056   6.066   4.063
 8209SOL    HW125526   0.971   6.094   4.018
 8209SOL    HW225527   1.056   5.966   4.073
 8210SOL     OW25528   2.490   0.615   1.353
 8210SOL    HW125529   2.495   0.516   1.340
 8210SOL    HW225530   2.479   0.635   1.451
 8211SOL     OW25531   3.198   4.032   4.362
 8211SOL    HW125532   3.235   4.074   4.279
 8211SOL    HW225533   3.215   4.093   4.439
 8212SOL     OW25534   3.515   5.239   6.878
 8212SOL    HW125535   3.470   5.306   6.937
 8212SOL    HW225536   3.591   5.197   6.928
 8213SOL     OW25537   4.773   4.212   2.101
 8213SOL    HW125538   4.691   4.233   2.049
 8213SOL    HW225539   4.812   4.296   2.138
 8214SOL     OW25540   3.708   5.102   3.608
 8214SOL    HW125541   3.694   5.201   3.607
 8214SOL    HW225542   3.802   5.081   3.581
 8215SOL     OW25543   2.733   6.365   4.937
 8215SOL    HW125544   2.787   6.375   5.021
 8215SOL    HW225545   2.638   6.389   4.956
 8216SOL     OW25546   6.336   4.951   0.095
 8216SOL    HW125547   6.282   4.942   0.011
 8216SOL    HW225548   6.433   4.940   0.073
 8217SOL     OW25549   3.704   6.697   3.700
 8217SOL    HW125550   3.618   6.651   3.723
 8217SOL    HW225551   3.738   6.745   3.781
 8218SOL     OW25552   2.488   6.111   3.917
 8218SOL    HW125553   2.430   6.182   3.878
 8218SOL    HW225554   2.457   6.021   3.886
 8219SOL     OW25555   3.375   3.965   4.718
 8219SOL    HW125556   3.401   4.029   4.645
 8219SOL    HW225557   3.276   3.951   4.714
 8220SOL     OW25558   4.625   4.154   6.026
 8220SOL    HW125559   4.526   4.151   6.015
 8220SOL    HW225560   4.661   4.060   6.032
 8221SOL     OW25561   6.248   3.694   4.020
 8221SOL    HW125562   6.166   3.646   4.053
 8221SOL    HW225563   6.295   3.736   4.098
 8222SOL     OW25564   5.385   2.024   5.986
 8222SOL    HW125565   5.410   1.941   6.034
 8222SOL    HW225566   5.395   2.010   5.887
 8223SOL     OW25567   1.050   6.486   5.445
 8223SOL    HW125568   1.064   6.397   5.489
 8223SOL    HW225569   1.036   6.472   5.347
 8224SOL     OW25570   5.087   1.394   4.944
 8224SOL    HW125571   5.091   1.479   4.998
 8224SOL    HW225572   5.179   1.356   4.936
 8225SOL     OW25573   6.140   1.924   0.109
 8225SOL    HW125574   6.137   1.925   0.009
 8225SOL    HW225575   6.047   1.913   0.144
 8226SOL     OW25576   3.779   0.675   6.639
 8226SOL    HW125577   3.680   0.670   6.629
 8226SOL    HW225578   3.804   0.664   6.735
 8227SOL     OW25579   5.816   3.633   2.395
 8227SOL    HW125580   5.726   3.632   2.353
 8227SOL    HW225581   5.880   3.682   2.336
 8228SOL     OW25582   2.589   1.815   4.687
 8228SOL    HW125583   2.613   1.751   4.614
 8228SOL    HW225584   2.653   1.892   4.688
 8229SOL     OW25585   4.583   3.941   0.828
 8229SOL    HW125586   4.515   3.989   0.774
 8229SOL    HW225587   4.551   3.848   0.848
 8230SOL     OW25588   5.964   1.201   6.470
 8230SOL    HW125589   5.997   1.113   6.436
 8230SOL    HW225590   5.911   1.247   6.399
 8231SOL     OW25591   3.136   1.680   1.579
 8231SOL    HW125592   3.202   1.622   1.533
 8231SOL    HW225593   3.045   1.663   1.542
 8232SOL     OW25594   3.773   6.511   4.194
 8232SOL    HW125595   3.827   6.517   4.110
 8232SOL    HW225596   3.697   6.448   4.179
 8233SOL     OW25597   3.412   0.587   6.911
 8233SOL    HW125598   3.370   0.627   6.992
 8233SOL    HW225599   3.496   0.539   6.937
 8234SOL     OW25600   0.231   2.663   6.273
 8234SOL    HW125601   0.239   2.697   6.367
 8234SOL    HW225602   0.135   2.641   6.254
 8235SOL     OW25603   1.148   6.468   6.848
 8235SOL    HW125604   1.087   6.542   6.877
 8235SOL    HW225605   1.207   6.442   6.924
 8236SOL     OW25606   0.883   0.520   0.265
 8236SOL    HW125607   0.888   0.446   0.332
 8236SOL    HW225608   0.899   0.482   0.173
 8237SOL     OW25609   4.600   4.578   6.040
 8237SOL    HW125610   4.615   4.651   5.973
 8237SOL    HW225611   4.504   4.576   6.067
 8238SOL     OW25612   6.909   5.421   6.662
 8238SOL    HW125613   6.844   5.351   6.635
 8238SOL    HW225614   6.983   5.380   6.715
 8239SOL     OW25615   4.838   3.020   3.680
 8239SOL    HW125616   4.783   2.945   3.641
 8239SOL    HW225617   4.888   3.066   3.607
 8240SOL     OW25618   3.732   3.631   4.993
 8240SOL    HW125619   3.723   3.683   5.079
 8240SOL    HW225620   3.674   3.672   4.923
 8241SOL     OW25621   0.460   2.860   5.463
 8241SOL    HW125622   0.388   2.907   5.514
 8241SOL    HW225623   0.548   2.903   5.485
 8242SOL     OW25624   0.727   3.802   3.589
 8242SOL    HW125625   0.633   3.837   3.585
 8242SOL    HW225626   0.732   3.716   3.538
 8243SOL     OW25627   2.122   5.722   3.876
 8243SOL    HW125628   2.083   5.795   3.932
 8243SOL    HW225629   2.167   5.761   3.797
 8244SOL     OW25630   5.506   6.830   4.790
 8244SOL    HW125631   5.454   6.910   4.759
 8244SOL    HW225632   5.481   6.751   4.734
 8245SOL     OW25633   5.673   3.951   2.282
 8245SOL    HW125634   5.724   3.922   2.201
 8245SOL    HW225635   5.583   3.907   2.282
 8246SOL     OW25636   2.215   4.559   0.014
 8246SOL    HW125637   2.193   4.599   6.943
 8246SOL    HW225638   2.221   4.460   0.005
 8247SOL     OW25639   2.198   4.568   3.384
 8247SOL    HW125640   2.183   4.477   3.346
 8247SOL    HW225641   2.112   4.619   3.384
 8248SOL     OW25642   6.416   0.297   2.595
 8248SOL    HW125643   6.465   0.215   2.565
 8248SOL    HW225644   6.455   0.328   2.682
 8249SOL     OW25645   3.642   6.601   5.429
 8249SOL    HW125646   3.618   6.698   5.427
 8249SOL    HW225647   3.681   6.575   5.341
 8250SOL     OW25648   1.916   1.296   6.786
 8250SOL    HW125649   1.911   1.315   6.688
 8250SOL    HW225650   1.831   1.325   6.830
 8251SOL     OW25651   1.833   1.492   6.359
 8251SOL    HW125652   1.743   1.450   6.349
 8251SOL    HW225653   1.889   1.435   6.419
 8252SOL     OW25654   0.793   1.054   6.439
 8252SOL    HW125655   0.873   1.077   6.382
 8252SOL    HW225656   0.757   1.138   6.479
 8253SOL     OW25657   6.867   3.537   4.764
 8253SOL    HW125658   6.926   3.563   4.840
 8253SOL    HW225659   6.790   3.601   4.758
 8254SOL     OW25660   5.193   4.314   6.968
 8254SOL    HW125661   5.150   4.399   6.936
 8254SOL    HW225662   5.152   4.236   6.921
 8255SOL     OW25663   1.835   6.294   5.832
 8255SOL    HW125664   1.808   6.269   5.739
 8255SOL    HW225665   1.823   6.215   5.892
 8256SOL     OW25666   1.548   5.828   2.666
 8256SOL    HW125667   1.497   5.878   2.736
 8256SOL    HW225668   1.628   5.784   2.708
 8257SOL     OW25669   4.673   4.684   3.925
 8257SOL    HW125670   4.637   4.592   3.910
 8257SOL    HW225671   4.610   4.751   3.887
 8258SOL     OW25672   0.577   2.752   4.441
 8258SOL    HW125673   0.546   2.763   4.347
 8258SOL    HW225674   0.666   2.797   4.452
 8259SOL     OW25675   5.433   3.834   4.282
 8259SOL    HW125676   5.389   3.922   4.303
 8259SOL    HW225677   5.395   3.798   4.197
 8260SOL     OW25678   4.776   2.522   6.510
 8260SOL    HW125679   4.713   2.454   6.548
 8260SOL    HW225680   4.843   2.476   6.452
 8261SOL     OW25681   5.088   2.214   2.665
 8261SOL    HW125682   5.025   2.228   2.742
 8261SOL    HW225683   5.084   2.292   2.603
 8262SOL     OW25684   5.367   4.252   2.255
 8262SOL    HW125685   5.371   4.207   2.165
 8262SOL    HW225686   5.459   4.257   2.293
 8263SOL     OW25687   6.836   1.158   0.013
 8263SOL    HW125688   6.896   1.105   0.073
 8263SOL    HW225689   6.885   1.181   6.948
 8264SOL     OW25690   3.453   1.495   1.745
 8264SOL    HW125691   3.531   1.455   1.697
 8264SOL    HW225692   3.369   1.476   1.692
 8265SOL     OW25693   5.518   5.376   0.199
 8265SOL    HW125694   5.549   5.349   0.108
 8265SOL    HW225695   5.427   5.338   0.216
 8266SOL     OW25696   4.422   2.338   2.966
 8266SOL    HW125697   4.429   2.388   3.053
 8266SOL    HW225698   4.463   2.392   2.893
 8267SOL     OW25699   2.146   3.581   2.692
 8267SOL    HW125700   2.078   3.585   2.618
 8267SOL    HW225701   2.144   3.490   2.734
 8268SOL     OW25702   2.403   5.154   1.368
 8268SOL    HW125703   2.414   5.241   1.416
 8268SOL    HW225704   2.415   5.168   1.270
 8269SOL     OW25705   6.375   2.084   3.352
 8269SOL    HW125706   6.320   2.035   3.285
 8269SOL    HW225707   6.384   2.180   3.325
 8270SOL     OW25708   4.245   5.384   0.236
 8270SOL    HW125709   4.255   5.315   0.164
 8270SOL    HW225710   4.329   5.389   0.290
 8271SOL     OW25711   2.348   0.123   5.897
 8271SOL    HW125712   2.305   0.178   5.969
 8271SOL    HW225713   2.294   0.129   5.813
 8272SOL     OW25714   0.446   0.838   1.571
 8272SOL    HW125715   0.401   0.748   1.568
 8272SOL    HW225716   0.400   0.895   1.639
 8273SOL     OW25717   5.496   0.401   6.273
 8273SOL    HW125718   5.571   0.343   6.243
 8273SOL    HW225719   5.412   0.375   6.225
 8274SOL     OW25720   5.340   6.790   3.879
 8274SOL    HW125721   5.273   6.808   3.951
 8274SOL    HW225722   5.339   6.865   3.813
 8275SOL     OW25723   4.666   0.737   4.181
 8275SOL    HW125724   4.618   0.810   4.132
 8275SOL    HW225725   4.720   0.683   4.117
 8276SOL     OW25726   5.053   2.570   0.525
 8276SOL    HW125727   5.085   2.655   0.566
 8276SOL    HW225728   5.101   2.555   0.438
 8277SOL     OW25729   1.128   0.050   1.644
 8277SOL    HW125730   1.050   7.009   1.659
 8277SOL    HW225731   1.168   0.077   1.731
 8278SOL     OW25732   1.637   1.110   1.647
 8278SOL    HW125733   1.599   1.201   1.662
 8278SOL    HW225734   1.562   1.044   1.637
 8279SOL     OW25735   5.964   4.504   6.034
 8279SOL    HW125736   5.878   4.467   6.069
 8279SOL    HW225737   5.950   4.599   6.006
 8280SOL     OW25738   0.237   4.800   0.620
 8280SOL    HW125739   0.300   4.723   0.610
 8280SOL    HW225740   0.145   4.765   0.640
 8281SOL     OW25741   2.478   4.451   0.271
 8281SOL    HW125742   2.509   4.461   0.366
 8281SOL    HW225743   2.549   4.405   0.217
 8282SOL     OW25744   4.613   2.651   0.773
 8282SOL    HW125745   4.711   2.663   0.753
 8282SOL    HW225746   4.559   2.688   0.698
 8283SOL     OW25747   0.964   2.120   3.115
 8283SOL    HW125748   0.969   2.171   3.029
 8283SOL    HW225749   1.056   2.102   3.149
 8284SOL     OW25750   4.641   2.859   0.960
 8284SOL    HW125751   4.649   2.766   0.924
 8284SOL    HW225752   4.719   2.878   1.020
 8285SOL     OW25753   0.414   4.728   0.314
 8285SOL    HW125754   0.463   4.693   0.234
 8285SOL    HW225755   0.436   4.672   0.394
 8286SOL     OW25756   6.906   1.805   0.449
 8286SOL    HW125757   6.879   1.730   0.509
 8286SOL    HW225758   6.840   1.814   0.374
 8287SOL     OW25759   0.884   2.193   2.650
 8287SOL    HW125760   0.887   2.287   2.616
 8287SOL    HW225761   0.797   2.176   2.695
 8288SOL     OW25762   2.106   6.606   2.642
 8288SOL    HW125763   2.200   6.631   2.663
 8288SOL    HW225764   2.098   6.506   2.643
 8289SOL     OW25765   5.869   6.681   0.508
 8289SOL    HW125766   5.852   6.780   0.508
 8289SOL    HW225767   5.895   6.652   0.600
 8290SOL     OW25768   4.647   2.867   1.652
 8290SOL    HW125769   4.705   2.804   1.704
 8290SOL    HW225770   4.633   2.950   1.705
 8291SOL     OW25771   6.303   5.294   5.321
 8291SOL    HW125772   6.299   5.258   5.228
 8291SOL    HW225773   6.259   5.229   5.383
 8292SOL     OW25774   0.163   4.172   5.714
 8292SOL    HW125775   0.196   4.079   5.729
 8292SOL    HW225776   0.099   4.173   5.637
 8293SOL     OW25777   2.701   5.276   4.298
 8293SOL    HW125778   2.768   5.318   4.358
 8293SOL    HW225779   2.727   5.181   4.280
 8294SOL     OW25780   6.309   3.328   5.780
 8294SOL    HW125781   6.278   3.290   5.693
 8294SOL    HW225782   6.316   3.255   5.848
 8295SOL     OW25783   4.255   4.857   1.287
 8295SOL    HW125784   4.311   4.933   1.321
 8295SOL    HW225785   4.302   4.812   1.212
 8296SOL     OW25786   3.173   0.418   2.129
 8296SOL    HW125787   3.226   0.407   2.045
 8296SOL    HW225788   3.100   0.485   2.113
 8297SOL     OW25789   5.890   4.562   1.910
 8297SOL    HW125790   5.959   4.525   1.847
 8297SOL    HW225791   5.896   4.661   1.912
 8298SOL     OW25792   0.079   6.007   0.635
 8298SOL    HW125793   0.041   5.953   0.710
 8298SOL    HW225794   0.167   5.968   0.607
 8299SOL     OW25795   0.949   1.413   6.992
 8299SOL    HW125796   0.952   1.386   0.070
 8299SOL    HW225797   1.004   1.495   6.979
 8300SOL     OW25798   4.208   6.498   4.951
 8300SOL    HW125799   4.131   6.560   4.937
 8300SOL    HW225800   4.272   6.538   5.017
 8301SOL     OW25801   5.991   4.579   6.881
 8301SOL    HW125802   6.000   4.669   6.840
 8301SOL    HW225803   5.910   4.533   6.844
 8302SOL     OW25804   3.432   6.338   6.237
 8302SOL    HW125805   3.515   6.393   6.242
 8302SOL    HW225806   3.368   6.368   6.307
 8303SOL     OW25807   0.027   4.354   4.420
 8303SOL    HW125808   0.092   4.279   4.412
 8303SOL    HW225809   0.053   4.428   4.357
 8304SOL     OW25810   5.920   2.776   3.886
 8304SOL    HW125811   5.982   2.741   3.956
 8304SOL    HW225812   5.924   2.876   3.886
 8305SOL     OW25813   4.045   6.132   5.888
 8305SOL    HW125814   3.971   6.199   5.879
 8305SOL    HW225815   4.008   6.047   5.925
 8306SOL     OW25816   4.931   0.942   3.434
 8306SOL    HW125817   4.984   0.983   3.508
 8306SOL    HW225818   4.851   0.999   3.413
 8307SOL     OW25819   0.536   4.779   4.631
 8307SOL    HW125820   0.591   4.813   4.708
 8307SOL    HW225821   0.535   4.679   4.633
 8308SOL     OW25822   1.914   5.172   0.577
 8308SOL    HW125823   1.851   5.113   0.626
 8308SOL    HW225824   1.931   5.134   0.486
 8309SOL     OW25825   5.396   5.543   2.282
 8309SOL    HW125826   5.494   5.559   2.270
 8309SOL    HW225827   5.351   5.540   2.192
 8310SOL     OW25828   2.196   5.623   2.829
 8310SOL    HW125829   2.205   5.721   2.848
 8310SOL    HW225830   2.099   5.601   2.816
 8311SOL     OW25831   4.815   6.823   2.691
 8311SOL    HW125832   4.727   6.858   2.660
 8311SOL    HW225833   4.888   6.886   2.664
 8312SOL     OW25834   6.572   6.555   0.766
 8312SOL    HW125835   6.546   6.460   0.749
 8312SOL    HW225836   6.641   6.584   0.699
 8313SOL     OW25837   4.802   2.064   5.785
 8313SOL    HW125838   4.855   1.979   5.784
 8313SOL    HW225839   4.817   2.113   5.699
 8314SOL     OW25840   5.583   5.980   5.548
 8314SOL    HW125841   5.524   5.990   5.468
 8314SOL    HW225842   5.546   5.910   5.609
 8315SOL     OW25843   3.554   1.554   6.759
 8315SOL    HW125844   3.530   1.486   6.689
 8315SOL    HW225845   3.476   1.569   6.819
 8316SOL     OW25846   1.267   1.358   4.754
 8316SOL    HW125847   1.207   1.365   4.674
 8316SOL    HW225848   1.361   1.382   4.727
 8317SOL     OW25849   2.552   1.672   6.383
 8317SOL    HW125850   2.530   1.660   6.286
 8317SOL    HW225851   2.625   1.609   6.409
 8318SOL     OW25852   4.609   6.292   5.318
 8318SOL    HW125853   4.666   6.213   5.340
 8318SOL    HW225854   4.620   6.362   5.389
 8319SOL     OW25855   2.994   6.065   6.395
 8319SOL    HW125856   3.036   6.082   6.484
 8319SOL    HW225857   2.898   6.041   6.408
 8320SOL     OW25858   4.331   5.391   5.205
 8320SOL    HW125859   4.279   5.471   5.237
 8320SOL    HW225860   4.268   5.314   5.192
 8321SOL     OW25861   0.535   0.248   0.143
 8321SOL    HW125862   0.586   0.334   0.141
 8321SOL    HW225863   0.474   0.244   0.063
 8322SOL     OW25864   2.591   0.323   2.173
 8322SOL    HW125865   2.680   0.360   2.199
 8322SOL    HW225866   2.526   0.337   2.248
 8323SOL     OW25867   6.514   5.339   6.493
 8323SOL    HW125868   6.571   5.263   6.525
 8323SOL    HW225869   6.531   5.420   6.549
 8324SOL     OW25870   6.822   6.015   5.005
 8324SOL    HW125871   6.920   6.017   5.020
 8324SOL    HW225872   6.801   5.957   4.927
 8325SOL     OW25873   1.434   5.412   5.261
 8325SOL    HW125874   1.436   5.388   5.163
 8325SOL    HW225875   1.473   5.503   5.274
 8326SOL     OW25876   3.018   1.042   6.868
 8326SOL    HW125877   3.060   1.025   6.779
 8326SOL    HW225878   3.083   1.090   6.927
 8327SOL     OW25879   0.622   6.239   5.816
 8327SOL    HW125880   0.668   6.259   5.729
 8327SOL    HW225881   0.591   6.144   5.816
 8328SOL     OW25882   0.951   6.918   0.890
 8328SOL    HW125883   0.926   7.013   0.904
 8328SOL    HW225884   0.883   6.874   0.832
 8329SOL     OW25885   1.500   2.092   6.282
 8329SOL    HW125886   1.445   2.012   6.259
 8329SOL    HW225887   1.568   2.108   6.211
 8330SOL     OW25888   3.114   6.562   0.379
 8330SOL    HW125889   3.066   6.616   0.310
 8330SOL    HW225890   3.176   6.498   0.335
 8331SOL     OW25891   1.243   2.366   5.908
 8331SOL    HW125892   1.235   2.451   5.857
 8331SOL    HW225893   1.327   2.368   5.963
 8332SOL     OW25894   5.418   4.527   1.137
 8332SOL    HW125895   5.508   4.560   1.110
 8332SOL    HW225896   5.388   4.456   1.073
 8333SOL     OW25897   2.117   4.531   5.921
 8333SOL    HW125898   2.085   4.472   5.847
 8333SOL    HW225899   2.214   4.552   5.906
 8334SOL     OW25900   2.873   2.664   5.509
 8334SOL    HW125901   2.774   2.674   5.501
 8334SOL    HW225902   2.903   2.585   5.455
 8335SOL     OW25903   6.558   2.806   0.009
 8335SOL    HW125904   6.546   2.805   6.929
 8335SOL    HW225905   6.522   2.892   0.046
 8336SOL     OW25906   0.474   4.848   3.997
 8336SOL    HW125907   0.526   4.891   4.072
 8336SOL    HW225908   0.537   4.797   3.938
 8337SOL     OW25909   6.421   6.512   4.696
 8337SOL    HW125910   6.449   6.562   4.613
 8337SOL    HW225911   6.396   6.578   4.767
 8338SOL     OW25912   2.221   4.888   0.635
 8338SOL    HW125913   2.150   4.869   0.702
 8338SOL    HW225914   2.255   4.802   0.597
 8339SOL     OW25915   6.548   0.567   1.678
 8339SOL    HW125916   6.455   0.571   1.642
 8339SOL    HW225917   6.612   0.556   1.601
 8340SOL     OW25918   5.940   2.254   6.725
 8340SOL    HW125919   5.989   2.184   6.777
 8340SOL    HW225920   5.905   2.323   6.789
 8341SOL     OW25921   3.508   0.236   1.273
 8341SOL    HW125922   3.497   0.252   1.175
 8341SOL    HW225923   3.538   0.320   1.317
 8342SOL     OW25924   4.157   0.843   1.471
 8342SOL    HW125925   4.070   0.859   1.518
 8342SOL    HW225926   4.219   0.919   1.490
 8343SOL     OW25927   4.478   6.080   3.396
 8343SOL    HW125928   4.524   6.041   3.316
 8343SOL    HW225929   4.535   6.065   3.477
 8344SOL     OW25930   2.203   4.088   4.795
 8344SOL    HW125931   2.294   4.088   4.755
 8344SOL    HW225932   2.206   4.042   4.884
 8345SOL     OW25933   6.881   6.774   4.004
 8345SOL    HW125934   6.868   6.786   4.103
 8345SOL    HW225935   6.872   6.863   3.959
 8346SOL     OW25936   5.449   4.145   3.125
 8346SOL    HW125937   5.418   4.086   3.051
 8346SOL    HW225938   5.373   4.163   3.187
 8347SOL     OW25939   1.133   1.172   6.935
 8347SOL    HW125940   1.083   1.257   6.950
 8347SOL    HW225941   1.104   1.131   6.848
 8348SOL     OW25942   2.494   6.920   1.004
 8348SOL    HW125943   2.513   6.889   0.911
 8348SOL    HW225944   2.429   6.996   1.001
 8349SOL     OW25945   4.604   5.907   1.309
 8349SOL    HW125946   4.520   5.871   1.267
 8349SOL    HW225947   4.674   5.835   1.311
 8350SOL     OW25948   2.561   0.882   6.682
 8350SOL    HW125949   2.473   0.927   6.698
 8350SOL    HW225950   2.610   0.928   6.609
 8351SOL     OW25951   0.277   4.253   3.256
 8351SOL    HW125952   0.342   4.233   3.329
 8351SOL    HW225953   0.247   4.167   3.214
 8352SOL     OW25954   2.294   6.916   6.343
 8352SOL    HW125955   2.210   6.880   6.303
 8352SOL    HW225956   2.334   6.848   6.404
 8353SOL     OW25957   0.862   5.787   2.633
 8353SOL    HW125958   0.917   5.795   2.716
 8353SOL    HW225959   0.765   5.784   2.657
 8354SOL     OW25960   5.243   3.088   3.726
 8354SOL    HW125961   5.340   3.112   3.723
 8354SOL    HW225962   5.233   3.000   3.773
 8355SOL     OW25963   3.574   4.023   5.767
 8355SOL    HW125964   3.492   4.014   5.823
 8355SOL    HW225965   3.549   4.040   5.672
 8356SOL     OW25966   3.213   3.446   2.545
 8356SOL    HW125967   3.229   3.543   2.566
 8356SOL    HW225968   3.256   3.424   2.457
 8357SOL     OW25969   3.150   6.647   5.307
 8357SOL    HW125970   3.162   6.547   5.307
 8357SOL    HW225971   3.061   6.669   5.268
 8358SOL     OW25972   0.419   0.446   4.690
 8358SOL    HW125973   0.502   0.490   4.656
 8358SOL    HW225974   0.443   0.358   4.732
 8359SOL     OW25975   4.975   2.498   4.976
 8359SOL    HW125976   4.971   2.560   4.898
 8359SOL    HW225977   5.067   2.458   4.981
 8360SOL     OW25978   3.486   0.223   2.467
 8360SOL    HW125979   3.462   0.201   2.562
 8360SOL    HW225980   3.417   0.285   2.429
 8361SOL     OW25981   4.609   1.441   0.029
 8361SOL    HW125982   4.598   1.348   7.012
 8361SOL    HW225983   4.521   1.488   0.027
 8362SOL     OW25984   0.772   4.584   2.091
 8362SOL    HW125985   0.686   4.546   2.125
 8362SOL    HW225986   0.845   4.517   2.102
 8363SOL     OW25987   3.578   2.376   1.400
 8363SOL    HW125988   3.660   2.431   1.411
 8363SOL    HW225989   3.537   2.358   1.490
 8364SOL     OW25990   0.560   1.768   3.088
 8364SOL    HW125991   0.625   1.794   3.159
 8364SOL    HW225992   0.529   1.850   3.041
 8365SOL     OW25993   2.493   2.803   1.166
 8365SOL    HW125994   2.403   2.840   1.190
 8365SOL    HW225995   2.564   2.858   1.211
 8366SOL     OW25996   4.854   5.847   1.551
 8366SOL    HW125997   4.901   5.888   1.472
 8366SOL    HW225998   4.798   5.771   1.520
 8367SOL     OW25999   1.000   4.948   4.188
 8367SOL    HW126000   0.966   4.892   4.112
 8367SOL    HW226001   0.935   5.021   4.207
 8368SOL     OW26002   0.343   3.068   5.900
 8368SOL    HW126003   0.308   3.000   5.835
 8368SOL    HW226004   0.268   3.125   5.932
 8369SOL     OW26005   1.510   0.761   0.697
 8369SOL    HW126006   1.482   0.741   0.603
 8369SOL    HW226007   1.497   0.679   0.753
 8370SOL     OW26008   2.582   3.248   1.376
 8370SOL    HW126009   2.650   3.183   1.411
 8370SOL    HW226010   2.537   3.293   1.453
 8371SOL     OW26011   3.037   4.356   5.645
 8371SOL    HW126012   2.959   4.367   5.707
 8371SOL    HW226013   3.084   4.270   5.666
 8372SOL     OW26014   1.373   6.897   3.314
 8372SOL    HW126015   1.343   6.846   3.233
 8372SOL    HW226016   1.470   6.919   3.306
 8373SOL     OW26017   6.154   0.187   4.615
 8373SOL    HW126018   6.092   0.266   4.611
 8373SOL    HW226019   6.170   0.163   4.711
 8374SOL     OW26020   0.766   2.401   3.517
 8374SOL    HW126021   0.736   2.490   3.483
 8374SOL    HW226022   0.866   2.394   3.510
 8375SOL     OW26023   1.527   2.364   5.711
 8375SOL    HW126024   1.475   2.326   5.787
 8375SOL    HW226025   1.619   2.326   5.712
 8376SOL     OW26026   0.989   1.566   3.827
 8376SOL    HW126027   0.910   1.598   3.880
 8376SOL    HW226028   1.028   1.485   3.869
 8377SOL     OW26029   4.631   5.734   1.794
 8377SOL    HW126030   4.571   5.811   1.814
 8377SOL    HW226031   4.689   5.715   1.874
 8378SOL     OW26032   4.234   5.888   6.165
 8378SOL    HW126033   4.334   5.885   6.156
 8378SOL    HW226034   4.195   5.803   6.131
 8379SOL     OW26035   6.100   2.768   1.664
 8379SOL    HW126036   6.178   2.817   1.703
 8379SOL    HW226037   6.115   2.670   1.674
 8380SOL     OW26038   1.208   5.499   2.888
 8380SOL    HW126039   1.181   5.430   2.820
 8380SOL    HW226040   1.152   5.487   2.970
 8381SOL     OW26041   0.558   2.608   2.843
 8381SOL    HW126042   0.479   2.547   2.839
 8381SOL    HW226043   0.569   2.643   2.937
 8382SOL     OW26044   1.207   0.211   1.939
 8382SOL    HW126045   1.112   0.235   1.919
 8382SOL    HW226046   1.261   0.294   1.951
 8383SOL     OW26047   1.634   6.824   4.839
 8383SOL    HW126048   1.591   6.874   4.764
 8383SOL    HW226049   1.717   6.780   4.807
 8384SOL     OW26050   0.415   4.222   3.728
 8384SOL    HW126051   0.349   4.158   3.766
 8384SOL    HW226052   0.427   4.299   3.791
 8385SOL     OW26053   4.454   2.423   1.820
 8385SOL    HW126054   4.520   2.398   1.749
 8385SOL    HW226055   4.362   2.400   1.790
 8386SOL     OW26056   6.502   5.424   2.156
 8386SOL    HW126057   6.570   5.450   2.225
 8386SOL    HW226058   6.447   5.348   2.191
 8387SOL     OW26059   0.423   2.529   3.499
 8387SOL    HW126060   0.388   2.507   3.590
 8387SOL    HW226061   0.354   2.578   3.447
 8388SOL     OW26062   3.235   6.330   1.610
 8388SOL    HW126063   3.264   6.360   1.519
 8388SOL    HW226064   3.291   6.375   1.679
 8389SOL     OW26065   1.278   2.569   4.190
 8389SOL    HW126066   1.185   2.536   4.205
 8389SOL    HW226067   1.275   2.664   4.158
 8390SOL     OW26068   1.172   6.528   6.400
 8390SOL    HW126069   1.073   6.522   6.409
 8390SOL    HW226070   1.206   6.449   6.349
 8391SOL     OW26071   5.047   5.916   0.917
 8391SOL    HW126072   5.074   6.006   0.952
 8391SOL    HW226073   5.123   5.852   0.927
 8392SOL     OW26074   3.352   5.766   0.680
 8392SOL    HW126075   3.295   5.822   0.619
 8392SOL    HW226076   3.318   5.671   0.679
 8393SOL     OW26077   1.457   6.550   1.831
 8393SOL    HW126078   1.481   6.456   1.856
 8393SOL    HW226079   1.506   6.614   1.891
 8394SOL     OW26080   1.724   1.515   4.074
 8394SOL    HW126081   1.673   1.430   4.058
 8394SOL    HW226082   1.729   1.533   4.172
 8395SOL     OW26083   1.966   6.031   6.675
 8395SOL    HW126084   2.032   5.956   6.674
 8395SOL    HW226085   1.875   5.996   6.699
 8396SOL     OW26086   5.119   1.566   0.364
 8396SOL    HW126087   5.041   1.578   0.303
 8396SOL    HW226088   5.102   1.617   0.449
 8397SOL     OW26089   0.444   4.170   3.454
 8397SOL    HW126090   0.409   4.177   3.547
 8397SOL    HW226091   0.458   4.074   3.430
 8398SOL     OW26092   5.550   1.703   6.443
 8398SOL    HW126093   5.594   1.665   6.361
 8398SOL    HW226094   5.543   1.632   6.513
 8399SOL     OW26095   5.474   6.896   5.350
 8399SOL    HW126096   5.464   6.914   5.253
 8399SOL    HW226097   5.525   6.971   5.393
 8400SOL     OW26098   5.891   6.096   2.980
 8400SOL    HW126099   5.800   6.122   2.951
 8400SOL    HW226100   5.936   6.174   3.025
 8401SOL     OW26101   2.486   3.457   5.380
 8401SOL    HW126102   2.436   3.519   5.318
 8401SOL    HW226103   2.448   3.365   5.371
 8402SOL     OW26104   4.426   1.253   4.391
 8402SOL    HW126105   4.396   1.348   4.395
 8402SOL    HW226106   4.406   1.215   4.301
 8403SOL     OW26107   0.568   1.714   6.178
 8403SOL    HW126108   0.625   1.770   6.119
 8403SOL    HW226109   0.622   1.637   6.213
 8404SOL     OW26110   4.920   5.158   5.201
 8404SOL    HW126111   4.902   5.158   5.103
 8404SOL    HW226112   4.893   5.246   5.241
 8405SOL     OW26113   0.703   2.547   6.163
 8405SOL    HW126114   0.743   2.633   6.132
 8405SOL    HW226115   0.617   2.564   6.211
 8406SOL     OW26116   5.983   3.748   1.696
 8406SOL    HW126117   6.068   3.778   1.653
 8406SOL    HW226118   5.955   3.660   1.657
 8407SOL     OW26119   5.514   3.413   2.753
 8407SOL    HW126120   5.434   3.406   2.814
 8407SOL    HW226121   5.559   3.501   2.767
 8408SOL     OW26122   4.987   4.454   4.321
 8408SOL    HW126123   5.051   4.425   4.250
 8408SOL    HW226124   4.994   4.392   4.400
 8409SOL     OW26125   1.010   2.002   4.027
 8409SOL    HW126126   0.926   2.046   4.058
 8409SOL    HW226127   1.010   1.995   3.927
 8410SOL     OW26128   1.944   5.483   2.293
 8410SOL    HW126129   1.887   5.564   2.289
 8410SOL    HW226130   2.010   5.492   2.368
 8411SOL     OW26131   1.975   3.526   2.941
 8411SOL    HW126132   1.991   3.605   2.882
 8411SOL    HW226133   1.997   3.442   2.891
 8412SOL     OW26134   5.347   2.253   2.637
 8412SOL    HW126135   5.250   2.234   2.654
 8412SOL    HW226136   5.376   2.330   2.694
 8413SOL     OW26137   1.534   5.486   2.238
 8413SOL    HW126138   1.608   5.545   2.270
 8413SOL    HW226139   1.543   5.473   2.139
 8414SOL     OW26140   6.070   7.015   4.456
 8414SOL    HW126141   6.032   6.944   4.515
 8414SOL    HW226142   6.112   0.067   4.513
 8415SOL     OW26143   0.489   4.760   0.880
 8415SOL    HW126144   0.545   4.818   0.821
 8415SOL    HW226145   0.488   4.797   0.973
 8416SOL     OW26146   4.112   4.780   3.190
 8416SOL    HW126147   4.019   4.816   3.183
 8416SOL    HW226148   4.148   4.762   3.099
 8417SOL     OW26149   0.594   5.797   0.138
 8417SOL    HW126150   0.609   5.893   0.160
 8417SOL    HW226151   0.510   5.766   0.182
 8418SOL     OW26152   5.571   6.378   2.797
 8418SOL    HW126153   5.485   6.384   2.848
 8418SOL    HW226154   5.562   6.310   2.724
 8419SOL     OW26155   2.302   1.682   3.046
 8419SOL    HW126156   2.322   1.749   2.975
 8419SOL    HW226157   2.204   1.666   3.050
 8420SOL     OW26158   4.724   1.863   5.210
 8420SOL    HW126159   4.693   1.779   5.166
 8420SOL    HW226160   4.799   1.843   5.273
 8421SOL     OW26161   0.278   0.825   0.453
 8421SOL    HW126162   0.320   0.914   0.475
 8421SOL    HW226163   0.179   0.831   0.465
 8422SOL     OW26164   2.857   0.933   1.342
 8422SOL    HW126165   2.773   0.907   1.293
 8422SOL    HW226166   2.880   1.028   1.318
 8423SOL     OW26167   2.068   4.749   1.366
 8423SOL    HW126168   1.972   4.755   1.394
 8423SOL    HW226169   2.127   4.785   1.438
 8424SOL     OW26170   2.655   2.275   1.924
 8424SOL    HW126171   2.748   2.286   1.959
 8424SOL    HW226172   2.593   2.336   1.973
 8425SOL     OW26173   0.317   5.352   5.476
 8425SOL    HW126174   0.365   5.329   5.561
 8425SOL    HW226175   0.219   5.340   5.488
 8426SOL     OW26176   3.612   4.145   2.625
 8426SOL    HW126177   3.607   4.243   2.644
 8426SOL    HW226178   3.627   4.095   2.710
 8427SOL     OW26179   2.457   1.258   6.995
 8427SOL    HW126180   2.393   1.182   6.987
 8427SOL    HW226181   2.546   1.223   0.007
 8428SOL     OW26182   6.609   3.514   1.775
 8428SOL    HW126183   6.659   3.586   1.822
 8428SOL    HW226184   6.584   3.442   1.841
 8429SOL     OW26185   1.256   6.822   3.098
 8429SOL    HW126186   1.159   6.805   3.117
 8429SOL    HW226187   1.275   6.801   3.002
 8430SOL     OW26188   3.683   6.860   3.492
 8430SOL    HW126189   3.782   6.875   3.493
 8430SOL    HW226190   3.660   6.787   3.557
 8431SOL     OW26191   3.015   3.229   2.622
 8431SOL    HW126192   3.053   3.144   2.658
 8431SOL    HW226193   3.058   3.250   2.534
 8432SOL     OW26194   4.743   5.701   0.549
 8432SOL    HW126195   4.735   5.779   0.611
 8432SOL    HW226196   4.833   5.701   0.506
 8433SOL     OW26197   6.912   1.089   3.757
 8433SOL    HW126198   6.882   1.180   3.784
 8433SOL    HW226199   6.858   1.057   3.679
 8434SOL     OW26200   5.193   6.461   0.072
 8434SOL    HW126201   5.188   6.435   0.168
 8434SOL    HW226202   5.101   6.470   0.035
 8435SOL     OW26203   5.285   3.643   0.687
 8435SOL    HW126204   5.216   3.644   0.615
 8435SOL    HW226205   5.244   3.676   0.773
 8436SOL     OW26206   3.523   4.162   1.468
 8436SOL    HW126207   3.623   4.170   1.475
 8436SOL    HW226208   3.482   4.252   1.464
 8437SOL     OW26209   0.647   2.980   1.014
 8437SOL    HW126210   0.584   2.922   0.964
 8437SOL    HW226211   0.611   3.073   1.019
 8438SOL     OW26212   2.530   5.673   1.598
 8438SOL    HW126213   2.512   5.575   1.607
 8438SOL    HW226214   2.598   5.688   1.526
 8439SOL     OW26215   5.334   0.201   2.401
 8439SOL    HW126216   5.382   0.153   2.328
 8439SOL    HW226217   5.341   0.149   2.486
 8440SOL     OW26218   1.198   3.968   3.594
 8440SOL    HW126219   1.263   3.953   3.668
 8440SOL    HW226220   1.196   4.066   3.571
 8441SOL     OW26221   3.845   5.575   1.395
 8441SOL    HW126222   3.875   5.585   1.300
 8441SOL    HW226223   3.889   5.645   1.452
 8442SOL     OW26224   2.957   3.285   0.512
 8442SOL    HW126225   2.932   3.238   0.427
 8442SOL    HW226226   2.903   3.369   0.521
 8443SOL     OW26227   0.127   2.710   1.100
 8443SOL    HW126228   0.033   2.736   1.122
 8443SOL    HW226229   0.128   2.660   1.013
 8444SOL     OW26230   4.915   2.460   3.088
 8444SOL    HW126231   5.008   2.435   3.116
 8444SOL    HW226232   4.915   2.555   3.056
 8445SOL     OW26233   3.663   5.698   2.661
 8445SOL    HW126234   3.755   5.693   2.700
 8445SOL    HW226235   3.635   5.608   2.629
 8446SOL     OW26236   5.963   3.500   3.161
 8446SOL    HW126237   5.997   3.479   3.069
 8446SOL    HW226238   6.028   3.559   3.208
 8447SOL     OW26239   5.618   5.015   1.238
 8447SOL    HW126240   5.535   5.055   1.277
 8447SOL    HW226241   5.639   4.930   1.285
 8448SOL     OW26242   1.557   4.565   5.513
 8448SOL    HW126243   1.544   4.485   5.454
 8448SOL    HW226244   1.468   4.600   5.542
 8449SOL     OW26245   1.904   0.689   5.283
 8449SOL    HW126246   1.850   0.675   5.366
 8449SOL    HW226247   1.863   0.762   5.229
 8450SOL     OW26248   1.693   5.870   1.050
 8450SOL    HW126249   1.678   5.827   1.139
 8450SOL    HW226250   1.670   5.967   1.055
 8451SOL     OW26251   2.605   4.360   1.567
 8451SOL    HW126252   2.647   4.278   1.605
 8451SOL    HW226253   2.509   4.343   1.547
 8452SOL     OW26254   6.479   5.691   2.446
 8452SOL    HW126255   6.467   5.686   2.546
 8452SOL    HW226256   6.551   5.627   2.419
 8453SOL     OW26257   0.874   4.603   5.471
 8453SOL    HW126258   0.808   4.546   5.521
 8453SOL    HW226259   0.943   4.544   5.428
 8454SOL     OW26260   2.003   6.968   5.668
 8454SOL    HW126261   1.937   6.978   5.594
 8454SOL    HW226262   2.062   6.890   5.651
 8455SOL     OW26263   6.224   2.162   0.288
 8455SOL    HW126264   6.256   2.130   0.377
 8455SOL    HW226265   6.187   2.085   0.236
 8456SOL     OW26266   6.316   4.393   3.762
 8456SOL    HW126267   6.267   4.361   3.843
 8456SOL    HW226268   6.397   4.444   3.789
 8457SOL     OW26269   5.296   5.955   6.252
 8457SOL    HW126270   5.330   5.978   6.161
 8457SOL    HW226271   5.371   5.959   6.318
 8458SOL     OW26272   1.017   1.603   1.598
 8458SOL    HW126273   1.071   1.609   1.514
 8458SOL    HW226274   0.970   1.689   1.614
 8459SOL     OW26275   2.525   4.784   2.540
 8459SOL    HW126276   2.432   4.804   2.570
 8459SOL    HW226277   2.526   4.696   2.491
 8460SOL     OW26278   3.584   1.117   0.990
 8460SOL    HW126279   3.577   1.020   1.014
 8460SOL    HW226280   3.661   1.130   0.927
 8461SOL     OW26281   5.748   4.641   3.077
 8461SOL    HW126282   5.741   4.577   3.000
 8461SOL    HW226283   5.771   4.732   3.043
 8462SOL     OW26284   1.805   3.594   0.629
 8462SOL    HW126285   1.845   3.527   0.691
 8462SOL    HW226286   1.766   3.670   0.682
 8463SOL     OW26287   0.479   6.128   1.567
 8463SOL    HW126288   0.424   6.207   1.539
 8463SOL    HW226289   0.573   6.157   1.583
 8464SOL     OW26290   0.087   3.409   0.181
 8464SOL    HW126291   0.129   3.393   0.092
 8464SOL    HW226292   0.020   3.484   0.173
 8465SOL     OW26293   6.162   4.128   0.617
 8465SOL    HW126294   6.136   4.220   0.644
 8465SOL    HW226295   6.095   4.062   0.652
 8466SOL     OW26296   0.090   1.010   4.867
 8466SOL    HW126297   0.170   1.022   4.926
 8466SOL    HW226298   0.119   1.003   4.772
 8467SOL     OW26299   3.159   1.030   0.613
 8467SOL    HW126300   3.172   1.122   0.578
 8467SOL    HW226301   3.181   1.028   0.711
 8468SOL     OW26302   6.530   3.703   2.017
 8468SOL    HW126303   6.473   3.622   2.035
 8468SOL    HW226304   6.626   3.681   2.036
 8469SOL     OW26305   3.161   2.776   5.629
 8469SOL    HW126306   3.166   2.838   5.707
 8469SOL    HW226307   3.193   2.685   5.656
 8470SOL     OW26308   2.096   5.685   1.038
 8470SOL    HW126309   2.106   5.784   1.031
 8470SOL    HW226310   2.169   5.648   1.096
 8471SOL     OW26311   4.072   2.130   3.548
 8471SOL    HW126312   3.988   2.176   3.520
 8471SOL    HW226313   4.124   2.190   3.610
 8472SOL     OW26314   6.388   1.681   6.879
 8472SOL    HW126315   6.340   1.636   6.804
 8472SOL    HW226316   6.487   1.677   6.862
 8473SOL     OW26317   5.020   4.925   5.438
 8473SOL    HW126318   5.092   4.972   5.388
 8473SOL    HW226319   4.979   4.988   5.504
 8474SOL     OW26320   3.378   3.985   6.507
 8474SOL    HW126321   3.466   3.943   6.528
 8474SOL    HW226322   3.358   3.974   6.409
 8475SOL     OW26323   0.679   2.110   2.826
 8475SOL    HW126324   0.742   2.061   2.887
 8475SOL    HW226325   0.586   2.081   2.845
 8476SOL     OW26326   6.696   0.997   2.619
 8476SOL    HW126327   6.721   0.960   2.709
 8476SOL    HW226328   6.679   1.095   2.627
 8477SOL     OW26329   5.860   6.612   1.121
 8477SOL    HW126330   5.922   6.689   1.129
 8477SOL    HW226331   5.795   6.628   1.046
 8478SOL     OW26332   2.134   6.597   6.459
 8478SOL    HW126333   2.082   6.673   6.498
 8478SOL    HW226334   2.115   6.513   6.510
 8479SOL     OW26335   1.323   2.208   0.177
 8479SOL    HW126336   1.262   2.215   0.256
 8479SOL    HW226337   1.270   2.175   0.098
 8480SOL     OW26338   3.349   4.357   1.506
 8480SOL    HW126339   3.316   4.439   1.552
 8480SOL    HW226340   3.272   4.297   1.484
 8481SOL     OW26341   5.544   3.418   1.982
 8481SOL    HW126342   5.473   3.466   1.931
 8481SOL    HW226343   5.602   3.484   2.030
 8482SOL     OW26344   4.994   0.181   5.670
 8482SOL    HW126345   4.932   0.254   5.640
 8482SOL    HW226346   5.015   0.194   5.767
 8483SOL     OW26347   4.470   5.314   4.215
 8483SOL    HW126348   4.435   5.299   4.307
 8483SOL    HW226349   4.491   5.226   4.172
 8484SOL     OW26350   5.526   6.741   5.936
 8484SOL    HW126351   5.440   6.734   5.987
 8484SOL    HW226352   5.507   6.776   5.844
 8485SOL     OW26353   3.512   0.183   6.079
 8485SOL    HW126354   3.583   0.253   6.088
 8485SOL    HW226355   3.506   0.154   5.984
 8486SOL     OW26356   4.807   2.878   5.076
 8486SOL    HW126357   4.842   2.970   5.054
 8486SOL    HW226358   4.726   2.887   5.134
 8487SOL     OW26359   0.583   1.499   5.388
 8487SOL    HW126360   0.671   1.454   5.375
 8487SOL    HW226361   0.568   1.565   5.315
 8488SOL     OW26362   4.332   5.821   3.127
 8488SOL    HW126363   4.388   5.835   3.209
 8488SOL    HW226364   4.240   5.856   3.143
 8489SOL     OW26365   6.124   2.112   1.802
 8489SOL    HW126366   6.079   2.045   1.743
 8489SOL    HW226367   6.163   2.066   1.881
 8490SOL     OW26368   4.043   0.300   0.056
 8490SOL    HW126369   3.980   0.372   0.085
 8490SOL    HW226370   4.126   0.342   0.018
 8491SOL     OW26371   2.958   6.099   1.788
 8491SOL    HW126372   2.914   6.084   1.700
 8491SOL    HW226373   2.998   6.191   1.790
 8492SOL     OW26374   5.809   6.783   3.979
 8492SOL    HW126375   5.849   6.829   3.899
 8492SOL    HW226376   5.843   6.689   3.985
 8493SOL     OW26377   5.226   0.101   5.448
 8493SOL    HW126378   5.288   0.063   5.516
 8493SOL    HW226379   5.160   0.162   5.493
 8494SOL     OW26380   0.219   3.743   2.230
 8494SOL    HW126381   0.125   3.720   2.206
 8494SOL    HW226382   0.281   3.673   2.195
 8495SOL     OW26383   4.499   5.895   4.891
 8495SOL    HW126384   4.445   5.969   4.851
 8495SOL    HW226385   4.437   5.826   4.930
 8496SOL     OW26386   3.846   2.109   2.367
 8496SOL    HW126387   3.751   2.126   2.342
 8496SOL    HW226388   3.859   2.127   2.465
 8497SOL     OW26389   6.471   0.799   3.317
 8497SOL    HW126390   6.392   0.745   3.346
 8497SOL    HW226391   6.517   0.754   3.241
 8498SOL     OW26392   5.649   6.407   5.427
 8498SOL    HW126393   5.680   6.454   5.510
 8498SOL    HW226394   5.573   6.346   5.450
 8499SOL     OW26395   6.438   0.333   6.075
 8499SOL    HW126396   6.489   0.400   6.022
 8499SOL    HW226397   6.340   0.341   6.055
 8500SOL     OW26398   0.347   0.856   5.970
 8500SOL    HW126399   0.432   0.907   5.968
 8500SOL    HW226400   0.276   0.911   6.015
 8501SOL     OW26401   4.035   6.353   5.086
 8501SOL    HW126402   4.092   6.404   5.022
 8501SOL    HW226403   3.965   6.302   5.035
 8502SOL     OW26404   6.474   2.824   0.456
 8502SOL    HW126405   6.509   2.768   0.381
 8502SOL    HW226406   6.498   2.780   0.543
 8503SOL     OW26407   4.908   2.087   6.121
 8503SOL    HW126408   4.894   2.001   6.171
 8503SOL    HW226409   4.972   2.072   6.046
 8504SOL     OW26410   1.340   1.149   3.226
 8504SOL    HW126411   1.368   1.112   3.315
 8504SOL    HW226412   1.252   1.110   3.200
 8505SOL     OW26413   6.018   1.353   2.720
 8505SOL    HW126414   6.104   1.359   2.668
 8505SOL    HW226415   6.038   1.337   2.817
 8506SOL     OW26416   2.096   1.172   4.579
 8506SOL    HW126417   2.007   1.153   4.537
 8506SOL    HW226418   2.148   1.087   4.585
 8507SOL     OW26419   4.202   5.687   0.167
 8507SOL    HW126420   4.269   5.754   0.197
 8507SOL    HW226421   4.230   5.596   0.199
 8508SOL     OW26422   3.587   0.851   5.941
 8508SOL    HW126423   3.684   0.861   5.961
 8508SOL    HW226424   3.541   0.813   6.021
 8509SOL     OW26425   4.139   2.039   2.292
 8509SOL    HW126426   4.100   1.947   2.293
 8509SOL    HW226427   4.075   2.103   2.335
 8510SOL     OW26428   0.376   2.065   4.887
 8510SOL    HW126429   0.403   2.110   4.972
 8510SOL    HW226430   0.425   1.979   4.878
 8511SOL     OW26431   5.920   1.888   4.263
 8511SOL    HW126432   5.999   1.910   4.207
 8511SOL    HW226433   5.841   1.941   4.233
 8512SOL     OW26434   2.757   6.325   6.540
 8512SOL    HW126435   2.822   6.357   6.472
 8512SOL    HW226436   2.775   6.229   6.561
 8513SOL     OW26437   3.870   5.898   6.821
 8513SOL    HW126438   3.895   5.804   6.844
 8513SOL    HW226439   3.771   5.903   6.803
 8514SOL     OW26440   4.575   5.333   4.649
 8514SOL    HW126441   4.562   5.426   4.614
 8514SOL    HW226442   4.669   5.304   4.634
 8515SOL     OW26443   5.462   2.587   1.898
 8515SOL    HW126444   5.519   2.642   1.837
 8515SOL    HW226445   5.504   2.584   1.989
 8516SOL     OW26446   6.758   2.411   1.419
 8516SOL    HW126447   6.793   2.491   1.371
 8516SOL    HW226448   6.755   2.429   1.517
 8517SOL     OW26449   0.643   3.565   4.704
 8517SOL    HW126450   0.712   3.496   4.682
 8517SOL    HW226451   0.638   3.577   4.804
 8518SOL     OW26452   3.959   5.770   1.622
 8518SOL    HW126453   3.878   5.828   1.631
 8518SOL    HW226454   4.031   5.802   1.683
 8519SOL     OW26455   2.924   5.589   3.293
 8519SOL    HW126456   2.909   5.520   3.222
 8519SOL    HW226457   2.841   5.642   3.305
 8520SOL     OW26458   3.609   5.566   0.145
 8520SOL    HW126459   3.643   5.655   0.112
 8520SOL    HW226460   3.659   5.493   0.099
 8521SOL     OW26461   0.734   1.489   3.238
 8521SOL    HW126462   0.741   1.584   3.270
 8521SOL    HW226463   0.688   1.434   3.307
 8522SOL     OW26464   2.266   5.897   4.369
 8522SOL    HW126465   2.332   5.888   4.295
 8522SOL    HW226466   2.283   5.827   4.439
 8523SOL     OW26467   2.089   5.418   6.788
 8523SOL    HW126468   2.129   5.508   6.807
 8523SOL    HW226469   2.163   5.352   6.772
 8524SOL     OW26470   1.983   1.345   6.516
 8524SOL    HW126471   2.048   1.418   6.538
 8524SOL    HW226472   2.030   1.273   6.464
 8525SOL     OW26473   5.872   4.337   4.562
 8525SOL    HW126474   5.827   4.357   4.648
 8525SOL    HW226475   5.804   4.315   4.492
 8526SOL     OW26476   6.925   3.374   1.931
 8526SOL    HW126477   6.830   3.368   1.963
 8526SOL    HW226478   6.951   3.288   1.888
 8527SOL     OW26479   5.150   1.050   4.958
 8527SOL    HW126480   5.133   0.969   4.900
 8527SOL    HW226481   5.249   1.066   4.963
 8528SOL     OW26482   5.588   0.106   0.233
 8528SOL    HW126483   5.684   0.130   0.245
 8528SOL    HW226484   5.533   0.153   0.303
 8529SOL     OW26485   0.005   0.923   4.432
 8529SOL    HW126486   7.012   0.950   4.337
 8529SOL    HW226487   6.952   0.966   4.488
 8530SOL     OW26488   1.798   5.013   6.050
 8530SOL    HW126489   1.836   5.028   6.141
 8530SOL    HW226490   1.727   4.943   6.054
 8531SOL     OW26491   3.048   5.494   2.866
 8531SOL    HW126492   3.031   5.486   2.964
 8531SOL    HW226493   3.124   5.435   2.840
 8532SOL     OW26494   1.177   3.277   6.556
 8532SOL    HW126495   1.164   3.312   6.463
 8532SOL    HW226496   1.129   3.190   6.566
 8533SOL     OW26497   3.542   0.309   6.508
 8533SOL    HW126498   3.460   0.301   6.564
 8533SOL    HW226499   3.550   0.230   6.447
 8534SOL     OW26500   3.083   2.460   0.851
 8534SOL    HW126501   3.072   2.488   0.756
 8534SOL    HW226502   3.170   2.494   0.886
 8535SOL     OW26503   0.198   2.639   5.538
 8535SOL    HW126504   0.159   2.593   5.618
 8535SOL    HW226505   0.287   2.678   5.561
 8536SOL     OW26506   6.882   0.333   6.438
 8536SOL    HW126507   6.878   0.414   6.496
 8536SOL    HW226508   6.820   0.344   6.360
 8537SOL     OW26509   3.620   6.790   3.239
 8537SOL    HW126510   3.582   6.864   3.184
 8537SOL    HW226511   3.634   6.822   3.333
 8538SOL     OW26512   3.854   1.771   5.278
 8538SOL    HW126513   3.858   1.718   5.363
 8538SOL    HW226514   3.892   1.716   5.204
 8539SOL     OW26515   0.524   3.181   3.047
 8539SOL    HW126516   0.534   3.180   3.147
 8539SOL    HW226517   0.611   3.205   3.005
 8540SOL     OW26518   4.496   5.765   6.199
 8540SOL    HW126519   4.513   5.692   6.134
 8540SOL    HW226520   4.463   5.727   6.285
 8541SOL     OW26521   3.535   5.737   6.096
 8541SOL    HW126522   3.442   5.768   6.113
 8541SOL    HW226523   3.599   5.787   6.154
 8542SOL     OW26524   1.414   5.419   4.742
 8542SOL    HW126525   1.316   5.438   4.743
 8542SOL    HW226526   1.463   5.490   4.792
 8543SOL     OW26527   3.403   1.876   5.708
 8543SOL    HW126528   3.398   1.780   5.734
 8543SOL    HW226529   3.430   1.883   5.612
 8544SOL     OW26530   4.892   3.722   5.267
 8544SOL    HW126531   4.861   3.660   5.194
 8544SOL    HW226532   4.873   3.681   5.356
 8545SOL     OW26533   2.023   0.819   6.249
 8545SOL    HW126534   1.958   0.783   6.315
 8545SOL    HW226535   1.979   0.892   6.196
 8546SOL     OW26536   2.933   1.622   4.067
 8546SOL    HW126537   2.842   1.623   4.109
 8546SOL    HW226538   2.948   1.708   4.018
 8547SOL     OW26539   5.676   4.498   6.113
 8547SOL    HW126540   5.673   4.592   6.147
 8547SOL    HW226541   5.643   4.436   6.183
 8548SOL     OW26542   1.470   4.453   4.070
 8548SOL    HW126543   1.568   4.468   4.084
 8548SOL    HW226544   1.449   4.356   4.086
 8549SOL     OW26545   2.767   0.399   3.743
 8549SOL    HW126546   2.863   0.413   3.768
 8549SOL    HW226547   2.742   0.303   3.756
 8550SOL     OW26548   0.440   3.247   5.234
 8550SOL    HW126549   0.490   3.330   5.260
 8550SOL    HW226550   0.498   3.167   5.250
 8551SOL     OW26551   3.358   1.909   4.156
 8551SOL    HW126552   3.332   1.904   4.060
 8551SOL    HW226553   3.418   1.989   4.171
 8552SOL     OW26554   4.233   1.744   2.311
 8552SOL    HW126555   4.242   1.703   2.220
 8552SOL    HW226556   4.153   1.706   2.357
 8553SOL     OW26557   5.764   2.716   0.510
 8553SOL    HW126558   5.803   2.672   0.429
 8553SOL    HW226559   5.795   2.811   0.515
 8554SOL     OW26560   0.292   1.075   6.593
 8554SOL    HW126561   0.251   1.166   6.599
 8554SOL    HW226562   0.242   1.012   6.652
 8555SOL     OW26563   3.512   2.059   3.931
 8555SOL    HW126564   3.417   2.076   3.955
 8555SOL    HW226565   3.515   2.014   3.841
 8556SOL     OW26566   1.097   3.970   6.042
 8556SOL    HW126567   1.181   3.971   6.096
 8556SOL    HW226568   1.114   3.922   5.955
 8557SOL     OW26569   6.122   6.859   0.637
 8557SOL    HW126570   6.128   6.949   0.682
 8557SOL    HW226571   6.207   6.840   0.589
 8558SOL     OW26572   2.885   6.189   3.430
 8558SOL    HW126573   2.865   6.094   3.408
 8558SOL    HW226574   2.874   6.246   3.349
 8559SOL     OW26575   1.766   3.172   3.126
 8559SOL    HW126576   1.687   3.229   3.101
 8559SOL    HW226577   1.740   3.112   3.201
 8560SOL     OW26578   3.329   4.593   1.643
 8560SOL    HW126579   3.388   4.631   1.715
 8560SOL    HW226580   3.235   4.623   1.658
 8561SOL     OW26581   3.371   1.131   2.350
 8561SOL    HW126582   3.365   1.213   2.406
 8561SOL    HW226583   3.287   1.121   2.296
 8562SOL     OW26584   5.485   3.723   6.046
 8562SOL    HW126585   5.550   3.781   5.995
 8562SOL    HW226586   5.437   3.663   5.982
 8563SOL     OW26587   6.748   4.165   3.503
 8563SOL    HW126588   6.735   4.254   3.458
 8563SOL    HW226589   6.841   4.133   3.489
 8564SOL     OW26590   3.714   6.370   6.898
 8564SOL    HW126591   3.773   6.448   6.877
 8564SOL    HW226592   3.691   6.322   6.814
 8565SOL     OW26593   1.098   5.172   0.665
 8565SOL    HW126594   1.067   5.258   0.707
 8565SOL    HW226595   1.180   5.140   0.713
 8566SOL     OW26596   2.506   0.743   3.889
 8566SOL    HW126597   2.554   0.727   3.803
 8566SOL    HW226598   2.432   0.808   3.874
 8567SOL     OW26599   1.795   3.511   0.101
 8567SOL    HW126600   1.821   3.551   0.189
 8567SOL    HW226601   1.720   3.446   0.116
 8568SOL     OW26602   5.638   6.945   6.571
 8568SOL    HW126603   5.716   7.007   6.573
 8568SOL    HW226604   5.617   6.922   6.476
 8569SOL     OW26605   4.331   1.863   6.173
 8569SOL    HW126606   4.287   1.910   6.250
 8569SOL    HW226607   4.323   1.764   6.185
 8570SOL     OW26608   1.786   2.280   4.189
 8570SOL    HW126609   1.833   2.367   4.181
 8570SOL    HW226610   1.688   2.292   4.170
 8571SOL     OW26611   1.687   0.779   3.699
 8571SOL    HW126612   1.611   0.723   3.665
 8571SOL    HW226613   1.681   0.785   3.799
 8572SOL     OW26614   2.609   3.118   6.361
 8572SOL    HW126615   2.621   3.105   6.263
 8572SOL    HW226616   2.573   3.210   6.378
 8573SOL     OW26617   1.607   6.473   5.846
 8573SOL    HW126618   1.589   6.508   5.754
 8573SOL    HW226619   1.688   6.416   5.845
 8574SOL     OW26620   6.294   2.502   5.582
 8574SOL    HW126621   6.203   2.540   5.601
 8574SOL    HW226622   6.354   2.519   5.660
 8575SOL     OW26623   1.458   6.717   4.036
 8575SOL    HW126624   1.399   6.797   4.028
 8575SOL    HW226625   1.428   6.647   3.971
 8576SOL     OW26626   1.249   4.203   3.909
 8576SOL    HW126627   1.348   4.191   3.899
 8576SOL    HW226628   1.214   4.257   3.832
 8577SOL     OW26629   1.899   1.276   1.332
 8577SOL    HW126630   1.915   1.235   1.243
 8577SOL    HW226631   1.986   1.287   1.380
 8578SOL     OW26632   1.956   0.873   5.780
 8578SOL    HW126633   1.915   0.964   5.792
 8578SOL    HW226634   2.047   0.883   5.741
 8579SOL     OW26635   2.690   0.021   3.026
 8579SOL    HW126636   2.722   6.969   3.089
 8579SOL    HW226637   2.699   7.008   2.932
 8580SOL     OW26638   1.170   0.166   2.239
 8580SOL    HW126639   1.071   0.178   2.231
 8580SOL    HW226640   1.217   0.239   2.192
 8581SOL     OW26641   3.926   3.110   3.838
 8581SOL    HW126642   4.011   3.096   3.788
 8581SOL    HW226643   3.945   3.116   3.936
 8582SOL     OW26644   5.423   5.542   6.823
 8582SOL    HW126645   5.493   5.483   6.864
 8582SOL    HW226646   5.409   5.514   6.728
 8583SOL     OW26647   3.644   0.115   2.096
 8583SOL    HW126648   3.675   0.204   2.128
 8583SOL    HW226649   3.672   0.102   2.001
 8584SOL     OW26650   5.261   2.637   6.121
 8584SOL    HW126651   5.314   2.572   6.175
 8584SOL    HW226652   5.163   2.622   6.138
 8585SOL     OW26653   4.822   2.730   2.996
 8585SOL    HW126654   4.770   2.777   3.067
 8585SOL    HW226655   4.901   2.786   2.970
 8586SOL     OW26656   5.969   7.018   6.039
 8586SOL    HW126657   5.880   6.991   6.000
 8586SOL    HW226658   6.008   0.073   5.985
 8587SOL     OW26659   6.663   6.577   1.276
 8587SOL    HW126660   6.697   6.670   1.262
 8587SOL    HW226661   6.681   6.522   1.195
 8588SOL     OW26662   1.811   2.286   5.565
 8588SOL    HW126663   1.883   2.303   5.497
 8588SOL    HW226664   1.775   2.194   5.552
 8589SOL     OW26665   6.326   3.151   6.358
 8589SOL    HW126666   6.289   3.065   6.391
 8589SOL    HW226667   6.256   3.200   6.306
 8590SOL     OW26668   1.058   1.764   2.823
 8590SOL    HW126669   1.054   1.669   2.852
 8590SOL    HW226670   1.123   1.814   2.880
 8591SOL     OW26671   0.598   4.541   6.288
 8591SOL    HW126672   0.552   4.596   6.358
 8591SOL    HW226673   0.690   4.517   6.320
 8592SOL     OW26674   0.211   1.987   4.529
 8592SOL    HW126675   0.222   1.996   4.430
 8592SOL    HW226676   0.278   2.046   4.575
 8593SOL     OW26677   6.546   0.537   0.452
 8593SOL    HW126678   6.552   0.633   0.478
 8593SOL    HW226679   6.483   0.490   0.514
 8594SOL     OW26680   6.518   2.184   0.177
 8594SOL    HW126681   6.575   2.250   0.224
 8594SOL    HW226682   6.458   2.231   0.112
 8595SOL     OW26683   5.699   6.485   1.786
 8595SOL    HW126684   5.714   6.387   1.776
 8595SOL    HW226685   5.763   6.535   1.729
 8596SOL     OW26686   0.651   2.784   5.692
 8596SOL    HW126687   0.661   2.811   5.788
 8596SOL    HW226688   0.644   2.866   5.635
 8597SOL     OW26689   6.136   2.258   5.647
 8597SOL    HW126690   6.192   2.326   5.600
 8597SOL    HW226691   6.138   2.274   5.746
 8598SOL     OW26692   6.431   0.226   5.733
 8598SOL    HW126693   6.504   0.208   5.667
 8598SOL    HW226694   6.445   0.169   5.814
 8599SOL     OW26695   6.112   4.349   5.199
 8599SOL    HW126696   6.143   4.363   5.293
 8599SOL    HW226697   6.089   4.252   5.186
 8600SOL     OW26698   3.680   3.221   1.764
 8600SOL    HW126699   3.632   3.257   1.684
 8600SOL    HW226700   3.619   3.221   1.843
 8601SOL     OW26701   4.760   4.542   1.444
 8601SOL    HW126702   4.826   4.496   1.385
 8601SOL    HW226703   4.751   4.492   1.530
 8602SOL     OW26704   1.871   6.115   5.344
 8602SOL    HW126705   1.807   6.167   5.288
 8602SOL    HW226706   1.964   6.126   5.307
 8603SOL     OW26707   0.255   1.075   0.196
 8603SOL    HW126708   0.295   0.986   0.219
 8603SOL    HW226709   0.321   1.148   0.218
 8604SOL     OW26710   1.895   6.068   5.982
 8604SOL    HW126711   1.968   6.013   5.942
 8604SOL    HW226712   1.817   6.009   6.005
 8605SOL     OW26713   6.621   5.410   3.858
 8605SOL    HW126714   6.708   5.364   3.876
 8605SOL    HW226715   6.582   5.442   3.944
 8606SOL     OW26716   0.586   0.576   6.269
 8606SOL    HW126717   0.647   0.655   6.271
 8606SOL    HW226718   0.491   0.607   6.259
 8607SOL     OW26719   3.227   2.828   1.892
 8607SOL    HW126720   3.188   2.787   1.809
 8607SOL    HW226721   3.177   2.912   1.914
 8608SOL     OW26722   1.258   5.468   2.306
 8608SOL    HW126723   1.240   5.388   2.364
 8608SOL    HW226724   1.350   5.461   2.268
 8609SOL     OW26725   5.382   2.196   3.705
 8609SOL    HW126726   5.387   2.295   3.692
 8609SOL    HW226727   5.386   2.175   3.803
 8610SOL     OW26728   6.729   5.509   2.343
 8610SOL    HW126729   6.736   5.423   2.393
 8610SOL    HW226730   6.814   5.562   2.355
 8611SOL     OW26731   2.109   1.637   5.568
 8611SOL    HW126732   2.057   1.572   5.623
 8611SOL    HW226733   2.053   1.719   5.551
 8612SOL     OW26734   3.337   2.982   6.001
 8612SOL    HW126735   3.312   2.938   6.087
 8612SOL    HW226736   3.389   2.917   5.944
 8613SOL     OW26737   3.703   3.116   3.561
 8613SOL    HW126738   3.650   3.152   3.637
 8613SOL    HW226739   3.699   3.181   3.485
 8614SOL     OW26740   0.021   3.643   3.850
 8614SOL    HW126741   6.993   3.650   3.762
 8614SOL    HW226742   6.983   3.592   3.914
 8615SOL     OW26743   4.041   0.443   5.269
 8615SOL    HW126744   4.112   0.494   5.220
 8615SOL    HW226745   3.999   0.503   5.337
 8616SOL     OW26746   5.902   3.583   5.354
 8616SOL    HW126747   5.990   3.535   5.361
 8616SOL    HW226748   5.846   3.540   5.283
 8617SOL     OW26749   0.858   6.970   4.101
 8617SOL    HW126750   0.940   6.915   4.116
 8617SOL    HW226751   0.852   6.997   4.005
 8618SOL     OW26752   6.970   4.745   0.617
 8618SOL    HW126753   6.927   4.795   0.692
 8618SOL    HW226754   6.969   4.802   0.535
 8619SOL     OW26755   5.858   4.171   6.692
 8619SOL    HW126756   5.819   4.111   6.623
 8619SOL    HW226757   5.872   4.262   6.653
 8620SOL     OW26758   0.868   6.180   3.905
 8620SOL    HW126759   0.792   6.179   3.840
 8620SOL    HW226760   0.931   6.254   3.881
 8621SOL     OW26761   6.344   3.214   2.097
 8621SOL    HW126762   6.288   3.171   2.026
 8621SOL    HW226763   6.332   3.313   2.093
 8622SOL     OW26764   1.141   5.931   1.966
 8622SOL    HW126765   1.180   5.885   1.887
 8622SOL    HW226766   1.129   6.028   1.946
 8623SOL     OW26767   1.722   2.388   3.676
 8623SOL    HW126768   1.727   2.437   3.589
 8623SOL    HW226769   1.656   2.313   3.669
 8624SOL     OW26770   3.339   3.890   6.250
 8624SOL    HW126771   3.301   3.806   6.211
 8624SOL    HW226772   3.294   3.969   6.209
 8625SOL     OW26773   4.256   3.333   6.083
 8625SOL    HW126774   4.164   3.358   6.115
 8625SOL    HW226775   4.294   3.264   6.145
 8626SOL     OW26776   5.448   1.173   0.473
 8626SOL    HW126777   5.398   1.160   0.387
 8626SOL    HW226778   5.383   1.195   0.546
 8627SOL     OW26779   6.870   0.280   2.291
 8627SOL    HW126780   6.835   0.188   2.307
 8627SOL    HW226781   6.964   0.286   2.325
 8628SOL     OW26782   1.285   6.310   0.406
 8628SOL    HW126783   1.199   6.362   0.403
 8628SOL    HW226784   1.264   6.213   0.417
 8629SOL     OW26785   6.865   0.999   4.650
 8629SOL    HW126786   6.915   1.083   4.671
 8629SOL    HW226787   6.800   0.980   4.723
 8630SOL     OW26788   5.585   2.870   1.966
 8630SOL    HW126789   5.486   2.882   1.973
 8630SOL    HW226790   5.629   2.900   2.051
 8631SOL     OW26791   1.172   5.840   0.256
 8631SOL    HW126792   1.084   5.888   0.253
 8631SOL    HW226793   1.166   5.756   0.202
 8632SOL     OW26794   6.085   6.036   3.290
 8632SOL    HW126795   6.020   6.012   3.361
 8632SOL    HW226796   6.085   5.965   3.219
 8633SOL     OW26797   6.653   3.887   5.687
 8633SOL    HW126798   6.585   3.912   5.618
 8633SOL    HW226799   6.635   3.936   5.772
 8634SOL     OW26800   4.906   4.643   0.152
 8634SOL    HW126801   4.902   4.573   0.223
 8634SOL    HW226802   4.826   4.703   0.160
 8635SOL     OW26803   5.306   1.323   0.097
 8635SOL    HW126804   5.297   1.422   0.114
 8635SOL    HW226805   5.305   1.307   7.017
 8636SOL     OW26806   4.727   5.799   0.037
 8636SOL    HW126807   4.820   5.781   0.070
 8636SOL    HW226808   4.665   5.729   0.071
 8637SOL     OW26809   3.009   2.881   0.856
 8637SOL    HW126810   3.038   2.969   0.894
 8637SOL    HW226811   2.965   2.827   0.927
 8638SOL     OW26812   4.676   2.052   4.154
 8638SOL    HW126813   4.653   2.149   4.151
 8638SOL    HW226814   4.629   2.004   4.079
 8639SOL     OW26815   4.129   4.305   0.518
 8639SOL    HW126816   4.031   4.292   0.509
 8639SOL    HW226817   4.171   4.223   0.556
 8640SOL     OW26818   2.934   2.676   6.753
 8640SOL    HW126819   3.005   2.682   6.823
 8640SOL    HW226820   2.851   2.637   6.793
 8641SOL     OW26821   3.023   5.150   3.067
 8641SOL    HW126822   3.005   5.105   2.980
 8641SOL    HW226823   3.053   5.082   3.134
 8642SOL     OW26824   2.415   6.422   2.758
 8642SOL    HW126825   2.430   6.418   2.856
 8642SOL    HW226826   2.401   6.516   2.729
 8643SOL     OW26827   3.630   6.162   1.207
 8643SOL    HW126828   3.530   6.158   1.206
 8643SOL    HW226829   3.663   6.162   1.113
 8644SOL     OW26830   5.390   2.047   0.099
 8644SOL    HW126831   5.479   2.025   0.059
 8644SOL    HW226832   5.347   2.120   0.045
 8645SOL     OW26833   4.499   5.508   2.836
 8645SOL    HW126834   4.421   5.513   2.898
 8645SOL    HW226835   4.583   5.503   2.889
 8646SOL     OW26836   6.231   1.673   3.880
 8646SOL    HW126837   6.149   1.631   3.840
 8646SOL    HW226838   6.219   1.772   3.884
 8647SOL     OW26839   1.732   4.383   2.003
 8647SOL    HW126840   1.738   4.456   2.072
 8647SOL    HW226841   1.823   4.351   1.979
 8648SOL     OW26842   6.080   5.772   6.193
 8648SOL    HW126843   6.081   5.854   6.135
 8648SOL    HW226844   6.101   5.692   6.137
 8649SOL     OW26845   5.519   2.767   2.398
 8649SOL    HW126846   5.492   2.694   2.461
 8649SOL    HW226847   5.567   2.839   2.449
 8650SOL     OW26848   0.996   1.189   4.714
 8650SOL    HW126849   0.984   1.092   4.738
 8650SOL    HW226850   1.086   1.220   4.746
 8651SOL     OW26851   4.865   1.128   1.404
 8651SOL    HW126852   4.784   1.074   1.382
 8651SOL    HW226853   4.887   1.189   1.327
 8652SOL     OW26854   6.265   2.963   4.736
 8652SOL    HW126855   6.244   2.867   4.759
 8652SOL    HW226856   6.188   3.003   4.687
 8653SOL     OW26857   4.458   0.917   6.802
 8653SOL    HW126858   4.490   1.011   6.797
 8653SOL    HW226859   4.364   0.911   6.767
 8654SOL     OW26860   6.478   4.748   3.704
 8654SOL    HW126861   6.548   4.684   3.671
 8654SOL    HW226862   6.477   4.747   3.804
 8655SOL     OW26863   1.504   7.017   4.642
 8655SOL    HW126864   1.470   0.092   4.650
 8655SOL    HW226865   1.604   7.019   4.632
 8656SOL     OW26866   3.607   6.417   0.130
 8656SOL    HW126867   3.663   6.373   0.200
 8656SOL    HW226868   3.626   6.374   0.041
 8657SOL     OW26869   3.078   1.907   2.711
 8657SOL    HW126870   3.056   1.952   2.624
 8657SOL    HW226871   3.118   1.974   2.773
 8658SOL     OW26872   5.945   4.029   0.734
 8658SOL    HW126873   5.891   4.055   0.654
 8658SOL    HW226874   5.937   3.930   0.749
 8659SOL     OW26875   3.132   6.682   3.246
 8659SOL    HW126876   3.216   6.634   3.219
 8659SOL    HW226877   3.156   6.775   3.277
 8660SOL     OW26878   6.867   4.494   0.878
 8660SOL    HW126879   6.813   4.435   0.938
 8660SOL    HW226880   6.867   4.587   0.914
 8661SOL     OW26881   6.045   2.797   0.970
 8661SOL    HW126882   5.962   2.850   0.953
 8661SOL    HW226883   6.076   2.755   0.884
 8662SOL     OW26884   1.643   2.615   2.230
 8662SOL    HW126885   1.660   2.600   2.133
 8662SOL    HW226886   1.666   2.709   2.254
 8663SOL     OW26887   2.964   5.858   1.592
 8663SOL    HW126888   3.038   5.804   1.633
 8663SOL    HW226889   2.918   5.804   1.522
 8664SOL     OW26890   3.124   5.993   4.485
 8664SOL    HW126891   3.069   6.062   4.532
 8664SOL    HW226892   3.194   6.039   4.429
 8665SOL     OW26893   0.561   3.013   6.062
 8665SOL    HW126894   0.472   3.022   6.016
 8665SOL    HW226895   0.572   3.086   6.129
 8666SOL     OW26896   4.077   6.977   2.533
 8666SOL    HW126897   3.990   7.006   2.572
 8666SOL    HW226898   4.144   6.964   2.606
 8667SOL     OW26899   4.586   2.120   1.737
 8667SOL    HW126900   4.608   2.212   1.704
 8667SOL    HW226901   4.565   2.061   1.660
 8668SOL     OW26902   3.399   1.891   3.442
 8668SOL    HW126903   3.301   1.878   3.425
 8668SOL    HW226904   3.451   1.842   3.374
 8669SOL     OW26905   0.031   5.941   6.111
 8669SOL    HW126906   6.997   5.976   6.188
 8669SOL    HW226907   0.089   6.014   6.074
 8670SOL     OW26908   6.921   4.736   4.964
 8670SOL    HW126909   6.869   4.655   4.988
 8670SOL    HW226910   7.012   4.731   5.005
 8671SOL     OW26911   6.983   3.703   3.254
 8671SOL    HW126912   6.976   3.653   3.167
 8671SOL    HW226913   6.896   3.750   3.272
 8672SOL     OW26914   6.488   1.213   2.116
 8672SOL    HW126915   6.472   1.177   2.208
 8672SOL    HW226916   6.436   1.160   2.050
 8673SOL     OW26917   0.182   0.860   2.082
 8673SOL    HW126918   0.236   0.812   2.013
 8673SOL    HW226919   0.087   0.865   2.052
 8674SOL     OW26920   0.509   2.532   4.164
 8674SOL    HW126921   0.458   2.487   4.237
 8674SOL    HW226922   0.459   2.524   4.078
 8675SOL     OW26923   5.667   2.350   4.969
 8675SOL    HW126924   5.568   2.343   4.955
 8675SOL    HW226925   5.709   2.260   4.953
 8676SOL     OW26926   5.122   2.723   1.316
 8676SOL    HW126927   5.170   2.638   1.295
 8676SOL    HW226928   5.146   2.752   1.409
 8677SOL     OW26929   3.098   1.444   6.858
 8677SOL    HW126930   3.003   1.411   6.864
 8677SOL    HW226931   3.105   1.513   6.786
 8678SOL     OW26932   2.466   1.934   0.274
 8678SOL    HW126933   2.412   1.981   0.204
 8678SOL    HW226934   2.413   1.857   0.311
 8679SOL     OW26935   1.979   2.087   6.568
 8679SOL    HW126936   1.899   2.084   6.508
 8679SOL    HW226937   2.062   2.083   6.512
 8680SOL     OW26938   6.934   6.996   1.160
 8680SOL    HW126939   6.841   6.968   1.184
 8680SOL    HW226940   6.950   0.071   1.190
 8681SOL     OW26941   5.528   5.746   1.023
 8681SOL    HW126942   5.596   5.676   1.004
 8681SOL    HW226943   5.488   5.730   1.113
 8682SOL     OW26944   1.723   2.104   1.752
 8682SOL    HW126945   1.632   2.071   1.779
 8682SOL    HW226946   1.741   2.191   1.798
 8683SOL     OW26947   2.342   5.068   4.300
 8683SOL    HW126948   2.417   5.016   4.258
 8683SOL    HW226949   2.315   5.141   4.237
 8684SOL     OW26950   2.257   4.352   3.810
 8684SOL    HW126951   2.163   4.350   3.777
 8684SOL    HW226952   2.308   4.424   3.762
 8685SOL     OW26953   4.457   3.247   5.430
 8685SOL    HW126954   4.375   3.290   5.468
 8685SOL    HW226955   4.437   3.152   5.407
 8686SOL     OW26956   0.631   4.999   2.257
 8686SOL    HW126957   0.569   4.926   2.285
 8686SOL    HW226958   0.581   5.086   2.252
 8687SOL     OW26959   5.721   3.311   5.508
 8687SOL    HW126960   5.642   3.311   5.446
 8687SOL    HW226961   5.775   3.394   5.493
 8688SOL     OW26962   1.348   3.140   4.366
 8688SOL    HW126963   1.342   3.204   4.290
 8688SOL    HW226964   1.428   3.081   4.353
 8689SOL     OW26965   4.922   3.746   1.179
 8689SOL    HW126966   4.971   3.663   1.205
 8689SOL    HW226967   4.987   3.821   1.166
 8690SOL     OW26968   1.085   2.580   2.364
 8690SOL    HW126969   1.132   2.621   2.286
 8690SOL    HW226970   1.142   2.589   2.446
 8691SOL     OW26971   3.805   1.262   0.098
 8691SOL    HW126972   3.830   1.235   0.005
 8691SOL    HW226973   3.865   1.216   0.163
 8692SOL     OW26974   5.458   2.210   4.681
 8692SOL    HW126975   5.406   2.128   4.658
 8692SOL    HW226976   5.410   2.262   4.751
 8693SOL     OW26977   0.903   0.376   5.003
 8693SOL    HW126978   0.911   0.324   5.088
 8693SOL    HW226979   0.963   0.337   4.933
 8694SOL     OW26980   3.472   3.680   6.369
 8694SOL    HW126981   3.424   3.722   6.291
 8694SOL    HW226982   3.527   3.750   6.415
 8695SOL     OW26983   3.868   4.310   0.978
 8695SOL    HW126984   3.940   4.249   0.945
 8695SOL    HW226985   3.797   4.256   1.022
 8696SOL     OW26986   2.412   4.063   6.493
 8696SOL    HW126987   2.499   4.014   6.487
 8696SOL    HW226988   2.430   4.161   6.502
 8697SOL     OW26989   0.908   3.062   4.425
 8697SOL    HW126990   0.996   3.047   4.470
 8697SOL    HW226991   0.885   2.982   4.370
 8698SOL     OW26992   5.421   4.767   6.720
 8698SOL    HW126993   5.503   4.812   6.755
 8698SOL    HW226994   5.379   4.824   6.649
 8699SOL     OW26995   2.251   2.218   1.588
 8699SOL    HW126996   2.207   2.166   1.661
 8699SOL    HW226997   2.318   2.281   1.628
 8700SOL     OW26998   0.455   2.709   4.668
 8700SOL    HW126999   0.478   2.777   4.738
 8700SOL    HW227000   0.521   2.716   4.593
 8701SOL     OW27001   2.765   3.116   0.335
 8701SOL    HW127002   2.838   3.061   0.294
 8701SOL    HW227003   2.694   3.056   0.371
 8702SOL     OW27004   5.311   4.474   0.743
 8702SOL    HW127005   5.271   4.433   0.661
 8702SOL    HW227006   5.373   4.548   0.716
 8703SOL     OW27007   2.425   5.381   0.883
 8703SOL    HW127008   2.477   5.464   0.862
 8703SOL    HW227009   2.331   5.392   0.851
 8704SOL     OW27010   6.664   1.499   3.848
 8704SOL    HW127011   6.760   1.521   3.835
 8704SOL    HW227012   6.619   1.575   3.896
 8705SOL     OW27013   3.508   2.229   0.418
 8705SOL    HW127014   3.434   2.285   0.456
 8705SOL    HW227015   3.575   2.289   0.375
 8706SOL     OW27016   5.045   2.782   5.128
 8706SOL    HW127017   4.953   2.795   5.091
 8706SOL    HW227018   5.065   2.685   5.134
 8707SOL     OW27019   1.949   0.693   3.615
 8707SOL    HW127020   1.957   0.696   3.515
 8707SOL    HW227021   1.857   0.721   3.642
 8708SOL     OW27022   5.474   2.177   0.578
 8708SOL    HW127023   5.393   2.211   0.626
 8708SOL    HW227024   5.446   2.139   0.490
 8709SOL     OW27025   6.157   5.792   4.209
 8709SOL    HW127026   6.224   5.815   4.279
 8709SOL    HW227027   6.195   5.810   4.118
 8710SOL     OW27028   2.466   2.574   3.562
 8710SOL    HW127029   2.499   2.514   3.489
 8710SOL    HW227030   2.530   2.569   3.640
 8711SOL     OW27031   1.100   2.301   2.283
 8711SOL    HW127032   1.014   2.279   2.237
 8711SOL    HW227033   1.108   2.400   2.295
 8712SOL     OW27034   1.154   4.008   4.072
 8712SOL    HW127035   1.170   4.068   3.993
 8712SOL    HW227036   1.145   4.064   4.155
 8713SOL     OW27037   0.607   4.667   4.384
 8713SOL    HW127038   0.599   4.712   4.473
 8713SOL    HW227039   0.523   4.615   4.366
 8714SOL     OW27040   1.312   3.797   6.486
 8714SOL    HW127041   1.287   3.886   6.526
 8714SOL    HW227042   1.249   3.727   6.518
 8715SOL     OW27043   2.178   4.865   1.121
 8715SOL    HW127044   2.180   4.806   1.201
 8715SOL    HW227045   2.128   4.949   1.143
 8716SOL     OW27046   4.989   6.761   2.993
 8716SOL    HW127047   5.011   6.755   2.896
 8716SOL    HW227048   5.020   6.678   3.040
 8717SOL     OW27049   4.376   1.894   6.848
 8717SOL    HW127050   4.316   1.960   6.894
 8717SOL    HW227051   4.382   1.917   6.751
 8718SOL     OW27052   2.433   5.659   5.886
 8718SOL    HW127053   2.360   5.660   5.954
 8718SOL    HW227054   2.398   5.691   5.798
 8719SOL     OW27055   3.108   2.027   4.652
 8719SOL    HW127056   3.069   2.096   4.713
 8719SOL    HW227057   3.034   1.986   4.598
 8720SOL     OW27058   0.135   6.927   5.099
 8720SOL    HW127059   0.082   7.000   5.141
 8720SOL    HW227060   0.221   6.915   5.148
 8721SOL     OW27061   0.574   0.619   1.791
 8721SOL    HW127062   0.568   0.520   1.774
 8721SOL    HW227063   0.624   0.663   1.717
 8722SOL     OW27064   3.731   1.013   0.241
 8722SOL    HW127065   3.708   0.985   0.334
 8722SOL    HW227066   3.826   1.045   0.239
 8723SOL     OW27067   3.337   6.359   3.006
 8723SOL    HW127068   3.334   6.446   2.958
 8723SOL    HW227069   3.253   6.308   2.987
 8724SOL     OW27070   5.762   0.105   5.297
 8724SOL    HW127071   5.663   0.119   5.292
 8724SOL    HW227072   5.795   0.135   5.387
 8725SOL     OW27073   6.932   0.944   2.491
 8725SOL    HW127074   6.839   0.975   2.515
 8725SOL    HW227075   6.932   0.845   2.480
 8726SOL     OW27076   0.008   0.236   1.001
 8726SOL    HW127077   6.998   0.179   0.924
 8726SOL    HW227078   0.102   0.268   0.985
 8727SOL     OW27079   4.952   5.169   5.938
 8727SOL    HW127080   4.904   5.102   5.994
 8727SOL    HW227081   5.029   5.125   5.892
 8728SOL     OW27082   4.877   6.786   3.922
 8728SOL    HW127083   4.896   6.700   3.969
 8728SOL    HW227084   4.791   6.825   3.956
 8729SOL     OW27085   5.684   5.747   5.946
 8729SOL    HW127086   5.665   5.840   5.976
 8729SOL    HW227087   5.697   5.688   6.026
 8730SOL     OW27088   3.930   4.631   1.683
 8730SOL    HW127089   3.909   4.533   1.686
 8730SOL    HW227090   3.956   4.662   1.774
 8731SOL     OW27091   0.156   2.839   4.197
 8731SOL    HW127092   0.168   2.764   4.132
 8731SOL    HW227093   0.215   2.824   4.276
 8732SOL     OW27094   5.223   6.678   5.941
 8732SOL    HW127095   5.229   6.582   5.917
 8732SOL    HW227096   5.188   6.687   6.034
 8733SOL     OW27097   5.652   3.938   1.970
 8733SOL    HW127098   5.605   3.936   1.882
 8733SOL    HW227099   5.713   4.017   1.973
 8734SOL     OW27100   0.079   6.396   1.563
 8734SOL    HW127101   0.018   6.321   1.538
 8734SOL    HW227102   0.120   6.435   1.480
 8735SOL     OW27103   1.516   1.909   0.166
 8735SOL    HW127104   1.540   1.998   0.127
 8735SOL    HW227105   1.598   1.863   0.198
 8736SOL     OW27106   0.354   6.270   3.766
 8736SOL    HW127107   0.350   6.182   3.719
 8736SOL    HW227108   0.295   6.267   3.847
 8737SOL     OW27109   0.693   5.659   6.442
 8737SOL    HW127110   0.677   5.566   6.475
 8737SOL    HW227111   0.655   5.724   6.508
 8738SOL     OW27112   1.566   2.027   2.373
 8738SOL    HW127113   1.498   1.978   2.318
 8738SOL    HW227114   1.636   2.065   2.313
 8739SOL     OW27115   4.485   5.169   3.633
 8739SOL    HW127116   4.519   5.262   3.644
 8739SOL    HW227117   4.430   5.144   3.713
 8740SOL     OW27118   1.854   0.861   3.342
 8740SOL    HW127119   1.904   0.779   3.316
 8740SOL    HW227120   1.916   0.925   3.387
 8741SOL     OW27121   1.837   2.731   3.046
 8741SOL    HW127122   1.849   2.686   3.134
 8741SOL    HW227123   1.856   2.829   3.056
 8742SOL     OW27124   1.605   3.168   0.400
 8742SOL    HW127125   1.582   3.207   0.489
 8742SOL    HW227126   1.578   3.071   0.399
 8743SOL     OW27127   2.179   2.959   0.435
 8743SOL    HW127128   2.248   3.030   0.422
 8743SOL    HW227129   2.088   3.001   0.438
 8744SOL     OW27130   3.136   3.852   5.707
 8744SOL    HW127131   3.049   3.871   5.661
 8744SOL    HW227132   3.119   3.795   5.787
 8745SOL     OW27133   5.344   0.951   6.812
 8745SOL    HW127134   5.400   0.896   6.750
 8745SOL    HW227135   5.391   1.037   6.833
 8746SOL     OW27136   4.237   4.842   4.269
 8746SOL    HW127137   4.311   4.822   4.333
 8746SOL    HW227138   4.150   4.846   4.319
 8747SOL     OW27139   6.958   6.658   1.336
 8747SOL    HW127140   6.925   6.572   1.377
 8747SOL    HW227141   6.893   6.731   1.358
 8748SOL     OW27142   5.748   1.926   5.004
 8748SOL    HW127143   5.767   1.869   4.923
 8748SOL    HW227144   5.785   1.881   5.085
 8749SOL     OW27145   1.988   1.663   4.274
 8749SOL    HW127146   2.062   1.726   4.250
 8749SOL    HW227147   2.026   1.580   4.314
 8750SOL     OW27148   4.052   3.699   2.217
 8750SOL    HW127149   4.093   3.621   2.171
 8750SOL    HW227150   4.054   3.684   2.316
 8751SOL     OW27151   1.755   6.503   6.767
 8751SOL    HW127152   1.746   6.527   6.671
 8751SOL    HW227153   1.727   6.408   6.781
 8752SOL     OW27154   1.577   2.409   6.576
 8752SOL    HW127155   1.530   2.403   6.664
 8752SOL    HW227156   1.651   2.475   6.582
 8753SOL     OW27157   2.338   1.928   0.927
 8753SOL    HW127158   2.275   1.958   0.998
 8753SOL    HW227159   2.377   2.007   0.881
 8754SOL     OW27160   1.682   6.245   6.836
 8754SOL    HW127161   1.588   6.252   6.803
 8754SOL    HW227162   1.683   6.251   6.936
 8755SOL     OW27163   6.803   1.396   1.967
 8755SOL    HW127164   6.757   1.331   1.907
 8755SOL    HW227165   6.901   1.397   1.946
 8756SOL     OW27166   1.796   1.272   2.452
 8756SOL    HW127167   1.857   1.203   2.414
 8756SOL    HW227168   1.703   1.236   2.457
 8757SOL     OW27169   5.357   5.584   5.632
 8757SOL    HW127170   5.310   5.528   5.701
 8757SOL    HW227171   5.289   5.625   5.571
 8758SOL     OW27172   3.663   4.907   6.095
 8758SOL    HW127173   3.733   4.969   6.060
 8758SOL    HW227174   3.628   4.942   6.182
 8759SOL     OW27175   6.489   0.886   1.429
 8759SOL    HW127176   6.550   0.934   1.366
 8759SOL    HW227177   6.452   0.805   1.384
 8760SOL     OW27178   1.472   2.279   4.328
 8760SOL    HW127179   1.467   2.302   4.231
 8760SOL    HW227180   1.470   2.364   4.382
 8761SOL     OW27181   5.204   2.615   4.192
 8761SOL    HW127182   5.260   2.693   4.163
 8761SOL    HW227183   5.133   2.646   4.256
 8762SOL     OW27184   3.902   6.198   2.187
 8762SOL    HW127185   3.994   6.231   2.165
 8762SOL    HW227186   3.841   6.276   2.200
 8763SOL     OW27187   0.259   1.922   5.377
 8763SOL    HW127188   0.262   1.864   5.459
 8763SOL    HW227189   0.350   1.960   5.360
 8764SOL     OW27190   1.919   5.681   5.971
 8764SOL    HW127191   1.859   5.729   6.035
 8764SOL    HW227192   1.890   5.585   5.964
 8765SOL     OW27193   4.556   0.497   3.496
 8765SOL    HW127194   4.490   0.527   3.427
 8765SOL    HW227195   4.564   0.397   3.493
 8766SOL     OW27196   6.614   0.696   4.913
 8766SOL    HW127197   6.611   0.789   4.951
 8766SOL    HW227198   6.622   0.702   4.814
 8767SOL     OW27199   2.044   1.124   5.057
 8767SOL    HW127200   2.002   1.142   5.146
 8767SOL    HW227201   2.028   1.029   5.031
 8768SOL     OW27202   0.212   2.303   0.850
 8768SOL    HW127203   0.274   2.370   0.891
 8768SOL    HW227204   0.123   2.307   0.896
 8769SOL     OW27205   6.971   0.101   0.259
 8769SOL    HW127206   0.031   0.143   0.304
 8769SOL    HW227207   7.001   0.060   0.173
 8770SOL     OW27208   4.392   1.765   0.745
 8770SOL    HW127209   4.469   1.714   0.782
 8770SOL    HW227210   4.425   1.832   0.678
 8771SOL     OW27211   1.182   2.286   6.803
 8771SOL    HW127212   1.248   2.357   6.829
 8771SOL    HW227213   1.156   2.234   6.884
 8772SOL     OW27214   0.044   6.905   3.669
 8772SOL    HW127215   0.059   6.972   3.741
 8772SOL    HW227216   0.128   6.855   3.652
 8773SOL     OW27217   6.316   1.714   4.377
 8773SOL    HW127218   6.220   1.698   4.401
 8773SOL    HW227219   6.334   1.812   4.377
 8774SOL     OW27220   0.734   2.220   6.576
 8774SOL    HW127221   0.758   2.316   6.557
 8774SOL    HW227222   0.695   2.180   6.493
 8775SOL     OW27223   4.393   1.964   2.452
 8775SOL    HW127224   4.370   2.056   2.420
 8775SOL    HW227225   4.335   1.897   2.404
 8776SOL     OW27226   6.044   3.167   1.027
 8776SOL    HW127227   6.008   3.227   1.099
 8776SOL    HW227228   5.974   3.100   1.002
 8777SOL     OW27229   6.667   2.220   3.956
 8777SOL    HW127230   6.666   2.187   3.861
 8777SOL    HW227231   6.647   2.144   4.018
 8778SOL     OW27232   1.674   4.719   5.717
 8778SOL    HW127233   1.652   4.652   5.646
 8778SOL    HW227234   1.606   4.792   5.715
 8779SOL     OW27235   3.471   6.578   3.704
 8779SOL    HW127236   3.421   6.542   3.782
 8779SOL    HW227237   3.456   6.520   3.624
 8780SOL     OW27238   1.268   3.326   4.187
 8780SOL    HW127239   1.293   3.389   4.113
 8780SOL    HW227240   1.172   3.340   4.211
 8781SOL     OW27241   3.981   0.870   2.239
 8781SOL    HW127242   3.928   0.796   2.279
 8781SOL    HW227243   3.952   0.957   2.279
 8782SOL     OW27244   0.606   2.752   0.112
 8782SOL    HW127245   0.530   2.740   0.049
 8782SOL    HW227246   0.625   2.666   0.159
 8783SOL     OW27247   3.416   4.218   6.677
 8783SOL    HW127248   3.515   4.207   6.687
 8783SOL    HW227249   3.378   4.140   6.628
 8784SOL     OW27250   4.310   1.996   5.890
 8784SOL    HW127251   4.259   1.917   5.922
 8784SOL    HW227252   4.391   2.009   5.947
 8785SOL     OW27253   6.499   0.087   5.960
 8785SOL    HW127254   6.477   0.169   6.013
 8785SOL    HW227255   6.598   0.077   5.954
 8786SOL     OW27256   4.891   2.222   2.859
 8786SOL    HW127257   4.831   2.210   2.779
 8786SOL    HW227258   4.897   2.319   2.881
 8787SOL     OW27259   2.963   5.630   2.410
 8787SOL    HW127260   3.036   5.651   2.476
 8787SOL    HW227261   2.988   5.666   2.320
 8788SOL     OW27262   6.734   0.150   3.591
 8788SOL    HW127263   6.727   0.236   3.641
 8788SOL    HW227264   6.643   0.115   3.571
 8789SOL     OW27265   2.075   3.745   0.264
 8789SOL    HW127266   2.094   3.787   0.175
 8789SOL    HW227267   2.038   3.815   0.326
 8790SOL     OW27268   5.284   3.179   5.177
 8790SOL    HW127269   5.251   3.223   5.093
 8790SOL    HW227270   5.344   3.103   5.153
 8791SOL     OW27271   3.998   6.781   5.271
 8791SOL    HW127272   4.004   6.770   5.370
 8791SOL    HW227273   4.041   6.868   5.245
 8792SOL     OW27274   5.286   4.349   0.971
 8792SOL    HW127275   5.311   4.254   0.956
 8792SOL    HW227276   5.289   4.399   0.884
 8793SOL     OW27277   6.279   0.787   4.986
 8793SOL    HW127278   6.291   0.773   4.887
 8793SOL    HW227279   6.308   0.879   5.010
 8794SOL     OW27280   1.207   3.245   2.996
 8794SOL    HW127281   1.249   3.323   2.949
 8794SOL    HW227282   1.129   3.212   2.942
 8795SOL     OW27283   2.015   0.464   6.404
 8795SOL    HW127284   1.932   0.518   6.390
 8795SOL    HW227285   2.038   0.416   6.319
 8796SOL     OW27286   6.103   4.898   3.701
 8796SOL    HW127287   6.150   4.844   3.632
 8796SOL    HW227288   6.014   4.856   3.722
 8797SOL     OW27289   5.870   5.423   6.020
 8797SOL    HW127290   5.868   5.338   6.073
 8797SOL    HW227291   5.795   5.482   6.048
 8798SOL     OW27292   2.338   5.064   7.017
 8798SOL    HW127293   2.368   5.147   0.045
 8798SOL    HW227294   2.265   5.020   0.051
 8799SOL     OW27295   1.053   6.213   2.282
 8799SOL    HW127296   1.037   6.302   2.325
 8799SOL    HW227297   0.973   6.154   2.296
 8800SOL     OW27298   6.775   6.514   4.721
 8800SOL    HW127299   6.865   6.471   4.734
 8800SOL    HW227300   6.739   6.488   4.631
 8801SOL     OW27301   5.601   2.984   6.123
 8801SOL    HW127302   5.613   3.083   6.128
 8801SOL    HW227303   5.690   2.940   6.110
 8802SOL     OW27304   1.112   6.901   6.723
 8802SOL    HW127305   1.209   6.915   6.744
 8802SOL    HW227306   1.103   6.829   6.654
 8803SOL     OW27307   4.778   5.377   5.281
 8803SOL    HW127308   4.695   5.357   5.228
 8803SOL    HW227309   4.806   5.472   5.265
 8804SOL     OW27310   2.337   6.136   1.153
 8804SOL    HW127311   2.344   6.097   1.245
 8804SOL    HW227312   2.422   6.120   1.103
 8805SOL     OW27313   5.275   5.466   1.110
 8805SOL    HW127314   5.231   5.379   1.130
 8805SOL    HW227315   5.312   5.465   1.017
 8806SOL     OW27316   1.767   1.225   2.006
 8806SOL    HW127317   1.785   1.287   1.929
 8806SOL    HW227318   1.784   1.273   2.092
 8807SOL     OW27319   5.153   1.063   1.796
 8807SOL    HW127320   5.239   1.115   1.800
 8807SOL    HW227321   5.097   1.097   1.721
 8808SOL     OW27322   1.852   1.459   1.040
 8808SOL    HW127323   1.899   1.512   1.111
 8808SOL    HW227324   1.756   1.447   1.065
 8809SOL     OW27325   1.358   3.451   2.887
 8809SOL    HW127326   1.401   3.507   2.959
 8809SOL    HW227327   1.371   3.495   2.798
 8810SOL     OW27328   6.407   2.412   3.232
 8810SOL    HW127329   6.400   2.489   3.295
 8810SOL    HW227330   6.334   2.418   3.164
 8811SOL     OW27331   3.489   5.977   2.451
 8811SOL    HW127332   3.462   6.039   2.378
 8811SOL    HW227333   3.538   5.899   2.412
 8812SOL     OW27334   5.831   0.844   0.352
 8812SOL    HW127335   5.854   0.839   0.255
 8812SOL    HW227336   5.740   0.884   0.363
 8813SOL     OW27337   1.637   2.902   1.120
 8813SOL    HW127338   1.644   2.816   1.171
 8813SOL    HW227339   1.561   2.956   1.156
 8814SOL     OW27340   5.580   0.163   4.665
 8814SOL    HW127341   5.578   0.081   4.607
 8814SOL    HW227342   5.581   0.245   4.607
 8815SOL     OW27343   4.732   0.825   1.098
 8815SOL    HW127344   4.708   0.785   1.010
 8815SOL    HW227345   4.651   0.867   1.139
 8816SOL     OW27346   0.551   1.369   2.484
 8816SOL    HW127347   0.577   1.459   2.449
 8816SOL    HW227348   0.457   1.348   2.456
 8817SOL     OW27349   1.013   2.517   4.235
 8817SOL    HW127350   0.943   2.476   4.177
 8817SOL    HW227351   0.973   2.545   4.322
 8818SOL     OW27352   1.258   5.657   6.608
 8818SOL    HW127353   1.233   5.683   6.701
 8818SOL    HW227354   1.342   5.705   6.582
 8819SOL     OW27355   5.977   6.247   6.805
 8819SOL    HW127356   6.003   6.269   6.711
 8819SOL    HW227357   5.892   6.295   6.828
 8820SOL     OW27358   3.670   6.563   5.708
 8820SOL    HW127359   3.763   6.597   5.693
 8820SOL    HW227360   3.617   6.572   5.624
 8821SOL     OW27361   1.707   5.209   5.602
 8821SOL    HW127362   1.689   5.208   5.700
 8821SOL    HW227363   1.806   5.214   5.586
 8822SOL     OW27364   0.157   0.733   5.160
 8822SOL    HW127365   0.131   0.649   5.210
 8822SOL    HW227366   0.074   0.785   5.139
 8823SOL     OW27367   4.505   2.520   3.197
 8823SOL    HW127368   4.538   2.566   3.114
 8823SOL    HW227369   4.544   2.565   3.278
 8824SOL     OW27370   1.134   0.665   3.533
 8824SOL    HW127371   1.163   0.746   3.482
 8824SOL    HW227372   1.051   0.686   3.584
 8825SOL     OW27373   1.232   6.456   0.096
 8825SOL    HW127374   1.314   6.423   0.143
 8825SOL    HW227375   1.208   6.547   0.130
 8826SOL     OW27376   1.044   2.689   6.828
 8826SOL    HW127377   0.958   2.689   6.880
 8826SOL    HW227378   1.041   2.617   6.758
 8827SOL     OW27379   5.385   5.820   4.274
 8827SOL    HW127380   5.405   5.892   4.207
 8827SOL    HW227381   5.295   5.780   4.255
 8828SOL     OW27382   5.116   2.519   5.744
 8828SOL    HW127383   5.065   2.566   5.816
 8828SOL    HW227384   5.110   2.420   5.759
 8829SOL     OW27385   6.144   0.930   3.145
 8829SOL    HW127386   6.111   0.991   3.217
 8829SOL    HW227387   6.123   0.969   3.055
 8830SOL     OW27388   2.355   2.163   3.171
 8830SOL    HW127389   2.429   2.113   3.127
 8830SOL    HW227390   2.332   2.118   3.258
 8831SOL     OW27391   0.796   2.480   2.460
 8831SOL    HW127392   0.762   2.479   2.366
 8831SOL    HW227393   0.887   2.520   2.462
 8832SOL     OW27394   6.420   0.161   5.274
 8832SOL    HW127395   6.459   0.073   5.300
 8832SOL    HW227396   6.488   0.216   5.225
 8833SOL     OW27397   4.820   2.539   1.425
 8833SOL    HW127398   4.896   2.562   1.365
 8833SOL    HW227399   4.850   2.540   1.521
 8834SOL     OW27400   6.201   4.039   5.684
 8834SOL    HW127401   6.167   4.111   5.744
 8834SOL    HW227402   6.126   3.975   5.665
 8835SOL     OW27403   6.580   1.420   5.131
 8835SOL    HW127404   6.582   1.518   5.116
 8835SOL    HW227405   6.493   1.395   5.176
 8836SOL     OW27406   4.351   1.544   0.040
 8836SOL    HW127407   4.327   1.607   0.115
 8836SOL    HW227408   4.303   1.458   0.053
 8837SOL     OW27409   6.014   5.286   0.641
 8837SOL    HW127410   6.083   5.239   0.695
 8837SOL    HW227411   5.929   5.232   0.641
 8838SOL     OW27412   1.018   3.288   1.629
 8838SOL    HW127413   1.089   3.232   1.671
 8838SOL    HW227414   0.963   3.332   1.701
 8839SOL     OW27415   4.631   4.700   1.792
 8839SOL    HW127416   4.645   4.639   1.870
 8839SOL    HW227417   4.549   4.755   1.806
 8840SOL     OW27418   0.243   6.645   1.463
 8840SOL    HW127419   0.146   6.668   1.471
 8840SOL    HW227420   0.275   6.671   1.372
 8841SOL     OW27421   5.026   2.244   0.603
 8841SOL    HW127422   5.048   2.147   0.611
 8841SOL    HW227423   5.033   2.272   0.507
 8842SOL     OW27424   3.291   3.039   3.601
 8842SOL    HW127425   3.322   3.043   3.696
 8842SOL    HW227426   3.276   3.132   3.567
 8843SOL     OW27427   2.480   6.132   5.026
 8843SOL    HW127428   2.503   6.105   5.119
 8843SOL    HW227429   2.496   6.230   5.014
 8844SOL     OW27430   3.993   2.762   5.317
 8844SOL    HW127431   4.038   2.681   5.280
 8844SOL    HW227432   4.051   2.842   5.300
 8845SOL     OW27433   0.350   3.835   2.505
 8845SOL    HW127434   0.332   3.783   2.421
 8845SOL    HW227435   0.448   3.853   2.513
 8846SOL     OW27436   5.696   5.305   4.005
 8846SOL    HW127437   5.670   5.214   4.038
 8846SOL    HW227438   5.750   5.296   3.922
 8847SOL     OW27439   1.032   3.244   3.534
 8847SOL    HW127440   1.110   3.218   3.477
 8847SOL    HW227441   1.064   3.281   3.621
 8848SOL     OW27442   6.057   2.542   1.337
 8848SOL    HW127443   5.988   2.491   1.286
 8848SOL    HW227444   6.023   2.560   1.430
 8849SOL     OW27445   3.613   5.450   4.508
 8849SOL    HW127446   3.645   5.376   4.567
 8849SOL    HW227447   3.515   5.463   4.522
 8850SOL     OW27448   4.814   1.703   1.100
 8850SOL    HW127449   4.823   1.637   1.175
 8850SOL    HW227450   4.760   1.781   1.131
 8851SOL     OW27451   6.595   4.944   3.236
 8851SOL    HW127452   6.619   4.887   3.158
 8851SOL    HW227453   6.623   5.038   3.218
 8852SOL     OW27454   5.767   4.398   4.788
 8852SOL    HW127455   5.842   4.443   4.838
 8852SOL    HW227456   5.680   4.428   4.826
 8853SOL     OW27457   4.509   1.603   4.120
 8853SOL    HW127458   4.557   1.650   4.194
 8853SOL    HW227459   4.561   1.612   4.035
 8854SOL     OW27460   2.781   0.454   6.625
 8854SOL    HW127461   2.745   0.362   6.608
 8854SOL    HW227462   2.709   0.512   6.664
 8855SOL     OW27463   6.820   4.195   6.020
 8855SOL    HW127464   6.826   4.112   6.075
 8855SOL    HW227465   6.840   4.274   6.078
 8856SOL     OW27466   5.203   1.796   5.663
 8856SOL    HW127467   5.238   1.709   5.627
 8856SOL    HW227468   5.279   1.861   5.670
 8857SOL     OW27469   1.552   3.305   4.563
 8857SOL    HW127470   1.497   3.245   4.505
 8857SOL    HW227471   1.496   3.383   4.593
 8858SOL     OW27472   1.503   3.263   5.435
 8858SOL    HW127473   1.580   3.325   5.420
 8858SOL    HW227474   1.437   3.305   5.497
 8859SOL     OW27475   2.828   5.271   4.884
 8859SOL    HW127476   2.830   5.341   4.955
 8859SOL    HW227477   2.914   5.219   4.886
 8860SOL     OW27478   2.270   0.869   1.874
 8860SOL    HW127479   2.312   0.783   1.846
 8860SOL    HW227480   2.341   0.939   1.885
 8861SOL     OW27481   2.345   1.006   7.012
 8861SOL    HW127482   2.383   0.914   7.006
 8861SOL    HW227483   2.284   1.013   0.072
 8862SOL     OW27484   0.244   3.775   3.859
 8862SOL    HW127485   0.314   3.718   3.814
 8862SOL    HW227486   0.161   3.721   3.871
 8863SOL     OW27487   1.577   5.671   5.294
 8863SOL    HW127488   1.650   5.736   5.275
 8863SOL    HW227489   1.497   5.720   5.329
 8864SOL     OW27490   2.081   4.158   5.125
 8864SOL    HW127491   2.056   4.137   5.219
 8864SOL    HW227492   2.164   4.107   5.100
 8865SOL     OW27493   3.334   1.916   5.990
 8865SOL    HW127494   3.375   1.930   5.900
 8865SOL    HW227495   3.289   2.000   6.019
 8866SOL     OW27496   5.657   0.262   5.519
 8866SOL    HW127497   5.666   0.340   5.580
 8866SOL    HW227498   5.609   0.290   5.436
 8867SOL     OW27499   5.428   0.741   2.625
 8867SOL    HW127500   5.423   0.733   2.725
 8867SOL    HW227501   5.354   0.799   2.592
 8868SOL     OW27502   6.231   2.848   0.321
 8868SOL    HW127503   6.317   2.855   0.370
 8868SOL    HW227504   6.233   2.768   0.260
 8869SOL     OW27505   1.579   1.739   4.025
 8869SOL    HW127506   1.620   1.650   4.043
 8869SOL    HW227507   1.615   1.777   3.940
 8870SOL     OW27508   3.613   6.445   1.501
 8870SOL    HW127509   3.696   6.490   1.535
 8870SOL    HW227510   3.625   6.346   1.504
 8871SOL     OW27511   0.920   2.531   3.912
 8871SOL    HW127512   0.928   2.593   3.990
 8871SOL    HW227513   0.974   2.567   3.836
 8872SOL     OW27514   1.241   1.249   2.741
 8872SOL    HW127515   1.247   1.214   2.648
 8872SOL    HW227516   1.162   1.309   2.750
 8873SOL     OW27517   0.258   5.708   4.738
 8873SOL    HW127518   0.173   5.756   4.758
 8873SOL    HW227519   0.285   5.654   4.818
 8874SOL     OW27520   0.928   0.990   5.721
 8874SOL    HW127521   1.007   0.989   5.660
 8874SOL    HW227522   0.941   0.922   5.794
 8875SOL     OW27523   1.171   1.002   4.235
 8875SOL    HW127524   1.207   1.060   4.308
 8875SOL    HW227525   1.198   1.040   4.146
 8876SOL     OW27526   3.125   1.245   4.497
 8876SOL    HW127527   3.034   1.268   4.531
 8876SOL    HW227528   3.121   1.156   4.450
 8877SOL     OW27529   2.526   6.426   5.893
 8877SOL    HW127530   2.540   6.327   5.898
 8877SOL    HW227531   2.429   6.445   5.878
 8878SOL     OW27532   5.784   4.405   5.750
 8878SOL    HW127533   5.735   4.492   5.761
 8878SOL    HW227534   5.734   4.346   5.688
 8879SOL     OW27535   6.249   5.641   4.509
 8879SOL    HW127536   6.208   5.683   4.590
 8879SOL    HW227537   6.314   5.705   4.468
 8880SOL     OW27538   1.126   0.047   4.923
 8880SOL    HW127539   1.078   0.073   4.839
 8880SOL    HW227540   1.192   0.119   4.947
 8881SOL     OW27541   6.348   1.619   2.193
 8881SOL    HW127542   6.353   1.565   2.109
 8881SOL    HW227543   6.420   1.589   2.256
 8882SOL     OW27544   5.312   1.598   0.204
 8882SOL    HW127545   5.380   1.665   0.234
 8882SOL    HW227546   5.245   1.584   0.277
 8883SOL     OW27547   5.941   1.373   5.441
 8883SOL    HW127548   5.896   1.411   5.522
 8883SOL    HW227549   5.883   1.302   5.401
 8884SOL     OW27550   0.555   1.614   6.491
 8884SOL    HW127551   0.548   1.702   6.444
 8884SOL    HW227552   0.470   1.562   6.478
 8885SOL     OW27553   5.805   3.938   1.593
 8885SOL    HW127554   5.823   4.033   1.619
 8885SOL    HW227555   5.856   3.876   1.653
 8886SOL     OW27556   3.144   6.112   6.110
 8886SOL    HW127557   3.171   6.190   6.053
 8886SOL    HW227558   3.182   6.124   6.202
 8887SOL     OW27559   1.500   1.190   0.579
 8887SOL    HW127560   1.494   1.114   0.514
 8887SOL    HW227561   1.560   1.164   0.655
 8888SOL     OW27562   1.953   2.274   3.036
 8888SOL    HW127563   1.895   2.355   3.043
 8888SOL    HW227564   1.898   2.195   3.007
 8889SOL     OW27565   3.277   0.944   5.676
 8889SOL    HW127566   3.224   0.962   5.593
 8889SOL    HW227567   3.272   0.847   5.698
 8890SOL     OW27568   6.162   5.636   3.518
 8890SOL    HW127569   6.087   5.620   3.453
 8890SOL    HW227570   6.145   5.722   3.566
 8891SOL     OW27571   3.570   2.021   6.194
 8891SOL    HW127572   3.517   2.013   6.278
 8891SOL    HW227573   3.511   2.000   6.116
 8892SOL     OW27574   0.696   0.614   3.268
 8892SOL    HW127575   0.794   0.617   3.252
 8892SOL    HW227576   0.669   0.691   3.326
 8893SOL     OW27577   0.235   0.664   0.779
 8893SOL    HW127578   0.191   0.581   0.744
 8893SOL    HW227579   0.327   0.672   0.741
 8894SOL     OW27580   5.154   2.634   5.489
 8894SOL    HW127581   5.150   2.565   5.417
 8894SOL    HW227582   5.147   2.590   5.579
 8895SOL     OW27583   1.259   1.334   3.509
 8895SOL    HW127584   1.163   1.307   3.500
 8895SOL    HW227585   1.277   1.357   3.605
 8896SOL     OW27586   1.416   3.748   4.411
 8896SOL    HW127587   1.456   3.778   4.324
 8896SOL    HW227588   1.316   3.747   4.403
 8897SOL     OW27589   1.075   2.276   1.751
 8897SOL    HW127590   1.037   2.325   1.673
 8897SOL    HW227591   1.034   2.308   1.835
 8898SOL     OW27592   0.622   2.368   5.370
 8898SOL    HW127593   0.568   2.343   5.290
 8898SOL    HW227594   0.695   2.430   5.343
 8899SOL     OW27595   4.061   6.717   3.487
 8899SOL    HW127596   4.147   6.760   3.514
 8899SOL    HW227597   4.061   6.700   3.389
 8900SOL     OW27598   6.600   1.686   3.574
 8900SOL    HW127599   6.527   1.626   3.607
 8900SOL    HW227600   6.685   1.665   3.621
 8901SOL     OW27601   0.785   6.969   2.314
 8901SOL    HW127602   0.841   6.923   2.244
 8901SOL    HW227603   0.715   6.905   2.346
 8902SOL     OW27604   4.139   6.551   5.776
 8902SOL    HW127605   4.111   6.527   5.683
 8902SOL    HW227606   4.074   6.513   5.842
 8903SOL     OW27607   6.656   1.229   3.119
 8903SOL    HW127608   6.558   1.239   3.105
 8903SOL    HW227609   6.685   1.289   3.194
 8904SOL     OW27610   2.222   4.186   4.194
 8904SOL    HW127611   2.219   4.130   4.112
 8904SOL    HW227612   2.315   4.223   4.206
 8905SOL     OW27613   2.010   4.436   4.793
 8905SOL    HW127614   2.104   4.457   4.766
 8905SOL    HW227615   2.010   4.364   4.863
 8906SOL     OW27616   1.790   5.042   4.141
 8906SOL    HW127617   1.839   4.968   4.187
 8906SOL    HW227618   1.692   5.020   4.139
 8907SOL     OW27619   3.861   3.016   6.602
 8907SOL    HW127620   3.799   3.080   6.556
 8907SOL    HW227621   3.867   3.040   6.699
 8908SOL     OW27622   0.712   3.475   2.964
 8908SOL    HW127623   0.694   3.566   2.928
 8908SOL    HW227624   0.746   3.416   2.890
 8909SOL     OW27625   3.563   6.700   4.844
 8909SOL    HW127626   3.535   6.654   4.760
 8909SOL    HW227627   3.509   6.783   4.857
 8910SOL     OW27628   4.535   2.736   6.823
 8910SOL    HW127629   4.626   2.700   6.801
 8910SOL    HW227630   4.478   2.735   6.741
 8911SOL     OW27631   5.421   3.599   4.408
 8911SOL    HW127632   5.361   3.631   4.481
 8911SOL    HW227633   5.442   3.675   4.347
 8912SOL     OW27634   3.853   0.696   0.530
 8912SOL    HW127635   3.868   0.681   0.627
 8912SOL    HW227636   3.814   0.614   0.489
 8913SOL     OW27637   4.232   3.900   1.303
 8913SOL    HW127638   4.311   3.899   1.364
 8913SOL    HW227639   4.263   3.897   1.208
 8914SOL     OW27640   5.503   3.977   3.328
 8914SOL    HW127641   5.471   4.033   3.251
 8914SOL    HW227642   5.565   4.031   3.385
 8915SOL     OW27643   1.491   5.490   1.836
 8915SOL    HW127644   1.426   5.534   1.898
 8915SOL    HW227645   1.582   5.491   1.877
 8916SOL     OW27646   5.525   2.892   1.298
 8916SOL    HW127647   5.532   2.818   1.364
 8916SOL    HW227648   5.609   2.896   1.243
 8917SOL     OW27649   5.761   4.045   6.231
 8917SOL    HW127650   5.698   4.052   6.153
 8917SOL    HW227651   5.852   4.076   6.204
 8918SOL     OW27652   5.309   4.338   5.672
 8918SOL    HW127653   5.271   4.411   5.730
 8918SOL    HW227654   5.314   4.370   5.577
 8919SOL     OW27655   2.057   3.067   1.120
 8919SOL    HW127656   2.078   2.989   1.061
 8919SOL    HW227657   1.961   3.092   1.110
 8920SOL     OW27658   5.929   5.815   5.791
 8920SOL    HW127659   5.951   5.720   5.771
 8920SOL    HW227660   5.847   5.819   5.848
 8921SOL     OW27661   0.465   5.583   3.296
 8921SOL    HW127662   0.545   5.558   3.351
 8921SOL    HW227663   0.479   5.675   3.258
 8922SOL     OW27664   0.649   2.502   0.207
 8922SOL    HW127665   0.735   2.454   0.224
 8922SOL    HW227666   0.573   2.445   0.235
 8923SOL     OW27667   2.014   5.368   3.634
 8923SOL    HW127668   2.052   5.299   3.697
 8923SOL    HW227669   1.952   5.428   3.685
 8924SOL     OW27670   2.047   6.421   4.517
 8924SOL    HW127671   1.988   6.432   4.598
 8924SOL    HW227672   2.080   6.327   4.512
 8925SOL     OW27673   4.482   5.539   1.013
 8925SOL    HW127674   4.504   5.624   1.061
 8925SOL    HW227675   4.387   5.513   1.032
 8926SOL     OW27676   5.070   6.821   0.446
 8926SOL    HW127677   4.976   6.792   0.433
 8926SOL    HW227678   5.072   6.918   0.471
 8927SOL     OW27679   3.088   1.907   5.035
 8927SOL    HW127680   3.005   1.933   4.985
 8927SOL    HW227681   3.164   1.895   4.971
 8928SOL     OW27682   2.171   0.159   5.202
 8928SOL    HW127683   2.167   0.197   5.110
 8928SOL    HW227684   2.181   0.234   5.268
 8929SOL     OW27685   4.747   4.620   3.145
 8929SOL    HW127686   4.807   4.582   3.216
 8929SOL    HW227687   4.790   4.700   3.104
 8930SOL     OW27688   0.523   5.671   5.299
 8930SOL    HW127689   0.591   5.657   5.371
 8930SOL    HW227690   0.485   5.583   5.272
 8931SOL     OW27691   5.386   0.601   2.193
 8931SOL    HW127692   5.355   0.692   2.167
 8931SOL    HW227693   5.486   0.596   2.184
 8932SOL     OW27694   3.867   0.911   6.609
 8932SOL    HW127695   3.938   0.911   6.539
 8932SOL    HW227696   3.822   0.822   6.611
 8933SOL     OW27697   1.964   0.315   5.491
 8933SOL    HW127698   1.870   0.332   5.520
 8933SOL    HW227699   1.964   0.255   5.411
 8934SOL     OW27700   2.886   6.316   3.670
 8934SOL    HW127701   2.902   6.240   3.733
 8934SOL    HW227702   2.882   6.282   3.577
 8935SOL     OW27703   5.554   2.125   2.203
 8935SOL    HW127704   5.546   2.143   2.105
 8935SOL    HW227705   5.465   2.136   2.246
 8936SOL     OW27706   0.829   4.004   2.577
 8936SOL    HW127707   0.827   4.022   2.675
 8936SOL    HW227708   0.906   3.943   2.556
 8937SOL     OW27709   4.044   5.829   5.344
 8937SOL    HW127710   4.062   5.907   5.285
 8937SOL    HW227711   3.952   5.837   5.384
 8938SOL     OW27712   4.856   6.272   2.445
 8938SOL    HW127713   4.913   6.316   2.374
 8938SOL    HW227714   4.906   6.272   2.532
 8939SOL     OW27715   6.865   2.773   5.554
 8939SOL    HW127716   6.906   2.811   5.637
 8939SOL    HW227717   6.768   2.752   5.571
 8940SOL     OW27718   6.390   3.617   2.601
 8940SOL    HW127719   6.347   3.607   2.691
 8940SOL    HW227720   6.345   3.555   2.536
 8941SOL     OW27721   5.714   2.365   3.401
 8941SOL    HW127722   5.804   2.406   3.389
 8941SOL    HW227723   5.712   2.274   3.361
 8942SOL     OW27724   5.127   6.064   4.398
 8942SOL    HW127725   5.153   6.025   4.310
 8942SOL    HW227726   5.178   6.148   4.415
 8943SOL     OW27727   4.566   3.715   0.534
 8943SOL    HW127728   4.607   3.649   0.597
 8943SOL    HW227729   4.598   3.696   0.441
 8944SOL     OW27730   4.672   5.806   5.731
 8944SOL    HW127731   4.661   5.844   5.639
 8944SOL    HW227732   4.766   5.775   5.743
 8945SOL     OW27733   6.830   4.292   2.160
 8945SOL    HW127734   6.743   4.250   2.131
 8945SOL    HW227735   6.859   4.359   2.092
 8946SOL     OW27736   3.890   2.188   3.789
 8946SOL    HW127737   3.816   2.139   3.836
 8946SOL    HW227738   3.952   2.122   3.747
 8947SOL     OW27739   3.351   5.313   0.866
 8947SOL    HW127740   3.288   5.240   0.839
 8947SOL    HW227741   3.332   5.339   0.961
 8948SOL     OW27742   5.711   6.958   3.164
 8948SOL    HW127743   5.680   6.863   3.155
 8948SOL    HW227744   5.694   7.007   3.078
 8949SOL     OW27745   4.085   6.374   0.808
 8949SOL    HW127746   4.175   6.330   0.806
 8949SOL    HW227747   4.026   6.331   0.739
 8950SOL     OW27748   3.504   3.570   3.996
 8950SOL    HW127749   3.416   3.530   3.968
 8950SOL    HW227750   3.562   3.499   4.036
 8951SOL     OW27751   0.987   1.379   3.576
 8951SOL    HW127752   1.032   1.325   3.648
 8951SOL    HW227753   0.915   1.435   3.617
 8952SOL     OW27754   1.599   4.075   4.215
 8952SOL    HW127755   1.682   4.129   4.204
 8952SOL    HW227756   1.569   4.079   4.310
 8953SOL     OW27757   1.609   5.693   0.310
 8953SOL    HW127758   1.659   5.759   0.365
 8953SOL    HW227759   1.524   5.668   0.357
 8954SOL     OW27760   2.322   4.166   5.564
 8954SOL    HW127761   2.356   4.193   5.654
 8954SOL    HW227762   2.296   4.248   5.513
 8955SOL     OW27763   6.485   2.431   6.188
 8955SOL    HW127764   6.444   2.340   6.192
 8955SOL    HW227765   6.573   2.426   6.141
 8956SOL     OW27766   0.893   6.267   0.850
 8956SOL    HW127767   0.950   6.193   0.886
 8956SOL    HW227768   0.943   6.353   0.855
 8957SOL     OW27769   0.375   0.387   3.874
 8957SOL    HW127770   0.283   0.376   3.837
 8957SOL    HW227771   0.372   0.383   3.973
 8958SOL     OW27772   6.979   2.839   4.408
 8958SOL    HW127773   6.953   2.923   4.455
 8958SOL    HW227774   0.026   2.859   4.336
 8959SOL     OW27775   5.661   0.954   3.635
 8959SOL    HW127776   5.575   0.915   3.603
 8959SOL    HW227777   5.672   1.046   3.597
 8960SOL     OW27778   3.985   5.998   2.012
 8960SOL    HW127779   4.044   5.965   2.085
 8960SOL    HW227780   3.920   6.065   2.050
 8961SOL     OW27781   2.434   2.502   5.471
 8961SOL    HW127782   2.410   2.443   5.548
 8961SOL    HW227783   2.453   2.446   5.391
 8962SOL     OW27784   6.409   6.042   0.860
 8962SOL    HW127785   6.400   6.012   0.765
 8962SOL    HW227786   6.465   5.977   0.910
 8963SOL     OW27787   2.424   5.386   5.846
 8963SOL    HW127788   2.435   5.486   5.843
 8963SOL    HW227789   2.368   5.358   5.768
 8964SOL     OW27790   0.851   3.547   4.191
 8964SOL    HW127791   0.842   3.447   4.200
 8964SOL    HW227792   0.947   3.571   4.182
 8965SOL     OW27793   3.280   6.626   6.320
 8965SOL    HW127794   3.271   6.715   6.364
 8965SOL    HW227795   3.281   6.554   6.389
 8966SOL     OW27796   4.744   6.706   5.475
 8966SOL    HW127797   4.717   6.701   5.379
 8966SOL    HW227798   4.683   6.768   5.524
 8967SOL     OW27799   1.827   0.227   2.764
 8967SOL    HW127800   1.786   0.141   2.795
 8967SOL    HW227801   1.755   0.295   2.752
 8968SOL     OW27802   2.426   5.814   2.415
 8968SOL    HW127803   2.478   5.731   2.433
 8968SOL    HW227804   2.328   5.792   2.415
 8969SOL     OW27805   6.617   0.998   1.185
 8969SOL    HW127806   6.575   1.063   1.121
 8969SOL    HW227807   6.596   0.905   1.156
 8970SOL     OW27808   2.585   2.283   4.880
 8970SOL    HW127809   2.623   2.250   4.966
 8970SOL    HW227810   2.647   2.350   4.839
 8971SOL     OW27811   3.230   5.776   1.069
 8971SOL    HW127812   3.184   5.761   1.156
 8971SOL    HW227813   3.329   5.778   1.084
 8972SOL     OW27814   6.923   3.989   6.724
 8972SOL    HW127815   6.864   4.068   6.739
 8972SOL    HW227816   6.963   3.993   6.632
 8973SOL     OW27817   2.680   2.128   3.441
 8973SOL    HW127818   2.707   2.061   3.373
 8973SOL    HW227819   2.641   2.082   3.520
 8974SOL     OW27820   0.968   5.129   5.664
 8974SOL    HW127821   0.961   5.102   5.567
 8974SOL    HW227822   1.060   5.164   5.682
 8975SOL     OW27823   0.972   3.938   6.413
 8975SOL    HW127824   1.003   3.941   6.508
 8975SOL    HW227825   0.927   4.025   6.390
 8976SOL     OW27826   5.644   6.822   1.442
 8976SOL    HW127827   5.601   6.735   1.417
 8976SOL    HW227828   5.583   6.872   1.503
 8977SOL     OW27829   0.715   5.321   6.351
 8977SOL    HW127830   0.781   5.280   6.414
 8977SOL    HW227831   0.635   5.352   6.402
 8978SOL     OW27832   6.765   4.957   4.946
 8978SOL    HW127833   6.669   4.953   4.921
 8978SOL    HW227834   6.807   4.868   4.931
 8979SOL     OW27835   2.012   4.723   3.059
 8979SOL    HW127836   1.931   4.696   3.007
 8979SOL    HW227837   2.043   4.813   3.030
 8980SOL     OW27838   5.178   0.964   0.079
 8980SOL    HW127839   5.083   0.976   0.049
 8980SOL    HW227840   5.186   0.878   0.129
 8981SOL     OW27841   3.560   2.366   6.668
 8981SOL    HW127842   3.557   2.455   6.714
 8981SOL    HW227843   3.645   2.358   6.617
 8982SOL     OW27844   0.314   0.730   3.446
 8982SOL    HW127845   0.398   0.762   3.489
 8982SOL    HW227846   0.297   0.635   3.472
 8983SOL     OW27847   1.269   6.514   2.168
 8983SOL    HW127848   1.266   6.414   2.157
 8983SOL    HW227849   1.364   6.543   2.177
 8984SOL     OW27850   6.065   0.918   3.613
 8984SOL    HW127851   6.161   0.939   3.631
 8984SOL    HW227852   6.008   0.994   3.643
 8985SOL     OW27853   5.008   0.777   0.508
 8985SOL    HW127854   4.964   0.866   0.519
 8985SOL    HW227855   4.971   0.713   0.574
 8986SOL     OW27856   1.044   0.396   6.143
 8986SOL    HW127857   1.047   0.310   6.092
 8986SOL    HW227858   1.089   0.468   6.090
 8987SOL     OW27859   3.388   6.561   2.784
 8987SOL    HW127860   3.412   6.533   2.691
 8987SOL    HW227861   3.332   6.643   2.781
 8988SOL     OW27862   2.166   6.587   0.954
 8988SOL    HW127863   2.159   6.488   0.943
 8988SOL    HW227864   2.078   6.630   0.932
 8989SOL     OW27865   6.262   1.387   2.571
 8989SOL    HW127866   6.318   1.393   2.654
 8989SOL    HW227867   6.266   1.475   2.523
 8990SOL     OW27868   3.921   1.954   3.115
 8990SOL    HW127869   3.856   1.945   3.191
 8990SOL    HW227870   4.014   1.940   3.149
 8991SOL     OW27871   1.731   1.928   0.899
 8991SOL    HW127872   1.788   1.985   0.839
 8991SOL    HW227873   1.747   1.831   0.878
 8992SOL     OW27874   0.906   5.595   5.434
 8992SOL    HW127875   0.949   5.506   5.448
 8992SOL    HW227876   0.936   5.633   5.346
 8993SOL     OW27877   5.422   4.354   3.740
 8993SOL    HW127878   5.329   4.375   3.711
 8993SOL    HW227879   5.435   4.255   3.739
 8994SOL     OW27880   1.502   6.377   2.679
 8994SOL    HW127881   1.523   6.414   2.770
 8994SOL    HW227882   1.403   6.365   2.671
 8995SOL     OW27883   1.716   4.050   3.816
 8995SOL    HW127884   1.726   4.078   3.720
 8995SOL    HW227885   1.793   4.084   3.869
 8996SOL     OW27886   2.770   4.168   1.654
 8996SOL    HW127887   2.833   4.196   1.727
 8996SOL    HW227888   2.761   4.069   1.655
 8997SOL     OW27889   4.091   1.311   4.706
 8997SOL    HW127890   4.076   1.220   4.743
 8997SOL    HW227891   4.007   1.345   4.665
 8998SOL     OW27892   1.364   1.227   6.181
 8998SOL    HW127893   1.312   1.218   6.266
 8998SOL    HW227894   1.412   1.315   6.181
 8999SOL     OW27895   6.394   2.919   5.209
 8999SOL    HW127896   6.385   2.855   5.286
 8999SOL    HW227897   6.450   2.877   5.137
 9000SOL     OW27898   4.115   5.210   1.261
 9000SOL    HW127899   4.072   5.187   1.174
 9000SOL    HW227900   4.209   5.239   1.246
 9001SOL     OW27901   0.596   3.414   3.982
 9001SOL    HW127902   0.679   3.360   3.997
 9001SOL    HW227903   0.603   3.500   4.032
 9002SOL     OW27904   4.746   2.777   6.396
 9002SOL    HW127905   4.720   2.745   6.305
 9002SOL    HW227906   4.769   2.698   6.453
 9003SOL     OW27907   0.688   3.850   0.038
 9003SOL    HW127908   0.698   3.830   0.135
 9003SOL    HW227909   0.591   3.862   0.016
 9004SOL     OW27910   4.975   5.764   0.439
 9004SOL    HW127911   4.972   5.804   0.347
 9004SOL    HW227912   5.034   5.819   0.498
 9005SOL     OW27913   4.828   4.236   4.144
 9005SOL    HW127914   4.813   4.307   4.213
 9005SOL    HW227915   4.871   4.156   4.187
 9006SOL     OW27916   3.520   6.210   2.273
 9006SOL    HW127917   3.427   6.212   2.236
 9006SOL    HW227918   3.562   6.301   2.262
 9007SOL     OW27919   2.031   6.991   5.352
 9007SOL    HW127920   2.056   0.016   5.266
 9007SOL    HW227921   1.992   6.901   5.334
 9008SOL     OW27922   6.838   4.563   1.528
 9008SOL    HW127923   6.924   4.602   1.495
 9008SOL    HW227924   6.779   4.636   1.563
 9009SOL     OW27925   3.911   0.116   6.927
 9009SOL    HW127926   3.954   0.200   6.960
 9009SOL    HW227927   3.980   0.044   6.918
 9010SOL     OW27928   6.802   6.309   4.974
 9010SOL    HW127929   6.886   6.286   4.924
 9010SOL    HW227930   6.734   6.238   4.959
 9011SOL     OW27931   4.575   2.572   2.227
 9011SOL    HW127932   4.533   2.501   2.171
 9011SOL    HW227933   4.649   2.616   2.174
 9012SOL     OW27934   3.850   4.862   2.207
 9012SOL    HW127935   3.860   4.914   2.292
 9012SOL    HW227936   3.930   4.802   2.196
 9013SOL     OW27937   3.471   6.401   1.086
 9013SOL    HW127938   3.569   6.415   1.068
 9013SOL    HW227939   3.421   6.485   1.064
 9014SOL     OW27940   1.828   1.844   2.378
 9014SOL    HW127941   1.845   1.785   2.299
 9014SOL    HW227942   1.766   1.798   2.442
 9015SOL     OW27943   6.288   2.001   4.628
 9015SOL    HW127944   6.269   2.080   4.685
 9015SOL    HW227945   6.379   1.966   4.649
 9016SOL     OW27946   0.133   4.907   6.866
 9016SOL    HW127947   0.077   4.925   6.947
 9016SOL    HW227948   0.180   4.992   6.840
 9017SOL     OW27949   6.223   2.731   2.260
 9017SOL    HW127950   6.130   2.738   2.224
 9017SOL    HW227951   6.287   2.771   2.194
 9018SOL     OW27952   5.227   2.088   6.612
 9018SOL    HW127953   5.320   2.099   6.577
 9018SOL    HW227954   5.190   2.178   6.637
 9019SOL     OW27955   1.732   5.975   0.295
 9019SOL    HW127956   1.781   5.909   0.353
 9019SOL    HW227957   1.797   6.040   0.256
 9020SOL     OW27958   0.790   5.008   4.706
 9020SOL    HW127959   0.877   4.971   4.672
 9020SOL    HW227960   0.806   5.097   4.750
 9021SOL     OW27961   7.007   5.093   4.875
 9021SOL    HW127962   6.919   5.062   4.911
 9021SOL    HW227963   6.994   5.131   4.783
 9022SOL     OW27964   1.003   6.955   5.915
 9022SOL    HW127965   0.946   6.933   5.994
 9022SOL    HW227966   1.018   6.873   5.861
 9023SOL     OW27967   4.083   3.734   3.706
 9023SOL    HW127968   4.109   3.642   3.735
 9023SOL    HW227969   4.039   3.781   3.782
 9024SOL     OW27970   1.299   0.039   0.399
 9024SOL    HW127971   1.274   0.106   0.330
 9024SOL    HW227972   1.365   0.080   0.463
 9025SOL     OW27973   0.388   2.470   1.006
 9025SOL    HW127974   0.398   2.558   0.958
 9025SOL    HW227975   0.423   2.480   1.100
 9026SOL     OW27976   2.863   4.360   5.867
 9026SOL    HW127977   2.830   4.454   5.857
 9026SOL    HW227978   2.809   4.313   5.937
 9027SOL     OW27979   0.979   3.410   1.878
 9027SOL    HW127980   1.076   3.423   1.896
 9027SOL    HW227981   0.927   3.485   1.919
 9028SOL     OW27982   1.579   3.967   4.790
 9028SOL    HW127983   1.525   4.051   4.797
 9028SOL    HW227984   1.642   3.963   4.868
 9029SOL     OW27985   5.092   5.086   3.172
 9029SOL    HW127986   5.091   5.012   3.239
 9029SOL    HW227987   5.036   5.061   3.094
 9030SOL     OW27988   4.862   2.633   2.390
 9030SOL    HW127989   4.847   2.678   2.478
 9030SOL    HW227990   4.816   2.684   2.317
 9031SOL     OW27991   2.600   0.998   2.479
 9031SOL    HW127992   2.620   0.994   2.381
 9031SOL    HW227993   2.512   1.044   2.493
 9032SOL     OW27994   0.279   4.091   2.896
 9032SOL    HW127995   0.318   4.086   2.804
 9032SOL    HW227996   0.239   4.003   2.921
 9033SOL     OW27997   0.962   2.905   2.530
 9033SOL    HW127998   0.918   2.994   2.522
 9033SOL    HW227999   1.053   2.909   2.489
 9034SOL     OW28000   0.934   6.822   0.343
 9034SOL    HW128001   0.844   6.825   0.386
 9034SOL    HW228002   1.004   6.809   0.414
 9035SOL     OW28003   6.071   1.475   4.559
 9035SOL    HW128004   6.039   1.386   4.527
 9035SOL    HW228005   6.054   1.544   4.490
 9036SOL     OW28006   0.251   1.469   4.104
 9036SOL    HW128007   0.290   1.388   4.060
 9036SOL    HW228008   0.253   1.458   4.203
 9037SOL     OW28009   2.721   4.226   6.080
 9037SOL    HW128010   2.732   4.145   6.023
 9037SOL    HW228011   2.624   4.249   6.088
 9038SOL     OW28012   3.820   5.904   5.688
 9038SOL    HW128013   3.839   5.898   5.785
 9038SOL    HW228014   3.733   5.952   5.674
 9039SOL     OW28015   2.433   4.999   0.294
 9039SOL    HW128016   2.472   4.945   0.220
 9039SOL    HW228017   2.340   4.967   0.313
 9040SOL     OW28018   3.431   1.641   2.520
 9040SOL    HW128019   3.400   1.697   2.443
 9040SOL    HW228020   3.431   1.697   2.603
 9041SOL     OW28021   2.332   2.742   5.216
 9041SOL    HW128022   2.380   2.754   5.303
 9041SOL    HW228023   2.338   2.826   5.162
 9042SOL     OW28024   1.414   5.137   2.567
 9042SOL    HW128025   1.468   5.221   2.555
 9042SOL    HW228026   1.376   5.134   2.659
 9043SOL     OW28027   0.232   1.839   0.029
 9043SOL    HW128028   0.157   1.781   0.062
 9043SOL    HW228029   0.318   1.810   0.071
 9044SOL     OW28030   0.678   4.295   1.185
 9044SOL    HW128031   0.695   4.239   1.266
 9044SOL    HW228032   0.742   4.269   1.113
 9045SOL     OW28033   1.780   4.827   4.707
 9045SOL    HW128034   1.789   4.743   4.654
 9045SOL    HW228035   1.702   4.819   4.769
 9046SOL     OW28036   4.083   4.312   5.712
 9046SOL    HW128037   4.024   4.285   5.636
 9046SOL    HW228038   4.034   4.302   5.798
 9047SOL     OW28039   0.737   5.204   3.919
 9047SOL    HW128040   0.655   5.254   3.890
 9047SOL    HW228041   0.725   5.173   4.013
 9048SOL     OW28042   1.095   1.945   5.829
 9048SOL    HW128043   1.111   2.000   5.748
 9048SOL    HW228044   1.037   1.995   5.893
 9049SOL     OW28045   4.263   5.412   5.757
 9049SOL    HW128046   4.192   5.482   5.766
 9049SOL    HW228047   4.332   5.443   5.692
 9050SOL     OW28048   0.163   3.573   6.910
 9050SOL    HW128049   0.259   3.553   6.928
 9050SOL    HW228050   0.127   3.630   6.984
 9051SOL     OW28051   0.273   5.660   6.179
 9051SOL    HW128052   0.355   5.663   6.120
 9051SOL    HW228053   0.253   5.752   6.211
 9052SOL     OW28054   2.385   4.731   4.464
 9052SOL    HW128055   2.371   4.816   4.515
 9052SOL    HW228056   2.473   4.735   4.416
 9053SOL     OW28057   1.078   0.437   2.617
 9053SOL    HW128058   1.154   0.447   2.553
 9053SOL    HW228059   0.992   0.432   2.567
 9054SOL     OW28060   1.312   6.951   1.999
 9054SOL    HW128061   1.279   0.025   2.016
 9054SOL    HW228062   1.392   6.954   1.939
 9055SOL     OW28063   1.435   2.726   5.372
 9055SOL    HW128064   1.467   2.807   5.421
 9055SOL    HW228065   1.493   2.711   5.292
 9056SOL     OW28066   5.315   2.383   1.777
 9056SOL    HW128067   5.360   2.460   1.822
 9056SOL    HW228068   5.220   2.379   1.808
 9057SOL     OW28069   3.734   6.920   5.880
 9057SOL    HW128070   3.691   7.001   5.841
 9057SOL    HW228071   3.684   6.893   5.963
 9058SOL     OW28072   2.194   2.955   4.093
 9058SOL    HW128073   2.172   2.929   3.998
 9058SOL    HW228074   2.257   2.888   4.132
 9059SOL     OW28075   0.469   0.626   2.414
 9059SOL    HW128076   0.446   0.705   2.470
 9059SOL    HW228077   0.568   0.620   2.403
 9060SOL     OW28078   0.364   5.045   0.158
 9060SOL    HW128079   0.388   5.109   0.231
 9060SOL    HW228080   0.444   4.991   0.133
 9061SOL     OW28081   3.733   4.852   2.723
 9061SOL    HW128082   3.822   4.818   2.695
 9061SOL    HW228083   3.672   4.855   2.644
 9062SOL     OW28084   0.244   6.330   2.602
 9062SOL    HW128085   0.233   6.419   2.646
 9062SOL    HW228086   0.304   6.339   2.523
 9063SOL     OW28087   6.139   6.446   0.885
 9063SOL    HW128088   6.083   6.442   0.968
 9063SOL    HW228089   6.093   6.399   0.810
 9064SOL     OW28090   1.394   5.991   2.957
 9064SOL    HW128091   1.299   5.980   2.926
 9064SOL    HW228092   1.394   6.035   3.047
 9065SOL     OW28093   3.228   4.101   6.916
 9065SOL    HW128094   3.288   4.079   6.993
 9065SOL    HW228095   3.259   4.186   6.874
 9066SOL     OW28096   5.368   4.949   3.279
 9066SOL    HW128097   5.326   5.012   3.213
 9066SOL    HW228098   5.312   4.944   3.361
 9067SOL     OW28099   1.672   0.347   3.875
 9067SOL    HW128100   1.696   0.258   3.838
 9067SOL    HW228101   1.678   0.416   3.804
 9068SOL     OW28102   5.618   0.476   5.054
 9068SOL    HW128103   5.594   0.416   4.977
 9068SOL    HW228104   5.651   0.563   5.019
 9069SOL     OW28105   4.395   2.382   1.459
 9069SOL    HW128106   4.483   2.366   1.504
 9069SOL    HW228107   4.406   2.369   1.360
 9070SOL     OW28108   1.070   0.974   6.561
 9070SOL    HW128109   1.087   0.924   6.646
 9070SOL    HW228110   1.000   1.044   6.577
 9071SOL     OW28111   5.806   2.823   0.140
 9071SOL    HW128112   5.747   2.895   0.178
 9071SOL    HW228113   5.829   2.845   0.046
 9072SOL     OW28114   6.129   1.048   1.880
 9072SOL    HW128115   6.209   1.079   1.827
 9072SOL    HW228116   6.046   1.060   1.825
 9073SOL     OW28117   4.751   2.539   6.182
 9073SOL    HW128118   4.687   2.562   6.109
 9073SOL    HW228119   4.742   2.442   6.205
 9074SOL     OW28120   2.032   0.403   3.236
 9074SOL    HW128121   2.091   0.336   3.280
 9074SOL    HW228122   2.025   0.382   3.138
 9075SOL     OW28123   4.957   5.568   1.155
 9075SOL    HW128124   4.982   5.555   1.059
 9075SOL    HW228125   5.037   5.600   1.206
 9076SOL     OW28126   0.992   6.800   2.758
 9076SOL    HW128127   0.963   6.872   2.695
 9076SOL    HW228128   0.915   6.737   2.773
 9077SOL     OW28129   6.384   0.968   6.607
 9077SOL    HW128130   6.319   0.981   6.533
 9077SOL    HW228131   6.377   0.874   6.642
 9078SOL     OW28132   5.308   6.656   6.768
 9078SOL    HW128133   5.277   6.725   6.704
 9078SOL    HW228134   5.318   6.697   6.859
 9079SOL     OW28135   2.304   1.772   6.404
 9079SOL    HW128136   2.396   1.737   6.420
 9079SOL    HW228137   2.301   1.870   6.423
 9080SOL     OW28138   6.612   4.822   0.525
 9080SOL    HW128139   6.612   4.808   0.624
 9080SOL    HW228140   6.578   4.739   0.480
 9081SOL     OW28141   4.839   1.414   6.371
 9081SOL    HW128142   4.750   1.379   6.345
 9081SOL    HW228143   4.908   1.383   6.306
 9082SOL     OW28144   2.867   4.385   6.635
 9082SOL    HW128145   2.812   4.337   6.567
 9082SOL    HW228146   2.818   4.389   6.722
 9083SOL     OW28147   3.743   0.570   1.084
 9083SOL    HW128148   3.827   0.584   1.137
 9083SOL    HW228149   3.766   0.547   0.990
 9084SOL     OW28150   6.786   4.438   4.849
 9084SOL    HW128151   6.841   4.472   4.773
 9084SOL    HW228152   6.693   4.473   4.840
 9085SOL     OW28153   3.276   4.877   1.946
 9085SOL    HW128154   3.358   4.824   1.926
 9085SOL    HW228155   3.205   4.817   1.983
 9086SOL     OW28156   0.148   1.389   0.361
 9086SOL    HW128157   0.135   1.292   0.341
 9086SOL    HW228158   0.120   1.407   0.455
 9087SOL     OW28159   5.169   1.287   0.354
 9087SOL    HW128160   5.208   1.280   0.263
 9087SOL    HW228161   5.139   1.381   0.370
 9088SOL     OW28162   5.197   6.588   0.576
 9088SOL    HW128163   5.297   6.590   0.588
 9088SOL    HW228164   5.168   6.669   0.525
 9089SOL     OW28165   4.616   5.431   3.219
 9089SOL    HW128166   4.530   5.384   3.198
 9089SOL    HW228167   4.616   5.457   3.316
 9090SOL     OW28168   6.513   4.908   4.885
 9090SOL    HW128169   6.470   4.837   4.941
 9090SOL    HW228170   6.442   4.960   4.837
 9091SOL     OW28171   1.869   2.025   2.161
 9091SOL    HW128172   1.907   2.114   2.185
 9091SOL    HW228173   1.855   1.971   2.244
 9092SOL     OW28174   3.249   1.678   5.318
 9092SOL    HW128175   3.275   1.648   5.227
 9092SOL    HW228176   3.210   1.770   5.313
 9093SOL     OW28177   1.622   3.929   0.626
 9093SOL    HW128178   1.524   3.914   0.617
 9093SOL    HW228179   1.661   3.861   0.688
 9094SOL     OW28180   0.275   2.707   6.544
 9094SOL    HW128181   0.359   2.656   6.526
 9094SOL    HW228182   0.289   2.768   6.622
 9095SOL     OW28183   2.661   2.121   0.450
 9095SOL    HW128184   2.664   2.021   0.454
 9095SOL    HW228185   2.566   2.151   0.437
 9096SOL     OW28186   6.839   4.251   2.682
 9096SOL    HW128187   6.817   4.162   2.722
 9096SOL    HW228188   6.857   4.241   2.584
 9097SOL     OW28189   6.557   6.013   5.835
 9097SOL    HW128190   6.595   5.947   5.770
 9097SOL    HW228191   6.590   5.993   5.927
 9098SOL     OW28192   3.532   3.524   5.623
 9098SOL    HW128193   3.611   3.479   5.662
 9098SOL    HW228194   3.476   3.457   5.573
 9099SOL     OW28195   2.240   2.497   6.448
 9099SOL    HW128196   2.293   2.416   6.477
 9099SOL    HW228197   2.302   2.564   6.408
 9100SOL     OW28198   1.515   2.317   1.163
 9100SOL    HW128199   1.566   2.389   1.116
 9100SOL    HW228200   1.553   2.228   1.137
 9101SOL     OW28201   2.850   2.214   0.229
 9101SOL    HW128202   2.853   2.152   0.307
 9101SOL    HW228203   2.757   2.217   0.192
 9102SOL     OW28204   4.554   6.084   2.533
 9102SOL    HW128205   4.576   6.141   2.454
 9102SOL    HW228206   4.630   6.084   2.598
 9103SOL     OW28207   1.676   4.310   6.374
 9103SOL    HW128208   1.687   4.249   6.296
 9103SOL    HW228209   1.762   4.315   6.425
 9104SOL     OW28210   4.567   6.476   3.310
 9104SOL    HW128211   4.491   6.436   3.258
 9104SOL    HW228212   4.529   6.530   3.385
 9105SOL     OW28213   3.170   2.158   6.016
 9105SOL    HW128214   3.092   2.095   6.017
 9105SOL    HW228215   3.156   2.227   5.945
 9106SOL     OW28216   6.709   5.458   1.237
 9106SOL    HW128217   6.692   5.515   1.318
 9106SOL    HW228218   6.798   5.412   1.248
 9107SOL     OW28219   4.456   6.556   6.646
 9107SOL    HW128220   4.547   6.586   6.676
 9107SOL    HW228221   4.462   6.518   6.554
 9108SOL     OW28222   3.600   5.712   0.856
 9108SOL    HW128223   3.521   5.705   0.795
 9108SOL    HW228224   3.681   5.735   0.802
 9109SOL     OW28225   3.432   1.800   4.524
 9109SOL    HW128226   3.485   1.786   4.441
 9109SOL    HW228227   3.465   1.739   4.596
 9110SOL     OW28228   0.051   4.132   3.620
 9110SOL    HW128229   0.030   4.178   3.533
 9110SOL    HW228230   0.002   4.178   3.694
 9111SOL     OW28231   3.523   4.345   1.752
 9111SOL    HW128232   3.520   4.433   1.801
 9111SOL    HW228233   3.466   4.351   1.670
 9112SOL     OW28234   1.150   6.719   2.024
 9112SOL    HW128235   1.183   6.644   2.082
 9112SOL    HW228236   1.216   6.795   2.027
 9113SOL     OW28237   2.440   6.478   0.853
 9113SOL    HW128238   2.346   6.459   0.880
 9113SOL    HW228239   2.449   6.467   0.754
 9114SOL     OW28240   3.064   3.914   1.615
 9114SOL    HW128241   3.113   3.884   1.533
 9114SOL    HW228242   3.131   3.946   1.683
 9115SOL     OW28243   1.291   4.645   4.024
 9115SOL    HW128244   1.333   4.562   4.060
 9115SOL    HW228245   1.213   4.620   3.965
 9116SOL     OW28246   3.544   2.614   6.790
 9116SOL    HW128247   3.588   2.702   6.772
 9116SOL    HW228248   3.446   2.621   6.769
 9117SOL     OW28249   1.066   2.480   0.012
 9117SOL    HW128250   1.152   2.527   7.010
 9117SOL    HW228251   0.993   2.518   6.974
 9118SOL     OW28252   0.621   6.730   1.653
 9118SOL    HW128253   0.522   6.731   1.650
 9118SOL    HW228254   0.655   6.817   1.691
 9119SOL     OW28255   5.881   0.204   0.573
 9119SOL    HW128256   5.865   0.288   0.625
 9119SOL    HW228257   5.967   0.163   0.603
 9120SOL     OW28258   6.384   0.217   6.851
 9120SOL    HW128259   6.329   0.133   6.851
 9120SOL    HW228260   6.406   0.242   6.946
 9121SOL     OW28261   1.651   0.930   6.066
 9121SOL    HW128262   1.651   0.974   5.976
 9121SOL    HW228263   1.558   0.929   6.103
 9122SOL     OW28264   0.474   3.348   1.341
 9122SOL    HW128265   0.400   3.290   1.307
 9122SOL    HW228266   0.463   3.362   1.439
 9123SOL     OW28267   1.488   0.024   5.994
 9123SOL    HW128268   1.560   0.058   6.054
 9123SOL    HW228269   1.508   6.948   5.967
 9124SOL     OW28270   0.402   3.916   4.780
 9124SOL    HW128271   0.322   3.896   4.836
 9124SOL    HW228272   0.448   3.830   4.755
 9125SOL     OW28273   4.912   6.202   1.292
 9125SOL    HW128274   4.853   6.182   1.214
 9125SOL    HW228275   4.946   6.296   1.285
 9126SOL     OW28276   5.496   0.595   3.461
 9126SOL    HW128277   5.469   0.585   3.557
 9126SOL    HW228278   5.500   0.504   3.418
 9127SOL     OW28279   6.321   4.965   6.045
 9127SOL    HW128280   6.350   5.033   5.977
 9127SOL    HW228281   6.318   5.008   6.135
 9128SOL     OW28282   4.576   2.938   5.244
 9128SOL    HW128283   4.491   2.893   5.271
 9128SOL    HW228284   4.628   2.963   5.326
 9129SOL     OW28285   2.957   0.833   0.554
 9129SOL    HW128286   3.035   0.891   0.577
 9129SOL    HW228287   2.875   0.869   0.598
 9130SOL     OW28288   5.662   5.428   1.236
 9130SOL    HW128289   5.617   5.471   1.315
 9130SOL    HW228290   5.650   5.486   1.155
 9131SOL     OW28291   0.692   5.160   3.515
 9131SOL    HW128292   0.614   5.156   3.578
 9131SOL    HW228293   0.776   5.146   3.566
 9132SOL     OW28294   1.487   2.919   4.254
 9132SOL    HW128295   1.440   2.861   4.187
 9132SOL    HW228296   1.533   2.861   4.321
 9133SOL     OW28297   1.307   5.024   0.817
 9133SOL    HW128298   1.215   4.984   0.819
 9133SOL    HW228299   1.367   4.972   0.878
 9134SOL     OW28300   3.071   5.317   6.336
 9134SOL    HW128301   3.126   5.376   6.276
 9134SOL    HW228302   2.985   5.293   6.290
 9135SOL     OW28303   1.005   0.295   2.864
 9135SOL    HW128304   1.033   0.346   2.782
 9135SOL    HW228305   0.919   0.248   2.846
 9136SOL     OW28306   3.471   4.964   5.379
 9136SOL    HW128307   3.530   4.888   5.406
 9136SOL    HW228308   3.384   4.928   5.347
 9137SOL     OW28309   3.519   0.315   2.943
 9137SOL    HW128310   3.487   0.253   2.871
 9137SOL    HW228311   3.543   0.404   2.904
 9138SOL     OW28312   3.454   4.668   1.204
 9138SOL    HW128313   3.485   4.634   1.293
 9138SOL    HW228314   3.534   4.696   1.149
 9139SOL     OW28315   4.374   0.697   5.533
 9139SOL    HW128316   4.384   0.678   5.630
 9139SOL    HW228317   4.462   0.727   5.495
 9140SOL     OW28318   6.369   2.251   3.635
 9140SOL    HW128319   6.392   2.199   3.717
 9140SOL    HW228320   6.414   2.210   3.556
 9141SOL     OW28321   4.999   1.231   5.419
 9141SOL    HW128322   5.021   1.287   5.499
 9141SOL    HW228323   4.987   1.291   5.339
 9142SOL     OW28324   2.364   3.078   0.171
 9142SOL    HW128325   2.330   3.166   0.139
 9142SOL    HW228326   2.287   3.016   0.186
 9143SOL     OW28327   6.861   4.096   0.471
 9143SOL    HW128328   6.938   4.055   0.519
 9143SOL    HW228329   6.867   4.073   0.373
 9144SOL     OW28330   1.094   5.789   4.111
 9144SOL    HW128331   1.088   5.729   4.191
 9144SOL    HW228332   1.040   5.749   4.036
 9145SOL     OW28333   1.876   3.080   6.864
 9145SOL    HW128334   1.868   3.056   6.960
 9145SOL    HW228335   1.823   3.163   6.846
 9146SOL     OW28336   1.112   2.065   1.556
 9146SOL    HW128337   1.082   2.134   1.621
 9146SOL    HW228338   1.033   2.010   1.527
 9147SOL     OW28339   4.081   5.468   6.497
 9147SOL    HW128340   4.126   5.387   6.459
 9147SOL    HW228341   4.042   5.446   6.586
 9148SOL     OW28342   3.483   4.949   2.887
 9148SOL    HW128343   3.413   4.951   2.816
 9148SOL    HW228344   3.557   4.888   2.860
 9149SOL     OW28345   6.246   3.416   5.240
 9149SOL    HW128346   6.297   3.330   5.229
 9149SOL    HW228347   6.297   3.476   5.301
 9150SOL     OW28348   3.551   1.350   2.849
 9150SOL    HW128349   3.618   1.301   2.905
 9150SOL    HW228350   3.476   1.288   2.826
 9151SOL     OW28351   6.394   2.762   2.021
 9151SOL    HW128352   6.453   2.814   2.083
 9151SOL    HW228353   6.379   2.814   1.937
 9152SOL     OW28354   2.016   4.723   2.530
 9152SOL    HW128355   1.931   4.770   2.556
 9152SOL    HW228356   2.093   4.765   2.578
 9153SOL     OW28357   2.289   2.761   0.557
 9153SOL    HW128358   2.349   2.815   0.616
 9153SOL    HW228359   2.229   2.822   0.506
 9154SOL     OW28360   0.878   4.989   0.645
 9154SOL    HW128361   0.899   5.085   0.625
 9154SOL    HW228362   0.946   4.952   0.708
 9155SOL     OW28363   1.927   4.912   0.006
 9155SOL    HW128364   1.893   5.005   7.018
 9155SOL    HW228365   1.888   4.856   6.951
 9156SOL     OW28366   4.895   2.566   1.958
 9156SOL    HW128367   4.816   2.619   1.927
 9156SOL    HW228368   4.965   2.629   1.992
 9157SOL     OW28369   5.384   3.906   5.602
 9157SOL    HW128370   5.343   3.966   5.534
 9157SOL    HW228371   5.397   3.955   5.688
 9158SOL     OW28372   0.642   4.682   3.577
 9158SOL    HW128373   0.566   4.633   3.536
 9158SOL    HW228374   0.722   4.622   3.583
 9159SOL     OW28375   0.109   5.644   1.535
 9159SOL    HW128376   0.118   5.726   1.480
 9159SOL    HW228377   0.099   5.669   1.631
 9160SOL     OW28378   1.062   6.483   0.907
 9160SOL    HW128379   1.138   6.538   0.941
 9160SOL    HW228380   1.062   6.483   0.807
 9161SOL     OW28381   5.431   3.194   2.070
 9161SOL    HW128382   5.397   3.241   2.151
 9161SOL    HW228383   5.484   3.257   2.013
 9162SOL     OW28384   5.677   2.568   3.588
 9162SOL    HW128385   5.688   2.491   3.525
 9162SOL    HW228386   5.741   2.559   3.664
 9163SOL     OW28387   3.672   0.602   5.142
 9163SOL    HW128388   3.594   0.618   5.202
 9163SOL    HW228389   3.748   0.662   5.168
 9164SOL     OW28390   2.944   0.935   0.946
 9164SOL    HW128391   2.986   0.846   0.964
 9164SOL    HW228392   2.868   0.949   1.009
 9165SOL     OW28393   5.296   5.966   1.126
 9165SOL    HW128394   5.299   6.057   1.169
 9165SOL    HW228395   5.248   5.903   1.186
 9166SOL     OW28396   3.257   4.886   1.146
 9166SOL    HW128397   3.304   4.808   1.187
 9166SOL    HW228398   3.213   4.940   1.218
 9167SOL     OW28399   0.411   3.668   4.628
 9167SOL    HW128400   0.419   3.735   4.554
 9167SOL    HW228401   0.503   3.635   4.651
 9168SOL     OW28402   4.201   0.710   0.615
 9168SOL    HW128403   4.206   0.674   0.708
 9168SOL    HW228404   4.147   0.794   0.614
 9169SOL     OW28405   0.840   6.908   3.777
 9169SOL    HW128406   0.830   6.818   3.821
 9169SOL    HW228407   0.758   6.962   3.793
 9170SOL     OW28408   6.282   5.743   0.061
 9170SOL    HW128409   6.304   5.805   7.005
 9170SOL    HW228410   6.191   5.704   0.047
 9171SOL     OW28411   4.175   5.970   4.414
 9171SOL    HW128412   4.207   6.062   4.391
 9171SOL    HW228413   4.112   5.938   4.343
 9172SOL     OW28414   2.129   1.898   4.138
 9172SOL    HW128415   2.166   1.904   4.045
 9172SOL    HW228416   2.041   1.944   4.142
 9173SOL     OW28417   6.832   5.043   5.203
 9173SOL    HW128418   6.803   5.024   5.109
 9173SOL    HW228419   6.921   5.002   5.220
 9174SOL     OW28420   0.143   5.417   6.222
 9174SOL    HW128421   0.192   5.496   6.259
 9174SOL    HW228422   0.087   5.446   6.144
 9175SOL     OW28423   1.964   6.210   6.481
 9175SOL    HW128424   1.971   6.181   6.386
 9175SOL    HW228425   1.999   6.137   6.540
 9176SOL     OW28426   1.391   2.729   5.967
 9176SOL    HW128427   1.446   2.804   5.930
 9176SOL    HW228428   1.334   2.691   5.894
 9177SOL     OW28429   1.706   4.023   3.042
 9177SOL    HW128430   1.658   3.956   3.100
 9177SOL    HW228431   1.805   4.014   3.056
 9178SOL     OW28432   1.589   4.132   0.109
 9178SOL    HW128433   1.533   4.215   0.112
 9178SOL    HW228434   1.662   4.139   0.177
 9179SOL     OW28435   3.051   4.384   5.350
 9179SOL    HW128436   3.020   4.339   5.434
 9179SOL    HW228437   2.973   4.427   5.304
 9180SOL     OW28438   5.021   1.202   2.008
 9180SOL    HW128439   5.052   1.187   2.102
 9180SOL    HW228440   5.095   1.178   1.945
 9181SOL     OW28441   3.717   1.325   2.533
 9181SOL    HW128442   3.716   1.228   2.556
 9181SOL    HW228443   3.724   1.380   2.616
 9182SOL     OW28444   2.233   6.930   1.262
 9182SOL    HW128445   2.282   6.847   1.235
 9182SOL    HW228446   2.296   7.007   1.260
 9183SOL     OW28447   5.254   4.814   5.682
 9183SOL    HW128448   5.282   4.843   5.590
 9183SOL    HW228449   5.177   4.752   5.675
 9184SOL     OW28450   4.760   0.183   0.175
 9184SOL    HW128451   4.675   0.234   0.158
 9184SOL    HW228452   4.757   0.097   0.124
 9185SOL     OW28453   5.363   1.472   4.680
 9185SOL    HW128454   5.374   1.531   4.600
 9185SOL    HW228455   5.266   1.468   4.705
 9186SOL     OW28456   4.767   1.021   6.107
 9186SOL    HW128457   4.852   0.988   6.150
 9186SOL    HW228458   4.765   0.990   6.012
 9187SOL     OW28459   2.200   6.310   3.197
 9187SOL    HW128460   2.119   6.368   3.194
 9187SOL    HW228461   2.209   6.270   3.289
 9188SOL     OW28462   3.128   5.156   0.751
 9188SOL    HW128463   3.039   5.192   0.724
 9188SOL    HW228464   3.117   5.094   0.829
 9189SOL     OW28465   5.441   4.484   1.950
 9189SOL    HW128466   5.430   4.474   1.852
 9189SOL    HW228467   5.374   4.428   1.998
 9190SOL     OW28468   1.301   6.012   6.659
 9190SOL    HW128469   1.242   6.008   6.579
 9190SOL    HW228470   1.310   6.107   6.689
 9191SOL     OW28471   6.461   0.644   6.254
 9191SOL    HW128472   6.467   0.554   6.297
 9191SOL    HW228473   6.486   0.636   6.157
 9192SOL     OW28474   1.155   3.602   4.928
 9192SOL    HW128475   1.192   3.527   4.873
 9192SOL    HW228476   1.229   3.647   4.978
 9193SOL     OW28477   4.229   4.060   0.591
 9193SOL    HW128478   4.218   3.993   0.518
 9193SOL    HW228479   4.233   4.013   0.679
 9194SOL     OW28480   2.968   0.686   4.544
 9194SOL    HW128481   2.949   0.783   4.531
 9194SOL    HW228482   3.025   0.652   4.469
 9195SOL     OW28483   1.707   1.244   3.834
 9195SOL    HW128484   1.753   1.155   3.842
 9195SOL    HW228485   1.662   1.266   3.920
 9196SOL     OW28486   5.042   1.079   5.867
 9196SOL    HW128487   5.073   1.059   5.959
 9196SOL    HW228488   5.109   1.136   5.820
 9197SOL     OW28489   2.830   3.819   0.687
 9197SOL    HW128490   2.875   3.740   0.728
 9197SOL    HW228491   2.827   3.808   0.588
 9198SOL     OW28492   1.071   4.240   5.024
 9198SOL    HW128493   0.987   4.252   5.077
 9198SOL    HW228494   1.130   4.173   5.070
 9199SOL     OW28495   6.431   4.755   5.089
 9199SOL    HW128496   6.496   4.799   5.151
 9199SOL    HW228497   6.349   4.728   5.141
 9200SOL     OW28498   3.161   6.755   0.584
 9200SOL    HW128499   3.123   6.830   0.530
 9200SOL    HW228500   3.191   6.682   0.523
 9201SOL     OW28501   2.223   4.578   1.045
 9201SOL    HW128502   2.143   4.554   1.100
 9201SOL    HW228503   2.255   4.670   1.070
 9202SOL     OW28504   2.705   1.218   3.693
 9202SOL    HW128505   2.632   1.219   3.761
 9202SOL    HW228506   2.777   1.283   3.720
 9203SOL     OW28507   0.008   6.190   1.299
 9203SOL    HW128508   0.096   6.237   1.308
 9203SOL    HW228509   6.975   6.200   1.384
 9204SOL     OW28510   5.548   0.403   5.304
 9204SOL    HW128511   5.575   0.425   5.211
 9204SOL    HW228512   5.471   0.460   5.331
 9205SOL     OW28513   6.960   5.326   2.531
 9205SOL    HW128514   0.034   5.357   2.513
 9205SOL    HW228515   6.915   5.302   2.445
 9206SOL     OW28516   3.976   0.388   0.340
 9206SOL    HW128517   3.971   0.369   0.438
 9206SOL    HW228518   4.072   0.387   0.311
 9207SOL     OW28519   5.429   5.632   6.202
 9207SOL    HW128520   5.343   5.584   6.184
 9207SOL    HW228521   5.419   5.728   6.178
 9208SOL     OW28522   1.132   3.515   2.283
 9208SOL    HW128523   1.101   3.586   2.220
 9208SOL    HW228524   1.178   3.443   2.233
 9209SOL     OW28525   2.299   6.059   6.554
 9209SOL    HW128526   2.278   6.139   6.498
 9209SOL    HW228527   2.324   6.089   6.646
 9210SOL     OW28528   6.549   0.167   4.175
 9210SOL    HW128529   6.556   0.180   4.274
 9210SOL    HW228530   6.476   0.225   4.138
 9211SOL     OW28531   1.007   1.511   3.056
 9211SOL    HW128532   0.987   1.602   3.092
 9211SOL    HW228533   1.101   1.485   3.079
 9212SOL     OW28534   4.487   4.954   4.680
 9212SOL    HW128535   4.447   5.041   4.708
 9212SOL    HW228536   4.451   4.881   4.739
 9213SOL     OW28537   6.107   3.743   0.617
 9213SOL    HW128538   6.175   3.740   0.690
 9213SOL    HW228539   6.100   3.653   0.574
 9214SOL     OW28540   6.890   5.450   0.599
 9214SOL    HW128541   6.878   5.391   0.519
 9214SOL    HW228542   6.982   5.438   0.636
 9215SOL     OW28543   0.886   1.394   0.706
 9215SOL    HW128544   0.865   1.429   0.797
 9215SOL    HW228545   0.983   1.408   0.686
 9216SOL     OW28546   1.675   6.887   4.161
 9216SOL    HW128547   1.599   6.833   4.125
 9216SOL    HW228548   1.748   6.891   4.092
 9217SOL     OW28549   0.344   2.068   0.945
 9217SOL    HW128550   0.441   2.064   0.924
 9217SOL    HW228551   0.301   2.141   0.891
 9218SOL     OW28552   2.437   1.100   1.388
 9218SOL    HW128553   2.507   1.171   1.386
 9218SOL    HW228554   2.377   1.111   1.308
 9219SOL     OW28555   6.219   1.405   0.729
 9219SOL    HW128556   6.288   1.471   0.759
 9219SOL    HW228557   6.142   1.454   0.688
 9220SOL     OW28558   3.723   6.352   0.368
 9220SOL    HW128559   3.772   6.439   0.382
 9220SOL    HW228560   3.713   6.305   0.456
 9221SOL     OW28561   2.672   4.678   4.783
 9221SOL    HW128562   2.706   4.642   4.870
 9221SOL    HW228563   2.572   4.679   4.784
 9222SOL     OW28564   3.258   2.289   0.197
 9222SOL    HW128565   3.251   2.267   0.100
 9222SOL    HW228566   3.231   2.384   0.212
 9223SOL     OW28567   2.737   3.135   5.377
 9223SOL    HW128568   2.775   3.052   5.418
 9223SOL    HW228569   2.675   3.110   5.303
 9224SOL     OW28570   2.275   4.693   5.114
 9224SOL    HW128571   2.224   4.610   5.136
 9224SOL    HW228572   2.372   4.671   5.104
 9225SOL     OW28573   1.492   6.278   6.460
 9225SOL    HW128574   1.453   6.348   6.400
 9225SOL    HW228575   1.419   6.218   6.493
 9226SOL     OW28576   4.788   6.287   0.823
 9226SOL    HW128577   4.847   6.243   0.756
 9226SOL    HW228578   4.743   6.218   0.880
 9227SOL     OW28579   1.171   6.033   1.646
 9227SOL    HW128580   1.136   6.008   1.556
 9227SOL    HW228581   1.189   5.951   1.700
 9228SOL     OW28582   0.835   6.017   6.267
 9228SOL    HW128583   0.919   6.043   6.219
 9228SOL    HW228584   0.855   5.943   6.330
 9229SOL     OW28585   1.271   6.043   5.033
 9229SOL    HW128586   1.282   6.119   4.970
 9229SOL    HW228587   1.177   6.009   5.030
 9230SOL     OW28588   4.946   1.725   3.381
 9230SOL    HW128589   4.882   1.660   3.423
 9230SOL    HW228590   4.945   1.713   3.282
 9231SOL     OW28591   2.157   2.997   3.477
 9231SOL    HW128592   2.235   2.935   3.485
 9231SOL    HW228593   2.183   3.088   3.510
 9232SOL     OW28594   4.239   5.475   1.117
 9232SOL    HW128595   4.220   5.478   1.216
 9232SOL    HW228596   4.158   5.444   1.069
 9233SOL     OW28597   6.205   4.278   0.366
 9233SOL    HW128598   6.160   4.367   0.360
 9233SOL    HW228599   6.201   4.245   0.460
 9234SOL     OW28600   1.376   5.912   3.779
 9234SOL    HW128601   1.298   5.867   3.735
 9234SOL    HW228602   1.457   5.902   3.721
 9235SOL     OW28603   0.962   3.010   3.392
 9235SOL    HW128604   1.025   3.020   3.315
 9235SOL    HW228605   0.946   3.100   3.433
 9236SOL     OW28606   3.544   2.809   6.485
 9236SOL    HW128607   3.471   2.743   6.505
 9236SOL    HW228608   3.566   2.861   6.568
 9237SOL     OW28609   1.848   3.740   2.780
 9237SOL    HW128610   1.820   3.813   2.718
 9237SOL    HW228611   1.767   3.695   2.818
 9238SOL     OW28612   4.409   4.029   6.642
 9238SOL    HW128613   4.324   4.077   6.621
 9238SOL    HW228614   4.417   4.016   6.740
 9239SOL     OW28615   2.244   3.202   6.575
 9239SOL    HW128616   2.319   3.267   6.564
 9239SOL    HW228617   2.218   3.197   6.671
 9240SOL     OW28618   4.592   0.718   2.381
 9240SOL    HW128619   4.526   0.690   2.451
 9240SOL    HW228620   4.651   0.789   2.418
 9241SOL     OW28621   0.568   5.738   4.891
 9241SOL    HW128622   0.550   5.676   4.968
 9241SOL    HW228623   0.641   5.802   4.915
 9242SOL     OW28624   4.989   6.848   1.958
 9242SOL    HW128625   4.896   6.815   1.978
 9242SOL    HW228626   5.050   6.770   1.946
 9243SOL     OW28627   5.338   0.015   4.732
 9243SOL    HW128628   5.375   0.086   4.672
 9243SOL    HW228629   5.264   0.053   4.788
 9244SOL     OW28630   3.642   6.713   0.691
 9244SOL    HW128631   3.563   6.656   0.713
 9244SOL    HW228632   3.700   6.667   0.624
 9245SOL     OW28633   0.354   6.782   1.665
 9245SOL    HW128634   0.276   6.809   1.721
 9245SOL    HW228635   0.322   6.730   1.586
 9246SOL     OW28636   6.396   5.386   3.730
 9246SOL    HW128637   6.402   5.382   3.630
 9246SOL    HW228638   6.488   5.395   3.768
 9247SOL     OW28639   0.785   0.685   2.884
 9247SOL    HW128640   0.867   0.678   2.827
 9247SOL    HW228641   0.712   0.729   2.831
 9248SOL     OW28642   4.676   1.577   6.116
 9248SOL    HW128643   4.715   1.486   6.126
 9248SOL    HW228644   4.592   1.572   6.062
 9249SOL     OW28645   3.973   6.501   4.007
 9249SOL    HW128646   3.953   6.505   3.909
 9249SOL    HW228647   4.056   6.446   4.021
 9250SOL     OW28648   4.800   3.938   3.270
 9250SOL    HW128649   4.785   3.901   3.179
 9250SOL    HW228650   4.800   3.864   3.337
 9251SOL     OW28651   3.903   1.886   2.208
 9251SOL    HW128652   3.899   1.919   2.114
 9251SOL    HW228653   3.910   1.963   2.271
 9252SOL     OW28654   1.284   6.859   4.597
 9252SOL    HW128655   1.251   6.812   4.678
 9252SOL    HW228656   1.363   6.915   4.620
 9253SOL     OW28657   1.272   6.983   6.241
 9253SOL    HW128658   1.330   7.001   6.162
 9253SOL    HW228659   1.296   0.028   6.315
 9254SOL     OW28660   4.596   2.327   0.787
 9254SOL    HW128661   4.564   2.394   0.853
 9254SOL    HW228662   4.696   2.321   0.790
 9255SOL     OW28663   7.015   5.057   0.332
 9255SOL    HW128664   6.953   4.978   0.336
 9255SOL    HW228665   0.021   5.085   0.425
 9256SOL     OW28666   4.028   5.330   2.665
 9256SOL    HW128667   4.123   5.338   2.694
 9256SOL    HW228668   3.969   5.326   2.747
 9257SOL     OW28669   0.586   3.695   0.597
 9257SOL    HW128670   0.661   3.761   0.589
 9257SOL    HW228671   0.608   3.613   0.544
 9258SOL     OW28672   3.388   2.919   4.746
 9258SOL    HW128673   3.394   3.012   4.782
 9258SOL    HW228674   3.405   2.853   4.819
 9259SOL     OW28675   1.929   2.407   0.588
 9259SOL    HW128676   2.007   2.345   0.580
 9259SOL    HW228677   1.882   2.414   0.500
 9260SOL     OW28678   6.646   3.706   0.342
 9260SOL    HW128679   6.617   3.638   0.276
 9260SOL    HW228680   6.731   3.676   0.386
 9261SOL     OW28681   2.258   6.734   5.737
 9261SOL    HW128682   2.305   6.787   5.808
 9261SOL    HW228683   2.261   6.637   5.761
 9262SOL     OW28684   6.270   6.977   6.797
 9262SOL    HW128685   6.287   6.885   6.832
 9262SOL    HW228686   6.208   6.972   6.719
 9263SOL     OW28687   5.645   3.645   2.799
 9263SOL    HW128688   5.681   3.665   2.891
 9263SOL    HW228689   5.562   3.698   2.784
 9264SOL     OW28690   5.722   2.281   0.466
 9264SOL    HW128691   5.694   2.251   0.375
 9264SOL    HW228692   5.644   2.280   0.527
 9265SOL     OW28693   1.846   1.770   5.258
 9265SOL    HW128694   1.756   1.769   5.301
 9265SOL    HW228695   1.838   1.806   5.165
 9266SOL     OW28696   2.877   6.852   2.576
 9266SOL    HW128697   2.857   6.797   2.495
 9266SOL    HW228698   2.948   6.808   2.630
 9267SOL     OW28699   2.662   5.035   5.985
 9267SOL    HW128700   2.683   4.975   6.062
 9267SOL    HW228701   2.704   4.999   5.902
 9268SOL     OW28702   1.083   1.135   3.111
 9268SOL    HW128703   1.066   1.185   3.026
 9268SOL    HW228704   1.018   1.165   3.180
 9269SOL     OW28705   4.081   1.393   5.405
 9269SOL    HW128706   4.115   1.328   5.474
 9269SOL    HW228707   4.097   1.355   5.314
 9270SOL     OW28708   2.214   0.374   5.361
 9270SOL    HW128709   2.302   0.412   5.390
 9270SOL    HW228710   2.140   0.417   5.412
 9271SOL     OW28711   0.480   5.405   5.251
 9271SOL    HW128712   0.564   5.361   5.285
 9271SOL    HW228713   0.402   5.374   5.306
 9272SOL     OW28714   2.319   5.282   6.760
 9272SOL    HW128715   2.317   5.262   6.858
 9272SOL    HW228716   2.414   5.300   6.732
 9273SOL     OW28717   3.247   5.484   6.205
 9273SOL    HW128718   3.317   5.547   6.239
 9273SOL    HW228719   3.196   5.527   6.131
 9274SOL     OW28720   4.998   1.361   1.784
 9274SOL    HW128721   5.012   1.315   1.872
 9274SOL    HW228722   4.934   1.436   1.797
 9275SOL     OW28723   6.729   0.459   6.260
 9275SOL    HW128724   6.642   0.419   6.290
 9275SOL    HW228725   6.755   0.420   6.172
 9276SOL     OW28726   4.794   0.118   4.268
 9276SOL    HW128727   4.880   0.098   4.316
 9276SOL    HW228728   4.784   0.217   4.258
 9277SOL     OW28729   5.257   2.585   6.660
 9277SOL    HW128730   5.323   2.627   6.598
 9277SOL    HW228731   5.266   2.626   6.751
 9278SOL     OW28732   1.410   2.768   1.313
 9278SOL    HW128733   1.393   2.674   1.282
 9278SOL    HW228734   1.439   2.767   1.408
 9279SOL     OW28735   2.293   0.050   0.522
 9279SOL    HW128736   2.278   0.013   0.614
 9279SOL    HW228737   2.223   0.118   0.502
 9280SOL     OW28738   1.884   0.677   2.040
 9280SOL    HW128739   1.809   0.710   2.099
 9280SOL    HW228740   1.948   0.752   2.023
 9281SOL     OW28741   2.152   2.591   0.109
 9281SOL    HW128742   2.163   2.587   0.209
 9281SOL    HW228743   2.208   2.520   0.067
 9282SOL     OW28744   4.067   0.986   6.209
 9282SOL    HW128745   4.018   0.909   6.170
 9282SOL    HW228746   4.060   1.065   6.148
 9283SOL     OW28747   5.505   2.657   3.036
 9283SOL    HW128748   5.462   2.567   3.032
 9283SOL    HW228749   5.545   2.671   3.127
 9284SOL     OW28750   3.987   3.848   1.723
 9284SOL    HW128751   4.019   3.841   1.817
 9284SOL    HW228752   4.055   3.808   1.661
 9285SOL     OW28753   6.309   2.434   6.774
 9285SOL    HW128754   6.238   2.503   6.764
 9285SOL    HW228755   6.398   2.473   6.750
 9286SOL     OW28756   5.732   5.546   4.132
 9286SOL    HW128757   5.692   5.626   4.089
 9286SOL    HW228758   5.728   5.468   4.070
 9287SOL     OW28759   3.257   0.023   2.439
 9287SOL    HW128760   3.303   0.049   2.354
 9287SOL    HW228761   3.225   0.105   2.486
 9288SOL     OW28762   4.291   2.094   6.601
 9288SOL    HW128763   4.233   2.080   6.521
 9288SOL    HW228764   4.377   2.044   6.589
 9289SOL     OW28765   5.179   3.680   3.073
 9289SOL    HW128766   5.100   3.680   3.136
 9289SOL    HW228767   5.263   3.695   3.125
 9290SOL     OW28768   4.143   2.216   4.298
 9290SOL    HW128769   4.108   2.284   4.233
 9290SOL    HW228770   4.186   2.141   4.248
 9291SOL     OW28771   1.043   2.892   5.044
 9291SOL    HW128772   1.139   2.877   5.067
 9291SOL    HW228773   0.985   2.837   5.105
 9292SOL     OW28774   1.091   3.916   7.018
 9292SOL    HW128775   1.108   3.843   6.952
 9292SOL    HW228776   1.007   3.964   6.994
 9293SOL     OW28777   5.410   3.581   6.563
 9293SOL    HW128778   5.444   3.642   6.634
 9293SOL    HW228779   5.429   3.620   6.473
 9294SOL     OW28780   5.553   5.782   6.815
 9294SOL    HW128781   5.484   5.710   6.820
 9294SOL    HW228782   5.644   5.742   6.811
 9295SOL     OW28783   4.795   2.872   3.249
 9295SOL    HW128784   4.811   2.970   3.251
 9295SOL    HW228785   4.747   2.843   3.332
 9296SOL     OW28786   6.007   0.523   4.850
 9296SOL    HW128787   6.062   0.533   4.933
 9296SOL    HW228788   5.947   0.444   4.859
 9297SOL     OW28789   0.255   0.280   1.761
 9297SOL    HW128790   0.165   0.298   1.800
 9297SOL    HW228791   0.325   0.306   1.827
 9298SOL     OW28792   0.294   6.337   4.552
 9298SOL    HW128793   0.197   6.352   4.530
 9298SOL    HW228794   0.305   6.248   4.594
 9299SOL     OW28795   1.561   2.386   4.668
 9299SOL    HW128796   1.483   2.332   4.698
 9299SOL    HW228797   1.629   2.391   4.741
 9300SOL     OW28798   5.884   4.469   3.777
 9300SOL    HW128799   5.789   4.500   3.775
 9300SOL    HW228800   5.898   4.399   3.707
 9301SOL     OW28801   6.761   5.085   1.542
 9301SOL    HW128802   6.785   5.182   1.539
 9301SOL    HW228803   6.773   5.050   1.635
 9302SOL     OW28804   1.441   2.298   2.483
 9302SOL    HW128805   1.527   2.249   2.495
 9302SOL    HW228806   1.365   2.233   2.488
 9303SOL     OW28807   4.949   4.246   0.569
 9303SOL    HW128808   4.860   4.286   0.593
 9303SOL    HW228809   4.977   4.182   0.641
 9304SOL     OW28810   4.798   3.961   0.604
 9304SOL    HW128811   4.835   3.889   0.545
 9304SOL    HW228812   4.701   3.975   0.584
 9305SOL     OW28813   4.517   4.339   1.636
 9305SOL    HW128814   4.615   4.317   1.637
 9305SOL    HW228815   4.470   4.286   1.706
 9306SOL     OW28816   0.159   6.036   3.122
 9306SOL    HW128817   0.153   6.135   3.132
 9306SOL    HW228818   0.232   6.013   3.059
 9307SOL     OW28819   2.234   0.873   6.081
 9307SOL    HW128820   2.330   0.873   6.111
 9307SOL    HW228821   2.175   0.847   6.157
 9308SOL     OW28822   0.550   2.613   0.642
 9308SOL    HW128823   0.503   2.529   0.611
 9308SOL    HW228824   0.495   2.692   0.618
 9309SOL     OW28825   4.900   2.998   6.757
 9309SOL    HW128826   4.886   2.900   6.745
 9309SOL    HW228827   4.861   3.047   6.679
 9310SOL     OW28828   3.852   6.702   1.015
 9310SOL    HW128829   3.933   6.655   0.980
 9310SOL    HW228830   3.875   6.749   1.101
 9311SOL     OW28831   6.975   3.214   1.402
 9311SOL    HW128832   0.001   3.136   1.446
 9311SOL    HW228833   6.900   3.247   1.459
 9312SOL     OW28834   1.574   4.063   4.539
 9312SOL    HW128835   1.526   4.149   4.519
 9312SOL    HW228836   1.587   4.054   4.638
 9313SOL     OW28837   6.440   0.448   2.842
 9313SOL    HW128838   6.540   0.457   2.840
 9313SOL    HW228839   6.411   0.427   2.935
 9314SOL     OW28840   0.211   3.849   0.216
 9314SOL    HW128841   0.194   3.827   0.312
 9314SOL    HW228842   0.133   3.823   0.161
 9315SOL     OW28843   0.504   5.647   6.023
 9315SOL    HW128844   0.550   5.620   5.939
 9315SOL    HW228845   0.570   5.686   6.087
 9316SOL     OW28846   2.758   5.040   4.627
 9316SOL    HW128847   2.664   5.072   4.616
 9316SOL    HW228848   2.759   4.958   4.684
 9317SOL     OW28849   4.080   3.980   5.569
 9317SOL    HW128850   4.021   3.907   5.603
 9317SOL    HW228851   4.118   3.955   5.480
 9318SOL     OW28852   6.910   6.811   6.142
 9318SOL    HW128853   7.007   6.835   6.142
 9318SOL    HW228854   6.894   6.735   6.079
 9319SOL     OW28855   6.133   3.874   4.395
 9319SOL    HW128856   6.198   3.817   4.345
 9319SOL    HW228857   6.182   3.946   4.444
 9320SOL     OW28858   3.919   3.091   5.470
 9320SOL    HW128859   3.841   3.107   5.410
 9320SOL    HW228860   3.927   3.167   5.535
 9321SOL     OW28861   5.301   0.067   4.410
 9321SOL    HW128862   5.311   0.160   4.445
 9321SOL    HW228863   5.351   0.057   4.324
 9322SOL     OW28864   1.026   6.011   1.423
 9322SOL    HW128865   1.008   6.105   1.393
 9322SOL    HW228866   0.941   5.959   1.423
 9323SOL     OW28867   0.819   1.201   5.875
 9323SOL    HW128868   0.739   1.183   5.932
 9323SOL    HW228869   0.855   1.114   5.841
 9324SOL     OW28870   1.125   5.272   6.935
 9324SOL    HW128871   1.119   5.370   6.918
 9324SOL    HW228872   1.209   5.251   6.985
 9325SOL     OW28873   0.833   2.917   6.842
 9325SOL    HW128874   0.747   2.952   6.880
 9325SOL    HW228875   0.814   2.836   6.787
 9326SOL     OW28876   2.169   5.769   1.641
 9326SOL    HW128877   2.166   5.772   1.741
 9326SOL    HW228878   2.159   5.862   1.605
 9327SOL     OW28879   1.723   1.919   4.610
 9327SOL    HW128880   1.740   1.896   4.514
 9327SOL    HW228881   1.810   1.936   4.656
 9328SOL     OW28882   2.132   1.486   1.795
 9328SOL    HW128883   2.232   1.478   1.796
 9328SOL    HW228884   2.105   1.563   1.736
 9329SOL     OW28885   1.219   3.826   1.517
 9329SOL    HW128886   1.319   3.833   1.510
 9329SOL    HW228887   1.181   3.804   1.428
 9330SOL     OW28888   5.197   6.138   6.715
 9330SOL    HW128889   5.179   6.177   6.624
 9330SOL    HW228890   5.295   6.136   6.732
 9331SOL     OW28891   1.164   1.265   0.391
 9331SOL    HW128892   1.145   1.202   0.466
 9331SOL    HW228893   1.222   1.339   0.424
 9332SOL     OW28894   3.640   4.024   5.263
 9332SOL    HW128895   3.728   4.007   5.219
 9332SOL    HW228896   3.580   4.074   5.201
 9333SOL     OW28897   5.534   6.581   1.357
 9333SOL    HW128898   5.611   6.517   1.360
 9333SOL    HW228899   5.480   6.563   1.275
 9334SOL     OW28900   2.197   6.593   4.854
 9334SOL    HW128901   2.101   6.571   4.870
 9334SOL    HW228902   2.235   6.638   4.935
 9335SOL     OW28903   0.641   1.800   2.564
 9335SOL    HW128904   0.732   1.777   2.599
 9335SOL    HW228905   0.615   1.735   2.492
 9336SOL     OW28906   3.151   0.133   5.048
 9336SOL    HW128907   3.080   0.165   5.111
 9336SOL    HW228908   3.222   0.085   5.100
 9337SOL     OW28909   4.776   6.337   3.457
 9337SOL    HW128910   4.763   6.369   3.550
 9337SOL    HW228911   4.706   6.378   3.398
 9338SOL     OW28912   2.282   6.670   2.335
 9338SOL    HW128913   2.288   6.758   2.383
 9338SOL    HW228914   2.374   6.637   2.315
 9339SOL     OW28915   3.615   5.452   1.958
 9339SOL    HW128916   3.713   5.464   1.938
 9339SOL    HW228917   3.562   5.478   1.878
 9340SOL     OW28918   6.975   2.600   6.833
 9340SOL    HW128919   0.012   2.519   6.852
 9340SOL    HW228920   6.929   2.589   6.745
 9341SOL     OW28921   0.716   4.322   5.980
 9341SOL    HW128922   0.691   4.251   6.047
 9341SOL    HW228923   0.803   4.363   6.008
 9342SOL     OW28924   1.671   0.514   0.091
 9342SOL    HW128925   1.616   0.532   0.173
 9342SOL    HW228926   1.726   0.594   0.069
 9343SOL     OW28927   6.295   6.448   3.309
 9343SOL    HW128928   6.195   6.449   3.311
 9343SOL    HW228929   6.327   6.505   3.234
 9344SOL     OW28930   5.122   6.163   0.991
 9344SOL    HW128931   5.085   6.219   1.064
 9344SOL    HW228932   5.219   6.183   0.979
 9345SOL     OW28933   0.676   2.242   0.601
 9345SOL    HW128934   0.754   2.237   0.662
 9345SOL    HW228935   0.707   2.231   0.506
 9346SOL     OW28936   6.094   0.107   0.729
 9346SOL    HW128937   6.193   0.096   0.730
 9346SOL    HW228938   6.069   0.188   0.780
 9347SOL     OW28939   1.931   6.200   2.222
 9347SOL    HW128940   1.837   6.234   2.214
 9347SOL    HW228941   1.993   6.276   2.238
 9348SOL     OW28942   2.812   5.100   0.120
 9348SOL    HW128943   2.785   5.015   0.074
 9348SOL    HW228944   2.905   5.090   0.157
 9349SOL     OW28945   1.213   6.331   2.654
 9349SOL    HW128946   1.141   6.264   2.674
 9349SOL    HW228947   1.197   6.372   2.564
 9350SOL     OW28948   0.457   3.205   5.532
 9350SOL    HW128949   0.499   3.233   5.445
 9350SOL    HW228950   0.384   3.139   5.514
 9351SOL     OW28951   2.917   6.514   0.108
 9351SOL    HW128952   2.973   6.432   0.118
 9351SOL    HW228953   2.884   6.520   0.013
 9352SOL     OW28954   2.752   4.962   5.696
 9352SOL    HW128955   2.679   5.004   5.642
 9352SOL    HW228956   2.836   4.957   5.642
 9353SOL     OW28957   6.654   0.446   0.840
 9353SOL    HW128958   6.657   0.545   0.855
 9353SOL    HW228959   6.733   0.419   0.785
 9354SOL     OW28960   1.115   1.195   5.559
 9354SOL    HW128961   1.041   1.213   5.494
 9354SOL    HW228962   1.107   1.257   5.637
 9355SOL     OW28963   0.878   1.555   5.405
 9355SOL    HW128964   0.937   1.534   5.328
 9355SOL    HW228965   0.902   1.644   5.443
 9356SOL     OW28966   3.579   0.589   3.903
 9356SOL    HW128967   3.676   0.565   3.895
 9356SOL    HW228968   3.560   0.669   3.846
 9357SOL     OW28969   2.338   2.513   0.698
 9357SOL    HW128970   2.311   2.585   0.634
 9357SOL    HW228971   2.288   2.429   0.677
 9358SOL     OW28972   1.271   2.156   0.734
 9358SOL    HW128973   1.351   2.098   0.741
 9358SOL    HW228974   1.259   2.207   0.819
 9359SOL     OW28975   0.601   0.716   5.826
 9359SOL    HW128976   0.510   0.748   5.855
 9359SOL    HW228977   0.623   0.754   5.737
 9360SOL     OW28978   6.818   0.094   5.521
 9360SOL    HW128979   6.879   0.034   5.468
 9360SOL    HW228980   6.725   0.056   5.520
 9361SOL     OW28981   2.147   5.549   4.542
 9361SOL    HW128982   2.093   5.609   4.600
 9361SOL    HW228983   2.225   5.600   4.505
 9362SOL     OW28984   2.010   0.466   2.395
 9362SOL    HW128985   2.079   0.529   2.359
 9362SOL    HW228986   2.039   0.434   2.485
 9363SOL     OW28987   1.847   2.458   2.369
 9363SOL    HW128988   1.923   2.513   2.333
 9363SOL    HW228989   1.761   2.496   2.337
 9364SOL     OW28990   0.388   2.027   6.639
 9364SOL    HW128991   0.385   2.024   6.539
 9364SOL    HW228992   0.454   1.960   6.672
 9365SOL     OW28993   2.579   1.277   4.897
 9365SOL    HW128994   2.644   1.350   4.880
 9365SOL    HW228995   2.526   1.298   4.979
 9366SOL     OW28996   3.280   6.187   2.160
 9366SOL    HW128997   3.196   6.217   2.208
 9366SOL    HW228998   3.255   6.144   2.074
 9367SOL     OW28999   6.834   6.933   1.518
 9367SOL    HW129000   6.793   6.962   1.605
 9367SOL    HW229001   6.933   6.931   1.528
 9368SOL     OW29002   2.298   0.774   3.412
 9368SOL    HW129003   2.305   0.686   3.459
 9368SOL    HW229004   2.348   0.843   3.464
 9369SOL     OW29005   3.835   5.134   0.847
 9369SOL    HW129006   3.872   5.203   0.910
 9369SOL    HW229007   3.897   5.055   0.844
 9370SOL     OW29008   4.587   2.622   5.165
 9370SOL    HW129009   4.667   2.589   5.215
 9370SOL    HW229010   4.614   2.647   5.072
 9371SOL     OW29011   4.089   4.966   0.361
 9371SOL    HW129012   4.074   4.910   0.279
 9371SOL    HW229013   4.187   4.983   0.372
 9372SOL     OW29014   5.203   6.911   0.727
 9372SOL    HW129015   5.220   6.818   0.761
 9372SOL    HW229016   5.272   6.973   0.765
 9373SOL     OW29017   0.437   1.730   1.399
 9373SOL    HW129018   0.384   1.653   1.364
 9373SOL    HW229019   0.378   1.811   1.403
 9374SOL     OW29020   6.809   4.912   6.164
 9374SOL    HW129021   6.886   4.939   6.221
 9374SOL    HW229022   6.805   4.970   6.083
 9375SOL     OW29023   1.659   1.346   6.888
 9375SOL    HW129024   1.577   1.404   6.898
 9375SOL    HW229025   1.644   1.260   6.936
 9376SOL     OW29026   3.597   3.879   0.501
 9376SOL    HW129027   3.570   3.827   0.420
 9376SOL    HW229028   3.653   3.957   0.473
 9377SOL     OW29029   0.904   1.256   3.316
 9377SOL    HW129030   0.865   1.342   3.284
 9377SOL    HW229031   0.937   1.268   3.410
 9378SOL     OW29032   4.035   1.064   5.235
 9378SOL    HW129033   4.068   0.972   5.218
 9378SOL    HW229034   4.005   1.072   5.330
 9379SOL     OW29035   3.709   0.011   4.885
 9379SOL    HW129036   3.611   7.015   4.895
 9379SOL    HW229037   3.729   0.109   4.897
 9380SOL     OW29038   5.239   6.468   1.250
 9380SOL    HW129039   5.141   6.457   1.260
 9380SOL    HW229040   5.261   6.565   1.242
 9381SOL     OW29041   4.486   1.600   4.801
 9381SOL    HW129042   4.447   1.509   4.786
 9381SOL    HW229043   4.452   1.663   4.732
 9382SOL     OW29044   3.007   5.574   6.430
 9382SOL    HW129045   2.916   5.601   6.462
 9382SOL    HW229046   3.000   5.494   6.371
 9383SOL     OW29047   5.695   4.066   1.098
 9383SOL    HW129048   5.674   3.978   1.142
 9383SOL    HW229049   5.682   4.057   0.999
 9384SOL     OW29050   4.176   0.249   0.766
 9384SOL    HW129051   4.212   0.266   0.674
 9384SOL    HW229052   4.249   0.213   0.824
 9385SOL     OW29053   4.372   2.124   4.129
 9385SOL    HW129054   4.358   2.081   4.039
 9385SOL    HW229055   4.448   2.189   4.123
 9386SOL     OW29056   5.679   0.467   1.010
 9386SOL    HW129057   5.675   0.546   0.949
 9386SOL    HW229058   5.718   0.495   1.098
 9387SOL     OW29059   3.215   2.332   6.666
 9387SOL    HW129060   3.165   2.330   6.580
 9387SOL    HW229061   3.241   2.239   6.691
 9388SOL     OW29062   2.113   6.191   5.193
 9388SOL    HW129063   2.187   6.134   5.228
 9388SOL    HW229064   2.143   6.239   5.111
 9389SOL     OW29065   2.142   3.699   1.860
 9389SOL    HW129066   2.188   3.613   1.881
 9389SOL    HW229067   2.183   3.739   1.778
 9390SOL     OW29068   6.027   5.449   4.146
 9390SOL    HW129069   5.986   5.432   4.235
 9390SOL    HW229070   5.958   5.486   4.084
 9391SOL     OW29071   0.277   5.061   4.118
 9391SOL    HW129072   0.352   5.126   4.130
 9391SOL    HW229073   0.255   5.018   4.205
 9392SOL     OW29074   2.954   5.387   2.599
 9392SOL    HW129075   2.946   5.476   2.554
 9392SOL    HW229076   2.970   5.401   2.696
 9393SOL     OW29077   2.053   5.217   0.267
 9393SOL    HW129078   2.038   5.120   0.248
 9393SOL    HW229079   2.108   5.258   0.194
 9394SOL     OW29080   4.702   0.332   6.905
 9394SOL    HW129081   4.716   0.429   6.921
 9394SOL    HW229082   4.648   0.293   6.979
 9395SOL     OW29083   0.663   1.186   1.273
 9395SOL    HW129084   0.685   1.280   1.246
 9395SOL    HW229085   0.647   1.183   1.371
 9396SOL     OW29086   1.223   1.189   6.455
 9396SOL    HW129087   1.172   1.105   6.473
 9396SOL    HW229088   1.302   1.194   6.515
 9397SOL     OW29089   3.394   1.631   5.896
 9397SOL    HW129090   3.322   1.566   5.869
 9397SOL    HW229091   3.355   1.701   5.955
 9398SOL     OW29092   6.873   2.853   6.738
 9398SOL    HW129093   6.863   2.898   6.826
 9398SOL    HW229094   6.879   2.754   6.752
 9399SOL     OW29095   1.204   2.603   5.026
 9399SOL    HW129096   1.276   2.668   5.002
 9399SOL    HW229097   1.178   2.551   4.945
 9400SOL     OW29098   5.715   1.268   0.935
 9400SOL    HW129099   5.793   1.277   0.872
 9400SOL    HW229100   5.748   1.269   1.029
 9401SOL     OW29101   6.838   1.896   3.670
 9401SOL    HW129102   6.865   1.800   3.660
 9401SOL    HW229103   6.884   1.951   3.601
 9402SOL     OW29104   3.789   5.780   5.444
 9402SOL    HW129105   3.776   5.682   5.429
 9402SOL    HW229106   3.781   5.801   5.541
 9403SOL     OW29107   5.730   1.990   1.134
 9403SOL    HW129108   5.678   2.067   1.172
 9403SOL    HW229109   5.695   1.904   1.173
 9404SOL     OW29110   2.695   2.756   0.623
 9404SOL    HW129111   2.744   2.671   0.601
 9404SOL    HW229112   2.688   2.765   0.723
 9405SOL     OW29113   5.958   5.357   5.245
 9405SOL    HW129114   5.944   5.259   5.231
 9405SOL    HW229115   6.024   5.371   5.319
 9406SOL     OW29116   1.729   1.127   0.766
 9406SOL    HW129117   1.796   1.139   0.693
 9406SOL    HW229118   1.713   1.029   0.780
 9407SOL     OW29119   1.877   4.569   4.604
 9407SOL    HW129120   1.930   4.519   4.672
 9407SOL    HW229121   1.897   4.532   4.513
 9408SOL     OW29122   5.763   5.107   3.630
 9408SOL    HW129123   5.742   5.045   3.705
 9408SOL    HW229124   5.695   5.096   3.557
 9409SOL     OW29125   5.747   4.966   1.544
 9409SOL    HW129126   5.711   5.057   1.522
 9409SOL    HW229127   5.819   4.943   1.478
 9410SOL     OW29128   4.578   0.414   0.662
 9410SOL    HW129129   4.530   0.440   0.745
 9410SOL    HW229130   4.596   0.495   0.606
 9411SOL     OW29131   3.765   3.941   4.852
 9411SOL    HW129132   3.807   3.950   4.762
 9411SOL    HW229133   3.684   4.000   4.857
 9412SOL     OW29134   3.943   6.809   1.665
 9412SOL    HW129135   3.887   6.890   1.676
 9412SOL    HW229136   4.040   6.835   1.669
 9413SOL     OW29137   3.915   5.063   3.243
 9413SOL    HW129138   3.824   5.092   3.212
 9413SOL    HW229139   3.907   5.012   3.328
 9414SOL     OW29140   2.183   0.897   2.625
 9414SOL    HW129141   2.247   0.827   2.658
 9414SOL    HW229142   2.235   0.975   2.591
 9415SOL     OW29143   4.906   0.966   0.839
 9415SOL    HW129144   4.826   0.980   0.782
 9415SOL    HW229145   4.877   0.951   0.934
 9416SOL     OW29146   6.671   4.691   6.005
 9416SOL    HW129147   6.687   4.647   6.094
 9416SOL    HW229148   6.573   4.700   5.989
 9417SOL     OW29149   4.102   6.287   3.197
 9417SOL    HW129150   4.142   6.206   3.238
 9417SOL    HW229151   4.100   6.276   3.097
 9418SOL     OW29152   2.575   1.963   5.150
 9418SOL    HW129153   2.542   1.922   5.065
 9418SOL    HW229154   2.506   1.949   5.222
 9419SOL     OW29155   2.906   2.530   6.025
 9419SOL    HW129156   2.921   2.588   5.945
 9419SOL    HW229157   2.817   2.550   6.065
 9420SOL     OW29158   4.939   3.517   5.957
 9420SOL    HW129159   4.993   3.588   5.911
 9420SOL    HW229160   4.894   3.461   5.887
 9421SOL     OW29161   3.924   6.734   0.046
 9421SOL    HW129162   3.972   6.688   0.120
 9421SOL    HW229163   3.990   6.765   6.996
 9422SOL     OW29164   1.896   6.267   6.168
 9422SOL    HW129165   1.925   6.197   6.103
 9422SOL    HW229166   1.808   6.242   6.208
 9423SOL     OW29167   5.099   4.892   0.868
 9423SOL    HW129168   5.147   4.813   0.905
 9423SOL    HW229169   5.004   4.891   0.900
 9424SOL     OW29170   5.867   6.507   3.858
 9424SOL    HW129171   5.771   6.483   3.852
 9424SOL    HW229172   5.915   6.476   3.776
 9425SOL     OW29173   0.260   5.730   1.198
 9425SOL    HW129174   0.293   5.794   1.267
 9425SOL    HW229175   0.324   5.654   1.190
 9426SOL     OW29176   5.069   1.601   5.914
 9426SOL    HW129177   5.040   1.518   5.961
 9426SOL    HW229178   5.014   1.678   5.946
 9427SOL     OW29179   2.810   5.812   1.824
 9427SOL    HW129180   2.873   5.861   1.764
 9427SOL    HW229181   2.858   5.784   1.907
 9428SOL     OW29182   6.922   6.256   4.663
 9428SOL    HW129183   6.992   6.258   4.734
 9428SOL    HW229184   6.953   6.309   4.584
 9429SOL     OW29185   3.107   2.196   4.215
 9429SOL    HW129186   3.144   2.140   4.141
 9429SOL    HW229187   3.180   2.220   4.279
 9430SOL     OW29188   1.131   0.218   3.572
 9430SOL    HW129189   1.147   0.271   3.489
 9430SOL    HW229190   1.037   0.185   3.573
 9431SOL     OW29191   1.355   4.988   5.177
 9431SOL    HW129192   1.330   4.906   5.228
 9431SOL    HW229193   1.322   4.981   5.083
 9432SOL     OW29194   6.769   2.017   3.009
 9432SOL    HW129195   6.812   1.928   2.998
 9432SOL    HW229196   6.682   2.019   2.960
 9433SOL     OW29197   4.121   5.529   1.687
 9433SOL    HW129198   4.095   5.606   1.629
 9433SOL    HW229199   4.218   5.535   1.708
 9434SOL     OW29200   5.118   5.981   4.917
 9434SOL    HW129201   5.138   5.973   4.819
 9434SOL    HW229202   5.134   6.076   4.946
 9435SOL     OW29203   6.865   3.801   6.915
 9435SOL    HW129204   6.879   3.860   6.836
 9435SOL    HW229205   6.800   3.843   6.978
 9436SOL     OW29206   2.990   2.229   2.656
 9436SOL    HW129207   2.979   2.297   2.583
 9436SOL    HW229208   3.015   2.141   2.615
 9437SOL     OW29209   4.323   1.442   3.986
 9437SOL    HW129210   4.247   1.409   4.041
 9437SOL    HW229211   4.386   1.493   4.044
 9438SOL     OW29212   4.684   0.142   3.231
 9438SOL    HW129213   4.753   0.166   3.163
 9438SOL    HW229214   4.622   0.220   3.245
 9439SOL     OW29215   1.193   4.916   1.114
 9439SOL    HW129216   1.143   4.957   1.037
 9439SOL    HW229217   1.203   4.818   1.099
 9440SOL     OW29218   1.789   5.334   4.260
 9440SOL    HW129219   1.735   5.261   4.302
 9440SOL    HW229220   1.797   5.411   4.323
 9441SOL     OW29221   6.328   6.160   4.721
 9441SOL    HW129222   6.370   6.086   4.773
 9441SOL    HW229223   6.230   6.142   4.710
 9442SOL     OW29224   6.904   2.823   1.148
 9442SOL    HW129225   6.830   2.797   1.085
 9442SOL    HW229226   6.903   2.922   1.161
 9443SOL     OW29227   1.255   4.778   1.324
 9443SOL    HW129228   1.249   4.858   1.264
 9443SOL    HW229229   1.169   4.766   1.372
 9444SOL     OW29230   2.196   6.182   5.735
 9444SOL    HW129231   2.124   6.120   5.704
 9444SOL    HW229232   2.219   6.162   5.830
 9445SOL     OW29233   1.104   1.349   3.940
 9445SOL    HW129234   1.057   1.264   3.915
 9445SOL    HW229235   1.137   1.342   4.034
 9446SOL     OW29236   4.964   5.394   3.473
 9446SOL    HW129237   4.989   5.329   3.545
 9446SOL    HW229238   4.889   5.452   3.505
 9447SOL     OW29239   5.680   5.143   2.135
 9447SOL    HW129240   5.686   5.049   2.169
 9447SOL    HW229241   5.664   5.205   2.212
 9448SOL     OW29242   5.127   2.955   0.158
 9448SOL    HW129243   5.039   2.979   0.116
 9448SOL    HW229244   5.146   2.858   0.145
 9449SOL     OW29245   3.860   0.236   3.441
 9449SOL    HW129246   3.847   0.146   3.401
 9449SOL    HW229247   3.932   0.232   3.511
 9450SOL     OW29248   0.508   0.327   1.922
 9450SOL    HW129249   0.606   0.337   1.937
 9450SOL    HW229250   0.467   0.281   2.001
 9451SOL     OW29251   4.630   5.173   0.347
 9451SOL    HW129252   4.570   5.252   0.360
 9451SOL    HW229253   4.679   5.155   0.433
 9452SOL     OW29254   5.837   2.381   6.140
 9452SOL    HW129255   5.833   2.476   6.172
 9452SOL    HW229256   5.923   2.340   6.167
 9453SOL     OW29257   6.413   4.882   2.919
 9453SOL    HW129258   6.426   4.977   2.892
 9453SOL    HW229259   6.377   4.878   3.012
 9454SOL     OW29260   5.870   5.506   0.747
 9454SOL    HW129261   5.813   5.558   0.684
 9454SOL    HW229262   5.924   5.439   0.697
 9455SOL     OW29263   4.519   1.202   1.544
 9455SOL    HW129264   4.565   1.201   1.633
 9455SOL    HW229265   4.563   1.136   1.483
 9456SOL     OW29266   6.883   2.720   2.088
 9456SOL    HW129267   6.833   2.793   2.042
 9456SOL    HW229268   6.834   2.694   2.172
 9457SOL     OW29269   6.356   6.204   4.453
 9457SOL    HW129270   6.363   6.193   4.552
 9457SOL    HW229271   6.271   6.163   4.420
 9458SOL     OW29272   0.222   4.285   7.005
 9458SOL    HW129273   0.171   4.229   0.052
 9458SOL    HW229274   0.312   4.306   0.023
 9459SOL     OW29275   6.223   4.631   5.210
 9459SOL    HW129276   6.183   4.648   5.300
 9459SOL    HW229277   6.207   4.535   5.185
 9460SOL     OW29278   2.146   3.263   2.971
 9460SOL    HW129279   2.210   3.213   3.029
 9460SOL    HW229280   2.058   3.271   3.018
 9461SOL     OW29281   1.358   1.587   1.136
 9461SOL    HW129282   1.297   1.566   1.059
 9461SOL    HW229283   1.329   1.536   1.216
 9462SOL     OW29284   0.013   0.890   5.546
 9462SOL    HW129285   0.107   0.900   5.512
 9462SOL    HW229286   0.015   0.848   5.636
 9463SOL     OW29287   0.624   4.981   0.772
 9463SOL    HW129288   0.566   5.062   0.766
 9463SOL    HW229289   0.701   4.990   0.709
 9464SOL     OW29290   1.107   0.682   1.950
 9464SOL    HW129291   1.083   0.595   1.908
 9464SOL    HW229292   1.156   0.739   1.884
 9465SOL     OW29293   0.976   5.841   6.984
 9465SOL    HW129294   1.074   5.845   6.965
 9465SOL    HW229295   0.957   5.759   0.021
 9466SOL     OW29296   3.927   4.200   5.507
 9466SOL    HW129297   3.978   4.116   5.523
 9466SOL    HW229298   3.899   4.205   5.411
 9467SOL     OW29299   1.699   3.956   1.532
 9467SOL    HW129300   1.700   3.910   1.620
 9467SOL    HW229301   1.605   3.968   1.501
 9468SOL     OW29302   6.583   1.961   1.089
 9468SOL    HW129303   6.651   1.932   1.156
 9468SOL    HW229304   6.504   2.000   1.137
 9469SOL     OW29305   5.955   6.299   2.276
 9469SOL    HW129306   5.932   6.394   2.257
 9469SOL    HW229307   6.050   6.294   2.307
 9470SOL     OW29308   3.667   3.624   0.948
 9470SOL    HW129309   3.757   3.662   0.929
 9470SOL    HW229310   3.614   3.619   0.863
 9471SOL     OW29311   6.717   3.025   4.763
 9471SOL    HW129312   6.769   3.106   4.788
 9471SOL    HW229313   6.775   2.944   4.770
 9472SOL     OW29314   2.047   4.355   5.721
 9472SOL    HW129315   1.967   4.300   5.697
 9472SOL    HW229316   2.094   4.384   5.638
 9473SOL     OW29317   2.960   3.565   1.675
 9473SOL    HW129318   2.970   3.637   1.744
 9473SOL    HW229319   2.863   3.549   1.658
 9474SOL     OW29320   6.095   4.219   0.912
 9474SOL    HW129321   6.116   4.155   0.986
 9474SOL    HW229322   6.030   4.176   0.848
 9475SOL     OW29323   6.255   3.313   6.592
 9475SOL    HW129324   6.260   3.248   6.667
 9475SOL    HW229325   6.299   3.273   6.511
 9476SOL     OW29326   3.971   3.621   1.084
 9476SOL    HW129327   4.068   3.603   1.067
 9476SOL    HW229328   3.946   3.586   1.174
 9477SOL     OW29329   1.144   5.483   1.049
 9477SOL    HW129330   1.048   5.474   1.075
 9477SOL    HW229331   1.177   5.574   1.072
 9478SOL     OW29332   0.514   3.463   5.381
 9478SOL    HW129333   0.418   3.437   5.366
 9478SOL    HW229334   0.545   3.519   5.304
 9479SOL     OW29335   4.051   0.807   1.984
 9479SOL    HW129336   4.018   0.835   2.074
 9479SOL    HW229337   4.096   0.884   1.939
 9480SOL     OW29338   5.470   0.941   1.130
 9480SOL    HW129339   5.439   0.848   1.111
 9480SOL    HW229340   5.441   0.968   1.222
 9481SOL     OW29341   4.840   0.127   4.003
 9481SOL    HW129342   4.935   0.126   3.974
 9481SOL    HW229343   4.835   0.119   4.102
 9482SOL     OW29344   5.633   4.289   6.319
 9482SOL    HW129345   5.726   4.279   6.353
 9482SOL    HW229346   5.568   4.269   6.393
 9483SOL     OW29347   5.517   4.988   0.317
 9483SOL    HW129348   5.431   5.013   0.273
 9483SOL    HW229349   5.570   4.928   0.255
 9484SOL     OW29350   1.359   5.571   3.994
 9484SOL    HW129351   1.418   5.533   3.921
 9484SOL    HW229352   1.362   5.511   4.073
 9485SOL     OW29353   6.540   1.524   5.737
 9485SOL    HW129354   6.524   1.575   5.653
 9485SOL    HW229355   6.589   1.439   5.716
 9486SOL     OW29356   6.586   5.409   6.257
 9486SOL    HW129357   6.577   5.379   6.352
 9486SOL    HW229358   6.618   5.333   6.201
 9487SOL     OW29359   2.909   3.552   4.048
 9487SOL    HW129360   2.900   3.453   4.035
 9487SOL    HW229361   2.852   3.581   4.125
 9488SOL     OW29362   0.973   0.902   2.511
 9488SOL    HW129363   1.021   0.988   2.497
 9488SOL    HW229364   1.001   0.836   2.442
 9489SOL     OW29365   0.023   4.473   6.918
 9489SOL    HW129366   0.072   4.386   6.908
 9489SOL    HW229367   6.956   4.458   6.968
 9490SOL     OW29368   5.638   4.151   4.896
 9490SOL    HW129369   5.643   4.251   4.891
 9490SOL    HW229370   5.552   4.124   4.939
 9491SOL     OW29371   4.892   7.009   2.398
 9491SOL    HW129372   4.967   7.015   2.464
 9491SOL    HW229373   4.897   0.067   2.335
 9492SOL     OW29374   4.998   3.056   3.926
 9492SOL    HW129375   4.936   3.040   3.848
 9492SOL    HW229376   5.088   3.082   3.892
 9493SOL     OW29377   2.626   6.609   3.104
 9493SOL    HW129378   2.647   6.521   3.061
 9493SOL    HW229379   2.583   6.594   3.193
 9494SOL     OW29380   4.749   2.324   2.369
 9494SOL    HW129381   4.734   2.419   2.397
 9494SOL    HW229382   4.801   2.322   2.284
 9495SOL     OW29383   6.200   2.678   0.763
 9495SOL    HW129384   6.143   2.629   0.697
 9495SOL    HW229385   6.292   2.689   0.725
 9496SOL     OW29386   6.492   3.077   0.177
 9496SOL    HW129387   6.542   3.132   0.110
 9496SOL    HW229388   6.534   3.088   0.267
 9497SOL     OW29389   5.968   4.778   4.754
 9497SOL    HW129390   6.005   4.788   4.847
 9497SOL    HW229391   6.027   4.718   4.701
 9498SOL     OW29392   1.001   6.370   5.745
 9498SOL    HW129393   0.969   6.336   5.834
 9498SOL    HW229394   0.933   6.346   5.675
 9499SOL     OW29395   5.626   6.225   3.270
 9499SOL    HW129396   5.548   6.281   3.299
 9499SOL    HW229397   5.638   6.233   3.171
 9500SOL     OW29398   2.544   1.684   0.663
 9500SOL    HW129399   2.596   1.757   0.707
 9500SOL    HW229400   2.593   1.652   0.582
 9501SOL     OW29401   1.532   3.326   4.921
 9501SOL    HW129402   1.538   3.285   5.012
 9501SOL    HW229403   1.587   3.271   4.857
 9502SOL     OW29404   5.622   4.564   3.762
 9502SOL    HW129405   5.657   4.587   3.852
 9502SOL    HW229406   5.556   4.489   3.769
 9503SOL     OW29407   6.766   0.531   0.245
 9503SOL    HW129408   6.687   0.520   0.306
 9503SOL    HW229409   6.774   0.627   0.219
 9504SOL     OW29410   6.212   4.750   2.802
 9504SOL    HW129411   6.292   4.794   2.843
 9504SOL    HW229412   6.187   4.670   2.856
 9505SOL     OW29413   5.075   2.908   0.413
 9505SOL    HW129414   5.090   2.996   0.367
 9505SOL    HW229415   5.055   2.838   0.346
 9506SOL     OW29416   3.941   1.242   1.535
 9506SOL    HW129417   3.990   1.186   1.602
 9506SOL    HW229418   3.923   1.186   1.453
 9507SOL     OW29419   0.080   5.910   1.450
 9507SOL    HW129420   0.077   5.949   1.542
 9507SOL    HW229421   0.167   5.934   1.407
 9508SOL     OW29422   5.181   1.475   2.408
 9508SOL    HW129423   5.242   1.402   2.440
 9508SOL    HW229424   5.228   1.563   2.415
 9509SOL     OW29425   5.804   1.357   4.013
 9509SOL    HW129426   5.709   1.328   4.020
 9509SOL    HW229427   5.853   1.296   3.951
 9510SOL     OW29428   1.438   3.427   2.228
 9510SOL    HW129429   1.373   3.368   2.179
 9510SOL    HW229430   1.457   3.508   2.172
 9511SOL     OW29431   0.882   1.112   0.704
 9511SOL    HW129432   0.973   1.072   0.719
 9511SOL    HW229433   0.887   1.211   0.717
 9512SOL     OW29434   6.324   2.448   1.369
 9512SOL    HW129435   6.225   2.455   1.371
 9512SOL    HW229436   6.365   2.530   1.410
 9513SOL     OW29437   4.946   3.729   4.640
 9513SOL    HW129438   4.948   3.703   4.736
 9513SOL    HW229439   4.895   3.660   4.588
 9514SOL     OW29440   3.803   3.139   1.361
 9514SOL    HW129441   3.730   3.204   1.340
 9514SOL    HW229442   3.836   3.098   1.277
 9515SOL     OW29443   6.345   6.469   2.833
 9515SOL    HW129444   6.247   6.486   2.822
 9515SOL    HW229445   6.362   6.370   2.831
 9516SOL     OW29446   1.543   2.425   6.832
 9516SOL    HW129447   1.618   2.486   6.858
 9516SOL    HW229448   1.541   2.346   6.893
 9517SOL     OW29449   0.500   6.740   2.114
 9517SOL    HW129450   0.452   6.816   2.069
 9517SOL    HW229451   0.433   6.683   2.162
 9518SOL     OW29452   6.459   6.836   1.104
 9518SOL    HW129453   6.412   6.793   1.027
 9518SOL    HW229454   6.446   6.781   1.186
 9519SOL     OW29455   1.226   2.653   5.768
 9519SOL    HW129456   1.258   2.601   5.688
 9519SOL    HW229457   1.128   2.671   5.758
 9520SOL     OW29458   4.104   6.514   2.243
 9520SOL    HW129459   4.137   6.551   2.330
 9520SOL    HW229460   4.152   6.559   2.168
 9521SOL     OW29461   5.783   4.895   2.969
 9521SOL    HW129462   5.794   4.995   2.974
 9521SOL    HW229463   5.711   4.873   2.903
 9522SOL     OW29464   3.892   4.774   5.473
 9522SOL    HW129465   3.932   4.840   5.537
 9522SOL    HW229466   3.805   4.742   5.509
 9523SOL     OW29467   1.082   6.785   4.438
 9523SOL    HW129468   1.080   6.812   4.342
 9523SOL    HW229469   1.158   6.830   4.485
 9524SOL     OW29470   6.121   3.471   0.552
 9524SOL    HW129471   6.181   3.418   0.492
 9524SOL    HW229472   6.032   3.483   0.508
 9525SOL     OW29473   4.398   0.362   4.478
 9525SOL    HW129474   4.328   0.291   4.483
 9525SOL    HW229475   4.458   0.356   4.558
 9526SOL     OW29476   4.790   5.182   0.574
 9526SOL    HW129477   4.875   5.189   0.626
 9526SOL    HW229478   4.713   5.169   0.636
 9527SOL     OW29479   6.969   0.762   0.269
 9527SOL    HW129480   6.876   0.767   0.233
 9527SOL    HW229481   6.966   0.765   0.369
 9528SOL     OW29482   5.507   1.005   2.242
 9528SOL    HW129483   5.450   0.984   2.163
 9528SOL    HW229484   5.521   0.922   2.296
 9529SOL     OW29485   1.338   2.521   5.555
 9529SOL    HW129486   1.410   2.461   5.588
 9529SOL    HW229487   1.379   2.592   5.496
 9530SOL     OW29488   2.470   1.479   3.623
 9530SOL    HW129489   2.442   1.424   3.544
 9530SOL    HW229490   2.464   1.423   3.706
 9531SOL     OW29491   2.442   6.605   3.827
 9531SOL    HW129492   2.503   6.672   3.868
 9531SOL    HW229493   2.408   6.641   3.739
 9532SOL     OW29494   3.511   1.298   1.411
 9532SOL    HW129495   3.557   1.252   1.335
 9532SOL    HW229496   3.580   1.340   1.470
 9533SOL     OW29497   0.353   1.233   3.974
 9533SOL    HW129498   0.273   1.194   3.929
 9533SOL    HW229499   0.405   1.159   4.019
 9534SOL     OW29500   5.045   1.172   4.045
 9534SOL    HW129501   5.014   1.104   3.980
 9534SOL    HW229502   4.998   1.159   4.133
 9535SOL     OW29503   3.027   1.413   4.791
 9535SOL    HW129504   2.995   1.319   4.777
 9535SOL    HW229505   2.949   1.474   4.802
 9536SOL     OW29506   2.173   5.664   6.922
 9536SOL    HW129507   2.269   5.690   6.935
 9536SOL    HW229508   2.131   5.725   6.856
 9537SOL     OW29509   2.341   0.578   0.140
 9537SOL    HW129510   2.391   0.651   0.094
 9537SOL    HW229511   2.244   0.584   0.117
 9538SOL     OW29512   5.873   3.773   3.425
 9538SOL    HW129513   5.793   3.716   3.443
 9538SOL    HW229514   5.956   3.722   3.446
 9539SOL     OW29515   1.126   2.922   0.163
 9539SOL    HW129516   1.034   2.882   0.174
 9539SOL    HW229517   1.194   2.849   0.162
 9540SOL     OW29518   6.054   3.205   5.293
 9540SOL    HW129519   6.099   3.288   5.261
 9540SOL    HW229520   6.080   3.128   5.236
 9541SOL     OW29521   6.270   2.060   2.877
 9541SOL    HW129522   6.282   2.053   2.778
 9541SOL    HW229523   6.177   2.092   2.897
 9542SOL     OW29524   4.874   3.241   4.360
 9542SOL    HW129525   4.842   3.256   4.267
 9542SOL    HW229526   4.970   3.215   4.358
 9543SOL     OW29527   3.839   2.202   0.075
 9543SOL    HW129528   3.868   2.266   0.146
 9543SOL    HW229529   3.862   2.109   0.102
 9544SOL     OW29530   4.719   6.853   1.424
 9544SOL    HW129531   4.715   6.774   1.484
 9544SOL    HW229532   4.660   6.839   1.345
 9545SOL     OW29533   0.960   0.406   3.981
 9545SOL    HW129534   0.893   0.411   3.906
 9545SOL    HW229535   1.047   0.372   3.946
 9546SOL     OW29536   3.034   4.253   1.772
 9546SOL    HW129537   3.078   4.254   1.682
 9546SOL    HW229538   2.980   4.336   1.784
 9547SOL     OW29539   5.705   6.623   2.238
 9547SOL    HW129540   5.773   6.622   2.311
 9547SOL    HW229541   5.746   6.661   2.155
 9548SOL     OW29542   6.401   6.938   1.678
 9548SOL    HW129543   6.468   6.866   1.662
 9548SOL    HW229544   6.420   6.983   1.766
 9549SOL     OW29545   1.919   6.142   0.113
 9549SOL    HW129546   1.994   6.201   0.143
 9549SOL    HW229547   1.954   6.072   0.050
 9550SOL     OW29548   1.797   0.799   0.530
 9550SOL    HW129549   1.768   0.857   0.605
 9550SOL    HW229550   1.789   0.849   0.444
 9551SOL     OW29551   1.451   5.676   4.559
 9551SOL    HW129552   1.428   5.653   4.464
 9551SOL    HW229553   1.478   5.594   4.608
 9552SOL     OW29554   6.646   5.457   2.802
 9552SOL    HW129555   6.580   5.524   2.767
 9552SOL    HW229556   6.598   5.373   2.828
 9553SOL     OW29557   5.298   4.927   6.558
 9553SOL    HW129558   5.249   5.009   6.588
 9553SOL    HW229559   5.272   4.906   6.464
 9554SOL     OW29560   1.837   2.641   1.481
 9554SOL    HW129561   1.809   2.618   1.388
 9554SOL    HW229562   1.797   2.576   1.545
 9555SOL     OW29563   0.315   2.342   6.437
 9555SOL    HW129564   0.383   2.277   6.472
 9555SOL    HW229565   0.358   2.404   6.372
 9556SOL     OW29566   5.824   1.070   1.744
 9556SOL    HW129567   5.788   1.016   1.668
 9556SOL    HW229568   5.764   1.148   1.761
 9557SOL     OW29569   5.041   1.869   1.128
 9557SOL    HW129570   4.953   1.826   1.148
 9557SOL    HW229571   5.108   1.841   1.197
 9558SOL     OW29572   6.748   4.316   1.634
 9558SOL    HW129573   6.788   4.395   1.587
 9558SOL    HW229574   6.820   4.249   1.652
 9559SOL     OW29575   0.253   4.837   3.506
 9559SOL    HW129576   0.210   4.871   3.422
 9559SOL    HW229577   0.351   4.854   3.503
 9560SOL     OW29578   3.709   2.313   5.610
 9560SOL    HW129579   3.642   2.364   5.556
 9560SOL    HW229580   3.754   2.375   5.674
 9561SOL     OW29581   3.413   5.020   6.413
 9561SOL    HW129582   3.335   4.978   6.367
 9561SOL    HW229583   3.388   5.043   6.507
 9562SOL     OW29584   6.187   5.247   3.937
 9562SOL    HW129585   6.253   5.280   3.871
 9562SOL    HW229586   6.181   5.311   4.014
 9563SOL     OW29587   0.737   1.292   5.639
 9563SOL    HW129588   0.778   1.253   5.722
 9563SOL    HW229589   0.808   1.302   5.569
 9564SOL     OW29590   0.072   0.419   5.885
 9564SOL    HW129591   0.013   0.407   5.965
 9564SOL    HW229592   0.037   0.362   5.810
 9565SOL     OW29593   2.660   5.536   5.169
 9565SOL    HW129594   2.637   5.476   5.245
 9565SOL    HW229595   2.649   5.631   5.197
 9566SOL     OW29596   2.172   5.859   5.056
 9566SOL    HW129597   2.142   5.943   5.101
 9566SOL    HW229598   2.126   5.780   5.096
 9567SOL     OW29599   5.715   5.772   3.200
 9567SOL    HW129600   5.755   5.712   3.270
 9567SOL    HW229601   5.783   5.792   3.130
 9568SOL     OW29602   6.065   3.296   4.759
 9568SOL    HW129603   6.112   3.220   4.714
 9568SOL    HW229604   6.106   3.382   4.730
 9569SOL     OW29605   5.320   0.734   1.067
 9569SOL    HW129606   5.256   0.787   1.012
 9569SOL    HW229607   5.345   0.650   1.019
 9570SOL     OW29608   0.176   3.519   6.220
 9570SOL    HW129609   0.136   3.611   6.224
 9570SOL    HW229610   0.197   3.497   6.125
 9571SOL     OW29611   3.460   1.686   0.943
 9571SOL    HW129612   3.441   1.745   1.022
 9571SOL    HW229613   3.436   1.735   0.859
 9572SOL     OW29614   0.690   3.371   0.691
 9572SOL    HW129615   0.712   3.414   0.604
 9572SOL    HW229616   0.667   3.274   0.676
 9573SOL     OW29617   4.827   1.976   1.828
 9573SOL    HW129618   4.874   1.928   1.754
 9573SOL    HW229619   4.728   1.959   1.821
 9574SOL     OW29620   1.992   1.298   3.773
 9574SOL    HW129621   2.067   1.233   3.763
 9574SOL    HW229622   1.908   1.248   3.798
 9575SOL     OW29623   3.354   1.845   2.677
 9575SOL    HW129624   3.393   1.937   2.679
 9575SOL    HW229625   3.254   1.852   2.682
 9576SOL     OW29626   4.669   2.837   6.077
 9576SOL    HW129627   4.606   2.782   6.022
 9576SOL    HW229628   4.617   2.896   6.138
 9577SOL     OW29629   0.453   5.778   3.584
 9577SOL    HW129630   0.503   5.717   3.645
 9577SOL    HW229631   0.384   5.726   3.535
 9578SOL     OW29632   6.617   4.421   1.362
 9578SOL    HW129633   6.656   4.474   1.438
 9578SOL    HW229634   6.518   4.436   1.358
 9579SOL     OW29635   1.349   4.714   2.380
 9579SOL    HW129636   1.336   4.682   2.286
 9579SOL    HW229637   1.425   4.779   2.383
 9580SOL     OW29638   4.006   3.753   4.928
 9580SOL    HW129639   4.052   3.802   4.854
 9580SOL    HW229640   3.915   3.724   4.898
 9581SOL     OW29641   0.500   0.126   6.685
 9581SOL    HW129642   0.441   0.074   6.747
 9581SOL    HW229643   0.491   0.224   6.703
 9582SOL     OW29644   4.279   5.553   3.040
 9582SOL    HW129645   4.286   5.652   3.051
 9582SOL    HW229646   4.236   5.513   3.122
 9583SOL     OW29647   1.560   4.796   2.795
 9583SOL    HW129648   1.580   4.744   2.712
 9583SOL    HW229649   1.465   4.779   2.823
 9584SOL     OW29650   5.291   5.024   0.164
 9584SOL    HW129651   5.285   5.028   0.064
 9584SOL    HW229652   5.206   4.986   0.200
 9585SOL     OW29653   5.657   1.159   2.465
 9585SOL    HW129654   5.747   1.202   2.452
 9585SOL    HW229655   5.626   1.119   2.379
 9586SOL     OW29656   3.906   4.960   2.456
 9586SOL    HW129657   3.974   4.977   2.385
 9586SOL    HW229658   3.952   4.921   2.536
 9587SOL     OW29659   4.232   6.579   1.734
 9587SOL    HW129660   4.199   6.671   1.713
 9587SOL    HW229661   4.156   6.514   1.725
 9588SOL     OW29662   5.917   1.348   3.425
 9588SOL    HW129663   5.981   1.359   3.500
 9588SOL    HW229664   5.907   1.435   3.377
 9589SOL     OW29665   4.183   2.124   4.914
 9589SOL    HW129666   4.177   2.082   4.823
 9589SOL    HW229667   4.140   2.063   4.981
 9590SOL     OW29668   0.070   4.916   5.274
 9590SOL    HW129669   0.106   4.833   5.230
 9590SOL    HW229670   0.141   4.986   5.275
 9591SOL     OW29671   0.047   4.504   2.259
 9591SOL    HW129672   0.054   4.457   2.171
 9591SOL    HW229673   6.979   4.554   2.263
 9592SOL     OW29674   4.099   5.279   0.915
 9592SOL    HW129675   4.059   5.196   0.955
 9592SOL    HW229676   4.197   5.265   0.902
 9593SOL     OW29677   2.221   2.891   3.783
 9593SOL    HW129678   2.292   2.844   3.837
 9593SOL    HW229679   2.265   2.956   3.722
 9594SOL     OW29680   5.852   0.444   0.719
 9594SOL    HW129681   5.901   0.508   0.779
 9594SOL    HW229682   5.816   0.493   0.640
 9595SOL     OW29683   2.199   4.907   5.248
 9595SOL    HW129684   2.178   4.877   5.341
 9595SOL    HW229685   2.235   4.830   5.195
 9596SOL     OW29686   5.185   4.720   2.095
 9596SOL    HW129687   5.159   4.782   2.020
 9596SOL    HW229688   5.229   4.773   2.168
 9597SOL     OW29689   1.661   3.911   2.029
 9597SOL    HW129690   1.638   3.838   2.092
 9597SOL    HW229691   1.645   4.000   2.072
 9598SOL     OW29692   0.359   6.226   5.297
 9598SOL    HW129693   0.410   6.140   5.296
 9598SOL    HW229694   0.421   6.302   5.278
 9599SOL     OW29695   4.158   2.171   5.763
 9599SOL    HW129696   4.216   2.121   5.828
 9599SOL    HW229697   4.109   2.105   5.706
 9600SOL     OW29698   1.468   5.647   6.911
 9600SOL    HW129699   1.530   5.709   6.960
 9600SOL    HW229700   1.487   5.552   6.938
 9601SOL     OW29701   0.984   0.161   4.591
 9601SOL    HW129702   1.059   0.141   4.527
 9601SOL    HW229703   0.907   0.199   4.540
 9602SOL     OW29704   1.162   5.875   6.076
 9602SOL    HW129705   1.175   5.823   5.992
 9602SOL    HW229706   1.134   5.813   6.150
 9603SOL     OW29707   1.602   5.114   1.765
 9603SOL    HW129708   1.603   5.190   1.701
 9603SOL    HW229709   1.553   5.037   1.725
 9604SOL     OW29710   6.172   0.368   6.007
 9604SOL    HW129711   6.169   0.456   5.959
 9604SOL    HW229712   6.151   0.294   5.944
 9605SOL     OW29713   3.419   4.880   0.407
 9605SOL    HW129714   3.334   4.829   0.419
 9605SOL    HW229715   3.435   4.898   0.310
 9606SOL     OW29716   6.857   1.592   4.483
 9606SOL    HW129717   6.860   1.591   4.383
 9606SOL    HW229718   6.819   1.505   4.515
 9607SOL     OW29719   6.681   3.256   3.598
 9607SOL    HW129720   6.695   3.248   3.697
 9607SOL    HW229721   6.635   3.343   3.578
 9608SOL     OW29722   6.041   1.000   1.524
 9608SOL    HW129723   6.021   0.919   1.578
 9608SOL    HW229724   5.955   1.042   1.494
 9609SOL     OW29725   0.997   2.227   3.478
 9609SOL    HW129726   0.904   2.201   3.452
 9609SOL    HW229727   1.046   2.260   3.398
 9610SOL     OW29728   5.398   1.371   5.928
 9610SOL    HW129729   5.299   1.361   5.916
 9610SOL    HW229730   5.434   1.432   5.858
 9611SOL     OW29731   5.137   5.258   1.530
 9611SOL    HW129732   5.189   5.206   1.598
 9611SOL    HW229733   5.052   5.291   1.571
 9612SOL     OW29734   4.862   3.757   3.507
 9612SOL    HW129735   4.850   3.856   3.516
 9612SOL    HW229736   4.870   3.716   3.598
 9613SOL     OW29737   4.301   1.688   4.620
 9613SOL    HW129738   4.306   1.784   4.590
 9613SOL    HW229739   4.210   1.669   4.656
 9614SOL     OW29740   3.632   2.643   0.296
 9614SOL    HW129741   3.631   2.657   0.197
 9614SOL    HW229742   3.586   2.557   0.318
 9615SOL     OW29743   6.356   6.001   3.721
 9615SOL    HW129744   6.370   6.083   3.665
 9615SOL    HW229745   6.393   6.016   3.812
 9616SOL     OW29746   0.365   2.213   1.197
 9616SOL    HW129747   0.307   2.289   1.226
 9616SOL    HW229748   0.325   2.168   1.117
 9617SOL     OW29749   0.896   3.480   3.649
 9617SOL    HW129750   0.870   3.396   3.696
 9617SOL    HW229751   0.820   3.545   3.650
 9618SOL     OW29752   5.369   4.188   1.963
 9618SOL    HW129753   5.308   4.109   1.971
 9618SOL    HW229754   5.435   4.172   1.889
 9619SOL     OW29755   1.581   1.420   1.080
 9619SOL    HW129756   1.541   1.373   1.001
 9619SOL    HW229757   1.517   1.490   1.112
 9620SOL     OW29758   3.295   1.241   6.023
 9620SOL    HW129759   3.340   1.157   5.994
 9620SOL    HW229760   3.363   1.311   6.043
 9621SOL     OW29761   6.859   0.401   0.642
 9621SOL    HW129762   6.829   0.305   0.641
 9621SOL    HW229763   6.889   0.427   0.550
 9622SOL     OW29764   6.529   0.395   4.889
 9622SOL    HW129765   6.510   0.406   4.987
 9622SOL    HW229766   6.483   0.468   4.838
 9623SOL     OW29767   2.194   5.659   6.036
 9623SOL    HW129768   2.210   5.585   6.102
 9623SOL    HW229769   2.101   5.652   6.000
 9624SOL     OW29770   4.005   5.022   6.262
 9624SOL    HW129771   4.011   5.120   6.278
 9624SOL    HW229772   4.084   4.977   6.304
 9625SOL     OW29773   5.182   3.910   6.461
 9625SOL    HW129774   5.089   3.888   6.491
 9625SOL    HW229775   5.208   3.851   6.385
 9626SOL     OW29776   3.109   2.634   6.998
 9626SOL    HW129777   3.014   2.623   0.010
 9626SOL    HW229778   3.170   2.632   0.059
 9627SOL     OW29779   6.875   5.325   0.352
 9627SOL    HW129780   6.918   5.237   0.372
 9627SOL    HW229781   6.939   5.383   0.301
 9628SOL     OW29782   6.177   1.476   5.414
 9628SOL    HW129783   6.084   1.440   5.409
 9628SOL    HW229784   6.197   1.505   5.508
 9629SOL     OW29785   0.580   5.925   3.967
 9629SOL    HW129786   0.537   6.011   3.997
 9629SOL    HW229787   0.608   5.934   3.872
 9630SOL     OW29788   5.963   0.407   5.349
 9630SOL    HW129789   6.053   0.401   5.306
 9630SOL    HW229790   5.892   0.402   5.278
 9631SOL     OW29791   4.283   6.161   0.248
 9631SOL    HW129792   4.308   6.179   0.343
 9631SOL    HW229793   4.353   6.197   0.186
 9632SOL     OW29794   2.753   5.599   2.763
 9632SOL    HW129795   2.826   5.531   2.772
 9632SOL    HW229796   2.751   5.656   2.845
 9633SOL     OW29797   2.182   3.098   5.755
 9633SOL    HW129798   2.157   3.077   5.849
 9633SOL    HW229799   2.136   3.035   5.693
 9634SOL     OW29800   5.797   4.617   3.335
 9634SOL    HW129801   5.836   4.708   3.349
 9634SOL    HW229802   5.768   4.608   3.240
 9635SOL     OW29803   1.044   5.375   4.102
 9635SOL    HW129804   1.006   5.414   4.186
 9635SOL    HW229805   1.138   5.345   4.119
 9636SOL     OW29806   4.897   3.638   3.743
 9636SOL    HW129807   4.872   3.552   3.787
 9636SOL    HW229808   4.970   3.683   3.795
 9637SOL     OW29809   3.436   2.282   6.363
 9637SOL    HW129810   3.435   2.298   6.264
 9637SOL    HW229811   3.505   2.340   6.406
 9638SOL     OW29812   1.317   4.192   6.342
 9638SOL    HW129813   1.250   4.266   6.340
 9638SOL    HW229814   1.387   4.211   6.411
 9639SOL     OW29815   5.692   2.670   1.431
 9639SOL    HW129816   5.761   2.676   1.358
 9639SOL    HW229817   5.669   2.574   1.447
 9640SOL     OW29818   2.994   6.468   3.363
 9640SOL    HW129819   2.894   6.468   3.365
 9640SOL    HW229820   3.028   6.561   3.351
 9641SOL     OW29821   1.164   2.656   4.576
 9641SOL    HW129822   1.120   2.647   4.487
 9641SOL    HW229823   1.129   2.738   4.622
 9642SOL     OW29824   0.685   3.075   4.551
 9642SOL    HW129825   0.773   3.070   4.503
 9642SOL    HW229826   0.612   3.085   4.483
 9643SOL     OW29827   6.405   5.473   4.722
 9643SOL    HW129828   6.485   5.532   4.717
 9643SOL    HW229829   6.339   5.500   4.652
 9644SOL     OW29830   1.082   4.742   3.695
 9644SOL    HW129831   1.034   4.790   3.621
 9644SOL    HW229832   1.177   4.772   3.698
 9645SOL     OW29833   0.398   4.980   0.435
 9645SOL    HW129834   0.327   4.942   0.495
 9645SOL    HW229835   0.422   4.913   0.365
 9646SOL     OW29836   2.336   5.361   0.516
 9646SOL    HW129837   2.294   5.277   0.551
 9646SOL    HW229838   2.316   5.436   0.579
 9647SOL     OW29839   5.041   7.011   2.663
 9647SOL    HW129840   5.033   0.080   2.712
 9647SOL    HW229841   5.118   6.959   2.700
 9648SOL     OW29842   3.881   2.173   0.624
 9648SOL    HW129843   3.902   2.241   0.554
 9648SOL    HW229844   3.965   2.125   0.650
 9649SOL     OW29845   0.098   5.410   0.237
 9649SOL    HW129846   0.183   5.384   0.283
 9649SOL    HW229847   0.108   5.394   0.139
 9650SOL     OW29848   0.048   5.346   5.410
 9650SOL    HW129849   0.007   5.362   5.320
 9650SOL    HW229850   7.016   5.275   5.458
 9651SOL     OW29851   3.814   1.127   0.848
 9651SOL    HW129852   3.818   1.115   0.749
 9651SOL    HW229853   3.854   1.215   0.873
 9652SOL     OW29854   0.463   4.194   0.117
 9652SOL    HW129855   0.415   4.106   0.106
 9652SOL    HW229856   0.518   4.212   0.036
 9653SOL     OW29857   5.822   3.732   4.657
 9653SOL    HW129858   5.856   3.748   4.565
 9653SOL    HW229859   5.831   3.816   4.711
 9654SOL     OW29860   3.694   3.295   4.370
 9654SOL    HW129861   3.711   3.390   4.345
 9654SOL    HW229862   3.645   3.291   4.457
 9655SOL     OW29863   4.436   0.748   0.448
 9655SOL    HW129864   4.361   0.735   0.513
 9655SOL    HW229865   4.467   0.843   0.451
 9656SOL     OW29866   5.301   5.029   4.798
 9656SOL    HW129867   5.384   5.065   4.840
 9656SOL    HW229868   5.263   5.096   4.734
 9657SOL     OW29869   4.884   5.041   2.539
 9657SOL    HW129870   4.973   5.085   2.539
 9657SOL    HW229871   4.826   5.084   2.470
 9658SOL     OW29872   5.302   1.126   2.654
 9658SOL    HW129873   5.272   1.080   2.570
 9658SOL    HW229874   5.233   1.113   2.725
 9659SOL     OW29875   4.188   3.515   0.384
 9659SOL    HW129876   4.220   3.530   0.477
 9659SOL    HW229877   4.192   3.417   0.363
 9660SOL     OW29878   2.691   0.189   1.962
 9660SOL    HW129879   2.655   0.254   2.029
 9660SOL    HW229880   2.617   0.132   1.928
 9661SOL     OW29881   3.481   4.045   2.215
 9661SOL    HW129882   3.556   4.104   2.185
 9661SOL    HW229883   3.405   4.052   2.151
 9662SOL     OW29884   3.998   0.845   4.883
 9662SOL    HW129885   4.094   0.845   4.913
 9662SOL    HW229886   3.939   0.864   4.961
 9663SOL     OW29887   1.145   5.623   2.114
 9663SOL    HW129888   1.214   5.681   2.072
 9663SOL    HW229889   1.182   5.580   2.196
 9664SOL     OW29890   1.722   4.631   2.325
 9664SOL    HW129891   1.645   4.653   2.265
 9664SOL    HW229892   1.723   4.693   2.403
 9665SOL     OW29893   6.210   3.815   6.819
 9665SOL    HW129894   6.160   3.815   6.905
 9665SOL    HW229895   6.175   3.742   6.760
 9666SOL     OW29896   5.336   4.231   1.424
 9666SOL    HW129897   5.279   4.229   1.342
 9666SOL    HW229898   5.432   4.221   1.398
 9667SOL     OW29899   5.967   6.263   0.353
 9667SOL    HW129900   5.922   6.352   0.355
 9667SOL    HW229901   5.904   6.195   0.315
 9668SOL     OW29902   2.355   0.575   0.893
 9668SOL    HW129903   2.341   0.574   0.793
 9668SOL    HW229904   2.318   0.661   0.930
 9669SOL     OW29905   3.491   0.379   1.037
 9669SOL    HW129906   3.508   0.287   1.003
 9669SOL    HW229907   3.575   0.434   1.028
 9670SOL     OW29908   0.442   0.288   2.428
 9670SOL    HW129909   0.469   0.375   2.470
 9670SOL    HW229910   0.385   0.307   2.348
 9671SOL     OW29911   0.956   5.840   6.465
 9671SOL    HW129912   0.885   5.857   6.533
 9671SOL    HW229913   0.961   5.742   6.445
 9672SOL     OW29914   0.129   4.006   4.450
 9672SOL    HW129915   0.092   3.933   4.507
 9672SOL    HW229916   0.216   4.037   4.488
 9673SOL     OW29917   2.085   2.973   5.534
 9673SOL    HW129918   1.999   2.925   5.553
 9673SOL    HW229919   2.111   2.958   5.439
 9674SOL     OW29920   1.666   0.492   3.643
 9674SOL    HW129921   1.574   0.528   3.631
 9674SOL    HW229922   1.710   0.482   3.554
 9675SOL     OW29923   6.751   3.930   6.179
 9675SOL    HW129924   6.819   3.887   6.120
 9675SOL    HW229925   6.795   3.964   6.262
 9676SOL     OW29926   0.834   2.791   6.415
 9676SOL    HW129927   0.873   2.879   6.388
 9676SOL    HW229928   0.909   2.727   6.437
 9677SOL     OW29929   0.700   4.929   2.997
 9677SOL    HW129930   0.717   4.864   2.923
 9677SOL    HW229931   0.738   4.893   3.082
 9678SOL     OW29932   4.782   3.445   6.721
 9678SOL    HW129933   4.845   3.413   6.791
 9678SOL    HW229934   4.812   3.413   6.631
 9679SOL     OW29935   1.435   1.446   4.373
 9679SOL    HW129936   1.402   1.503   4.449
 9679SOL    HW229937   1.534   1.458   4.363
 9680SOL     OW29938   4.381   6.362   2.775
 9680SOL    HW129939   4.424   6.453   2.776
 9680SOL    HW229940   4.417   6.308   2.851
 9681SOL     OW29941   0.719   2.526   1.126
 9681SOL    HW129942   0.629   2.508   1.167
 9681SOL    HW229943   0.717   2.499   1.030
 9682SOL     OW29944   3.980   6.525   5.546
 9682SOL    HW129945   4.047   6.490   5.481
 9682SOL    HW229946   3.930   6.450   5.588
 9683SOL     OW29947   3.064   5.989   3.672
 9683SOL    HW129948   3.114   5.961   3.590
 9683SOL    HW229949   2.969   6.010   3.648
 9684SOL     OW29950   1.399   2.635   6.226
 9684SOL    HW129951   1.375   2.687   6.144
 9684SOL    HW229952   1.497   2.615   6.225
 9685SOL     OW29953   3.676   4.679   1.610
 9685SOL    HW129954   3.761   4.640   1.645
 9685SOL    HW229955   3.611   4.689   1.685
 9686SOL     OW29956   0.933   1.995   6.262
 9686SOL    HW129957   0.838   2.025   6.263
 9686SOL    HW229958   0.991   2.070   6.230
 9687SOL     OW29959   5.961   0.299   4.184
 9687SOL    HW129960   5.937   0.363   4.257
 9687SOL    HW229961   5.937   0.206   4.210
 9688SOL     OW29962   0.883   5.122   2.328
 9688SOL    HW129963   0.813   5.081   2.269
 9688SOL    HW229964   0.973   5.111   2.285
 9689SOL     OW29965   1.936   5.884   0.926
 9689SOL    HW129966   1.978   5.940   0.997
 9689SOL    HW229967   1.847   5.851   0.957
 9690SOL     OW29968   5.987   4.557   4.012
 9690SOL    HW129969   5.939   4.500   4.079
 9690SOL    HW229970   5.956   4.532   3.920
 9691SOL     OW29971   4.129   3.826   1.993
 9691SOL    HW129972   4.171   3.761   1.931
 9691SOL    HW229973   4.094   3.778   2.073
 9692SOL     OW29974   6.403   5.484   0.058
 9692SOL    HW129975   6.371   5.568   0.100
 9692SOL    HW229976   6.403   5.494   6.977
 9693SOL     OW29977   4.516   3.733   6.613
 9693SOL    HW129978   4.505   3.833   6.617
 9693SOL    HW229979   4.573   3.709   6.534
 9694SOL     OW29980   2.655   6.093   1.302
 9694SOL    HW129981   2.705   6.052   1.379
 9694SOL    HW229982   2.559   6.106   1.327
 9695SOL     OW29983   1.731   2.990   3.329
 9695SOL    HW129984   1.805   3.022   3.387
 9695SOL    HW229985   1.734   2.890   3.323
 9696SOL     OW29986   4.593   4.348   3.586
 9696SOL    HW129987   4.630   4.301   3.506
 9696SOL    HW229988   4.598   4.287   3.665
 9697SOL     OW29989   6.829   6.971   2.684
 9697SOL    HW129990   6.759   6.909   2.718
 9697SOL    HW229991   6.917   6.924   2.680
 9698SOL     OW29992   0.196   2.481   1.276
 9698SOL    HW129993   0.214   2.550   1.346
 9698SOL    HW229994   0.200   2.522   1.185
 9699SOL     OW29995   1.871   0.097   2.237
 9699SOL    HW129996   1.807   0.056   2.172
 9699SOL    HW229997   1.825   0.111   2.324
 9700SOL     OW29998   6.221   0.576   5.848
 9700SOL    HW129999   6.278   0.540   5.774
 9700SOL    HW230000   6.151   0.636   5.809
 9701SOL     OW30001   5.948   3.899   6.632
 9701SOL    HW130002   6.029   3.955   6.611
 9701SOL    HW230003   5.871   3.931   6.576
 9702SOL     OW30004   2.968   3.744   1.893
 9702SOL    HW130005   2.919   3.726   1.979
 9702SOL    HW230006   2.991   3.841   1.887
 9703SOL     OW30007   6.439   4.398   3.507
 9703SOL    HW130008   6.353   4.420   3.553
 9703SOL    HW230009   6.515   4.436   3.560
 9704SOL     OW30010   1.304   4.700   2.093
 9704SOL    HW130011   1.403   4.690   2.108
 9704SOL    HW230012   1.276   4.792   2.118
 9705SOL     OW30013   0.051   3.720   5.398
 9705SOL    HW130014   0.011   3.792   5.341
 9705SOL    HW230015   0.040   3.744   5.494
 9706SOL     OW30016   0.201   0.103   2.600
 9706SOL    HW130017   0.162   0.161   2.529
 9706SOL    HW230018   0.211   0.010   2.566
 9707SOL     OW30019   0.932   4.508   1.418
 9707SOL    HW130020   0.904   4.507   1.321
 9707SOL    HW230021   0.851   4.520   1.475
 9708SOL     OW30022   2.901   0.890   2.066
 9708SOL    HW130023   2.923   0.796   2.088
 9708SOL    HW230024   2.981   0.948   2.081
 9709SOL     OW30025   3.680   1.695   1.971
 9709SOL    HW130026   3.668   1.712   2.069
 9709SOL    HW230027   3.636   1.768   1.919
 9710SOL     OW30028   4.977   4.745   4.217
 9710SOL    HW130029   4.993   4.705   4.308
 9710SOL    HW230030   5.058   4.732   4.161
 9711SOL     OW30031   3.340   0.182   6.668
 9711SOL    HW130032   3.249   0.150   6.642
 9711SOL    HW230033   3.345   0.190   6.767
 9712SOL     OW30034   4.600   0.055   5.712
 9712SOL    HW130035   4.544   0.002   5.648
 9712SOL    HW230036   4.558   0.144   5.726
 9713SOL     OW30037   0.364   0.508   3.076
 9713SOL    HW130038   0.336   0.600   3.102
 9713SOL    HW230039   0.441   0.513   3.012
 9714SOL     OW30040   2.386   2.731   3.946
 9714SOL    HW130041   2.465   2.670   3.956
 9714SOL    HW230042   2.309   2.679   3.908
 9715SOL     OW30043   0.400   1.969   6.327
 9715SOL    HW130044   0.375   1.877   6.299
 9715SOL    HW230045   0.359   2.035   6.264
 9716SOL     OW30046   1.289   6.028   1.081
 9716SOL    HW130047   1.344   6.111   1.067
 9716SOL    HW230048   1.194   6.046   1.054
 9717SOL     OW30049   4.612   1.983   6.245
 9717SOL    HW130050   4.566   2.069   6.268
 9717SOL    HW230051   4.544   1.911   6.234
 9718SOL     OW30052   3.019   2.678   6.477
 9718SOL    HW130053   2.945   2.723   6.428
 9718SOL    HW230054   2.994   2.666   6.573
 9719SOL     OW30055   4.865   0.418   6.212
 9719SOL    HW130056   4.932   0.429   6.286
 9719SOL    HW230057   4.797   0.350   6.239
 9720SOL     OW30058   2.510   2.611   1.824
 9720SOL    HW130059   2.511   2.557   1.908
 9720SOL    HW230060   2.444   2.572   1.760
 9721SOL     OW30061   0.534   2.104   1.388
 9721SOL    HW130062   0.501   2.065   1.474
 9721SOL    HW230063   0.456   2.138   1.335
 9722SOL     OW30064   3.415   2.741   5.865
 9722SOL    HW130065   3.503   2.718   5.824
 9722SOL    HW230066   3.388   2.668   5.929
 9723SOL     OW30067   5.716   1.472   4.495
 9723SOL    HW130068   5.695   1.569   4.505
 9723SOL    HW230069   5.754   1.455   4.405
 9724SOL     OW30070   1.597   5.339   1.624
 9724SOL    HW130071   1.592   5.396   1.706
 9724SOL    HW230072   1.548   5.384   1.549
 9725SOL     OW30073   5.598   5.366   5.012
 9725SOL    HW130074   5.504   5.392   4.991
 9725SOL    HW230075   5.616   5.382   5.109
 9726SOL     OW30076   6.603   6.979   3.302
 9726SOL    HW130077   6.566   6.929   3.224
 9726SOL    HW230078   6.702   6.961   3.309
 9727SOL     OW30079   6.756   3.169   0.871
 9727SOL    HW130080   6.831   3.220   0.829
 9727SOL    HW230081   6.775   3.071   0.866
 9728SOL     OW30082   5.025   1.973   5.078
 9728SOL    HW130083   4.969   2.054   5.061
 9728SOL    HW230084   5.054   1.972   5.173
 9729SOL     OW30085   6.660   3.642   2.563
 9729SOL    HW130086   6.568   3.606   2.552
 9729SOL    HW230087   6.681   3.705   2.488
 9730SOL     OW30088   0.558   6.062   3.178
 9730SOL    HW130089   0.640   6.105   3.215
 9730SOL    HW230090   0.477   6.106   3.217
 9731SOL     OW30091   6.329   1.190   1.477
 9731SOL    HW130092   6.396   1.244   1.425
 9731SOL    HW230093   6.343   1.204   1.575
 9732SOL     OW30094   6.888   2.849   2.881
 9732SOL    HW130095   6.956   2.922   2.878
 9732SOL    HW230096   6.842   2.843   2.793
 9733SOL     OW30097   5.028   5.852   0.127
 9733SOL    HW130098   5.002   5.892   0.039
 9733SOL    HW230099   5.074   5.764   0.111
 9734SOL     OW30100   4.082   3.794   0.156
 9734SOL    HW130101   4.049   3.700   0.166
 9734SOL    HW230102   4.110   3.809   0.061
 9735SOL     OW30103   1.090   1.673   0.249
 9735SOL    HW130104   1.163   1.684   0.316
 9735SOL    HW230105   1.020   1.743   0.265
 9736SOL     OW30106   5.468   2.713   6.346
 9736SOL    HW130107   5.425   2.623   6.353
 9736SOL    HW230108   5.406   2.776   6.299
 9737SOL     OW30109   5.207   3.561   5.110
 9737SOL    HW130110   5.191   3.648   5.064
 9737SOL    HW230111   5.300   3.559   5.147
 9738SOL     OW30112   2.523   6.318   1.562
 9738SOL    HW130113   2.562   6.232   1.530
 9738SOL    HW230114   2.576   6.352   1.640
 9739SOL     OW30115   5.316   6.176   1.305
 9739SOL    HW130116   5.416   6.171   1.309
 9739SOL    HW230117   5.287   6.272   1.311
 9740SOL     OW30118   6.700   0.145   0.632
 9740SOL    HW130119   6.668   0.052   0.650
 9740SOL    HW230120   6.712   0.158   0.534
 9741SOL     OW30121   2.385   2.528   2.852
 9741SOL    HW130122   2.453   2.460   2.825
 9741SOL    HW230123   2.335   2.495   2.932
 9742SOL     OW30124   5.103   6.905   6.870
 9742SOL    HW130125   5.176   6.845   6.902
 9742SOL    HW230126   5.132   7.000   6.880
 9743SOL     OW30127   5.870   3.487   4.310
 9743SOL    HW130128   5.870   3.433   4.394
 9743SOL    HW230129   5.810   3.443   4.242
 9744SOL     OW30130   1.645   2.858   1.916
 9744SOL    HW130131   1.714   2.835   1.985
 9744SOL    HW230132   1.682   2.840   1.825
 9745SOL     OW30133   1.367   0.143   5.784
 9745SOL    HW130134   1.418   0.089   5.851
 9745SOL    HW230135   1.428   0.169   5.709
 9746SOL     OW30136   3.368   5.734   5.833
 9746SOL    HW130137   3.346   5.724   5.930
 9746SOL    HW230138   3.379   5.831   5.812
 9747SOL     OW30139   4.372   1.665   3.611
 9747SOL    HW130140   4.455   1.705   3.572
 9747SOL    HW230141   4.326   1.733   3.668
 9748SOL     OW30142   0.704   1.859   1.937
 9748SOL    HW130143   0.703   1.959   1.940
 9748SOL    HW230144   0.613   1.826   1.910
 9749SOL     OW30145   6.552   0.259   1.626
 9749SOL    HW130146   6.554   0.356   1.652
 9749SOL    HW230147   6.484   0.246   1.553
 9750SOL     OW30148   5.660   2.762   4.592
 9750SOL    HW130149   5.753   2.728   4.576
 9750SOL    HW230150   5.597   2.684   4.597
 9751SOL     OW30151   2.888   4.921   0.693
 9751SOL    HW130152   2.868   4.880   0.604
 9751SOL    HW230153   2.928   5.012   0.680
 9752SOL     OW30154   4.655   4.346   0.907
 9752SOL    HW130155   4.644   4.413   0.980
 9752SOL    HW230156   4.567   4.328   0.863
 9753SOL     OW30157   5.982   6.241   2.707
 9753SOL    HW130158   5.973   6.142   2.720
 9753SOL    HW230159   5.997   6.285   2.795
 9754SOL     OW30160   3.728   1.190   1.938
 9754SOL    HW130161   3.665   1.197   2.015
 9754SOL    HW230162   3.819   1.167   1.972
 9755SOL     OW30163   3.669   4.422   1.205
 9755SOL    HW130164   3.600   4.457   1.269
 9755SOL    HW230165   3.643   4.330   1.176
 9756SOL     OW30166   4.542   0.369   0.160
 9756SOL    HW130167   4.458   0.398   0.115
 9756SOL    HW230168   4.584   0.447   0.206
 9757SOL     OW30169   5.170   4.335   4.121
 9757SOL    HW130170   5.121   4.281   4.052
 9757SOL    HW230171   5.260   4.360   4.086
 9758SOL     OW30172   3.289   1.192   1.128
 9758SOL    HW130173   3.376   1.188   1.079
 9758SOL    HW230174   3.291   1.126   1.204
 9759SOL     OW30175   6.352   1.296   0.498
 9759SOL    HW130176   6.445   1.288   0.535
 9759SOL    HW230177   6.294   1.345   0.563
 9760SOL     OW30178   5.095   0.684   5.524
 9760SOL    HW130179   5.071   0.773   5.483
 9760SOL    HW230180   5.068   0.684   5.620
 9761SOL     OW30181   0.859   2.764   1.670
 9761SOL    HW130182   0.933   2.725   1.615
 9761SOL    HW230183   0.772   2.752   1.622
 9762SOL     OW30184   3.554   1.151   5.509
 9762SOL    HW130185   3.544   1.245   5.479
 9762SOL    HW230186   3.618   1.104   5.448
 9763SOL     OW30187   6.092   2.198   0.960
 9763SOL    HW130188   6.014   2.176   0.902
 9763SOL    HW230189   6.072   2.171   1.054
 9764SOL     OW30190   7.016   2.862   3.290
 9764SOL    HW130191   7.009   2.854   3.191
 9764SOL    HW230192   6.955   2.796   3.334
 9765SOL     OW30193   6.794   2.169   0.790
 9765SOL    HW130194   6.769   2.072   0.800
 9765SOL    HW230195   6.846   2.198   0.871
 9766SOL     OW30196   0.742   3.233   2.811
 9766SOL    HW130197   0.797   3.244   2.729
 9766SOL    HW230198   0.695   3.144   2.808
 9767SOL     OW30199   4.041   1.711   4.738
 9767SOL    HW130200   3.954   1.694   4.692
 9767SOL    HW230201   4.054   1.809   4.748
 9768SOL     OW30202   4.532   3.531   6.822
 9768SOL    HW130203   4.485   3.588   6.756
 9768SOL    HW230204   4.621   3.502   6.784
 9769SOL     OW30205   3.293   0.694   5.827
 9769SOL    HW130206   3.389   0.685   5.854
 9769SOL    HW230207   3.240   0.730   5.904
 9770SOL     OW30208   1.768   3.685   4.972
 9770SOL    HW130209   1.777   3.683   4.872
 9770SOL    HW230210   1.792   3.776   5.005
 9771SOL     OW30211   3.745   0.492   1.568
 9771SOL    HW130212   3.774   0.586   1.582
 9771SOL    HW230213   3.731   0.447   1.656
 9772SOL     OW30214   0.688   1.088   1.511
 9772SOL    HW130215   0.763   1.075   1.575
 9772SOL    HW230216   0.669   1.002   1.463
 9773SOL     OW30217   4.166   6.337   2.603
 9773SOL    HW130218   4.147   6.433   2.582
 9773SOL    HW230219   4.241   6.331   2.668
 9774SOL     OW30220   1.230   5.214   5.275
 9774SOL    HW130221   1.274   5.130   5.242
 9774SOL    HW230222   1.295   5.289   5.275
 9775SOL     OW30223   1.455   1.507   3.469
 9775SOL    HW130224   1.382   1.438   3.470
 9775SOL    HW230225   1.496   1.515   3.559
 9776SOL     OW30226   0.846   5.538   1.411
 9776SOL    HW130227   0.786   5.478   1.465
 9776SOL    HW230228   0.871   5.493   1.326
 9777SOL     OW30229   4.710   2.356   4.974
 9777SOL    HW130230   4.794   2.401   5.003
 9777SOL    HW230231   4.702   2.268   5.020
 9778SOL     OW30232   1.700   3.164   2.830
 9778SOL    HW130233   1.726   3.094   2.763
 9778SOL    HW230234   1.727   3.134   2.922
 9779SOL     OW30235   1.959   1.089   2.748
 9779SOL    HW130236   2.014   1.166   2.780
 9779SOL    HW230237   1.983   1.007   2.800
 9780SOL     OW30238   1.596   1.979   1.412
 9780SOL    HW130239   1.586   2.019   1.321
 9780SOL    HW230240   1.509   1.939   1.440
 9781SOL     OW30241   1.471   1.268   2.028
 9781SOL    HW130242   1.459   1.362   1.996
 9781SOL    HW230243   1.567   1.242   2.020
 9782SOL     OW30244   0.743   2.304   6.959
 9782SOL    HW130245   0.743   2.281   6.862
 9782SOL    HW230246   0.817   2.255   7.005
 9783SOL     OW30247   5.280   0.879   2.144
 9783SOL    HW130248   5.244   0.841   2.059
 9783SOL    HW230249   5.216   0.947   2.180
 9784SOL     OW30250   2.393   1.265   0.624
 9784SOL    HW130251   2.442   1.178   0.636
 9784SOL    HW230252   2.367   1.274   0.528
 9785SOL     OW30253   1.695   3.671   4.351
 9785SOL    HW130254   1.627   3.631   4.411
 9785SOL    HW230255   1.737   3.750   4.397
 9786SOL     OW30256   3.080   4.277   0.170
 9786SOL    HW130257   3.044   4.199   0.222
 9786SOL    HW230258   3.080   4.254   0.072
 9787SOL     OW30259   2.691   3.534   1.210
 9787SOL    HW130260   2.652   3.624   1.188
 9787SOL    HW230261   2.619   3.473   1.242
 9788SOL     OW30262   2.481   0.124   3.737
 9788SOL    HW130263   2.525   0.205   3.697
 9788SOL    HW230264   2.534   0.043   3.715
 9789SOL     OW30265   4.067   1.860   6.978
 9789SOL    HW130266   4.102   1.787   0.019
 9789SOL    HW230267   4.144   1.911   6.940
 9790SOL     OW30268   4.541   5.743   5.234
 9790SOL    HW130269   4.453   5.697   5.248
 9790SOL    HW230270   4.549   5.820   5.297
 9791SOL     OW30271   0.539   0.944   0.978
 9791SOL    HW130272   0.539   1.039   1.011
 9791SOL    HW230273   0.626   0.926   0.931
 9792SOL     OW30274   3.001   3.436   0.153
 9792SOL    HW130275   3.005   3.364   0.083
 9792SOL    HW230276   2.909   3.441   0.190
 9793SOL     OW30277   5.390   0.770   1.727
 9793SOL    HW130278   5.401   0.672   1.708
 9793SOL    HW230279   5.313   0.783   1.790
 9794SOL     OW30280   4.482   5.913   5.505
 9794SOL    HW130281   4.407   5.974   5.480
 9794SOL    HW230282   4.566   5.966   5.514
 9795SOL     OW30283   1.944   4.110   3.403
 9795SOL    HW130284   1.994   4.130   3.319
 9795SOL    HW230285   1.935   4.193   3.457
 9796SOL     OW30286   4.050   3.484   4.988
 9796SOL    HW130287   4.097   3.440   4.912
 9796SOL    HW230288   4.044   3.583   4.972
 9797SOL     OW30289   3.892   5.176   0.257
 9797SOL    HW130290   3.984   5.143   0.280
 9797SOL    HW230291   3.824   5.108   0.284
 9798SOL     OW30292   0.672   4.120   6.162
 9798SOL    HW130293   0.687   4.026   6.131
 9798SOL    HW230294   0.653   4.121   6.260
 9799SOL     OW30295   3.487   0.085   6.356
 9799SOL    HW130296   3.484   0.092   6.256
 9799SOL    HW230297   3.409   0.032   6.388
 9800SOL     OW30298   0.099   4.268   4.704
 9800SOL    HW130299   0.052   4.219   4.777
 9800SOL    HW230300   0.032   4.296   4.635
 9801SOL     OW30301   3.881   6.942   1.154
 9801SOL    HW130302   3.894   0.019   1.130
 9801SOL    HW230303   3.945   6.917   1.227
 9802SOL     OW30304   4.092   2.505   0.454
 9802SOL    HW130305   4.049   2.589   0.421
 9802SOL    HW230306   4.191   2.510   0.438
 9803SOL     OW30307   2.407   3.987   0.337
 9803SOL    HW130308   2.351   4.038   0.402
 9803SOL    HW230309   2.410   3.891   0.365
 9804SOL     OW30310   0.902   3.867   2.950
 9804SOL    HW130311   0.884   3.966   2.947
 9804SOL    HW230312   0.957   3.846   3.031
 9805SOL     OW30313   6.941   4.448   5.299
 9805SOL    HW130314   6.919   4.469   5.394
 9805SOL    HW230315   6.870   4.485   5.239
 9806SOL     OW30316   3.410   1.456   0.399
 9806SOL    HW130317   3.316   1.475   0.371
 9806SOL    HW230318   3.459   1.411   0.325
 9807SOL     OW30319   3.587   3.701   4.602
 9807SOL    HW130320   3.558   3.735   4.692
 9807SOL    HW230321   3.508   3.661   4.555
 9808SOL     OW30322   2.527   6.358   2.499
 9808SOL    HW130323   2.466   6.279   2.486
 9808SOL    HW230324   2.519   6.392   2.592
 9809SOL     OW30325   6.952   3.325   0.741
 9809SOL    HW130326   6.921   3.418   0.724
 9809SOL    HW230327   0.029   3.326   0.768
 9810SOL     OW30328   4.153   3.023   1.326
 9810SOL    HW130329   4.190   2.935   1.355
 9810SOL    HW230330   4.079   3.009   1.260
 9811SOL     OW30331   5.081   3.468   4.192
 9811SOL    HW130332   5.020   3.392   4.167
 9811SOL    HW230333   5.166   3.431   4.229
 9812SOL     OW30334   3.320   5.392   6.602
 9812SOL    HW130335   3.354   5.298   6.601
 9812SOL    HW230336   3.239   5.399   6.543
 9813SOL     OW30337   4.543   0.641   1.881
 9813SOL    HW130338   4.621   0.593   1.841
 9813SOL    HW230339   4.499   0.581   1.949
 9814SOL     OW30340   6.794   1.505   6.553
 9814SOL    HW130341   6.743   1.579   6.507
 9814SOL    HW230342   6.732   1.429   6.572
 9815SOL     OW30343   5.257   2.567   4.556
 9815SOL    HW130344   5.245   2.468   4.566
 9815SOL    HW230345   5.266   2.608   4.647
 9816SOL     OW30346   3.643   0.729   0.147
 9816SOL    HW130347   3.618   0.751   0.241
 9816SOL    HW230348   3.623   0.633   0.129
 9817SOL     OW30349   6.377   0.239   1.387
 9817SOL    HW130350   6.369   0.141   1.369
 9817SOL    HW230351   6.303   0.269   1.447
 9818SOL     OW30352   3.953   2.215   5.089
 9818SOL    HW130353   4.000   2.133   5.056
 9818SOL    HW230354   4.017   2.292   5.088
 9819SOL     OW30355   2.522   0.496   1.964
 9819SOL    HW130356   2.481   0.445   1.889
 9819SOL    HW230357   2.543   0.433   2.039
 9820SOL     OW30358   4.198   2.806   0.091
 9820SOL    HW130359   4.098   2.796   0.085
 9820SOL    HW230360   4.235   2.822   7.018
 9821SOL     OW30361   0.925   6.460   6.495
 9821SOL    HW130362   0.913   6.364   6.518
 9821SOL    HW230363   0.903   6.516   6.575
 9822SOL     OW30364   0.133   1.774   2.361
 9822SOL    HW130365   0.180   1.787   2.448
 9822SOL    HW230366   0.080   1.689   2.363
 9823SOL     OW30367   3.283   6.633   2.387
 9823SOL    HW130368   3.342   6.613   2.309
 9823SOL    HW230369   3.206   6.689   2.356
 9824SOL     OW30370   2.265   3.916   5.382
 9824SOL    HW130371   2.284   3.992   5.445
 9824SOL    HW230372   2.323   3.924   5.301
 9825SOL     OW30373   4.463   4.648   5.390
 9825SOL    HW130374   4.404   4.703   5.450
 9825SOL    HW230375   4.558   4.680   5.399
 9826SOL     OW30376   6.113   0.606   5.112
 9826SOL    HW130377   6.171   0.680   5.077
 9826SOL    HW230378   6.170   0.539   5.160
 9827SOL     OW30379   0.980   5.563   4.689
 9827SOL    HW130380   0.988   5.624   4.611
 9827SOL    HW230381   0.894   5.512   4.683
 9828SOL     OW30382   2.482   1.293   0.252
 9828SOL    HW130383   2.452   1.282   0.157
 9828SOL    HW230384   2.402   1.291   0.312
 9829SOL     OW30385   3.118   4.213   1.458
 9829SOL    HW130386   3.170   4.171   1.384
 9829SOL    HW230387   3.021   4.216   1.434
 9830SOL     OW30388   5.831   1.212   1.214
 9830SOL    HW130389   5.930   1.198   1.218
 9830SOL    HW230390   5.801   1.267   1.292
 9831SOL     OW30391   6.986   5.791   1.202
 9831SOL    HW130392   0.053   5.740   1.203
 9831SOL    HW230393   6.953   5.802   1.295
 9832SOL     OW30394   3.024   3.754   1.300
 9832SOL    HW130395   2.943   3.812   1.287
 9832SOL    HW230396   3.098   3.807   1.340
 9833SOL     OW30397   5.174   4.386   0.498
 9833SOL    HW130398   5.097   4.327   0.474
 9833SOL    HW230399   5.181   4.460   0.431
 9834SOL     OW30400   1.903   3.212   3.877
 9834SOL    HW130401   1.890   3.254   3.966
 9834SOL    HW230402   1.951   3.276   3.817
 9835SOL     OW30403   4.762   2.274   4.727
 9835SOL    HW130404   4.806   2.186   4.744
 9835SOL    HW230405   4.738   2.316   4.815
 9836SOL     OW30406   5.451   5.214   1.287
 9836SOL    HW130407   5.517   5.279   1.250
 9836SOL    HW230408   5.399   5.173   1.212
 9837SOL     OW30409   2.412   5.309   5.336
 9837SOL    HW130410   2.377   5.282   5.247
 9837SOL    HW230411   2.512   5.305   5.335
 9838SOL     OW30412   6.874   6.619   4.991
 9838SOL    HW130413   6.941   6.670   4.937
 9838SOL    HW230414   6.922   6.557   5.053
 9839SOL     OW30415   5.615   3.084   3.170
 9839SOL    HW130416   5.575   3.028   3.097
 9839SOL    HW230417   5.597   3.181   3.152
 9840SOL     OW30418   5.833   6.947   0.641
 9840SOL    HW130419   5.924   6.933   0.679
 9840SOL    HW230420   5.816   0.027   0.632
 9841SOL     OW30421   1.887   3.017   4.146
 9841SOL    HW130422   1.825   2.965   4.087
 9841SOL    HW230423   1.981   2.990   4.128
 9842SOL     OW30424   3.133   3.051   4.227
 9842SOL    HW130425   3.079   3.132   4.250
 9842SOL    HW230426   3.147   2.997   4.309
 9843SOL     OW30427   6.175   4.437   3.260
 9843SOL    HW130428   6.215   4.438   3.352
 9843SOL    HW230429   6.099   4.372   3.258
 9844SOL     OW30430   4.267   0.349   1.874
 9844SOL    HW130431   4.191   0.392   1.922
 9844SOL    HW230432   4.232   0.293   1.798
 9845SOL     OW30433   1.173   1.973   4.240
 9845SOL    HW130434   1.269   1.954   4.219
 9845SOL    HW230435   1.126   2.003   4.157
 9846SOL     OW30436   3.015   3.279   4.269
 9846SOL    HW130437   2.941   3.308   4.330
 9846SOL    HW230438   3.077   3.356   4.253
 9847SOL     OW30439   2.423   4.358   4.299
 9847SOL    HW130440   2.494   4.429   4.300
 9847SOL    HW230441   2.419   4.314   4.389
 9848SOL     OW30442   6.858   4.331   0.124
 9848SOL    HW130443   6.898   4.379   0.202
 9848SOL    HW230444   6.856   4.233   0.143
 9849SOL     OW30445   6.736   5.980   5.358
 9849SOL    HW130446   6.794   5.989   5.277
 9849SOL    HW230447   6.785   6.015   5.438
 9850SOL     OW30448   5.208   6.985   3.708
 9850SOL    HW130449   5.120   6.942   3.691
 9850SOL    HW230450   5.240   0.013   3.624
 9851SOL     OW30451   5.248   2.539   5.132
 9851SOL    HW130452   5.203   2.504   5.214
 9851SOL    HW230453   5.339   2.498   5.123
 9852SOL     OW30454   5.381   2.122   3.976
 9852SOL    HW130455   5.365   2.191   4.046
 9852SOL    HW230456   5.344   2.034   4.007
 9853SOL     OW30457   0.129   5.154   1.054
 9853SOL    HW130458   0.178   5.080   1.008
 9853SOL    HW230459   0.034   5.155   1.024
 9854SOL     OW30460   3.339   6.743   4.421
 9854SOL    HW130461   3.276   6.672   4.388
 9854SOL    HW230462   3.387   6.783   4.344
 9855SOL     OW30463   2.237   4.370   0.826
 9855SOL    HW130464   2.279   4.447   0.875
 9855SOL    HW230465   2.147   4.352   0.865
 9856SOL     OW30466   3.698   3.383   1.084
 9856SOL    HW130467   3.680   3.393   1.182
 9856SOL    HW230468   3.694   3.472   1.040
 9857SOL     OW30469   6.185   4.645   3.072
 9857SOL    HW130470   6.177   4.589   3.154
 9857SOL    HW230471   6.277   4.684   3.066
 9858SOL     OW30472   3.266   1.452   1.472
 9858SOL    HW130473   3.233   1.516   1.402
 9858SOL    HW230474   3.330   1.387   1.431
 9859SOL     OW30475   0.422   6.409   1.482
 9859SOL    HW130476   0.515   6.445   1.479
 9859SOL    HW230477   0.363   6.475   1.529
 9860SOL     OW30478   1.018   1.002   2.825
 9860SOL    HW130479   1.011   1.075   2.757
 9860SOL    HW230480   1.114   0.988   2.849
 9861SOL     OW30481   2.261   6.267   3.465
 9861SOL    HW130482   2.256   6.367   3.467
 9861SOL    HW230483   2.345   6.238   3.419
 9862SOL     OW30484   0.329   1.844   0.647
 9862SOL    HW130485   0.234   1.863   0.672
 9862SOL    HW230486   0.380   1.930   0.641
 9863SOL     OW30487   4.676   0.662   0.587
 9863SOL    HW130488   4.605   0.719   0.547
 9863SOL    HW230489   4.748   0.644   0.519
 9864SOL     OW30490   3.591   5.621   3.711
 9864SOL    HW130491   3.509   5.567   3.693
 9864SOL    HW230492   3.669   5.579   3.663
 9865SOL     OW30493   1.673   3.594   3.933
 9865SOL    HW130494   1.704   3.569   4.025
 9865SOL    HW230495   1.679   3.693   3.922
 9866SOL     OW30496   2.840   4.766   3.270
 9866SOL    HW130497   2.928   4.814   3.270
 9866SOL    HW230498   2.766   4.833   3.276
 9867SOL     OW30499   3.584   6.475   5.961
 9867SOL    HW130500   3.619   6.485   6.055
 9867SOL    HW230501   3.640   6.531   5.899
 9868SOL     OW30502   1.292   5.312   5.900
 9868SOL    HW130503   1.255   5.271   5.817
 9868SOL    HW230504   1.228   5.381   5.934
 9869SOL     OW30505   0.869   4.807   2.826
 9869SOL    HW130506   0.888   4.902   2.799
 9869SOL    HW230507   0.948   4.771   2.876
 9870SOL     OW30508   4.409   5.572   1.663
 9870SOL    HW130509   4.462   5.626   1.729
 9870SOL    HW230510   4.441   5.593   1.570
 9871SOL     OW30511   2.349   2.582   5.776
 9871SOL    HW130512   2.358   2.659   5.713
 9871SOL    HW230513   2.303   2.612   5.859
 9872SOL     OW30514   1.400   3.763   2.903
 9872SOL    HW130515   1.409   3.826   2.827
 9872SOL    HW230516   1.488   3.719   2.921
 9873SOL     OW30517   2.227   2.416   1.348
 9873SOL    HW130518   2.265   2.395   1.438
 9873SOL    HW230519   2.294   2.392   1.278
 9874SOL     OW30520   1.073   4.073   4.331
 9874SOL    HW130521   0.986   4.081   4.284
 9874SOL    HW230522   1.087   4.153   4.389
 9875SOL     OW30523   1.403   1.670   3.255
 9875SOL    HW130524   1.339   1.615   3.202
 9875SOL    HW230525   1.427   1.623   3.340
 9876SOL     OW30526   6.595   5.908   2.307
 9876SOL    HW130527   6.550   5.872   2.388
 9876SOL    HW230528   6.542   5.885   2.226
 9877SOL     OW30529   3.965   0.585   1.264
 9877SOL    HW130530   3.949   0.491   1.295
 9877SOL    HW230531   4.063   0.603   1.263
 9878SOL     OW30532   6.611   1.653   5.022
 9878SOL    HW130533   6.664   1.703   5.091
 9878SOL    HW230534   6.598   1.711   4.942
 9879SOL     OW30535   5.362   5.256   5.396
 9879SOL    HW130536   5.291   5.191   5.370
 9879SOL    HW230537   5.336   5.301   5.482
 9880SOL     OW30538   1.302   2.784   3.768
 9880SOL    HW130539   1.319   2.701   3.715
 9880SOL    HW230540   1.265   2.855   3.708
 9881SOL     OW30541   0.330   1.501   5.900
 9881SOL    HW130542   0.380   1.422   5.936
 9881SOL    HW230543   0.392   1.558   5.846
 9882SOL     OW30544   1.748   2.575   3.470
 9882SOL    HW130545   1.818   2.647   3.473
 9882SOL    HW230546   1.661   2.615   3.442
 9883SOL     OW30547   2.734   1.696   2.355
 9883SOL    HW130548   2.648   1.650   2.378
 9883SOL    HW230549   2.752   1.685   2.257
 9884SOL     OW30550   2.986   0.611   3.767
 9884SOL    HW130551   2.943   0.662   3.692
 9884SOL    HW230552   3.064   0.560   3.732
 9885SOL     OW30553   6.579   2.568   4.878
 9885SOL    HW130554   6.644   2.585   4.804
 9885SOL    HW230555   6.493   2.533   4.840
 9886SOL     OW30556   0.005   3.058   1.934
 9886SOL    HW130557   0.033   3.074   2.029
 9886SOL    HW230558   0.064   2.989   1.893
 9887SOL     OW30559   4.556   5.932   5.949
 9887SOL    HW130560   4.565   5.883   5.863
 9887SOL    HW230561   4.475   5.990   5.946
 9888SOL     OW30562   6.617   4.895   5.277
 9888SOL    HW130563   6.583   4.960   5.346
 9888SOL    HW230564   6.702   4.930   5.238
 9889SOL     OW30565   0.741   5.676   0.818
 9889SOL    HW130566   0.696   5.765   0.820
 9889SOL    HW230567   0.840   5.689   0.812
 9890SOL     OW30568   0.826   2.789   1.079
 9890SOL    HW130569   0.784   2.701   1.101
 9890SOL    HW230570   0.758   2.847   1.034
 9891SOL     OW30571   5.045   0.989   2.246
 9891SOL    HW130572   4.960   1.040   2.263
 9891SOL    HW230573   5.121   1.039   2.287
 9892SOL     OW30574   1.115   0.463   6.384
 9892SOL    HW130575   1.057   0.543   6.399
 9892SOL    HW230576   1.111   0.436   6.288
 9893SOL     OW30577   2.249   1.284   0.364
 9893SOL    HW130578   2.175   1.336   0.406
 9893SOL    HW230579   2.210   1.217   0.300
 9894SOL     OW30580   1.980   0.674   1.759
 9894SOL    HW130581   1.884   0.662   1.734
 9894SOL    HW230582   1.986   0.714   1.851
 9895SOL     OW30583   4.404   2.686   5.593
 9895SOL    HW130584   4.393   2.695   5.494
 9895SOL    HW230585   4.433   2.774   5.632
 9896SOL     OW30586   6.358   6.645   5.860
 9896SOL    HW130587   6.358   6.547   5.838
 9896SOL    HW230588   6.387   6.657   5.955
 9897SOL     OW30589   5.758   5.078   5.149
 9897SOL    HW130590   5.772   5.123   5.060
 9897SOL    HW230591   5.688   5.127   5.200
 9898SOL     OW30592   2.578   6.973   6.750
 9898SOL    HW130593   2.537   6.970   6.659
 9898SOL    HW230594   2.508   6.962   6.820
 9899SOL     OW30595   0.190   4.786   0.193
 9899SOL    HW130596   0.188   4.886   0.193
 9899SOL    HW230597   0.276   4.754   0.232
 9900SOL     OW30598   2.174   4.928   3.531
 9900SOL    HW130599   2.198   4.905   3.626
 9900SOL    HW230600   2.221   4.865   3.469
 9901SOL     OW30601   2.145   3.431   5.282
 9901SOL    HW130602   2.115   3.461   5.191
 9901SOL    HW230603   2.083   3.360   5.315
 9902SOL     OW30604   2.989   4.377   1.073
 9902SOL    HW130605   2.948   4.469   1.073
 9902SOL    HW230606   2.918   4.309   1.089
 9903SOL     OW30607   5.571   1.273   5.307
 9903SOL    HW130608   5.485   1.239   5.345
 9903SOL    HW230609   5.572   1.260   5.207
 9904SOL     OW30610   6.179   1.689   0.261
 9904SOL    HW130611   6.168   1.784   0.232
 9904SOL    HW230612   6.173   1.684   0.361
 9905SOL     OW30613   5.002   0.153   0.309
 9905SOL    HW130614   4.921   0.162   0.250
 9905SOL    HW230615   4.975   0.110   0.395
 9906SOL     OW30616   3.044   3.357   5.129
 9906SOL    HW130617   2.952   3.394   5.114
 9906SOL    HW230618   3.047   3.307   5.216
 9907SOL     OW30619   1.799   6.474   1.652
 9907SOL    HW130620   1.704   6.465   1.681
 9907SOL    HW230621   1.814   6.421   1.569
 9908SOL     OW30622   5.342   3.568   1.879
 9908SOL    HW130623   5.250   3.591   1.849
 9908SOL    HW230624   5.408   3.626   1.832
 9909SOL     OW30625   1.600   0.396   4.399
 9909SOL    HW130626   1.587   0.365   4.305
 9909SOL    HW230627   1.511   0.404   4.444
 9910SOL     OW30628   0.384   4.512   4.397
 9910SOL    HW130629   0.318   4.580   4.431
 9910SOL    HW230630   0.348   4.469   4.314
 9911SOL     OW30631   2.671   6.501   2.297
 9911SOL    HW130632   2.606   6.436   2.337
 9911SOL    HW230633   2.719   6.457   2.221
 9912SOL     OW30634   4.610   0.812   5.415
 9912SOL    HW130635   4.657   0.757   5.484
 9912SOL    HW230636   4.599   0.905   5.448
 9913SOL     OW30637   5.152   2.783   0.675
 9913SOL    HW130638   5.143   2.855   0.606
 9913SOL    HW230639   5.151   2.824   0.766
 9914SOL     OW30640   0.046   3.301   4.666
 9914SOL    HW130641   0.118   3.326   4.731
 9914SOL    HW230642   0.084   3.304   4.573
 9915SOL     OW30643   4.428   1.432   3.723
 9915SOL    HW130644   4.411   1.524   3.686
 9915SOL    HW230645   4.391   1.427   3.815
 9916SOL     OW30646   1.487   2.766   1.589
 9916SOL    HW130647   1.467   2.709   1.670
 9916SOL    HW230648   1.461   2.860   1.608
 9917SOL     OW30649   6.249   4.634   5.753
 9917SOL    HW130650   6.286   4.679   5.835
 9917SOL    HW230651   6.149   4.640   5.754
 9918SOL     OW30652   4.868   2.982   2.373
 9918SOL    HW130653   4.910   2.930   2.447
 9918SOL    HW230654   4.939   3.028   2.320
 9919SOL     OW30655   5.253   5.654   0.278
 9919SOL    HW130656   5.217   5.568   0.315
 9919SOL    HW230657   5.250   5.725   0.348
 9920SOL     OW30658   4.762   1.171   2.531
 9920SOL    HW130659   4.797   1.200   2.619
 9920SOL    HW230660   4.749   1.072   2.531
 9921SOL     OW30661   4.139   4.883   6.065
 9921SOL    HW130662   4.099   4.796   6.037
 9921SOL    HW230663   4.076   4.930   6.126
 9922SOL     OW30664   0.518   6.098   1.151
 9922SOL    HW130665   0.437   6.105   1.093
 9922SOL    HW230666   0.565   6.186   1.154
 9923SOL     OW30667   6.432   4.278   0.191
 9923SOL    HW130668   6.435   4.198   0.132
 9923SOL    HW230669   6.355   4.270   0.254
 9924SOL     OW30670   1.478   4.502   4.492
 9924SOL    HW130671   1.458   4.413   4.450
 9924SOL    HW230672   1.539   4.554   4.432
 9925SOL     OW30673   4.759   2.446   4.049
 9925SOL    HW130674   4.812   2.417   3.970
 9925SOL    HW230675   4.806   2.523   4.094
 9926SOL     OW30676   3.791   5.002   1.578
 9926SOL    HW130677   3.774   4.926   1.516
 9926SOL    HW230678   3.744   4.987   1.665
 9927SOL     OW30679   5.300   0.479   4.262
 9927SOL    HW130680   5.319   0.432   4.176
 9927SOL    HW230681   5.356   0.562   4.268
 9928SOL     OW30682   5.251   4.172   2.498
 9928SOL    HW130683   5.250   4.217   2.409
 9928SOL    HW230684   5.317   4.218   2.558
 9929SOL     OW30685   0.868   4.089   3.271
 9929SOL    HW130686   0.934   4.158   3.302
 9929SOL    HW230687   0.884   4.003   3.320
 9930SOL     OW30688   5.369   0.669   2.894
 9930SOL    HW130689   5.394   0.650   2.989
 9930SOL    HW230690   5.336   0.586   2.851
 9931SOL     OW30691   1.430   5.604   5.626
 9931SOL    HW130692   1.420   5.513   5.586
 9931SOL    HW230693   1.487   5.597   5.708
 9932SOL     OW30694   0.238   5.664   4.256
 9932SOL    HW130695   0.207   5.734   4.320
 9932SOL    HW230696   0.311   5.700   4.199
 9933SOL     OW30697   6.488   6.672   2.646
 9933SOL    HW130698   6.445   6.609   2.709
 9933SOL    HW230699   6.587   6.673   2.660
 9934SOL     OW30700   0.099   2.616   4.536
 9934SOL    HW130701   0.188   2.661   4.532
 9934SOL    HW230702   0.029   2.677   4.498
 9935SOL     OW30703   2.104   0.499   5.867
 9935SOL    HW130704   2.089   0.437   5.789
 9935SOL    HW230705   2.063   0.459   5.949
 9936SOL     OW30706   1.930   4.360   3.791
 9936SOL    HW130707   1.929   4.264   3.817
 9936SOL    HW230708   1.965   4.415   3.867
 9937SOL     OW30709   6.366   2.502   5.854
 9937SOL    HW130710   6.294   2.545   5.909
 9937SOL    HW230711   6.385   2.411   5.889
 9938SOL     OW30712   6.677   5.817   2.814
 9938SOL    HW130713   6.732   5.865   2.745
 9938SOL    HW230714   6.656   5.879   2.890
 9939SOL     OW30715   3.163   3.011   3.948
 9939SOL    HW130716   3.138   3.037   4.041
 9939SOL    HW230717   3.254   2.970   3.949
 9940SOL     OW30718   0.274   0.907   0.904
 9940SOL    HW130719   0.372   0.926   0.914
 9940SOL    HW230720   0.262   0.819   0.858
 9941SOL     OW30721   3.453   5.665   5.175
 9941SOL    HW130722   3.513   5.608   5.118
 9941SOL    HW230723   3.428   5.748   5.126
 9942SOL     OW30724   2.759   6.113   3.849
 9942SOL    HW130725   2.661   6.132   3.859
 9942SOL    HW230726   2.809   6.154   3.925
 9943SOL     OW30727   0.657   6.443   4.778
 9943SOL    HW130728   0.709   6.528   4.784
 9943SOL    HW230729   0.597   6.446   4.698
 9944SOL     OW30730   1.871   4.494   6.055
 9944SOL    HW130731   1.951   4.485   5.996
 9944SOL    HW230732   1.788   4.501   6.000
 9945SOL     OW30733   0.092   5.618   6.446
 9945SOL    HW130734   7.012   5.634   6.441
 9945SOL    HW230735   0.139   5.703   6.471
 9946SOL     OW30736   5.422   0.367   3.998
 9946SOL    HW130737   5.451   0.274   3.977
 9946SOL    HW230738   5.477   0.432   3.945
 9947SOL     OW30739   6.195   4.225   3.988
 9947SOL    HW130740   6.111   4.237   4.042
 9947SOL    HW230741   6.220   4.128   3.988
 9948SOL     OW30742   5.404   4.055   3.712
 9948SOL    HW130743   5.443   4.073   3.803
 9948SOL    HW230744   5.437   3.966   3.679
 9949SOL     OW30745   6.291   4.822   1.938
 9949SOL    HW130746   6.282   4.728   1.905
 9949SOL    HW230747   6.234   4.882   1.884
 9950SOL     OW30748   4.077   6.175   0.079
 9950SOL    HW130749   3.991   6.207   0.118
 9950SOL    HW230750   4.146   6.171   0.152
 9951SOL     OW30751   5.903   3.160   2.672
 9951SOL    HW130752   5.892   3.186   2.576
 9951SOL    HW230753   5.831   3.203   2.726
 9952SOL     OW30754   0.676   4.844   6.267
 9952SOL    HW130755   0.695   4.856   6.364
 9952SOL    HW230756   0.645   4.751   6.250
 9953SOL     OW30757   5.552   3.136   3.732
 9953SOL    HW130758   5.601   3.116   3.817
 9953SOL    HW230759   5.586   3.222   3.694
 9954SOL     OW30760   5.092   0.809   4.789
 9954SOL    HW130761   5.127   0.818   4.696
 9954SOL    HW230762   5.005   0.759   4.787
 9955SOL     OW30763   0.682   4.841   4.885
 9955SOL    HW130764   0.713   4.862   4.978
 9955SOL    HW230765   0.727   4.904   4.821
 9956SOL     OW30766   0.639   6.049   0.237
 9956SOL    HW130767   0.557   6.041   0.295
 9956SOL    HW230768   0.651   6.144   0.208
 9957SOL     OW30769   5.702   5.565   2.247
 9957SOL    HW130770   5.781   5.559   2.186
 9957SOL    HW230771   5.733   5.589   2.339
 9958SOL     OW30772   3.069   4.468   0.667
 9958SOL    HW130773   3.167   4.472   0.644
 9958SOL    HW230774   3.050   4.531   0.742
 9959SOL     OW30775   3.636   4.179   1.039
 9959SOL    HW130776   3.679   4.105   1.090
 9959SOL    HW230777   3.566   4.141   0.978
 9960SOL     OW30778   0.938   1.003   2.170
 9960SOL    HW130779   0.952   0.905   2.152
 9960SOL    HW230780   1.023   1.043   2.203
 9961SOL     OW30781   1.987   4.272   4.374
 9961SOL    HW130782   2.071   4.274   4.320
 9961SOL    HW230783   2.000   4.210   4.452
 9962SOL     OW30784   6.113   6.380   4.635
 9962SOL    HW130785   6.103   6.397   4.733
 9962SOL    HW230786   6.207   6.397   4.608
 9963SOL     OW30787   3.245   2.303   0.482
 9963SOL    HW130788   3.254   2.241   0.560
 9963SOL    HW230789   3.214   2.253   0.402
 9964SOL     OW30790   5.508   6.542   4.682
 9964SOL    HW130791   5.556   6.489   4.751
 9964SOL    HW230792   5.420   6.498   4.661
 9965SOL     OW30793   4.633   0.053   1.878
 9965SOL    HW130794   4.659   0.051   1.781
 9965SOL    HW230795   4.626   6.978   1.912
 9966SOL     OW30796   6.641   1.274   2.661
 9966SOL    HW130797   6.653   1.345   2.591
 9966SOL    HW230798   6.571   1.304   2.726
 9967SOL     OW30799   0.875   5.517   0.413
 9967SOL    HW130800   0.789   5.468   0.416
 9967SOL    HW230801   0.933   5.480   0.340
 9968SOL     OW30802   3.475   2.951   3.046
 9968SOL    HW130803   3.481   2.924   2.950
 9968SOL    HW230804   3.383   2.932   3.080
 9969SOL     OW30805   1.606   3.241   0.849
 9969SOL    HW130806   1.541   3.300   0.895
 9969SOL    HW230807   1.624   3.277   0.757
 9970SOL     OW30808   6.901   4.157   2.400
 9970SOL    HW130809   6.818   4.124   2.445
 9970SOL    HW230810   6.878   4.195   2.310
 9971SOL     OW30811   2.824   0.078   6.844
 9971SOL    HW130812   2.788   0.157   6.893
 9971SOL    HW230813   2.753   0.040   6.785
 9972SOL     OW30814   6.820   4.968   1.794
 9972SOL    HW130815   6.814   4.868   1.784
 9972SOL    HW230816   6.760   4.998   1.868
 9973SOL     OW30817   5.025   6.402   3.876
 9973SOL    HW130818   4.988   6.449   3.955
 9973SOL    HW230819   5.092   6.462   3.831
 9974SOL     OW30820   2.707   1.092   4.115
 9974SOL    HW130821   2.619   1.102   4.069
 9974SOL    HW230822   2.734   0.995   4.115
 9975SOL     OW30823   6.348   3.979   1.300
 9975SOL    HW130824   6.408   4.051   1.266
 9975SOL    HW230825   6.261   3.982   1.251
 9976SOL     OW30826   2.982   6.230   4.426
 9976SOL    HW130827   2.923   6.311   4.424
 9976SOL    HW230828   2.970   6.178   4.341
 9977SOL     OW30829   6.705   4.753   4.032
 9977SOL    HW130830   6.685   4.833   4.088
 9977SOL    HW230831   6.620   4.708   4.006
 9978SOL     OW30832   6.960   3.331   4.304
 9978SOL    HW130833   6.936   3.259   4.238
 9978SOL    HW230834   0.031   3.311   4.343
 9979SOL     OW30835   1.193   3.388   5.270
 9979SOL    HW130836   1.240   3.374   5.357
 9979SOL    HW230837   1.142   3.474   5.273
 9980SOL     OW30838   3.000   6.517   5.736
 9980SOL    HW130839   3.071   6.546   5.672
 9980SOL    HW230840   3.016   6.559   5.825
 9981SOL     OW30841   3.563   1.793   3.260
 9981SOL    HW130842   3.649   1.839   3.279
 9981SOL    HW230843   3.579   1.714   3.200
 9982SOL     OW30844   6.133   6.868   2.671
 9982SOL    HW130845   6.064   6.937   2.694
 9982SOL    HW230846   6.109   6.781   2.716
 9983SOL     OW30847   6.543   0.763   1.102
 9983SOL    HW130848   6.558   0.738   1.007
 9983SOL    HW230849   6.467   0.708   1.139
 9984SOL     OW30850   3.230   0.505   6.722
 9984SOL    HW130851   3.310   0.523   6.780
 9984SOL    HW230852   3.148   0.540   6.767
 9985SOL     OW30853   1.495   1.994   0.709
 9985SOL    HW130854   1.512   1.911   0.656
 9985SOL    HW230855   1.519   1.977   0.805
 9986SOL     OW30856   5.032   4.029   4.829
 9986SOL    HW130857   5.102   4.098   4.849
 9986SOL    HW230858   5.008   3.980   4.913
 9987SOL     OW30859   0.206   4.123   5.080
 9987SOL    HW130860   0.200   4.048   5.014
 9987SOL    HW230861   0.228   4.087   5.170
 9988SOL     OW30862   6.390   1.225   4.194
 9988SOL    HW130863   6.325   1.299   4.182
 9988SOL    HW230864   6.483   1.262   4.201
 9989SOL     OW30865   1.676   2.413   4.901
 9989SOL    HW130866   1.752   2.468   4.868
 9989SOL    HW230867   1.704   2.360   4.981
 9990SOL     OW30868   0.914   4.506   1.103
 9990SOL    HW130869   0.843   4.576   1.092
 9990SOL    HW230870   0.955   4.485   1.014
 9991SOL     OW30871   3.766   2.162   3.525
 9991SOL    HW130872   3.776   2.192   3.620
 9991SOL    HW230873   3.673   2.182   3.494
 9992SOL     OW30874   6.428   4.733   6.540
 9992SOL    HW130875   6.523   4.760   6.522
 9992SOL    HW230876   6.418   4.635   6.522
 9993SOL     OW30877   1.231   0.919   1.820
 9993SOL    HW130878   1.302   0.869   1.770
 9993SOL    HW230879   1.248   1.017   1.813
 9994SOL     OW30880   5.934   4.384   3.393
 9994SOL    HW130881   5.902   4.478   3.379
 9994SOL    HW230882   5.934   4.336   3.306
 9995SOL     OW30883   5.313   1.953   4.356
 9995SOL    HW130884   5.366   1.927   4.276
 9995SOL    HW230885   5.234   1.892   4.366
 9996SOL     OW30886   3.126   3.124   0.964
 9996SOL    HW130887   3.210   3.111   1.016
 9996SOL    HW230888   3.147   3.170   0.878
 9997SOL     OW30889   2.639   0.820   4.426
 9997SOL    HW130890   2.631   0.871   4.341
 9997SOL    HW230891   2.728   0.837   4.467
 9998SOL     OW30892   6.110   6.192   5.269
 9998SOL    HW130893   6.163   6.207   5.186
 9998SOL    HW230894   6.045   6.267   5.282
 9999SOL     OW30895   0.483   0.608   5.085
 9999SOL    HW130896   0.412   0.588   5.018
 9999SOL    HW230897   0.453   0.684   5.143
10000SOL     OW30898   6.612   4.796   0.787
10000SOL    HW130899   6.556   4.873   0.818
10000SOL    HW230900   6.575   4.711   0.823
10001SOL     OW30901   3.407   0.726   3.575
10001SOL    HW130902   3.350   0.647   3.595
10001SOL    HW230903   3.426   0.776   3.659
10002SOL     OW30904   1.397   2.221   1.896
10002SOL    HW130905   1.400   2.275   1.811
10002SOL    HW230906   1.305   2.184   1.907
10003SOL     OW30907   5.286   3.722   1.306
10003SOL    HW130908   5.348   3.670   1.365
10003SOL    HW230909   5.218   3.769   1.362
10004SOL     OW30910   6.013   3.575   4.100
10004SOL    HW130911   6.010   3.507   4.027
10004SOL    HW230912   5.971   3.537   4.183
10005SOL     OW30913   4.487   6.735   3.434
10005SOL    HW130914   4.415   6.800   3.459
10005SOL    HW230915   4.554   6.780   3.375
10006SOL     OW30916   5.514   2.587   4.446
10006SOL    HW130917   5.550   2.580   4.353
10006SOL    HW230918   5.417   2.612   4.442
10007SOL     OW30919   4.749   5.325   3.871
10007SOL    HW130920   4.788   5.237   3.900
10007SOL    HW230921   4.804   5.363   3.797
10008SOL     OW30922   2.413   6.568   4.207
10008SOL    HW130923   2.443   6.473   4.201
10008SOL    HW230924   2.425   6.602   4.300
10009SOL     OW30925   2.380   4.244   1.767
10009SOL    HW130926   2.357   4.249   1.670
10009SOL    HW230927   2.436   4.323   1.792
10010SOL     OW30928   5.288   0.546   5.319
10010SOL    HW130929   5.212   0.482   5.326
10010SOL    HW230930   5.312   0.581   5.410
10011SOL     OW30931   6.136   6.696   3.834
10011SOL    HW130932   6.059   6.635   3.814
10011SOL    HW230933   6.153   6.697   3.933
10012SOL     OW30934   4.751   1.615   4.856
10012SOL    HW130935   4.745   1.612   4.956
10012SOL    HW230936   4.660   1.612   4.817
10013SOL     OW30937   1.749   0.628   1.264
10013SOL    HW130938   1.797   0.712   1.239
10013SOL    HW230939   1.651   0.640   1.246
10014SOL     OW30940   1.453   4.889   5.727
10014SOL    HW130941   1.474   4.947   5.648
10014SOL    HW230942   1.354   4.888   5.742
10015SOL     OW30943   2.622   5.773   6.340
10015SOL    HW130944   2.637   5.776   6.241
10015SOL    HW230945   2.524   5.775   6.359
10016SOL     OW30946   2.445   1.533   4.959
10016SOL    HW130947   2.516   1.539   5.029
10016SOL    HW230948   2.376   1.466   4.987
10017SOL     OW30949   6.261   1.954   3.156
10017SOL    HW130950   6.275   1.973   3.059
10017SOL    HW230951   6.282   1.858   3.175
10018SOL     OW30952   4.304   6.780   5.991
10018SOL    HW130953   4.304   6.709   6.062
10018SOL    HW230954   4.213   6.788   5.951
10019SOL     OW30955   0.585   0.857   3.426
10019SOL    HW130956   0.502   0.901   3.392
10019SOL    HW230957   0.665   0.905   3.391
10020SOL     OW30958   1.194   3.872   0.435
10020SOL    HW130959   1.110   3.846   0.388
10020SOL    HW230960   1.248   3.931   0.375
10021SOL     OW30961   4.857   2.923   1.439
10021SOL    HW130962   4.949   2.913   1.477
10021SOL    HW230963   4.791   2.875   1.497
10022SOL     OW30964   2.531   1.174   5.896
10022SOL    HW130965   2.437   1.145   5.910
10022SOL    HW230966   2.541   1.212   5.804
10023SOL     OW30967   0.862   2.975   0.415
10023SOL    HW130968   0.932   3.002   0.481
10023SOL    HW230969   0.904   2.956   0.327
10024SOL     OW30970   0.622   3.641   2.428
10024SOL    HW130971   0.591   3.731   2.458
10024SOL    HW230972   0.635   3.642   2.329
10025SOL     OW30973   1.432   1.522   0.786
10025SOL    HW130974   1.405   1.449   0.724
10025SOL    HW230975   1.429   1.610   0.737
10026SOL     OW30976   5.929   0.772   4.317
10026SOL    HW130977   5.897   0.680   4.291
10026SOL    HW230978   6.029   0.772   4.321
10027SOL     OW30979   6.016   2.794   5.928
10027SOL    HW130980   5.917   2.782   5.923
10027SOL    HW230981   6.039   2.843   6.011
10028SOL     OW30982   1.250   2.145   1.336
10028SOL    HW130983   1.177   2.120   1.401
10028SOL    HW230984   1.304   2.064   1.315
10029SOL     OW30985   3.607   1.278   4.712
10029SOL    HW130986   3.515   1.245   4.691
10029SOL    HW230987   3.662   1.201   4.745
10030SOL     OW30988   0.547   1.318   1.607
10030SOL    HW130989   0.592   1.232   1.584
10030SOL    HW230990   0.515   1.315   1.702
10031SOL     OW30991   0.429   5.268   2.890
10031SOL    HW130992   0.525   5.240   2.895
10031SOL    HW230993   0.396   5.292   2.981
10032SOL     OW30994   3.724   2.106   4.980
10032SOL    HW130995   3.807   2.160   4.994
10032SOL    HW230996   3.684   2.129   4.892
10033SOL     OW30997   6.241   2.850   4.206
10033SOL    HW130998   6.318   2.863   4.268
10033SOL    HW230999   6.162   2.902   4.239
10034SOL     OW31000   3.999   6.477   5.982
10034SOL    HW131001   4.075   6.455   6.043
10034SOL    HW231002   3.935   6.401   5.979
10035SOL     OW31003   0.230   6.057   4.346
10035SOL    HW131004   0.251   5.992   4.418
10035SOL    HW231005   0.313   6.079   4.295
10036SOL     OW31006   6.209   7.006   0.229
10036SOL    HW131007   6.135   6.957   0.183
10036SOL    HW231008   6.240   6.954   0.309
10037SOL     OW31009   6.862   0.197   1.437
10037SOL    HW131010   6.853   0.100   1.459
10037SOL    HW231011   6.787   0.225   1.378
10038SOL     OW31012   5.915   6.901   1.488
10038SOL    HW131013   5.979   6.898   1.411
10038SOL    HW231014   5.824   6.875   1.457
10039SOL     OW31015   3.931   0.928   3.006
10039SOL    HW131016   3.938   0.855   3.074
10039SOL    HW231017   3.874   1.002   3.042
10040SOL     OW31018   0.838   1.519   0.453
10040SOL    HW131019   0.840   1.448   0.523
10040SOL    HW231020   0.884   1.601   0.488
10041SOL     OW31021   0.610   6.519   6.960
10041SOL    HW131022   0.531   6.464   6.989
10041SOL    HW231023   0.599   6.613   6.992
10042SOL     OW31024   6.587   1.721   3.974
10042SOL    HW131025   6.668   1.776   3.993
10042SOL    HW231026   6.505   1.778   3.981
10043SOL     OW31027   2.378   3.191   5.377
10043SOL    HW131028   2.292   3.202   5.326
10043SOL    HW231029   2.444   3.143   5.319
10044SOL     OW31030   3.951   0.722   6.130
10044SOL    HW131031   3.873   0.736   6.192
10044SOL    HW231032   4.019   0.665   6.175
10045SOL     OW31033   2.689   0.125   1.508
10045SOL    HW131034   2.688   0.038   1.459
10045SOL    HW231035   2.730   0.195   1.451
10046SOL     OW31036   0.806   6.549   6.719
10046SOL    HW131037   0.881   6.607   6.751
10046SOL    HW231038   0.744   6.530   6.795
10047SOL     OW31039   1.709   4.337   1.202
10047SOL    HW131040   1.690   4.427   1.239
10047SOL    HW231041   1.642   4.271   1.235
10048SOL     OW31042   6.537   3.101   1.033
10048SOL    HW131043   6.621   3.130   0.986
10048SOL    HW231044   6.475   3.179   1.040
10049SOL     OW31045   6.669   2.131   4.465
10049SOL    HW131046   6.625   2.096   4.382
10049SOL    HW231047   6.735   2.063   4.498
10050SOL     OW31048   0.436   2.006   5.711
10050SOL    HW131049   0.472   1.983   5.802
10050SOL    HW231050   0.483   2.087   5.676
10051SOL     OW31051   1.575   0.533   2.131
10051SOL    HW131052   1.657   0.476   2.123
10051SOL    HW231053   1.601   0.624   2.164
10052SOL     OW31054   0.689   0.032   4.361
10052SOL    HW131055   0.732   0.010   4.273
10052SOL    HW231056   0.737   0.110   4.402
10053SOL     OW31057   5.853   5.317   2.008
10053SOL    HW131058   5.790   5.251   2.048
10053SOL    HW231059   5.942   5.274   1.993
10054SOL     OW31060   4.808   4.522   3.637
10054SOL    HW131061   4.725   4.468   3.623
10054SOL    HW231062   4.851   4.497   3.723
10055SOL     OW31063   2.069   1.633   6.816
10055SOL    HW131064   2.015   1.716   6.798
10055SOL    HW231065   2.105   1.598   6.729
10056SOL     OW31066   4.807   2.980   4.686
10056SOL    HW131067   4.791   2.963   4.589
10056SOL    HW231068   4.749   2.920   4.741
10057SOL     OW31069   6.028   4.125   4.752
10057SOL    HW131070   6.074   4.045   4.791
10057SOL    HW231071   5.936   4.100   4.723
10058SOL     OW31072   5.689   3.857   4.066
10058SOL    HW131073   5.626   3.812   4.129
10058SOL    HW231074   5.639   3.925   4.012
10059SOL     OW31075   5.258   6.490   6.306
10059SOL    HW131076   5.249   6.479   6.405
10059SOL    HW231077   5.328   6.426   6.271
10060SOL     OW31078   3.418   1.310   1.993
10060SOL    HW131079   3.452   1.365   2.069
10060SOL    HW231080   3.440   1.355   1.907
10061SOL     OW31081   4.043   0.283   3.113
10061SOL    HW131082   4.103   0.206   3.089
10061SOL    HW231083   3.950   0.263   3.083
10062SOL     OW31084   6.382   6.929   4.408
10062SOL    HW131085   6.413   0.005   4.403
10062SOL    HW231086   6.341   6.903   4.320
10063SOL     OW31087   4.255   2.274   2.730
10063SOL    HW131088   4.288   2.259   2.637
10063SOL    HW231089   4.324   2.321   2.784
10064SOL     OW31090   2.030   6.449   2.336
10064SOL    HW131091   2.105   6.515   2.337
10064SOL    HW231092   2.046   6.380   2.407
10065SOL     OW31093   6.494   1.825   1.387
10065SOL    HW131094   6.579   1.826   1.335
10065SOL    HW231095   6.447   1.913   1.376
10066SOL     OW31096   5.926   4.250   3.628
10066SOL    HW131097   5.904   4.293   3.540
10066SOL    HW231098   6.002   4.186   3.615
10067SOL     OW31099   5.445   3.528   5.218
10067SOL    HW131100   5.490   3.446   5.251
10067SOL    HW231101   5.475   3.607   5.272
10068SOL     OW31102   2.167   4.511   2.994
10068SOL    HW131103   2.112   4.431   2.972
10068SOL    HW231104   2.107   4.590   3.008
10069SOL     OW31105   3.043   5.420   1.127
10069SOL    HW131106   2.968   5.355   1.120
10069SOL    HW231107   3.125   5.373   1.162
10070SOL     OW31108   5.235   0.108   6.971
10070SOL    HW131109   5.226   0.120   0.051
10070SOL    HW231110   5.315   0.158   6.939
10071SOL     OW31111   5.376   1.666   4.488
10071SOL    HW131112   5.474   1.683   4.479
10071SOL    HW231113   5.340   1.633   4.400
10072SOL     OW31114   5.761   3.129   1.930
10072SOL    HW131115   5.678   3.084   1.961
10072SOL    HW231116   5.739   3.196   1.859
10073SOL     OW31117   5.603   5.497   5.617
10073SOL    HW131118   5.510   5.532   5.609
10073SOL    HW231119   5.662   5.544   5.552
10074SOL     OW31120   2.030   4.522   1.212
10074SOL    HW131121   2.050   4.612   1.252
10074SOL    HW231122   1.975   4.468   1.275
10075SOL     OW31123   0.611   3.490   1.629
10075SOL    HW131124   0.578   3.441   1.710
10075SOL    HW231125   0.693   3.445   1.594
10076SOL     OW31126   6.215   4.885   3.949
10076SOL    HW131127   6.270   4.964   3.975
10076SOL    HW231128   6.176   4.900   3.858
10077SOL     OW31129   4.411   3.937   0.016
10077SOL    HW131130   4.403   4.021   6.982
10077SOL    HW231131   4.407   3.958   0.114
10078SOL     OW31132   5.868   6.185   3.420
10078SOL    HW131133   5.858   6.091   3.450
10078SOL    HW231134   5.791   6.210   3.361
10079SOL     OW31135   6.110   4.983   3.076
10079SOL    HW131136   6.179   4.940   3.135
10079SOL    HW231137   6.061   4.913   3.025
10080SOL     OW31138   5.177   2.967   4.480
10080SOL    HW131139   5.133   2.879   4.460
10080SOL    HW231140   5.166   2.988   4.577
10081SOL     OW31141   1.486   5.240   0.751
10081SOL    HW131142   1.420   5.166   0.760
10081SOL    HW231143   1.524   5.240   0.659
10082SOL     OW31144   6.677   4.379   1.906
10082SOL    HW131145   6.656   4.289   1.946
10082SOL    HW231146   6.671   4.373   1.807
10083SOL     OW31147   3.112   5.698   2.653
10083SOL    HW131148   3.087   5.632   2.725
10083SOL    HW231149   3.211   5.707   2.649
10084SOL     OW31150   1.795   3.883   4.486
10084SOL    HW131151   1.712   3.938   4.485
10084SOL    HW231152   1.873   3.940   4.513
10085SOL     OW31153   3.497   6.767   1.795
10085SOL    HW131154   3.533   6.751   1.887
10085SOL    HW231155   3.570   6.799   1.735
10086SOL     OW31156   2.524   1.108   3.043
10086SOL    HW131157   2.476   1.161   3.113
10086SOL    HW231158   2.496   1.012   3.048
10087SOL     OW31159   1.076   5.554   6.916
10087SOL    HW131160   0.983   5.540   6.882
10087SOL    HW231161   1.116   5.634   6.872
10088SOL     OW31162   5.223   1.776   0.876
10088SOL    HW131163   5.281   1.839   0.825
10088SOL    HW231164   5.127   1.795   0.856
10089SOL     OW31165   3.528   0.073   3.470
10089SOL    HW131166   3.603   0.008   3.474
10089SOL    HW231167   3.453   0.042   3.529
10090SOL     OW31168   3.431   6.096   2.935
10090SOL    HW131169   3.403   6.192   2.944
10090SOL    HW231170   3.523   6.085   2.973
10091SOL     OW31171   4.614   5.999   3.608
10091SOL    HW131172   4.607   6.066   3.682
10091SOL    HW231173   4.552   5.923   3.626
10092SOL     OW31174   6.168   1.353   2.109
10092SOL    HW131175   6.201   1.349   2.014
10092SOL    HW231176   6.078   1.397   2.110
10093SOL     OW31177   4.336   4.278   6.236
10093SOL    HW131178   4.337   4.226   6.151
10093SOL    HW231179   4.285   4.363   6.223
10094SOL     OW31180   4.312   3.135   0.026
10094SOL    HW131181   4.330   3.047   7.002
10094SOL    HW231182   4.332   3.208   6.980
10095SOL     OW31183   4.375   2.760   5.288
10095SOL    HW131184   4.290   2.718   5.255
10095SOL    HW231185   4.451   2.731   5.230
10096SOL     OW31186   6.057   4.645   1.497
10096SOL    HW131187   6.000   4.719   1.461
10096SOL    HW231188   6.138   4.633   1.439
10097SOL     OW31189   0.490   0.569   1.053
10097SOL    HW131190   0.464   0.631   1.127
10097SOL    HW231191   0.486   0.618   0.965
10098SOL     OW31192   3.939   4.887   0.574
10098SOL    HW131193   3.845   4.917   0.560
10098SOL    HW231194   3.992   4.902   0.491
10099SOL     OW31195   0.294   6.268   3.024
10099SOL    HW131196   0.334   6.268   3.115
10099SOL    HW231197   0.367   6.276   2.955
10100SOL     OW31198   5.560   5.734   4.013
10100SOL    HW131199   5.603   5.806   4.068
10100SOL    HW231200   5.504   5.774   3.941
10101SOL     OW31201   6.939   2.264   6.116
10101SOL    HW131202   6.931   2.175   6.160
10101SOL    HW231203   6.896   2.334   6.174
10102SOL     OW31204   6.797   5.132   3.786
10102SOL    HW131205   6.888   5.091   3.794
10102SOL    HW231206   6.737   5.071   3.736
10103SOL     OW31207   0.640   0.728   6.553
10103SOL    HW131208   0.671   0.756   6.462
10103SOL    HW231209   0.625   0.629   6.553
10104SOL     OW31210   3.023   1.642   4.493
10104SOL    HW131211   2.981   1.667   4.581
10104SOL    HW231212   3.075   1.719   4.458
10105SOL     OW31213   3.627   1.635   4.358
10105SOL    HW131214   3.553   1.583   4.401
10105SOL    HW231215   3.599   1.664   4.267
10106SOL     OW31216   6.990   3.620   1.734
10106SOL    HW131217   0.006   3.553   1.669
10106SOL    HW231218   6.920   3.677   1.690
10107SOL     OW31219   4.780   5.624   5.165
10107SOL    HW131220   4.789   5.582   5.074
10107SOL    HW231221   4.693   5.673   5.170
10108SOL     OW31222   3.281   1.878   4.842
10108SOL    HW131223   3.234   1.901   4.757
10108SOL    HW231224   3.323   1.961   4.880
10109SOL     OW31225   1.582   2.985   0.777
10109SOL    HW131226   1.557   3.075   0.812
10109SOL    HW231227   1.676   2.963   0.806
10110SOL     OW31228   6.524   6.121   1.907
10110SOL    HW131229   6.519   6.106   1.808
10110SOL    HW231230   6.584   6.199   1.926
10111SOL     OW31231   6.234   2.280   1.626
10111SOL    HW131232   6.263   2.221   1.551
10111SOL    HW231233   6.193   2.224   1.698
10112SOL     OW31234   0.061   3.178   3.690
10112SOL    HW131235   0.019   3.224   3.612
10112SOL    HW231236   0.027   3.218   3.775
10113SOL     OW31237   6.918   6.641   5.932
10113SOL    HW131238   6.960   6.662   5.843
10113SOL    HW231239   6.948   6.551   5.962
10114SOL     OW31240   6.077   4.351   1.359
10114SOL    HW131241   6.124   4.292   1.424
10114SOL    HW231242   6.008   4.298   1.309
10115SOL     OW31243   2.593   1.766   6.677
10115SOL    HW131244   2.554   1.730   6.592
10115SOL    HW231245   2.614   1.863   6.665
10116SOL     OW31246   1.139   0.193   5.949
10116SOL    HW131247   1.107   0.098   5.952
10116SOL    HW231248   1.216   0.200   5.886
10117SOL     OW31249   0.879   4.607   0.851
10117SOL    HW131250   0.846   4.691   0.896
10117SOL    HW231251   0.856   4.610   0.754
10118SOL     OW31252   3.725   5.392   3.240
10118SOL    HW131253   3.766   5.475   3.202
10118SOL    HW231254   3.736   5.317   3.174
10119SOL     OW31255   5.872   5.645   6.844
10119SOL    HW131256   5.900   5.551   6.864
10119SOL    HW231257   5.824   5.683   6.923
10120SOL     OW31258   2.352   2.286   2.329
10120SOL    HW131259   2.274   2.273   2.267
10120SOL    HW231260   2.433   2.242   2.289
10121SOL     OW31261   6.435   5.890   2.079
10121SOL    HW131262   6.461   5.971   2.026
10121SOL    HW231263   6.341   5.901   2.112
10122SOL     OW31264   1.912   0.044   3.988
10122SOL    HW131265   1.938   0.066   3.894
10122SOL    HW231266   1.994   0.037   4.045
10123SOL     OW31267   6.064   6.317   6.548
10123SOL    HW131268   6.146   6.370   6.566
10123SOL    HW231269   5.996   6.376   6.504
10124SOL     OW31270   0.493   4.535   3.320
10124SOL    HW131271   0.458   4.499   3.233
10124SOL    HW231272   0.587   4.506   3.333
10125SOL     OW31273   2.208   2.455   4.138
10125SOL    HW131274   2.154   2.525   4.091
10125SOL    HW231275   2.156   2.369   4.141
10126SOL     OW31276   6.825   6.008   4.669
10126SOL    HW131277   6.742   6.026   4.615
10126SOL    HW231278   6.870   6.095   4.690
10127SOL     OW31279   2.749   0.656   4.897
10127SOL    HW131280   2.712   0.735   4.847
10127SOL    HW231281   2.801   0.598   4.834
10128SOL     OW31282   3.191   0.649   0.605
10128SOL    HW131283   3.196   0.596   0.689
10128SOL    HW231284   3.096   0.669   0.583
10129SOL     OW31285   6.794   2.111   5.762
10129SOL    HW131286   6.800   2.196   5.708
10129SOL    HW231287   6.774   2.034   5.701
10130SOL     OW31288   0.676   2.970   3.481
10130SOL    HW131289   0.766   2.931   3.458
10130SOL    HW231290   0.612   2.896   3.499
10131SOL     OW31291   2.587   0.804   4.720
10131SOL    HW131292   2.570   0.844   4.630
10131SOL    HW231293   2.540   0.716   4.726
10132SOL     OW31294   5.751   0.831   1.980
10132SOL    HW131295   5.756   0.930   1.996
10132SOL    HW231296   5.785   0.812   1.888
10133SOL     OW31297   4.793   5.335   1.212
10133SOL    HW131298   4.875   5.382   1.242
10133SOL    HW231299   4.802   5.312   1.115
10134SOL     OW31300   6.259   1.053   2.655
10134SOL    HW131301   6.218   1.111   2.586
10134SOL    HW231302   6.340   1.008   2.617
10135SOL     OW31303   6.074   6.648   3.064
10135SOL    HW131304   6.129   6.686   3.139
10135SOL    HW231305   5.998   6.709   3.044
10136SOL     OW31306   5.401   0.150   2.964
10136SOL    HW131307   5.423   0.199   3.048
10136SOL    HW231308   5.336   0.077   2.985
10137SOL     OW31309   5.975   5.583   2.129
10137SOL    HW131310   5.991   5.503   2.070
10137SOL    HW231311   6.039   5.581   2.206
10138SOL     OW31312   0.276   1.505   1.656
10138SOL    HW131313   0.321   1.487   1.568
10138SOL    HW231314   0.178   1.512   1.643
10139SOL     OW31315   4.400   2.317   0.357
10139SOL    HW131316   4.398   2.303   0.456
10139SOL    HW231317   4.421   2.413   0.337
10140SOL     OW31318   6.008   6.419   3.277
10140SOL    HW131319   5.931   6.361   3.303
10140SOL    HW231320   5.975   6.510   3.254
10141SOL     OW31321   0.912   1.787   5.554
10141SOL    HW131322   0.984   1.853   5.529
10141SOL    HW231323   0.885   1.801   5.649
10142SOL     OW31324   3.807   5.992   1.814
10142SOL    HW131325   3.728   6.045   1.843
10142SOL    HW231326   3.881   6.003   1.881
10143SOL     OW31327   0.704   3.271   6.431
10143SOL    HW131328   0.751   3.359   6.434
10143SOL    HW231329   0.712   3.226   6.520
10144SOL     OW31330   4.728   0.126   2.871
10144SOL    HW131331   4.767   0.135   2.779
10144SOL    HW231332   4.794   0.161   2.938
10145SOL     OW31333   6.348   1.359   5.240
10145SOL    HW131334   6.284   1.379   5.315
10145SOL    HW231335   6.312   1.395   5.155
10146SOL     OW31336   1.658   1.324   5.311
10146SOL    HW131337   1.735   1.378   5.346
10146SOL    HW231338   1.586   1.385   5.278
10147SOL     OW31339   4.250   4.735   6.877
10147SOL    HW131340   4.330   4.744   6.818
10147SOL    HW231341   4.280   4.727   6.972
10148SOL     OW31342   6.560   5.808   6.387
10148SOL    HW131343   6.482   5.754   6.355
10148SOL    HW231344   6.603   5.853   6.309
10149SOL     OW31345   3.483   2.848   4.488
10149SOL    HW131346   3.454   2.845   4.584
10149SOL    HW231347   3.577   2.880   4.483
10150SOL     OW31348   6.535   4.027   6.764
10150SOL    HW131349   6.596   4.061   6.693
10150SOL    HW231350   6.541   3.927   6.768
10151SOL     OW31351   0.322   0.260   6.982
10151SOL    HW131352   0.341   0.333   6.916
10151SOL    HW231353   0.276   0.299   0.043
10152SOL     OW31354   3.263   6.942   4.169
10152SOL    HW131355   3.261   7.017   4.234
10152SOL    HW231356   3.192   6.875   4.193
10153SOL     OW31357   4.093   4.578   0.348
10153SOL    HW131358   4.054   4.583   0.440
10153SOL    HW231359   4.123   4.484   0.330
10154SOL     OW31360   4.729   4.885   6.189
10154SOL    HW131361   4.685   4.975   6.186
10154SOL    HW231362   4.739   4.850   6.096
10155SOL     OW31363   4.931   2.730   4.792
10155SOL    HW131364   4.842   2.745   4.837
10155SOL    HW231365   4.917   2.678   4.708
10156SOL     OW31366   3.009   1.972   6.706
10156SOL    HW131367   2.998   1.934   6.615
10156SOL    HW231368   2.952   1.921   6.770
10157SOL     OW31369   0.444   5.638   2.367
10157SOL    HW131370   0.501   5.664   2.289
10157SOL    HW231371   0.387   5.716   2.394
10158SOL     OW31372   0.536   4.549   6.036
10158SOL    HW131373   0.551   4.545   6.135
10158SOL    HW231374   0.599   4.486   5.990
10159SOL     OW31375   4.160   2.934   1.678
10159SOL    HW131376   4.139   2.891   1.590
10159SOL    HW231377   4.084   2.917   1.741
10160SOL     OW31378   6.880   4.625   2.666
10160SOL    HW131379   6.858   4.602   2.571
10160SOL    HW231380   6.904   4.721   2.672
10161SOL     OW31381   6.816   2.696   0.027
10161SOL    HW131382   6.843   2.628   6.978
10161SOL    HW231383   6.717   2.707   0.026
10162SOL     OW31384   2.076   2.129   2.516
10162SOL    HW131385   2.084   2.041   2.563
10162SOL    HW231386   2.017   2.190   2.568
10163SOL     OW31387   4.172   5.462   4.485
10163SOL    HW131388   4.240   5.390   4.473
10163SOL    HW231389   4.080   5.421   4.489
10164SOL     OW31390   0.257   1.799   3.269
10164SOL    HW131391   0.303   1.731   3.327
10164SOL    HW231392   0.292   1.890   3.290
10165SOL     OW31393   1.914   3.092   3.507
10165SOL    HW131394   1.874   3.060   3.592
10165SOL    HW231395   2.012   3.069   3.506
10166SOL     OW31396   3.589   6.279   4.155
10166SOL    HW131397   3.578   6.203   4.092
10166SOL    HW231398   3.502   6.326   4.167
10167SOL     OW31399   3.542   1.983   0.331
10167SOL    HW131400   3.541   2.078   0.362
10167SOL    HW231401   3.459   1.937   0.364
10168SOL     OW31402   0.161   1.309   6.678
10168SOL    HW131403   0.117   1.392   6.643
10168SOL    HW231404   0.176   1.318   6.776
10169SOL     OW31405   4.603   4.866   2.436
10169SOL    HW131406   4.588   4.767   2.437
10169SOL    HW231407   4.577   4.904   2.525
10170SOL     OW31408   4.439   6.790   0.113
10170SOL    HW131409   4.501   6.774   0.036
10170SOL    HW231410   4.407   6.885   0.110
10171SOL     OW31411   1.454   4.874   3.109
10171SOL    HW131412   1.525   4.804   3.095
10171SOL    HW231413   1.366   4.839   3.078
10172SOL     OW31414   0.159   0.095   3.256
10172SOL    HW131415   0.095   0.151   3.310
10172SOL    HW231416   0.209   0.154   3.192
10173SOL     OW31417   4.630   2.726   3.940
10173SOL    HW131418   4.533   2.727   3.913
10173SOL    HW231419   4.660   2.632   3.952
10174SOL     OW31420   3.847   5.848   1.054
10174SOL    HW131421   3.884   5.911   0.986
10174SOL    HW231422   3.782   5.896   1.113
10175SOL     OW31423   6.695   6.888   4.475
10175SOL    HW131424   6.669   6.984   4.471
10175SOL    HW231425   6.706   6.861   4.571
10176SOL     OW31426   0.034   1.610   4.705
10176SOL    HW131427   7.003   1.587   4.621
10176SOL    HW231428   0.024   1.707   4.724
10177SOL     OW31429   3.122   0.417   4.853
10177SOL    HW131430   3.181   0.381   4.781
10177SOL    HW231431   3.169   0.491   4.900
10178SOL     OW31432   5.921   1.476   2.072
10178SOL    HW131433   5.902   1.560   2.021
10178SOL    HW231434   5.884   1.484   2.164
10179SOL     OW31435   6.976   6.015   1.080
10179SOL    HW131436   6.975   5.927   1.127
10179SOL    HW231437   6.965   6.089   1.147
10180SOL     OW31438   2.302   0.315   6.124
10180SOL    HW131439   2.366   0.319   6.202
10180SOL    HW231440   2.311   0.398   6.070
10181SOL     OW31441   0.144   4.218   2.495
10181SOL    HW131442   0.048   4.243   2.486
10181SOL    HW231443   0.201   4.300   2.497
10182SOL     OW31444   2.687   6.800   6.360
10182SOL    HW131445   2.617   6.805   6.288
10182SOL    HW231446   2.695   6.706   6.392
10183SOL     OW31447   3.743   6.214   6.659
10183SOL    HW131448   3.741   6.115   6.671
10183SOL    HW231449   3.834   6.242   6.629
10184SOL     OW31450   5.418   2.822   4.105
10184SOL    HW131451   5.434   2.883   4.183
10184SOL    HW231452   5.481   2.744   4.111
10185SOL     OW31453   2.747   4.766   1.760
10185SOL    HW131454   2.747   4.721   1.849
10185SOL    HW231455   2.764   4.699   1.688
10186SOL     OW31456   3.504   3.260   1.979
10186SOL    HW131457   3.409   3.275   1.950
10186SOL    HW231458   3.505   3.206   2.063
10187SOL     OW31459   1.415   3.484   4.732
10187SOL    HW131460   1.471   3.450   4.807
10187SOL    HW231461   1.422   3.583   4.727
10188SOL     OW31462   2.711   6.807   7.012
10188SOL    HW131463   2.693   6.905   7.011
10188SOL    HW231464   2.627   6.758   0.019
10189SOL     OW31465   1.445   1.573   5.429
10189SOL    HW131466   1.524   1.613   5.475
10189SOL    HW231467   1.362   1.623   5.455
10190SOL     OW31468   2.697   4.303   1.086
10190SOL    HW131469   2.651   4.390   1.104
10190SOL    HW231470   2.655   4.259   1.006
10191SOL     OW31471   6.515   0.474   6.755
10191SOL    HW131472   6.444   0.403   6.756
10191SOL    HW231473   6.563   0.473   6.843
10192SOL     OW31474   3.133   1.022   3.947
10192SOL    HW131475   3.034   1.021   3.931
10192SOL    HW231476   3.170   0.930   3.931
10193SOL     OW31477   3.762   3.376   4.020
10193SOL    HW131478   3.744   3.278   4.017
10193SOL    HW231479   3.775   3.411   3.927
10194SOL     OW31480   3.176   6.145   3.335
10194SOL    HW131481   3.273   6.128   3.321
10194SOL    HW231482   3.164   6.214   3.406
10195SOL     OW31483   5.436   6.581   1.801
10195SOL    HW131484   5.531   6.562   1.826
10195SOL    HW231485   5.416   6.537   1.713
10196SOL     OW31486   4.759   4.558   4.156
10196SOL    HW131487   4.842   4.596   4.197
10196SOL    HW231488   4.736   4.609   4.073
10197SOL     OW31489   5.829   1.991   2.526
10197SOL    HW131490   5.828   2.050   2.445
10197SOL    HW231491   5.781   1.906   2.506
10198SOL     OW31492   3.495   1.432   2.253
10198SOL    HW131493   3.421   1.492   2.225
10198SOL    HW231494   3.474   1.392   2.342
10199SOL     OW31495   1.433   1.815   6.931
10199SOL    HW131496   1.442   1.818   0.012
10199SOL    HW231497   1.502   1.874   6.890
10200SOL     OW31498   4.224   6.970   3.967
10200SOL    HW131499   4.319   6.963   4.000
10200SOL    HW231500   4.175   6.886   3.990
10201SOL     OW31501   0.473   5.129   2.489
10201SOL    HW131502   0.455   5.223   2.520
10201SOL    HW231503   0.564   5.101   2.519
10202SOL     OW31504   1.568   3.113   3.715
10202SOL    HW131505   1.645   3.049   3.709
10202SOL    HW231506   1.507   3.099   3.637
10203SOL     OW31507   6.551   2.317   1.293
10203SOL    HW131508   6.624   2.351   1.352
10203SOL    HW231509   6.475   2.381   1.293
10204SOL     OW31510   1.367   5.866   4.061
10204SOL    HW131511   1.379   5.897   3.966
10204SOL    HW231512   1.270   5.862   4.082
10205SOL     OW31513   3.643   6.849   1.529
10205SOL    HW131514   3.660   6.897   1.443
10205SOL    HW231515   3.646   6.750   1.513
10206SOL     OW31516   6.081   5.835   6.465
10206SOL    HW131517   6.021   5.908   6.497
10206SOL    HW231518   6.062   5.815   6.369
10207SOL     OW31519   3.265   1.574   2.231
10207SOL    HW131520   3.274   1.670   2.259
10207SOL    HW231521   3.181   1.536   2.271
10208SOL     OW31522   1.045   2.270   6.328
10208SOL    HW131523   1.113   2.254   6.257
10208SOL    HW231524   1.062   2.208   6.405
10209SOL     OW31525   4.032   6.520   0.515
10209SOL    HW131526   3.993   6.432   0.541
10209SOL    HW231527   4.095   6.552   0.586
10210SOL     OW31528   4.230   6.425   6.484
10210SOL    HW131529   4.194   6.381   6.567
10210SOL    HW231530   4.229   6.525   6.497
10211SOL     OW31531   3.935   4.865   4.667
10211SOL    HW131532   4.028   4.834   4.687
10211SOL    HW231533   3.900   4.919   4.743
10212SOL     OW31534   6.654   5.828   5.632
10212SOL    HW131535   6.734   5.791   5.586
10212SOL    HW231536   6.580   5.840   5.566
10213SOL     OW31537   3.407   0.180   4.708
10213SOL    HW131538   3.502   0.211   4.711
10213SOL    HW231539   3.348   0.258   4.685
10214SOL     OW31540   6.797   6.976   0.434
10214SOL    HW131541   6.800   0.050   0.397
10214SOL    HW231542   6.890   6.947   0.460
10215SOL     OW31543   4.466   2.290   6.928
10215SOL    HW131544   4.499   2.379   6.960
10215SOL    HW231545   4.477   2.222   7.001
10216SOL     OW31546   4.905   0.198   3.069
10216SOL    HW131547   4.955   0.282   3.047
10216SOL    HW231548   4.969   0.126   3.093
10217SOL     OW31549   2.481   1.692   6.064
10217SOL    HW131550   2.513   1.685   5.970
10217SOL    HW231551   2.410   1.763   6.070
10218SOL     OW31552   3.587   0.597   5.809
10218SOL    HW131553   3.665   0.537   5.830
10218SOL    HW231554   3.605   0.689   5.845
10219SOL     OW31555   6.680   5.349   0.993
10219SOL    HW131556   6.682   5.416   0.919
10219SOL    HW231557   6.667   5.397   1.080
10220SOL     OW31558   4.431   2.438   6.370
10220SOL    HW131559   4.475   2.520   6.333
10220SOL    HW231560   4.363   2.465   6.438
10221SOL     OW31561   1.821   0.265   4.530
10221SOL    HW131562   1.818   0.281   4.629
10221SOL    HW231563   1.744   0.312   4.487
10222SOL     OW31564   2.636   5.001   5.334
10222SOL    HW131565   2.607   5.046   5.250
10222SOL    HW231566   2.736   4.993   5.335
10223SOL     OW31567   2.632   6.003   5.490
10223SOL    HW131568   2.564   6.054   5.543
10223SOL    HW231569   2.696   5.958   5.552
10224SOL     OW31570   4.232   5.639   5.446
10224SOL    HW131571   4.182   5.724   5.431
10224SOL    HW231572   4.290   5.648   5.528
10225SOL     OW31573   4.784   0.869   5.200
10225SOL    HW131574   4.739   0.855   5.288
10225SOL    HW231575   4.782   0.966   5.177
10226SOL     OW31576   6.428   2.303   6.535
10226SOL    HW131577   6.489   2.382   6.529
10226SOL    HW231578   6.349   2.326   6.592
10227SOL     OW31579   4.714   4.967   5.236
10227SOL    HW131580   4.785   5.037   5.248
10227SOL    HW231581   4.745   4.898   5.171
10228SOL     OW31582   0.954   2.958   1.429
10228SOL    HW131583   0.998   2.869   1.440
10228SOL    HW231584   0.898   2.978   1.509
10229SOL     OW31585   2.777   0.568   1.947
10229SOL    HW131586   2.794   0.595   1.852
10229SOL    HW231587   2.679   0.551   1.960
10230SOL     OW31588   5.280   0.124   3.428
10230SOL    HW131589   5.254   0.200   3.488
10230SOL    HW231590   5.261   0.149   3.333
10231SOL     OW31591   5.273   0.274   4.736
10231SOL    HW131592   5.313   0.304   4.649
10231SOL    HW231593   5.173   0.275   4.729
10232SOL     OW31594   4.165   2.022   2.682
10232SOL    HW131595   4.182   2.119   2.700
10232SOL    HW231596   4.238   1.986   2.625
10233SOL     OW31597   5.125   6.925   4.996
10233SOL    HW131598   5.116   6.831   5.027
10233SOL    HW231599   5.185   6.975   5.058
10234SOL     OW31600   3.833   3.847   0.983
10234SOL    HW131601   3.909   3.790   1.014
10234SOL    HW231602   3.763   3.850   1.054
10235SOL     OW31603   4.962   6.496   6.937
10235SOL    HW131604   4.967   6.403   6.901
10235SOL    HW231605   4.979   6.562   6.863
10236SOL     OW31606   0.941   5.250   1.392
10236SOL    HW131607   0.970   5.202   1.475
10236SOL    HW231608   0.842   5.258   1.390
10237SOL     OW31609   5.813   2.160   2.315
10237SOL    HW131610   5.724   2.181   2.276
10237SOL    HW231611   5.885   2.183   2.249
10238SOL     OW31612   4.870   4.627   6.155
10238SOL    HW131613   4.886   4.566   6.232
10238SOL    HW231614   4.771   4.641   6.144
10239SOL     OW31615   5.786   4.168   3.971
10239SOL    HW131616   5.778   4.244   3.906
10239SOL    HW231617   5.882   4.160   4.000
10240SOL     OW31618   5.267   3.437   2.151
10240SOL    HW131619   5.350   3.450   2.205
10240SOL    HW231620   5.271   3.494   2.069
10241SOL     OW31621   1.242   2.409   2.961
10241SOL    HW131622   1.154   2.363   2.962
10241SOL    HW231623   1.274   2.418   2.866
10242SOL     OW31624   1.054   5.562   6.463
10242SOL    HW131625   0.978   5.519   6.511
10242SOL    HW231626   1.126   5.585   6.527
10243SOL     OW31627   6.742   6.038   3.547
10243SOL    HW131628   6.841   6.052   3.534
10243SOL    HW231629   6.695   6.125   3.541
10244SOL     OW31630   2.593   6.186   0.179
10244SOL    HW131631   2.581   6.285   0.186
10244SOL    HW231632   2.678   6.160   0.224
10245SOL     OW31633   4.068   3.396   0.779
10245SOL    HW131634   4.051   3.355   0.689
10245SOL    HW231635   4.019   3.345   0.849
10246SOL     OW31636   3.489   3.784   4.911
10246SOL    HW131637   3.470   3.781   5.009
10246SOL    HW231638   3.408   3.813   4.861
10247SOL     OW31639   0.860   5.426   6.621
10247SOL    HW131640   0.825   5.448   6.712
10247SOL    HW231641   0.859   5.327   6.607
10248SOL     OW31642   5.783   6.742   3.498
10248SOL    HW131643   5.778   6.839   3.475
10248SOL    HW231644   5.874   6.707   3.477
10249SOL     OW31645   4.427   1.586   5.791
10249SOL    HW131646   4.477   1.508   5.753
10249SOL    HW231647   4.491   1.650   5.832
10250SOL     OW31648   4.589   5.274   0.958
10250SOL    HW131649   4.541   5.360   0.978
10250SOL    HW231650   4.688   5.290   0.959
10251SOL     OW31651   4.141   4.413   1.088
10251SOL    HW131652   4.196   4.492   1.115
10251SOL    HW231653   4.201   4.344   1.046
10252SOL     OW31654   0.063   4.479   0.532
10252SOL    HW131655   0.042   4.483   0.435
10252SOL    HW231656   0.061   4.571   0.571
10253SOL     OW31657   5.628   3.743   0.276
10253SOL    HW131658   5.666   3.819   0.223
10253SOL    HW231659   5.561   3.778   0.341
10254SOL     OW31660   3.800   2.029   5.606
10254SOL    HW131661   3.749   2.115   5.613
10254SOL    HW231662   3.793   1.994   5.512
10255SOL     OW31663   2.726   4.656   3.831
10255SOL    HW131664   2.701   4.627   3.738
10255SOL    HW231665   2.809   4.712   3.828
10256SOL     OW31666   5.727   4.347   0.225
10256SOL    HW131667   5.820   4.372   0.199
10256SOL    HW231668   5.709   4.377   0.318
10257SOL     OW31669   1.645   4.450   4.718
10257SOL    HW131670   1.736   4.460   4.676
10257SOL    HW231671   1.575   4.463   4.649
10258SOL     OW31672   3.795   1.484   2.303
10258SOL    HW131673   3.719   1.539   2.269
10258SOL    HW231674   3.765   1.429   2.381
10259SOL     OW31675   5.481   3.111   3.447
10259SOL    HW131676   5.548   3.119   3.374
10259SOL    HW231677   5.527   3.096   3.534
10260SOL     OW31678   0.062   6.012   2.256
10260SOL    HW131679   0.112   5.987   2.173
10260SOL    HW231680   0.061   5.934   2.319
10261SOL     OW31681   1.782   0.126   2.500
10261SOL    HW131682   1.807   0.194   2.569
10261SOL    HW231683   1.747   0.044   2.546
10262SOL     OW31684   6.517   6.307   3.521
10262SOL    HW131685   6.434   6.260   3.494
10262SOL    HW231686   6.499   6.361   3.604
10263SOL     OW31687   6.742   3.763   4.991
10263SOL    HW131688   6.837   3.770   4.962
10263SOL    HW231689   6.720   3.838   5.054
10264SOL     OW31690   0.598   0.133   1.077
10264SOL    HW131691   0.499   0.144   1.075
10264SOL    HW231692   0.625   0.090   1.164
10265SOL     OW31693   5.169   2.293   4.529
10265SOL    HW131694   5.193   2.207   4.574
10265SOL    HW231695   5.151   2.277   4.432
10266SOL     OW31696   3.019   3.824   0.393
10266SOL    HW131697   2.952   3.752   0.376
10266SOL    HW231698   3.062   3.809   0.482
10267SOL     OW31699   6.778   0.690   6.082
10267SOL    HW131700   6.761   0.617   6.148
10267SOL    HW231701   6.868   0.677   6.041
10268SOL     OW31702   6.754   4.581   0.295
10268SOL    HW131703   6.795   4.577   0.203
10268SOL    HW231704   6.786   4.503   0.349
10269SOL     OW31705   3.720   1.536   5.483
10269SOL    HW131706   3.697   1.586   5.400
10269SOL    HW231707   3.815   1.556   5.509
10270SOL     OW31708   3.437   6.127   3.705
10270SOL    HW131709   3.506   6.195   3.679
10270SOL    HW231710   3.443   6.048   3.644
10271SOL     OW31711   1.047   4.900   0.853
10271SOL    HW131712   1.101   4.817   0.838
10271SOL    HW231713   0.964   4.877   0.904
10272SOL     OW31714   1.112   3.641   4.162
10272SOL    HW131715   1.095   3.711   4.231
10272SOL    HW231716   1.204   3.653   4.124
10273SOL     OW31717   4.618   0.536   4.383
10273SOL    HW131718   4.599   0.613   4.322
10273SOL    HW231719   4.531   0.500   4.418
10274SOL     OW31720   1.787   4.624   6.528
10274SOL    HW131721   1.688   4.613   6.521
10274SOL    HW231722   1.824   4.655   6.441
10275SOL     OW31723   0.069   5.732   1.808
10275SOL    HW131724   0.020   5.819   1.798
10275SOL    HW231725   0.032   5.683   1.888
10276SOL     OW31726   3.074   6.911   0.373
10276SOL    HW131727   3.007   6.872   0.309
10276SOL    HW231728   3.131   6.977   0.325
10277SOL     OW31729   5.979   5.838   2.065
10277SOL    HW131730   5.887   5.869   2.090
10277SOL    HW231731   5.985   5.739   2.075
10278SOL     OW31732   6.275   1.199   4.858
10278SOL    HW131733   6.251   1.209   4.955
10278SOL    HW231734   6.206   1.141   4.813
10279SOL     OW31735   3.864   6.898   4.176
10279SOL    HW131736   3.809   6.867   4.253
10279SOL    HW231737   3.947   6.842   4.169
10280SOL     OW31738   2.793   2.237   6.878
10280SOL    HW131739   2.870   2.238   6.942
10280SOL    HW231740   2.826   2.256   6.786
10281SOL     OW31741   4.115   1.213   4.387
10281SOL    HW131742   4.075   1.122   4.394
10281SOL    HW231743   4.105   1.260   4.475
10282SOL     OW31744   1.529   3.403   3.794
10282SOL    HW131745   1.554   3.307   3.782
10282SOL    HW231746   1.611   3.458   3.809
10283SOL     OW31747   1.841   5.809   6.960
10283SOL    HW131748   1.864   5.722   6.917
10283SOL    HW231749   1.925   5.851   6.996
10284SOL     OW31750   5.658   2.481   0.226
10284SOL    HW131751   5.655   2.391   0.181
10284SOL    HW231752   5.612   2.476   0.314
10285SOL     OW31753   5.128   1.390   0.642
10285SOL    HW131754   5.164   1.297   0.654
10285SOL    HW231755   5.202   1.456   0.650
10286SOL     OW31756   2.829   6.579   3.609
10286SOL    HW131757   2.841   6.486   3.642
10286SOL    HW231758   2.849   6.643   3.683
10287SOL     OW31759   1.973   4.247   2.378
10287SOL    HW131760   2.011   4.332   2.343
10287SOL    HW231761   1.981   4.176   2.308
10288SOL     OW31762   4.822   6.986   4.569
10288SOL    HW131763   4.841   6.915   4.637
10288SOL    HW231764   4.908   0.002   4.532
10289SOL     OW31765   2.570   1.728   2.867
10289SOL    HW131766   2.628   1.803   2.834
10289SOL    HW231767   2.585   1.647   2.810
10290SOL     OW31768   3.409   3.802   2.968
10290SOL    HW131769   3.399   3.804   3.068
10290SOL    HW231770   3.435   3.710   2.939
10291SOL     OW31771   4.045   0.462   3.328
10291SOL    HW131772   3.952   0.494   3.346
10291SOL    HW231773   4.043   0.389   3.260
10292SOL     OW31774   6.869   3.083   4.535
10292SOL    HW131775   6.816   3.070   4.619
10292SOL    HW231776   6.906   3.176   4.532
10293SOL     OW31777   1.595   5.364   3.470
10293SOL    HW131778   1.512   5.341   3.522
10293SOL    HW231779   1.665   5.295   3.487
10294SOL     OW31780   6.074   0.676   3.255
10294SOL    HW131781   6.086   0.746   3.185
10294SOL    HW231782   5.977   0.653   3.264
10295SOL     OW31783   1.536   4.284   3.607
10295SOL    HW131784   1.598   4.359   3.583
10295SOL    HW231785   1.585   4.197   3.599
10296SOL     OW31786   6.822   3.074   1.165
10296SOL    HW131787   6.850   3.132   1.089
10296SOL    HW231788   6.771   3.130   1.232
10297SOL     OW31789   3.916   4.303   5.951
10297SOL    HW131790   3.866   4.317   6.035
10297SOL    HW231791   3.853   4.299   5.873
10298SOL     OW31792   5.743   3.302   2.817
10298SOL    HW131793   5.795   3.387   2.827
10298SOL    HW231794   5.648   3.323   2.794
10299SOL     OW31795   3.829   5.080   2.857
10299SOL    HW131796   3.929   5.089   2.854
10299SOL    HW231797   3.801   5.000   2.803
10300SOL     OW31798   0.368   6.077   2.737
10300SOL    HW131799   0.372   6.010   2.811
10300SOL    HW231800   0.288   6.135   2.750
10301SOL     OW31801   4.441   0.883   1.865
10301SOL    HW131802   4.458   0.784   1.865
10301SOL    HW231803   4.509   0.928   1.923
10302SOL     OW31804   7.002   4.212   3.348
10302SOL    HW131805   6.973   4.207   3.252
10302SOL    HW231806   0.043   4.291   3.361
10303SOL     OW31807   4.873   3.384   0.916
10303SOL    HW131808   4.865   3.305   0.977
10303SOL    HW231809   4.970   3.403   0.899
10304SOL     OW31810   5.769   6.404   4.414
10304SOL    HW131811   5.683   6.447   4.442
10304SOL    HW231812   5.823   6.381   4.495
10305SOL     OW31813   0.975   5.194   1.134
10305SOL    HW131814   0.895   5.138   1.114
10305SOL    HW231815   0.989   5.200   1.233
10306SOL     OW31816   4.808   3.607   6.456
10306SOL    HW131817   4.729   3.640   6.404
10306SOL    HW231818   4.880   3.676   6.456
10307SOL     OW31819   2.615   2.546   6.033
10307SOL    HW131820   2.623   2.467   6.094
10307SOL    HW231821   2.519   2.571   6.023
10308SOL     OW31822   3.062   4.894   4.109
10308SOL    HW131823   3.020   4.939   4.188
10308SOL    HW231824   3.028   4.800   4.103
10309SOL     OW31825   6.449   6.171   3.997
10309SOL    HW131826   6.395   6.255   4.003
10309SOL    HW231827   6.542   6.194   3.967
10310SOL     OW31828   3.940   3.827   4.336
10310SOL    HW131829   3.888   3.829   4.421
10310SOL    HW231830   3.921   3.742   4.287
10311SOL     OW31831   1.764   0.805   0.806
10311SOL    HW131832   1.823   0.728   0.779
10311SOL    HW231833   1.669   0.783   0.783
10312SOL     OW31834   3.278   4.438   0.403
10312SOL    HW131835   3.251   4.351   0.361
10312SOL    HW231836   3.374   4.456   0.385
10313SOL     OW31837   6.416   5.597   3.314
10313SOL    HW131838   6.481   5.655   3.363
10313SOL    HW231839   6.375   5.531   3.377
10314SOL     OW31840   6.543   5.422   5.077
10314SOL    HW131841   6.566   5.326   5.068
10314SOL    HW231842   6.575   5.456   5.166
10315SOL     OW31843   4.388   5.298   5.463
10315SOL    HW131844   4.353   5.335   5.377
10315SOL    HW231845   4.461   5.357   5.498
10316SOL     OW31846   0.221   2.660   4.010
10316SOL    HW131847   0.266   2.573   3.990
10316SOL    HW231848   0.191   2.703   3.925
10317SOL     OW31849   6.194   4.044   6.053
10317SOL    HW131850   6.287   4.057   6.020
10317SOL    HW231851   6.166   3.949   6.040
10318SOL     OW31852   5.062   4.586   2.337
10318SOL    HW131853   5.012   4.673   2.340
10318SOL    HW231854   5.140   4.595   2.276
10319SOL     OW31855   6.032   6.413   3.605
10319SOL    HW131856   6.023   6.335   3.542
10319SOL    HW231857   6.127   6.444   3.606
10320SOL     OW31858   3.102   6.604   1.527
10320SOL    HW131859   3.130   6.688   1.574
10320SOL    HW231860   3.165   6.530   1.550
10321SOL     OW31861   4.960   6.626   5.632
10321SOL    HW131862   4.877   6.644   5.579
10321SOL    HW231863   5.033   6.686   5.600
10322SOL     OW31864   0.144   1.607   6.049
10322SOL    HW131865   0.082   1.649   5.983
10322SOL    HW231866   0.213   1.554   6.001
10323SOL     OW31867   0.019   2.013   5.256
10323SOL    HW131868   0.026   2.000   5.157
10323SOL    HW231869   0.103   1.981   5.300
10324SOL     OW31870   3.065   3.692   5.242
10324SOL    HW131871   2.982   3.677   5.189
10324SOL    HW231872   3.055   3.773   5.300
10325SOL     OW31873   0.469   2.965   3.984
10325SOL    HW131874   0.374   2.952   3.957
10325SOL    HW231875   0.517   3.016   3.912
10326SOL     OW31876   6.131   0.913   0.709
10326SOL    HW131877   6.103   0.853   0.635
10326SOL    HW231878   6.060   0.913   0.780
10327SOL     OW31879   6.486   2.048   3.834
10327SOL    HW131880   6.447   2.003   3.915
10327SOL    HW231881   6.471   1.990   3.754
10328SOL     OW31882   0.150   3.302   1.743
10328SOL    HW131883   0.208   3.253   1.807
10328SOL    HW231884   0.104   3.377   1.790
10329SOL     OW31885   1.940   5.981   2.389
10329SOL    HW131886   1.852   5.940   2.412
10329SOL    HW231887   1.926   6.070   2.346
10330SOL     OW31888   4.178   3.113   0.517
10330SOL    HW131889   4.144   3.204   0.540
10330SOL    HW231890   4.193   3.107   0.419
10331SOL     OW31891   4.942   2.008   4.089
10331SOL    HW131892   4.849   2.011   4.124
10331SOL    HW231893   4.956   1.924   4.037
10332SOL     OW31894   2.150   3.156   6.832
10332SOL    HW131895   2.139   3.256   6.829
10332SOL    HW231896   2.061   3.113   6.850
10333SOL     OW31897   6.774   4.263   5.541
10333SOL    HW131898   6.761   4.362   5.549
10333SOL    HW231899   6.715   4.227   5.468
10334SOL     OW31900   0.511   5.191   5.950
10334SOL    HW131901   0.486   5.238   6.034
10334SOL    HW231902   0.586   5.128   5.968
10335SOL     OW31903   2.717   5.233   2.772
10335SOL    HW131904   2.655   5.158   2.748
10335SOL    HW231905   2.810   5.198   2.778
10336SOL     OW31906   4.132   0.550   2.956
10336SOL    HW131907   4.173   0.539   2.865
10336SOL    HW231908   4.086   0.465   2.981
10337SOL     OW31909   1.737   3.155   5.968
10337SOL    HW131910   1.800   3.169   5.892
10337SOL    HW231911   1.718   3.243   6.013
10338SOL     OW31912   2.332   4.190   3.131
10338SOL    HW131913   2.420   4.231   3.107
10338SOL    HW231914   2.315   4.109   3.074
10339SOL     OW31915   3.547   6.700   6.801
10339SOL    HW131916   3.567   6.687   6.899
10339SOL    HW231917   3.570   6.616   6.751
10340SOL     OW31918   2.024   5.843   0.672
10340SOL    HW131919   2.115   5.885   0.672
10340SOL    HW231920   1.985   5.850   0.764
10341SOL     OW31921   0.298   2.461   2.031
10341SOL    HW131922   0.324   2.556   2.048
10341SOL    HW231923   0.377   2.411   1.996
10342SOL     OW31924   3.194   5.086   3.919
10342SOL    HW131925   3.199   5.023   3.841
10342SOL    HW231926   3.133   5.047   3.989
10343SOL     OW31927   2.836   2.215   4.649
10343SOL    HW131928   2.886   2.205   4.734
10343SOL    HW231929   2.761   2.280   4.661
10344SOL     OW31930   4.982   4.474   1.270
10344SOL    HW131931   4.945   4.539   1.204
10344SOL    HW231932   5.030   4.523   1.343
10345SOL     OW31933   2.696   1.910   6.091
10345SOL    HW131934   2.629   1.836   6.101
10345SOL    HW231935   2.663   1.975   6.023
10346SOL     OW31936   6.705   4.821   6.577
10346SOL    HW131937   6.744   4.885   6.643
10346SOL    HW231938   6.778   4.780   6.522
10347SOL     OW31939   3.659   6.452   2.220
10347SOL    HW131940   3.704   6.471   2.307
10347SOL    HW231941   3.587   6.519   2.205
10348SOL     OW31942   0.611   2.793   4.130
10348SOL    HW131943   0.547   2.716   4.133
10348SOL    HW231944   0.564   2.874   4.097
10349SOL     OW31945   6.308   1.469   0.020
10349SOL    HW131946   6.344   1.543   6.983
10349SOL    HW231947   6.222   1.498   0.063
10350SOL     OW31948   1.875   5.527   3.807
10350SOL    HW131949   1.815   5.491   3.878
10350SOL    HW231950   1.925   5.606   3.843
10351SOL     OW31951   4.038   5.542   5.604
10351SOL    HW131952   4.110   5.562   5.539
10351SOL    HW231953   3.951   5.529   5.556
10352SOL     OW31954   0.763   1.549   1.945
10352SOL    HW131955   0.706   1.630   1.932
10352SOL    HW231956   0.858   1.571   1.923
10353SOL     OW31957   5.198   2.797   3.445
10353SOL    HW131958   5.252   2.776   3.526
10353SOL    HW231959   5.258   2.831   3.373
10354SOL     OW31960   6.992   2.133   2.209
10354SOL    HW131961   0.049   2.107   2.269
10354SOL    HW231962   7.015   2.218   2.162
10355SOL     OW31963   6.556   1.754   0.694
10355SOL    HW131964   6.504   1.669   0.697
10355SOL    HW231965   6.532   1.804   0.610
10356SOL     OW31966   6.149   2.512   6.316
10356SOL    HW131967   6.144   2.447   6.392
10356SOL    HW231968   6.061   2.559   6.307
10357SOL     OW31969   0.680   6.543   6.401
10357SOL    HW131970   0.621   6.469   6.435
10357SOL    HW231971   0.776   6.518   6.413
10358SOL     OW31972   0.208   3.721   4.142
10358SOL    HW131973   0.230   3.716   4.044
10358SOL    HW231974   0.290   3.705   4.196
10359SOL     OW31975   0.745   2.702   2.237
10359SOL    HW131976   0.726   2.632   2.168
10359SOL    HW231977   0.842   2.701   2.260
10360SOL     OW31978   5.704   4.746   1.279
10360SOL    HW131979   5.730   4.650   1.294
10360SOL    HW231980   5.714   4.768   1.182
10361SOL     OW31981   5.727   2.039   4.159
10361SOL    HW131982   5.694   2.023   4.066
10361SOL    HW231983   5.689   2.125   4.193
10362SOL     OW31984   6.845   6.574   2.299
10362SOL    HW131985   6.810   6.640   2.232
10362SOL    HW231986   6.858   6.485   2.255
10363SOL     OW31987   4.605   5.170   6.580
10363SOL    HW131988   4.624   5.152   6.483
10363SOL    HW231989   4.630   5.264   6.602
10364SOL     OW31990   6.483   5.302   1.272
10364SOL    HW131991   6.579   5.326   1.257
10364SOL    HW231992   6.446   5.359   1.346
10365SOL     OW31993   6.421   6.231   6.732
10365SOL    HW131994   6.477   6.169   6.786
10365SOL    HW231995   6.369   6.179   6.664
10366SOL     OW31996   2.318   0.308   3.356
10366SOL    HW131997   2.323   0.354   3.268
10366SOL    HW231998   2.411   0.291   3.389
10367SOL     OW31999   3.815   6.026   2.698
10367SOL    HW132000   3.891   5.970   2.730
10367SOL    HW232001   3.732   5.972   2.696
10368SOL     OW32002   1.404   5.742   2.041
10368SOL    HW132003   1.470   5.780   1.976
10368SOL    HW232004   1.361   5.816   2.092
10369SOL     OW32005   2.816   1.097   5.389
10369SOL    HW132006   2.765   1.180   5.411
10369SOL    HW232007   2.753   1.026   5.358
10370SOL     OW32008   2.457   2.025   6.754
10370SOL    HW132009   2.368   1.992   6.785
10370SOL    HW232010   2.445   2.110   6.702
10371SOL     OW32011   3.571   5.472   2.490
10371SOL    HW132012   3.615   5.416   2.561
10371SOL    HW232013   3.640   5.500   2.423
10372SOL     OW32014   1.068   6.287   1.178
10372SOL    HW132015   1.017   6.358   1.129
10372SOL    HW232016   1.152   6.265   1.127
10373SOL     OW32017   6.629   0.967   5.319
10373SOL    HW132018   6.720   0.937   5.350
10373SOL    HW232019   6.635   1.002   5.226
10374SOL     OW32020   2.073   5.476   2.043
10374SOL    HW132021   2.074   5.494   2.142
10374SOL    HW232022   2.130   5.396   2.023
10375SOL     OW32023   2.384   5.336   6.395
10375SOL    HW132024   2.345   5.252   6.433
10375SOL    HW232025   2.316   5.380   6.336
10376SOL     OW32026   1.964   5.063   3.382
10376SOL    HW132027   1.946   4.988   3.318
10376SOL    HW232028   2.027   5.031   3.453
10377SOL     OW32029   3.165   1.256   3.783
10377SOL    HW132030   3.157   1.163   3.819
10377SOL    HW232031   3.140   1.322   3.854
10378SOL     OW32032   6.814   6.859   5.185
10378SOL    HW132033   6.734   6.844   5.243
10378SOL    HW232034   6.895   6.819   5.229
10379SOL     OW32035   0.345   5.373   3.148
10379SOL    HW132036   0.268   5.404   3.091
10379SOL    HW232037   0.387   5.453   3.192
10380SOL     OW32038   3.149   1.491   3.924
10380SOL    HW132039   3.070   1.524   3.976
10380SOL    HW232040   3.218   1.459   3.988
10381SOL     OW32041   1.964   6.738   3.998
10381SOL    HW132042   2.049   6.692   3.972
10381SOL    HW232043   1.968   6.834   3.970
10382SOL     OW32044   3.398   5.770   2.628
10382SOL    HW132045   3.493   5.745   2.648
10382SOL    HW232046   3.397   5.847   2.564
10383SOL     OW32047   0.517   6.730   0.081
10383SOL    HW132048   0.469   6.784   0.013
10383SOL    HW232049   0.545   6.789   0.157
10384SOL     OW32050   5.440   5.101   1.022
10384SOL    HW132051   5.396   5.152   0.948
10384SOL    HW232052   5.530   5.070   0.993
10385SOL     OW32053   3.684   4.237   6.762
10385SOL    HW132054   3.750   4.183   6.814
10385SOL    HW232055   3.732   4.289   6.691
10386SOL     OW32056   6.902   0.146   1.942
10386SOL    HW132057   6.820   0.191   1.977
10386SOL    HW232058   6.940   0.201   1.867
10387SOL     OW32059   5.276   0.471   2.432
10387SOL    HW132060   5.316   0.510   2.350
10387SOL    HW232061   5.287   0.372   2.431
10388SOL     OW32062   0.861   6.673   4.786
10388SOL    HW132063   0.939   6.645   4.841
10388SOL    HW232064   0.869   6.770   4.764
10389SOL     OW32065   0.504   3.937   0.948
10389SOL    HW132066   0.533   4.014   0.890
10389SOL    HW232067   0.534   3.953   1.042
10390SOL     OW32068   1.416   2.488   2.266
10390SOL    HW132069   1.425   2.425   2.344
10390SOL    HW232070   1.507   2.517   2.235
10391SOL     OW32071   6.117   0.214   3.428
10391SOL    HW132072   6.205   0.207   3.474
10391SOL    HW232073   6.116   0.296   3.371
10392SOL     OW32074   5.640   3.090   4.210
10392SOL    HW132075   5.543   3.068   4.218
10392SOL    HW232076   5.695   3.024   4.261
10393SOL     OW32077   1.649   2.322   1.458
10393SOL    HW132078   1.572   2.261   1.476
10393SOL    HW232079   1.648   2.350   1.362
10394SOL     OW32080   2.695   5.411   4.023
10394SOL    HW132081   2.681   5.378   4.117
10394SOL    HW232082   2.787   5.449   4.014
10395SOL     OW32083   0.721   1.416   1.147
10395SOL    HW132084   0.747   1.511   1.166
10395SOL    HW232085   0.672   1.412   1.059
10396SOL     OW32086   3.376   1.978   5.201
10396SOL    HW132087   3.361   2.029   5.116
10396SOL    HW232088   3.288   1.950   5.239
10397SOL     OW32089   4.600   0.965   3.733
10397SOL    HW132090   4.548   0.910   3.668
10397SOL    HW232091   4.546   1.045   3.759
10398SOL     OW32092   4.587   2.425   2.731
10398SOL    HW132093   4.562   2.478   2.650
10398SOL    HW232094   4.633   2.341   2.703
10399SOL     OW32095   0.934   2.957   1.846
10399SOL    HW132096   1.027   2.993   1.836
10399SOL    HW232097   0.910   2.906   1.763
10400SOL     OW32098   1.525   6.674   0.366
10400SOL    HW132099   1.531   6.592   0.310
10400SOL    HW232100   1.474   6.745   0.316
10401SOL     OW32101   6.309   1.049   5.188
10401SOL    HW132102   6.259   1.006   5.263
10401SOL    HW232103   6.252   1.121   5.148
10402SOL     OW32104   6.437   4.447   5.686
10402SOL    HW132105   6.376   4.520   5.716
10402SOL    HW232106   6.518   4.445   5.744
10403SOL     OW32107   3.495   0.190   1.714
10403SOL    HW132108   3.573   0.253   1.710
10403SOL    HW232109   3.469   0.164   1.621
10404SOL     OW32110   0.737   5.590   5.834
10404SOL    HW132111   0.768   5.497   5.852
10404SOL    HW232112   0.715   5.599   5.737
10405SOL     OW32113   7.005   1.023   0.169
10405SOL    HW132114   0.080   1.048   0.192
10405SOL    HW232115   6.991   0.926   0.186
10406SOL     OW32116   1.865   5.272   1.271
10406SOL    HW132117   1.902   5.267   1.364
10406SOL    HW232118   1.793   5.341   1.268
10407SOL     OW32119   2.111   6.326   0.485
10407SOL    HW132120   2.037   6.339   0.551
10407SOL    HW232121   2.162   6.411   0.475
10408SOL     OW32122   4.559   0.647   6.818
10408SOL    HW132123   4.535   0.743   6.802
10408SOL    HW232124   4.653   0.641   6.851
10409SOL     OW32125   6.590   3.905   0.528
10409SOL    HW132126   6.604   3.847   0.608
10409SOL    HW232127   6.602   3.851   0.444
10410SOL     OW32128   4.140   6.866   0.680
10410SOL    HW132129   4.058   6.888   0.733
10410SOL    HW232130   4.221   6.899   0.728
10411SOL     OW32131   1.740   5.308   3.957
10411SOL    HW132132   1.758   5.212   3.932
10411SOL    HW232133   1.768   5.324   4.052
10412SOL     OW32134   4.896   0.366   1.996
10412SOL    HW132135   4.800   0.339   1.994
10412SOL    HW232136   4.903   0.463   2.018
10413SOL     OW32137   6.117   3.439   1.951
10413SOL    HW132138   6.023   3.463   1.976
10413SOL    HW232139   6.116   3.388   1.865
10414SOL     OW32140   5.060   3.812   3.899
10414SOL    HW132141   5.149   3.822   3.855
10414SOL    HW232142   5.010   3.898   3.893
10415SOL     OW32143   0.815   0.806   6.761
10415SOL    HW132144   0.804   0.890   6.814
10415SOL    HW232145   0.744   0.802   6.691
10416SOL     OW32146   4.994   2.577   2.796
10416SOL    HW132147   4.924   2.642   2.827
10416SOL    HW232148   5.068   2.574   2.864
10417SOL     OW32149   1.835   3.750   2.419
10417SOL    HW132150   1.800   3.825   2.477
10417SOL    HW232151   1.924   3.775   2.383
10418SOL     OW32152   1.500   5.873   5.982
10418SOL    HW132153   1.420   5.886   6.039
10418SOL    HW232154   1.479   5.899   5.888
10419SOL     OW32155   1.324   0.866   5.873
10419SOL    HW132156   1.340   0.962   5.895
10419SOL    HW232157   1.412   0.821   5.857
10420SOL     OW32158   0.595   3.334   2.287
10420SOL    HW132159   0.566   3.430   2.278
10420SOL    HW232160   0.694   3.330   2.296
10421SOL     OW32161   0.976   2.308   2.888
10421SOL    HW132162   0.996   2.244   2.813
10421SOL    HW232163   0.911   2.377   2.856
10422SOL     OW32164   5.880   1.894   0.228
10422SOL    HW132165   5.862   1.917   0.323
10422SOL    HW232166   5.812   1.938   0.169
10423SOL     OW32167   4.405   5.574   2.427
10423SOL    HW132168   4.452   5.576   2.339
10423SOL    HW232169   4.360   5.662   2.443
10424SOL     OW32170   4.405   1.303   6.069
10424SOL    HW132171   4.363   1.327   5.981
10424SOL    HW232172   4.334   1.293   6.138
10425SOL     OW32173   2.027   6.804   2.085
10425SOL    HW132174   1.961   6.733   2.108
10425SOL    HW232175   2.112   6.761   2.053
10426SOL     OW32176   6.440   3.987   6.473
10426SOL    HW132177   6.532   4.026   6.478
10426SOL    HW232178   6.392   4.005   6.559
10427SOL     OW32179   4.828   0.967   0.471
10427SOL    HW132180   4.874   1.036   0.416
10427SOL    HW232181   4.732   0.992   0.483
10428SOL     OW32182   4.609   2.594   3.441
10428SOL    HW132183   4.594   2.568   3.537
10428SOL    HW232184   4.702   2.568   3.414
10429SOL     OW32185   5.652   5.304   2.350
10429SOL    HW132186   5.631   5.386   2.296
10429SOL    HW232187   5.721   5.326   2.419
10430SOL     OW32188   3.768   6.122   2.986
10430SOL    HW132189   3.743   6.166   2.900
10430SOL    HW232190   3.772   6.190   3.059
10431SOL     OW32191   3.123   1.840   5.620
10431SOL    HW132192   3.211   1.856   5.665
10431SOL    HW232193   3.128   1.755   5.567
10432SOL     OW32194   4.116   0.431   4.694
10432SOL    HW132195   4.065   0.387   4.767
10432SOL    HW232196   4.212   0.403   4.698
10433SOL     OW32197   2.126   5.936   1.144
10433SOL    HW132198   2.199   5.998   1.117
10433SOL    HW232199   2.133   5.916   1.242
10434SOL     OW32200   3.617   2.250   5.223
10434SOL    HW132201   3.623   2.226   5.126
10434SOL    HW232202   3.521   2.245   5.252
10435SOL     OW32203   5.791   5.126   6.845
10435SOL    HW132204   5.822   5.086   6.759
10435SOL    HW232205   5.699   5.093   6.866
10436SOL     OW32206   0.440   1.832   2.773
10436SOL    HW132207   0.388   1.756   2.812
10436SOL    HW232208   0.508   1.797   2.709
10437SOL     OW32209   1.479   2.920   0.370
10437SOL    HW132210   1.454   2.831   0.408
10437SOL    HW232211   1.466   2.918   0.270
10438SOL     OW32212   2.942   6.832   5.921
10438SOL    HW132213   2.939   6.820   6.021
10438SOL    HW232214   3.035   6.853   5.893
10439SOL     OW32215   3.301   0.326   5.574
10439SOL    HW132216   3.253   0.239   5.563
10439SOL    HW232217   3.326   0.339   5.670
10440SOL     OW32218   1.157   6.072   0.459
10440SOL    HW132219   1.084   6.065   0.526
10440SOL    HW232220   1.199   5.982   0.446
10441SOL     OW32221   4.835   6.620   1.136
10441SOL    HW132222   4.743   6.587   1.112
10441SOL    HW232223   4.859   6.696   1.076
10442SOL     OW32224   3.630   6.483   6.624
10442SOL    HW132225   3.713   6.533   6.598
10442SOL    HW232226   3.653   6.386   6.637
10443SOL     OW32227   0.218   2.908   4.711
10443SOL    HW132228   0.231   2.823   4.763
10443SOL    HW232229   0.257   2.985   4.762
10444SOL     OW32230   4.138   4.815   5.199
10444SOL    HW132231   4.143   4.827   5.100
10444SOL    HW232232   4.224   4.845   5.240
10445SOL     OW32233   6.665   6.328   2.004
10445SOL    HW132234   6.607   6.374   2.072
10445SOL    HW232235   6.677   6.388   1.925
10446SOL     OW32236   1.235   6.880   5.722
10446SOL    HW132237   1.228   6.975   5.691
10446SOL    HW232238   1.191   6.820   5.656
10447SOL     OW32239   5.495   2.390   6.652
10447SOL    HW132240   5.492   2.303   6.602
10447SOL    HW232241   5.405   2.434   6.648
10448SOL     OW32242   3.696   3.587   2.359
10448SOL    HW132243   3.607   3.621   2.330
10448SOL    HW232244   3.767   3.652   2.331
10449SOL     OW32245   1.192   5.499   4.868
10449SOL    HW132246   1.119   5.535   4.810
10449SOL    HW232247   1.154   5.426   4.926
10450SOL     OW32248   0.918   3.358   0.047
10450SOL    HW132249   0.981   3.424   0.087
10450SOL    HW232250   0.955   3.325   6.979
10451SOL     OW32251   2.319   4.206   2.411
10451SOL    HW132252   2.290   4.254   2.328
10451SOL    HW232253   2.333   4.271   2.485
10452SOL     OW32254   2.107   3.559   6.175
10452SOL    HW132255   2.041   3.576   6.247
10452SOL    HW232256   2.149   3.645   6.147
10453SOL     OW32257   5.010   0.567   2.353
10453SOL    HW132258   5.108   0.550   2.341
10453SOL    HW232259   4.975   0.620   2.276
10454SOL     OW32260   3.267   5.498   2.467
10454SOL    HW132261   3.260   5.450   2.555
10454SOL    HW232262   3.346   5.559   2.469
10455SOL     OW32263   1.179   5.092   3.597
10455SOL    HW132264   1.134   5.139   3.522
10455SOL    HW232265   1.202   5.157   3.669
10456SOL     OW32266   3.547   6.778   1.048
10456SOL    HW132267   3.629   6.737   1.011
10456SOL    HW232268   3.572   6.854   1.108
10457SOL     OW32269   3.623   2.880   3.419
10457SOL    HW132270   3.630   2.951   3.489
10457SOL    HW232271   3.619   2.791   3.463
10458SOL     OW32272   6.436   6.031   2.551
10458SOL    HW132273   6.465   6.063   2.461
10458SOL    HW232274   6.343   5.995   2.545
10459SOL     OW32275   6.851   5.440   1.802
10459SOL    HW132276   6.752   5.430   1.810
10459SOL    HW232277   6.881   5.523   1.850
10460SOL     OW32278   1.452   4.141   1.250
10460SOL    HW132279   1.484   4.123   1.156
10460SOL    HW232280   1.380   4.211   1.248
10461SOL     OW32281   3.958   0.354   6.358
10461SOL    HW132282   4.013   0.422   6.406
10461SOL    HW232283   3.879   0.330   6.414
10462SOL     OW32284   5.291   6.730   1.251
10462SOL    HW132285   5.324   6.798   1.186
10462SOL    HW232286   5.273   6.774   1.339
10463SOL     OW32287   4.402   3.290   0.237
10463SOL    HW132288   4.357   3.251   0.156
10463SOL    HW232289   4.425   3.386   0.220
10464SOL     OW32290   5.743   6.967   1.820
10464SOL    HW132291   5.756   0.009   1.742
10464SOL    HW232292   5.650   6.931   1.818
10465SOL     OW32293   6.993   4.513   5.869
10465SOL    HW132294   6.975   4.610   5.886
10465SOL    HW232295   0.070   4.493   5.889
10466SOL     OW32296   3.853   5.338   5.703
10466SOL    HW132297   3.943   5.381   5.710
10466SOL    HW232298   3.783   5.409   5.705
10467SOL     OW32299   4.190   1.734   4.151
10467SOL    HW132300   4.159   1.678   4.228
10467SOL    HW232301   4.240   1.814   4.187
10468SOL     OW32302   2.702   5.369   3.408
10468SOL    HW132303   2.757   5.424   3.346
10468SOL    HW232304   2.608   5.404   3.408
10469SOL     OW32305   1.134   5.013   5.956
10469SOL    HW132306   1.152   4.958   5.874
10469SOL    HW232307   1.191   4.981   6.031
10470SOL     OW32308   2.551   2.027   4.456
10470SOL    HW132309   2.521   2.077   4.537
10470SOL    HW232310   2.472   2.002   4.400
10471SOL     OW32311   4.640   3.846   6.902
10471SOL    HW132312   4.681   3.772   6.850
10471SOL    HW232313   4.598   3.810   6.985
10472SOL     OW32314   4.083   1.847   3.527
10472SOL    HW132315   4.134   1.868   3.444
10472SOL    HW232316   4.049   1.933   3.567
10473SOL     OW32317   4.724   4.405   0.232
10473SOL    HW132318   4.633   4.383   0.198
10473SOL    HW232319   4.785   4.327   0.216
10474SOL     OW32320   4.376   1.116   4.159
10474SOL    HW132321   4.402   1.021   4.139
10474SOL    HW232322   4.282   1.118   4.191
10475SOL     OW32323   4.117   6.558   0.980
10475SOL    HW132324   4.105   6.491   0.907
10475SOL    HW232325   4.133   6.510   1.066
10476SOL     OW32326   0.600   4.789   0.075
10476SOL    HW132327   0.635   4.826   7.008
10476SOL    HW232328   0.665   4.807   0.149
10477SOL     OW32329   5.024   4.670   4.495
10477SOL    HW132330   4.980   4.594   4.448
10477SOL    HW232331   5.069   4.636   4.578
10478SOL     OW32332   0.775   0.148   2.690
10478SOL    HW132333   0.695   0.113   2.737
10478SOL    HW232334   0.747   0.197   2.608
10479SOL     OW32335   0.826   4.128   2.871
10479SOL    HW132336   0.748   4.111   2.931
10479SOL    HW232337   0.869   4.215   2.897
10480SOL     OW32338   4.659   1.310   6.720
10480SOL    HW132339   4.637   1.282   6.814
10480SOL    HW232340   4.575   1.335   6.672
10481SOL     OW32341   3.767   1.508   3.603
10481SOL    HW132342   3.732   1.601   3.608
10481SOL    HW232343   3.867   1.510   3.600
10482SOL     OW32344   0.325   6.340   6.001
10482SOL    HW132345   0.333   6.412   5.933
10482SOL    HW232346   0.413   6.327   6.047
10483SOL     OW32347   0.762   6.132   0.624
10483SOL    HW132348   0.816   6.204   0.667
10483SOL    HW232349   0.676   6.170   0.590
10484SOL     OW32350   6.965   1.476   1.672
10484SOL    HW132351   7.004   1.387   1.648
10484SOL    HW232352   6.878   1.489   1.623
10485SOL     OW32353   3.588   4.133   4.835
10485SOL    HW132354   3.570   4.182   4.920
10485SOL    HW232355   3.503   4.096   4.799
10486SOL     OW32356   5.980   4.681   5.804
10486SOL    HW132357   5.904   4.617   5.793
10486SOL    HW232358   5.944   4.773   5.815
10487SOL     OW32359   5.433   3.786   2.739
10487SOL    HW132360   5.353   3.732   2.714
10487SOL    HW232361   5.405   3.861   2.800
10488SOL     OW32362   0.836   2.062   5.382
10488SOL    HW132363   0.775   2.023   5.314
10488SOL    HW232364   0.793   2.056   5.473
10489SOL     OW32365   5.987   4.828   2.652
10489SOL    HW132366   5.957   4.757   2.588
10489SOL    HW232367   6.057   4.791   2.713
10490SOL     OW32368   5.374   6.286   6.523
10490SOL    HW132369   5.466   6.316   6.549
10490SOL    HW232370   5.309   6.319   6.592
10491SOL     OW32371   2.112   1.957   5.764
10491SOL    HW132372   2.150   1.891   5.828
10491SOL    HW232373   2.089   1.911   5.678
10492SOL     OW32374   3.662   6.661   0.040
10492SOL    HW132375   3.642   6.573   0.083
10492SOL    HW232376   3.761   6.677   0.041
10493SOL     OW32377   3.763   6.612   0.477
10493SOL    HW132378   3.857   6.592   0.452
10493SOL    HW232379   3.747   6.711   0.469
10494SOL     OW32380   6.650   5.774   3.422
10494SOL    HW132381   6.635   5.699   3.487
10494SOL    HW232382   6.677   5.856   3.471
10495SOL     OW32383   6.294   6.617   0.249
10495SOL    HW132384   6.353   6.611   0.330
10495SOL    HW232385   6.351   6.627   0.167
10496SOL     OW32386   1.297   3.945   6.241
10496SOL    HW132387   1.317   4.037   6.275
10496SOL    HW232388   1.294   3.881   6.318
10497SOL     OW32389   4.266   6.990   0.123
10497SOL    HW132390   4.232   6.915   0.067
10497SOL    HW232391   4.196   7.018   0.188
10498SOL     OW32392   3.443   3.877   0.243
10498SOL    HW132393   3.478   3.790   0.211
10498SOL    HW232394   3.343   3.876   0.238
10499SOL     OW32395   3.977   4.835   3.745
10499SOL    HW132396   3.981   4.864   3.649
10499SOL    HW232397   4.061   4.861   3.792
10500SOL     OW32398   2.013   2.623   5.083
10500SOL    HW132399   1.958   2.579   5.012
10500SOL    HW232400   1.957   2.636   5.165
10501SOL     OW32401   3.832   4.838   3.075
10501SOL    HW132402   3.868   4.926   3.045
10501SOL    HW232403   3.754   4.813   3.019
10502SOL     OW32404   3.539   3.601   3.121
10502SOL    HW132405   3.482   3.520   3.105
10502SOL    HW232406   3.493   3.663   3.184
10503SOL     OW32407   0.116   6.305   0.680
10503SOL    HW132408   0.131   6.206   0.679
10503SOL    HW232409   0.018   6.324   0.692
10504SOL     OW32410   1.830   2.919   5.626
10504SOL    HW132411   1.754   2.921   5.561
10504SOL    HW232412   1.801   2.874   5.710
10505SOL     OW32413   5.119   6.524   1.520
10505SOL    HW132414   5.152   6.603   1.572
10505SOL    HW232415   5.189   6.452   1.521
10506SOL     OW32416   0.399   5.383   6.133
10506SOL    HW132417   0.434   5.471   6.101
10506SOL    HW232418   0.301   5.391   6.153
10507SOL     OW32419   1.964   6.650   5.668
10507SOL    HW132420   2.049   6.667   5.719
10507SOL    HW232421   1.901   6.598   5.725
10508SOL     OW32422   2.116   6.309   1.183
10508SOL    HW132423   2.123   6.405   1.210
10508SOL    HW232424   2.207   6.268   1.179
10509SOL     OW32425   4.867   3.791   1.850
10509SOL    HW132426   4.808   3.748   1.782
10509SOL    HW232427   4.843   3.888   1.858
10510SOL     OW32428   5.077   6.588   1.946
10510SOL    HW132429   5.132   6.505   1.954
10510SOL    HW232430   5.025   6.602   2.030
10511SOL     OW32431   3.904   1.661   0.808
10511SOL    HW132432   3.861   1.743   0.770
10511SOL    HW232433   3.901   1.665   0.908
10512SOL     OW32434   3.756   6.882   5.213
10512SOL    HW132435   3.851   6.855   5.228
10512SOL    HW232436   3.739   6.894   5.116
10513SOL     OW32437   4.133   3.657   0.805
10513SOL    HW132438   4.180   3.649   0.717
10513SOL    HW232439   4.080   3.574   0.822
10514SOL     OW32440   1.065   4.724   1.531
10514SOL    HW132441   1.041   4.720   1.628
10514SOL    HW232442   1.021   4.649   1.482
10515SOL     OW32443   1.999   3.245   4.916
10515SOL    HW132444   2.033   3.338   4.922
10515SOL    HW232445   2.003   3.213   4.821
10516SOL     OW32446   5.504   1.983   1.584
10516SOL    HW132447   5.468   1.941   1.501
10516SOL    HW232448   5.458   2.070   1.601
10517SOL     OW32449   6.752   1.991   2.193
10517SOL    HW132450   6.746   1.988   2.094
10517SOL    HW232451   6.841   2.030   2.220
10518SOL     OW32452   0.257   5.658   2.843
10518SOL    HW132453   0.267   5.717   2.762
10518SOL    HW232454   0.177   5.600   2.832
10519SOL     OW32455   1.771   6.515   0.365
10519SOL    HW132456   1.712   6.595   0.352
10519SOL    HW232457   1.723   6.446   0.418
10520SOL     OW32458   3.287   2.600   6.051
10520SOL    HW132459   3.326   2.516   6.014
10520SOL    HW232460   3.221   2.576   6.123
10521SOL     OW32461   5.985   1.949   2.137
10521SOL    HW132462   6.073   1.995   2.150
10521SOL    HW232463   5.959   1.954   2.041
10522SOL     OW32464   5.133   1.175   3.067
10522SOL    HW132465   5.101   1.128   2.985
10522SOL    HW232466   5.222   1.217   3.049
10523SOL     OW32467   0.503   3.851   1.597
10523SOL    HW132468   0.525   3.948   1.605
10523SOL    HW232469   0.560   3.810   1.525
10524SOL     OW32470   5.719   6.464   4.892
10524SOL    HW132471   5.746   6.555   4.858
10524SOL    HW232472   5.737   6.460   4.991
10525SOL     OW32473   5.118   2.153   3.576
10525SOL    HW132474   5.049   2.138   3.504
10525SOL    HW232475   5.209   2.152   3.535
10526SOL     OW32476   1.740   6.532   6.193
10526SOL    HW132477   1.803   6.456   6.174
10526SOL    HW232478   1.708   6.526   6.287
10527SOL     OW32479   0.661   6.582   5.763
10527SOL    HW132480   0.706   6.556   5.677
10527SOL    HW232481   0.724   6.563   5.839
10528SOL     OW32482   2.887   5.988   5.142
10528SOL    HW132483   2.901   5.928   5.062
10528SOL    HW232484   2.789   6.007   5.152
10529SOL     OW32485   6.881   5.243   6.335
10529SOL    HW132486   6.867   5.235   6.236
10529SOL    HW232487   6.930   5.328   6.355
10530SOL     OW32488   5.423   0.492   1.585
10530SOL    HW132489   5.441   0.394   1.581
10530SOL    HW232490   5.359   0.518   1.513
10531SOL     OW32491   3.451   1.007   6.327
10531SOL    HW132492   3.469   1.062   6.408
10531SOL    HW232493   3.534   1.002   6.271
10532SOL     OW32494   4.590   5.495   5.447
10532SOL    HW132495   4.563   5.578   5.398
10532SOL    HW232496   4.664   5.451   5.397
10533SOL     OW32497   4.172   6.256   3.998
10533SOL    HW132498   4.270   6.237   3.996
10533SOL    HW232499   4.134   6.244   3.906
10534SOL     OW32500   0.548   5.828   4.582
10534SOL    HW132501   0.531   5.839   4.680
10534SOL    HW232502   0.545   5.918   4.537
10535SOL     OW32503   4.058   1.655   2.515
10535SOL    HW132504   4.002   1.693   2.589
10535SOL    HW232505   3.997   1.617   2.444
10536SOL     OW32506   6.053   3.111   4.019
10536SOL    HW132507   6.072   3.196   3.971
10536SOL    HW232508   6.102   3.110   4.106
10537SOL     OW32509   2.426   1.397   2.358
10537SOL    HW132510   2.463   1.315   2.314
10537SOL    HW232511   2.341   1.374   2.406
10538SOL     OW32512   6.429   2.636   3.407
10538SOL    HW132513   6.419   2.732   3.434
10538SOL    HW232514   6.478   2.586   3.478
10539SOL     OW32515   6.738   0.575   1.875
10539SOL    HW132516   6.803   0.622   1.814
10539SOL    HW232517   6.646   0.579   1.836
10540SOL     OW32518   1.781   2.454   6.073
10540SOL    HW132519   1.829   2.484   5.990
10540SOL    HW232520   1.849   2.426   6.142
10541SOL     OW32521   3.734   2.789   6.724
10541SOL    HW132522   3.764   2.847   6.649
10541SOL    HW232523   3.808   2.727   6.751
10542SOL     OW32524   3.671   6.534   2.857
10542SOL    HW132525   3.718   6.579   2.933
10542SOL    HW232526   3.573   6.552   2.864
10543SOL     OW32527   1.012   2.857   4.021
10543SOL    HW132528   0.925   2.848   3.972
10543SOL    HW232529   1.064   2.772   4.012
10544SOL     OW32530   2.682   2.290   2.225
10544SOL    HW132531   2.665   2.192   2.232
10544SOL    HW232532   2.757   2.306   2.162
10545SOL     OW32533   0.816   3.363   1.480
10545SOL    HW132534   0.892   3.334   1.538
10545SOL    HW232535   0.851   3.398   1.394
10546SOL     OW32536   1.786   0.329   4.788
10546SOL    HW132537   1.753   0.275   4.865
10546SOL    HW232538   1.851   0.397   4.822
10547SOL     OW32539   3.214   5.917   6.342
10547SOL    HW132540   3.211   5.859   6.423
10547SOL    HW232541   3.150   5.993   6.353
10548SOL     OW32542   1.357   5.212   3.157
10548SOL    HW132543   1.440   5.228   3.104
10548SOL    HW232544   1.376   5.145   3.229
10549SOL     OW32545   0.174   1.546   2.664
10549SOL    HW132546   0.264   1.588   2.657
10549SOL    HW232547   0.103   1.617   2.659
10550SOL     OW32548   0.117   4.487   2.678
10550SOL    HW132549   0.033   4.527   2.713
10550SOL    HW232550   0.104   4.459   2.582
10551SOL     OW32551   4.551   0.810   4.545
10551SOL    HW132552   4.522   0.716   4.523
10551SOL    HW232553   4.474   0.860   4.585
10552SOL     OW32554   2.242   6.982   3.845
10552SOL    HW132555   2.211   6.983   3.940
10552SOL    HW232556   2.323   0.022   3.837
10553SOL     OW32557   5.938   5.310   1.222
10553SOL    HW132558   5.975   5.337   1.311
10553SOL    HW232559   5.842   5.339   1.215
10554SOL     OW32560   5.140   5.613   1.850
10554SOL    HW132561   5.067   5.545   1.848
10554SOL    HW232562   5.102   5.703   1.830
10555SOL     OW32563   3.396   2.943   2.431
10555SOL    HW132564   3.370   2.889   2.352
10555SOL    HW232565   3.427   3.033   2.401
10556SOL     OW32566   2.206   1.972   2.233
10556SOL    HW132567   2.166   1.899   2.289
10556SOL    HW232568   2.136   2.013   2.175
10557SOL     OW32569   1.161   4.393   3.210
10557SOL    HW132570   1.090   4.384   3.280
10557SOL    HW232571   1.220   4.313   3.211
10558SOL     OW32572   5.241   5.283   4.051
10558SOL    HW132573   5.295   5.283   3.967
10558SOL    HW232574   5.299   5.255   4.128
10559SOL     OW32575   3.871   5.581   1.895
10559SOL    HW132576   3.922   5.590   1.809
10559SOL    HW232577   3.795   5.646   1.895
10560SOL     OW32578   5.563   6.816   4.066
10560SOL    HW132579   5.503   6.792   3.989
10560SOL    HW232580   5.657   6.786   4.046
10561SOL     OW32581   0.772   5.922   5.640
10561SOL    HW132582   0.824   5.972   5.710
10561SOL    HW232583   0.740   5.986   5.571
10562SOL     OW32584   2.581   1.449   2.679
10562SOL    HW132585   2.507   1.434   2.744
10562SOL    HW232586   2.639   1.369   2.674
10563SOL     OW32587   1.725   5.047   2.291
10563SOL    HW132588   1.762   5.127   2.338
10563SOL    HW232589   1.727   5.062   2.192
10564SOL     OW32590   5.318   5.704   3.303
10564SOL    HW132591   5.357   5.794   3.288
10564SOL    HW232592   5.294   5.663   3.214
10565SOL     OW32593   0.285   0.981   4.357
10565SOL    HW132594   0.236   0.957   4.441
10565SOL    HW232595   0.351   1.054   4.376
10566SOL     OW32596   3.541   1.283   0.704
10566SOL    HW132597   3.609   1.220   0.740
10566SOL    HW232598   3.577   1.377   0.707
10567SOL     OW32599   3.037   1.562   6.344
10567SOL    HW132600   3.015   1.580   6.248
10567SOL    HW232601   3.136   1.553   6.355
10568SOL     OW32602   6.208   1.567   6.698
10568SOL    HW132603   6.173   1.473   6.704
10568SOL    HW232604   6.174   1.610   6.614
10569SOL     OW32605   4.057   0.454   1.613
10569SOL    HW132606   4.115   0.485   1.537
10569SOL    HW232607   4.027   0.534   1.665
10570SOL     OW32608   1.260   3.947   3.073
10570SOL    HW132609   1.303   3.863   3.039
10570SOL    HW232610   1.169   3.926   3.108
10571SOL     OW32611   0.779   3.944   4.953
10571SOL    HW132612   0.782   4.030   5.004
10571SOL    HW232613   0.767   3.963   4.856
10572SOL     OW32614   6.667   5.486   0.762
10572SOL    HW132615   6.601   5.472   0.688
10572SOL    HW232616   6.755   5.446   0.735
10573SOL     OW32617   5.682   2.101   2.734
10573SOL    HW132618   5.702   2.073   2.828
10573SOL    HW232619   5.744   2.053   2.671
10574SOL     OW32620   5.412   2.383   3.061
10574SOL    HW132621   5.373   2.300   3.101
10574SOL    HW232622   5.482   2.359   2.994
10575SOL     OW32623   4.708   6.850   3.268
10575SOL    HW132624   4.673   6.872   3.177
10575SOL    HW232625   4.759   6.928   3.304
10576SOL     OW32626   1.182   3.285   5.008
10576SOL    HW132627   1.084   3.266   5.015
10576SOL    HW232628   1.211   3.337   5.089
10577SOL     OW32629   4.517   4.864   6.372
10577SOL    HW132630   4.514   4.764   6.365
10577SOL    HW232631   4.588   4.899   6.310
10578SOL     OW32632   1.525   3.127   2.114
10578SOL    HW132633   1.430   3.095   2.118
10578SOL    HW232634   1.571   3.107   2.201
10579SOL     OW32635   0.334   3.013   0.325
10579SOL    HW132636   0.431   2.999   0.342
10579SOL    HW232637   0.314   3.111   0.326
10580SOL     OW32638   4.531   6.155   6.202
10580SOL    HW132639   4.597   6.228   6.188
10580SOL    HW232640   4.479   6.140   6.118
10581SOL     OW32641   3.551   0.560   2.470
10581SOL    HW132642   3.538   0.625   2.396
10581SOL    HW232643   3.464   0.545   2.517
10582SOL     OW32644   0.406   3.644   0.288
10582SOL    HW132645   0.373   3.551   0.274
10582SOL    HW232646   0.338   3.709   0.252
10583SOL     OW32647   3.778   1.704   6.040
10583SOL    HW132648   3.860   1.742   6.082
10583SOL    HW232649   3.731   1.775   5.989
10584SOL     OW32650   6.816   0.287   3.912
10584SOL    HW132651   6.871   0.364   3.944
10584SOL    HW232652   6.730   0.321   3.873
10585SOL     OW32653   1.839   1.041   4.781
10585SOL    HW132654   1.836   1.115   4.715
10585SOL    HW232655   1.850   0.954   4.733
10586SOL     OW32656   4.726   3.613   6.095
10586SOL    HW132657   4.641   3.560   6.099
10586SOL    HW232658   4.788   3.571   6.028
10587SOL     OW32659   2.213   5.017   6.069
10587SOL    HW132660   2.186   5.102   6.023
10587SOL    HW232661   2.158   4.941   6.034
10588SOL     OW32662   1.207   4.528   4.525
10588SOL    HW132663   1.304   4.516   4.507
10588SOL    HW232664   1.166   4.581   4.451
10589SOL     OW32665   6.307   0.582   3.405
10589SOL    HW132666   6.211   0.592   3.379
10589SOL    HW232667   6.317   0.505   3.468
10590SOL     OW32668   6.534   6.454   2.197
10590SOL    HW132669   6.437   6.462   2.175
10590SOL    HW232670   6.570   6.544   2.222
10591SOL     OW32671   6.237   4.397   2.673
10591SOL    HW132672   6.173   4.427   2.743
10591SOL    HW232673   6.224   4.452   2.591
10592SOL     OW32674   6.071   3.805   5.404
10592SOL    HW132675   6.160   3.764   5.422
10592SOL    HW232676   6.007   3.734   5.374
10593SOL     OW32677   3.323   5.836   2.934
10593SOL    HW132678   3.285   5.927   2.948
10593SOL    HW232679   3.328   5.816   2.836
10594SOL     OW32680   3.920   6.171   3.427
10594SOL    HW132681   3.914   6.208   3.334
10594SOL    HW232682   4.007   6.123   3.438
10595SOL     OW32683   6.170   5.837   0.823
10595SOL    HW132684   6.100   5.903   0.795
10595SOL    HW232685   6.228   5.814   0.745
10596SOL     OW32686   6.322   3.502   1.106
10596SOL    HW132687   6.331   3.429   1.038
10596SOL    HW232688   6.373   3.583   1.075
10597SOL     OW32689   1.294   6.648   5.170
10597SOL    HW132690   1.230   6.714   5.210
10597SOL    HW232691   1.336   6.688   5.088
10598SOL     OW32692   2.829   1.526   1.226
10598SOL    HW132693   2.900   1.459   1.204
10598SOL    HW232694   2.794   1.566   1.142
10599SOL     OW32695   0.769   1.756   0.976
10599SOL    HW132696   0.727   1.695   0.910
10599SOL    HW232697   0.748   1.724   1.069
10600SOL     OW32698   4.577   1.302   2.097
10600SOL    HW132699   4.656   1.362   2.084
10600SOL    HW232700   4.516   1.310   2.018
10601SOL     OW32701   1.606   1.963   5.380
10601SOL    HW132702   1.538   1.890   5.374
10601SOL    HW232703   1.596   2.024   5.301
10602SOL     OW32704   6.972   6.601   0.939
10602SOL    HW132705   6.884   6.557   0.959
10602SOL    HW232706   0.017   6.583   1.014
10603SOL     OW32707   5.662   0.088   2.924
10603SOL    HW132708   5.574   0.121   2.959
10603SOL    HW232709   5.711   0.163   2.881
10604SOL     OW32710   5.567   1.946   4.708
10604SOL    HW132711   5.605   2.036   4.729
10604SOL    HW232712   5.469   1.955   4.688
10605SOL     OW32713   4.888   1.516   1.295
10605SOL    HW132714   4.857   1.471   1.379
10605SOL    HW232715   4.985   1.497   1.281
10606SOL     OW32716   5.835   1.590   0.904
10606SOL    HW132717   5.896   1.662   0.870
10606SOL    HW232718   5.871   1.501   0.878
10607SOL     OW32719   1.749   5.029   1.247
10607SOL    HW132720   1.798   4.975   1.315
10607SOL    HW232721   1.792   5.119   1.239
10608SOL     OW32722   5.420   3.885   2.294
10608SOL    HW132723   5.360   3.891   2.373
10608SOL    HW232724   5.368   3.904   2.210
10609SOL     OW32725   5.725   6.114   6.882
10609SOL    HW132726   5.741   6.209   6.853
10609SOL    HW232727   5.752   6.103   6.977
10610SOL     OW32728   0.261   2.515   3.055
10610SOL    HW132729   0.230   2.438   3.112
10610SOL    HW232730   0.182   2.553   3.005
10611SOL     OW32731   3.949   5.713   6.575
10611SOL    HW132732   3.994   5.633   6.534
10611SOL    HW232733   3.875   5.684   6.635
10612SOL     OW32734   5.701   2.337   3.991
10612SOL    HW132735   5.734   2.425   3.957
10612SOL    HW232736   5.713   2.268   3.920
10613SOL     OW32737   5.165   5.026   5.836
10613SOL    HW132738   5.215   4.961   5.779
10613SOL    HW232739   5.139   4.981   5.921
10614SOL     OW32740   4.286   1.791   0.202
10614SOL    HW132741   4.218   1.824   0.268
10614SOL    HW232742   4.377   1.796   0.244
10615SOL     OW32743   3.853   2.988   6.038
10615SOL    HW132744   3.928   2.990   5.972
10615SOL    HW232745   3.802   2.902   6.028
10616SOL     OW32746   1.556   5.408   0.227
10616SOL    HW132747   1.626   5.447   0.285
10616SOL    HW232748   1.585   5.411   0.131
10617SOL     OW32749   2.267   3.300   0.069
10617SOL    HW132750   2.270   3.305   6.988
10617SOL    HW232751   2.318   3.376   0.108
10618SOL     OW32752   0.154   4.675   5.084
10618SOL    HW132753   0.192   4.598   5.135
10618SOL    HW232754   0.189   4.675   4.991
10619SOL     OW32755   1.359   2.523   1.228
10619SOL    HW132756   1.273   2.515   1.177
10619SOL    HW232757   1.418   2.445   1.208
10620SOL     OW32758   4.111   1.190   5.619
10620SOL    HW132759   4.014   1.216   5.613
10620SOL    HW232760   4.120   1.093   5.596
10621SOL     OW32761   0.771   5.358   4.550
10621SOL    HW132762   0.724   5.322   4.470
10621SOL    HW232763   0.709   5.416   4.602
10622SOL     OW32764   4.195   2.227   6.142
10622SOL    HW132765   4.256   2.305   6.127
10622SOL    HW232766   4.149   2.204   6.056
10623SOL     OW32767   5.511   4.938   5.050
10623SOL    HW132768   5.474   4.862   4.997
10623SOL    HW232769   5.521   5.018   4.991
10624SOL     OW32770   0.201   1.389   5.692
10624SOL    HW132771   0.131   1.331   5.733
10624SOL    HW232772   0.253   1.434   5.765
10625SOL     OW32773   6.408   4.987   6.691
10625SOL    HW132774   6.436   4.894   6.668
10625SOL    HW232775   6.484   5.034   6.735
10626SOL     OW32776   5.514   3.711   1.697
10626SOL    HW132777   5.445   3.784   1.708
10626SOL    HW232778   5.506   3.672   1.605
10627SOL     OW32779   5.052   5.365   5.450
10627SOL    HW132780   5.105   5.421   5.386
10627SOL    HW232781   5.065   5.400   5.542
10628SOL     OW32782   2.656   6.223   1.954
10628SOL    HW132783   2.620   6.136   1.919
10628SOL    HW232784   2.748   6.208   1.991
10629SOL     OW32785   4.310   5.714   4.332
10629SOL    HW132786   4.272   5.732   4.423
10629SOL    HW232787   4.323   5.800   4.283
10630SOL     OW32788   4.340   0.989   1.626
10630SOL    HW132789   4.393   1.067   1.594
10630SOL    HW232790   4.383   0.952   1.709
10631SOL     OW32791   3.713   5.791   1.959
10631SOL    HW132792   3.688   5.823   2.051
10631SOL    HW232793   3.733   5.870   1.900
10632SOL     OW32794   5.750   0.751   4.612
10632SOL    HW132795   5.721   0.705   4.529
10632SOL    HW232796   5.722   0.847   4.609
10633SOL     OW32797   2.821   3.631   0.303
10633SOL    HW132798   2.777   3.541   0.298
10633SOL    HW232799   2.833   3.668   0.211
10634SOL     OW32800   0.868   4.143   0.864
10634SOL    HW132801   0.902   4.227   0.821
10634SOL    HW232802   0.914   4.064   0.824
10635SOL     OW32803   3.142   4.770   0.394
10635SOL    HW132804   3.051   4.805   0.369
10635SOL    HW232805   3.138   4.672   0.408
10636SOL     OW32806   0.738   2.797   0.675
10636SOL    HW132807   0.676   2.875   0.685
10636SOL    HW232808   0.686   2.717   0.644
10637SOL     OW32809   1.525   6.661   5.297
10637SOL    HW132810   1.533   6.760   5.304
10637SOL    HW232811   1.430   6.637   5.275
10638SOL     OW32812   6.045   4.110   6.974
10638SOL    HW132813   5.947   4.122   6.957
10638SOL    HW232814   6.096   4.184   6.930
10639SOL     OW32815   6.749   5.210   6.564
10639SOL    HW132816   6.783   5.128   6.612
10639SOL    HW232817   6.782   5.209   6.470
10640SOL     OW32818   4.508   5.593   4.931
10640SOL    HW132819   4.587   5.535   4.913
10640SOL    HW232820   4.490   5.596   5.029
10641SOL     OW32821   1.157   1.663   3.416
10641SOL    HW132822   1.145   1.564   3.404
10641SOL    HW232823   1.255   1.685   3.410
10642SOL     OW32824   6.444   2.212   5.848
10642SOL    HW132825   6.470   2.167   5.763
10642SOL    HW232826   6.434   2.145   5.921
10643SOL     OW32827   3.524   5.476   4.980
10643SOL    HW132828   3.453   5.406   4.978
10643SOL    HW232829   3.614   5.432   4.976
10644SOL     OW32830   1.724   3.755   3.607
10644SOL    HW132831   1.630   3.782   3.585
10644SOL    HW232832   1.764   3.824   3.667
10645SOL     OW32833   1.797   3.382   3.484
10645SOL    HW132834   1.822   3.288   3.507
10645SOL    HW232835   1.834   3.404   3.393
10646SOL     OW32836   5.472   1.188   3.412
10646SOL    HW132837   5.378   1.209   3.435
10646SOL    HW232838   5.477   1.095   3.375
10647SOL     OW32839   4.727   6.019   4.639
10647SOL    HW132840   4.641   5.999   4.592
10647SOL    HW232841   4.751   5.942   4.698
10648SOL     OW32842   4.685   3.135   5.790
10648SOL    HW132843   4.669   3.127   5.888
10648SOL    HW232844   4.597   3.132   5.742
10649SOL     OW32845   5.900   3.276   3.340
10649SOL    HW132846   5.981   3.219   3.327
10649SOL    HW232847   5.911   3.362   3.290
10650SOL     OW32848   0.544   0.814   2.760
10650SOL    HW132849   0.490   0.897   2.749
10650SOL    HW232850   0.607   0.805   2.682
10651SOL     OW32851   2.446   5.752   4.730
10651SOL    HW132852   2.352   5.773   4.755
10651SOL    HW232853   2.483   5.683   4.792
10652SOL     OW32854   3.477   0.339   0.273
10652SOL    HW132855   3.384   0.368   0.297
10652SOL    HW232856   3.483   0.240   0.272
10653SOL     OW32857   6.082   6.055   4.712
10653SOL    HW132858   6.007   6.054   4.779
10653SOL    HW232859   6.102   5.961   4.684
10654SOL     OW32860   0.160   1.467   3.758
10654SOL    HW132861   0.223   1.403   3.802
10654SOL    HW232862   0.182   1.475   3.661
10655SOL     OW32863   6.257   5.051   0.318
10655SOL    HW132864   6.270   5.013   0.227
10655SOL    HW232865   6.170   5.019   0.355
10656SOL     OW32866   5.628   0.785   5.523
10656SOL    HW132867   5.562   0.727   5.572
10656SOL    HW232868   5.714   0.735   5.513
10657SOL     OW32869   4.770   0.333   5.563
10657SOL    HW132870   4.748   0.404   5.497
10657SOL    HW232871   4.742   0.244   5.527
10658SOL     OW32872   1.268   0.936   5.054
10658SOL    HW132873   1.204   0.959   5.128
10658SOL    HW232874   1.321   1.018   5.030
10659SOL     OW32875   0.733   5.558   6.868
10659SOL    HW132876   0.650   5.601   6.834
10659SOL    HW232877   0.751   5.589   6.962
10660SOL     OW32878   6.426   2.169   6.302
10660SOL    HW132879   6.408   2.221   6.386
10660SOL    HW232880   6.510   2.116   6.313
10661SOL     OW32881   3.977   5.663   5.869
10661SOL    HW132882   3.896   5.613   5.900
10661SOL    HW232883   4.009   5.625   5.782
10662SOL     OW32884   3.347   1.830   1.152
10662SOL    HW132885   3.281   1.904   1.142
10662SOL    HW232886   3.437   1.868   1.175
10663SOL     OW32887   6.650   3.360   3.960
10663SOL    HW132888   6.584   3.418   4.008
10663SOL    HW232889   6.742   3.397   3.974
10664SOL     OW32890   0.495   6.003   4.276
10664SOL    HW132891   0.589   6.026   4.252
10664SOL    HW232892   0.457   5.942   4.206
10665SOL     OW32893   4.417   3.672   0.922
10665SOL    HW132894   4.483   3.599   0.941
10665SOL    HW232895   4.340   3.634   0.870
10666SOL     OW32896   5.084   3.653   1.842
10666SOL    HW132897   5.015   3.725   1.852
10666SOL    HW232898   5.055   3.572   1.892
10667SOL     OW32899   5.555   2.576   4.148
10667SOL    HW132900   5.495   2.502   4.118
10667SOL    HW232901   5.643   2.568   4.101
10668SOL     OW32902   3.079   3.206   6.104
10668SOL    HW132903   3.016   3.142   6.148
10668SOL    HW232904   3.168   3.161   6.092
10669SOL     OW32905   6.594   2.538   1.893
10669SOL    HW132906   6.627   2.632   1.881
10669SOL    HW232907   6.507   2.527   1.845
10670SOL     OW32908   4.719   4.862   4.281
10670SOL    HW132909   4.640   4.827   4.331
10670SOL    HW232910   4.778   4.786   4.255
10671SOL     OW32911   1.842   3.232   4.320
10671SOL    HW132912   1.929   3.263   4.358
10671SOL    HW232913   1.859   3.161   4.251
10672SOL     OW32914   6.439   5.050   1.580
10672SOL    HW132915   6.520   5.040   1.523
10672SOL    HW232916   6.456   5.006   1.669
10673SOL     OW32917   3.004   1.188   1.757
10673SOL    HW132918   2.955   1.202   1.672
10673SOL    HW232919   3.075   1.119   1.744
10674SOL     OW32920   3.887   2.969   3.304
10674SOL    HW132921   3.816   2.911   3.343
10674SOL    HW232922   3.847   3.026   3.232
10675SOL     OW32923   3.798   6.290   5.875
10675SOL    HW132924   3.835   6.287   5.782
10675SOL    HW232925   3.710   6.338   5.874
10676SOL     OW32926   1.131   1.501   4.547
10676SOL    HW132927   1.217   1.551   4.559
10676SOL    HW232928   1.069   1.555   4.489
10677SOL     OW32929   0.182   1.137   6.949
10677SOL    HW132930   0.168   1.236   6.957
10677SOL    HW232931   0.221   1.102   0.015
10678SOL     OW32932   3.302   5.012   2.631
10678SOL    HW132933   3.219   4.996   2.577
10678SOL    HW232934   3.382   5.006   2.571
10679SOL     OW32935   5.353   3.871   0.229
10679SOL    HW132936   5.448   3.901   0.224
10679SOL    HW232937   5.297   3.928   0.169
10680SOL     OW32938   4.051   1.922   5.066
10680SOL    HW132939   3.979   1.920   5.135
10680SOL    HW232940   4.104   1.837   5.070
10681SOL     OW32941   2.645   3.513   5.615
10681SOL    HW132942   2.646   3.611   5.634
10681SOL    HW232943   2.583   3.494   5.539
10682SOL     OW32944   5.218   3.158   5.997
10682SOL    HW132945   5.206   3.219   5.918
10682SOL    HW232946   5.234   3.065   5.966
10683SOL     OW32947   1.637   6.952   3.219
10683SOL    HW132948   1.621   0.032   3.226
10683SOL    HW232949   1.703   6.934   3.146
10684SOL     OW32950   4.961   4.048   1.383
10684SOL    HW132951   4.952   4.124   1.319
10684SOL    HW232952   5.012   4.078   1.464
10685SOL     OW32953   0.738   0.796   2.589
10685SOL    HW132954   0.736   0.731   2.513
10685SOL    HW232955   0.822   0.851   2.584
10686SOL     OW32956   2.839   1.837   6.910
10686SOL    HW132957   2.740   1.846   6.921
10686SOL    HW232958   2.882   1.832   7.000
10687SOL     OW32959   0.578   3.145   3.322
10687SOL    HW132960   0.610   3.103   3.407
10687SOL    HW232961   0.645   3.214   3.292
10688SOL     OW32962   4.688   1.336   3.634
10688SOL    HW132963   4.682   1.399   3.556
10688SOL    HW232964   4.608   1.348   3.693
10689SOL     OW32965   1.570   1.285   3.153
10689SOL    HW132966   1.534   1.321   3.067
10689SOL    HW232967   1.503   1.223   3.194
10690SOL     OW32968   1.071   6.174   4.802
10690SOL    HW132969   0.973   6.154   4.811
10690SOL    HW232970   1.098   6.165   4.706
10691SOL     OW32971   3.341   6.433   1.378
10691SOL    HW132972   3.425   6.483   1.400
10691SOL    HW232973   3.345   6.404   1.282
10692SOL     OW32974   2.858   2.273   4.343
10692SOL    HW132975   2.954   2.269   4.316
10692SOL    HW232976   2.851   2.268   4.443
10693SOL     OW32977   1.265   4.396   6.997
10693SOL    HW132978   1.211   4.476   6.972
10693SOL    HW232979   1.205   4.322   0.007
10694SOL     OW32980   5.315   2.255   5.583
10694SOL    HW132981   5.405   2.295   5.599
10694SOL    HW232982   5.267   2.244   5.671
10695SOL     OW32983   4.632   4.856   1.526
10695SOL    HW132984   4.681   4.815   1.603
10695SOL    HW232985   4.570   4.788   1.487
10696SOL     OW32986   6.717   5.096   4.353
10696SOL    HW132987   6.682   5.017   4.405
10696SOL    HW232988   6.812   5.079   4.327
10697SOL     OW32989   2.885   4.830   4.773
10697SOL    HW132990   2.819   4.755   4.776
10697SOL    HW232991   2.919   4.849   4.865
10698SOL     OW32992   3.987   4.708   6.840
10698SOL    HW132993   3.916   4.673   6.901
10698SOL    HW232994   4.074   4.714   6.889
10699SOL     OW32995   4.395   3.934   1.550
10699SOL    HW132996   4.304   3.937   1.592
10699SOL    HW232997   4.464   3.946   1.620
10700SOL     OW32998   4.945   6.998   1.516
10700SOL    HW132999   4.948   0.051   1.447
10700SOL    HW233000   4.857   6.949   1.510
10701SOL     OW33001   3.315   6.527   5.746
10701SOL    HW133002   3.283   6.603   5.690
10701SOL    HW233003   3.342   6.562   5.836
10702SOL     OW33004   5.747   2.955   2.201
10702SOL    HW133005   5.758   2.913   2.292
10702SOL    HW233006   5.834   2.994   2.172
10703SOL     OW33007   0.809   2.076   5.694
10703SOL    HW133008   0.833   2.099   5.789
10703SOL    HW233009   0.748   2.146   5.657
10704SOL     OW33010   5.465   6.894   1.806
10704SOL    HW133011   5.445   6.797   1.801
10704SOL    HW233012   5.414   6.935   1.882
10705SOL     OW33013   4.675   3.733   1.663
10705SOL    HW133014   4.639   3.812   1.712
10705SOL    HW233015   4.716   3.762   1.576
10706SOL     OW33016   3.071   1.095   2.170
10706SOL    HW133017   3.023   1.080   2.256
10706SOL    HW233018   3.007   1.126   2.100
10707SOL     OW33019   3.901   0.020   3.228
10707SOL    HW133020   3.804   0.015   3.207
10707SOL    HW233021   3.954   0.014   3.143
10708SOL     OW33022   4.329   1.386   1.446
10708SOL    HW133023   4.282   1.356   1.363
10708SOL    HW233024   4.393   1.316   1.475
10709SOL     OW33025   5.729   4.179   3.077
10709SOL    HW133026   5.635   4.162   3.105
10709SOL    HW233027   5.731   4.229   2.991
10710SOL     OW33028   4.675   1.468   3.351
10710SOL    HW133029   4.727   1.479   3.265
10710SOL    HW233030   4.585   1.430   3.331
10711SOL     OW33031   2.447   6.503   3.279
10711SOL    HW133032   2.498   6.523   3.363
10711SOL    HW233033   2.435   6.404   3.270
10712SOL     OW33034   5.158   0.763   3.456
10712SOL    HW133035   5.159   0.666   3.433
10712SOL    HW233036   5.067   0.790   3.487
10713SOL     OW33037   1.200   3.746   1.249
10713SOL    HW133038   1.168   3.829   1.203
10713SOL    HW233039   1.180   3.666   1.192
10714SOL     OW33040   2.953   4.010   4.980
10714SOL    HW133041   2.857   4.026   5.004
10714SOL    HW233042   3.010   4.083   5.016
10715SOL     OW33043   6.442   1.040   1.890
10715SOL    HW133044   6.410   0.985   1.813
10715SOL    HW233045   6.511   0.988   1.941
10716SOL     OW33046   5.083   0.919   3.208
10716SOL    HW133047   5.133   1.004   3.193
10716SOL    HW233048   5.033   0.923   3.295
10717SOL     OW33049   3.613   3.207   0.659
10717SOL    HW133050   3.543   3.186   0.727
10717SOL    HW233051   3.594   3.158   0.574
10718SOL     OW33052   1.750   5.323   6.417
10718SOL    HW133053   1.651   5.327   6.401
10718SOL    HW233054   1.768   5.328   6.516
10719SOL     OW33055   6.876   4.562   5.581
10719SOL    HW133056   6.909   4.656   5.567
10719SOL    HW233057   6.938   4.514   5.642
10720SOL     OW33058   6.927   5.475   2.774
10720SOL    HW133059   6.828   5.487   2.779
10720SOL    HW233060   6.951   5.427   2.690
10721SOL     OW33061   5.094   2.775   6.423
10721SOL    HW133062   5.031   2.833   6.371
10721SOL    HW233063   5.182   2.821   6.434
10722SOL     OW33064   0.321   3.846   5.505
10722SOL    HW133065   0.386   3.903   5.555
10722SOL    HW233066   0.272   3.902   5.438
10723SOL     OW33067   6.012   6.009   0.693
10723SOL    HW133068   6.073   6.029   0.616
10723SOL    HW233069   5.945   5.940   0.666
10724SOL     OW33070   0.169   6.138   5.921
10724SOL    HW133071   0.247   6.199   5.938
10724SOL    HW233072   0.084   6.190   5.926
10725SOL     OW33073   2.588   6.537   6.135
10725SOL    HW133074   2.576   6.488   6.048
10725SOL    HW233075   2.555   6.631   6.125
10726SOL     OW33076   3.684   0.827   4.096
10726SOL    HW133077   3.697   0.918   4.134
10726SOL    HW233078   3.682   0.760   4.170
10727SOL     OW33079   2.370   6.092   6.800
10727SOL    HW133080   2.297   6.135   6.853
10727SOL    HW233081   2.404   6.012   6.849
10728SOL     OW33082   5.281   6.036   1.910
10728SOL    HW133083   5.266   6.078   1.821
10728SOL    HW233084   5.327   5.948   1.899
10729SOL     OW33085   6.483   1.918   0.478
10729SOL    HW133086   6.451   1.915   0.384
10729SOL    HW233087   6.502   2.013   0.504
10730SOL     OW33088   4.488   0.324   3.235
10730SOL    HW133089   4.419   0.318   3.307
10730SOL    HW233090   4.449   0.372   3.156
10731SOL     OW33091   3.176   0.271   0.983
10731SOL    HW133092   3.265   0.314   0.996
10731SOL    HW233093   3.168   0.237   0.890
10732SOL     OW33094   0.543   3.247   5.824
10732SOL    HW133095   0.517   3.224   5.730
10732SOL    HW233096   0.490   3.190   5.887
10733SOL     OW33097   6.057   0.162   0.041
10733SOL    HW133098   6.009   0.078   0.016
10733SOL    HW233099   6.151   0.139   0.068
10734SOL     OW33100   5.622   2.707   1.714
10734SOL    HW133101   5.613   2.806   1.725
10734SOL    HW233102   5.645   2.686   1.619
10735SOL     OW33103   0.014   5.676   2.603
10735SOL    HW133104   0.038   5.772   2.617
10735SOL    HW233105   6.985   5.641   2.683
10736SOL     OW33106   1.887   1.460   5.027
10736SOL    HW133107   1.917   1.385   4.968
10736SOL    HW233108   1.932   1.545   4.998
10737SOL     OW33109   6.932   2.027   6.268
10737SOL    HW133110   6.919   1.979   6.181
10737SOL    HW233111   6.916   1.964   6.344
10738SOL     OW33112   3.831   0.460   4.653
10738SOL    HW133113   3.925   0.468   4.684
10738SOL    HW233114   3.829   0.444   4.554
10739SOL     OW33115   1.811   1.414   2.180
10739SOL    HW133116   1.836   1.390   2.274
10739SOL    HW233117   1.798   1.513   2.173
10740SOL     OW33118   4.293   6.097   3.770
10740SOL    HW133119   4.299   6.000   3.795
10740SOL    HW233120   4.198   6.120   3.751
10741SOL     OW33121   2.337   0.529   3.182
10741SOL    HW133122   2.395   0.570   3.253
10741SOL    HW233123   2.387   0.529   3.095
10742SOL     OW33124   6.686   5.648   0.077
10742SOL    HW133125   6.668   5.739   0.116
10742SOL    HW233126   6.609   5.588   0.097
10743SOL     OW33127   3.325   1.265   5.062
10743SOL    HW133128   3.349   1.170   5.042
10743SOL    HW233129   3.350   1.323   4.984
10744SOL     OW33130   5.974   1.465   0.598
10744SOL    HW133131   5.979   1.401   0.522
10744SOL    HW233132   5.890   1.519   0.591
10745SOL     OW33133   6.961   5.702   6.004
10745SOL    HW133134   0.003   5.770   6.047
10745SOL    HW233135   7.010   5.654   5.932
10746SOL     OW33136   1.970   4.569   5.067
10746SOL    HW133137   1.984   4.668   5.067
10746SOL    HW233138   1.935   4.541   4.978
10747SOL     OW33139   2.987   2.176   4.874
10747SOL    HW133140   3.066   2.190   4.933
10747SOL    HW233141   2.907   2.152   4.929
10748SOL     OW33142   5.639   1.754   2.643
10748SOL    HW133143   5.721   1.705   2.673
10748SOL    HW233144   5.558   1.714   2.685
10749SOL     OW33145   3.445   0.051   0.245
10749SOL    HW133146   3.434   7.015   0.328
10749SOL    HW233147   3.442   7.009   0.165
10750SOL     OW33148   4.642   6.169   6.463
10750SOL    HW133149   4.590   6.157   6.379
10750SOL    HW233150   4.582   6.207   6.534
10751SOL     OW33151   2.481   5.839   2.932
10751SOL    HW133152   2.579   5.846   2.950
10751SOL    HW233153   2.459   5.889   2.848
10752SOL     OW33154   4.991   5.306   4.120
10752SOL    HW133155   5.078   5.293   4.074
10752SOL    HW233156   4.955   5.218   4.150
10753SOL     OW33157   5.639   4.169   4.462
10753SOL    HW133158   5.644   4.070   4.459
10753SOL    HW233159   5.568   4.198   4.526
10754SOL     OW33160   1.306   6.724   2.449
10754SOL    HW133161   1.247   6.800   2.421
10754SOL    HW233162   1.255   6.639   2.444
10755SOL     OW33163   6.252   5.733   1.380
10755SOL    HW133164   6.170   5.676   1.377
10755SOL    HW233165   6.276   5.762   1.288
10756SOL     OW33166   0.468   6.869   5.122
10756SOL    HW133167   0.416   6.922   5.054
10756SOL    HW233168   0.550   6.832   5.078
10757SOL     OW33169   2.898   2.913   1.736
10757SOL    HW133170   2.841   2.861   1.800
10757SOL    HW233171   2.928   2.853   1.663
10758SOL     OW33172   0.042   5.272   4.475
10758SOL    HW133173   6.995   5.199   4.493
10758SOL    HW233174   0.086   5.299   4.561
10759SOL     OW33175   6.959   0.853   6.982
10759SOL    HW133176   6.860   0.853   6.965
10759SOL    HW233177   6.982   0.932   0.020
10760SOL     OW33178   5.816   1.767   4.784
10760SOL    HW133179   5.886   1.793   4.718
10760SOL    HW233180   5.743   1.718   4.737
10761SOL     OW33181   3.411   5.285   5.517
10761SOL    HW133182   3.399   5.356   5.587
10761SOL    HW233183   3.466   5.210   5.554
10762SOL     OW33184   3.175   1.272   6.340
10762SOL    HW133185   3.238   1.240   6.269
10762SOL    HW233186   3.215   1.351   6.388
10763SOL     OW33187   4.777   5.336   4.291
10763SOL    HW133188   4.852   5.343   4.226
10763SOL    HW233189   4.690   5.345   4.244
10764SOL     OW33190   4.360   0.279   4.803
10764SOL    HW133191   4.458   0.294   4.817
10764SOL    HW233192   4.314   0.273   4.891
10765SOL     OW33193   0.000   3.714   0.107
10765SOL    HW133194   6.961   3.729   0.026
10765SOL    HW233195   6.961   3.691   0.185
10766SOL     OW33196   3.196   3.588   1.928
10766SOL    HW133197   3.103   3.618   1.907
10766SOL    HW233198   3.262   3.639   1.872
10767SOL     OW33199   4.827   1.938   2.107
10767SOL    HW133200   4.743   1.990   2.126
10767SOL    HW233201   4.838   1.926   2.009
10768SOL     OW33202   5.800   4.555   6.487
10768SOL    HW133203   5.820   4.622   6.414
10768SOL    HW233204   5.851   4.471   6.470
10769SOL     OW33205   1.726   3.677   4.655
10769SOL    HW133206   1.764   3.754   4.604
10769SOL    HW233207   1.629   3.692   4.672
10770SOL     OW33208   4.000   5.901   3.702
10770SOL    HW133209   4.068   5.891   3.774
10770SOL    HW233210   3.910   5.872   3.736
10771SOL     OW33211   2.750   1.874   4.321
10771SOL    HW133212   2.833   1.904   4.274
10771SOL    HW233213   2.697   1.954   4.348
10772SOL     OW33214   5.142   5.798   4.116
10772SOL    HW133215   5.097   5.831   4.033
10772SOL    HW233216   5.110   5.706   4.138
10773SOL     OW33217   5.453   5.202   2.763
10773SOL    HW133218   5.537   5.176   2.713
10773SOL    HW233219   5.374   5.164   2.715
10774SOL     OW33220   6.867   6.844   3.248
10774SOL    HW133221   6.876   6.931   3.199
10774SOL    HW233222   6.886   6.768   3.185
10775SOL     OW33223   0.246   3.207   1.301
10775SOL    HW133224   0.235   3.153   1.385
10775SOL    HW233225   0.161   3.205   1.249
10776SOL     OW33226   1.738   0.400   5.581
10776SOL    HW133227   1.754   0.497   5.562
10776SOL    HW233228   1.731   0.385   5.680
10777SOL     OW33229   3.137   5.744   1.332
10777SOL    HW133230   3.037   5.739   1.324
10777SOL    HW233231   3.172   5.656   1.365
10778SOL     OW33232   5.943   6.034   1.843
10778SOL    HW133233   5.956   5.958   1.907
10778SOL    HW233234   5.989   6.115   1.879
10779SOL     OW33235   5.113   3.065   3.466
10779SOL    HW133236   5.131   2.966   3.468
10779SOL    HW233237   5.135   3.104   3.556
10780SOL     OW33238   6.882   0.518   2.099
10780SOL    HW133239   6.848   0.427   2.121
10780SOL    HW233240   6.814   0.566   2.043
10781SOL     OW33241   3.034   7.010   3.974
10781SOL    HW133242   3.089   0.008   3.892
10781SOL    HW233243   3.094   6.984   4.049
10782SOL     OW33244   6.700   5.555   3.597
10782SOL    HW133245   6.767   5.490   3.633
10782SOL    HW233246   6.616   5.550   3.651
10783SOL     OW33247   6.557   2.585   2.573
10783SOL    HW133248   6.605   2.502   2.600
10783SOL    HW233249   6.468   2.562   2.535
10784SOL     OW33250   1.605   1.756   5.047
10784SOL    HW133251   1.702   1.781   5.039
10784SOL    HW233252   1.548   1.837   5.034
10785SOL     OW33253   1.254   3.079   6.171
10785SOL    HW133254   1.234   3.051   6.265
10785SOL    HW233255   1.226   3.006   6.108
10786SOL     OW33256   6.416   4.441   4.709
10786SOL    HW133257   6.334   4.431   4.766
10786SOL    HW233258   6.404   4.391   4.624
10787SOL     OW33259   2.053   2.323   5.845
10787SOL    HW133260   2.046   2.232   5.805
10787SOL    HW233261   2.129   2.325   5.909
10788SOL     OW33262   5.920   3.799   6.148
10788SOL    HW133263   5.851   3.859   6.188
10788SOL    HW233264   5.881   3.707   6.136
10789SOL     OW33265   4.887   0.922   6.773
10789SOL    HW133266   4.823   0.969   6.713
10789SOL    HW233267   4.949   0.866   6.719
10790SOL     OW33268   5.645   6.531   2.596
10790SOL    HW133269   5.564   6.575   2.556
10790SOL    HW233270   5.624   6.502   2.690
10791SOL     OW33271   0.786   6.251   2.411
10791SOL    HW133272   0.855   6.195   2.457
10791SOL    HW233273   0.700   6.244   2.461
10792SOL     OW33274   3.795   4.699   6.348
10792SOL    HW133275   3.811   4.672   6.443
10792SOL    HW233276   3.777   4.797   6.344
10793SOL     OW33277   5.361   4.181   4.722
10793SOL    HW133278   5.309   4.205   4.804
10793SOL    HW233279   5.350   4.084   4.702
10794SOL     OW33280   3.221   3.552   4.840
10794SOL    HW133281   3.232   3.644   4.876
10794SOL    HW233282   3.253   3.485   4.907
10795SOL     OW33283   0.088   4.848   3.022
10795SOL    HW133284   0.025   4.776   3.050
10795SOL    HW233285   0.040   4.936   3.023
10796SOL     OW33286   0.766   6.561   5.493
10796SOL    HW133287   0.854   6.513   5.499
10796SOL    HW233288   0.782   6.658   5.477
10797SOL     OW33289   4.110   2.826   0.483
10797SOL    HW133290   4.097   2.922   0.509
10797SOL    HW233291   4.026   2.792   0.440
10798SOL     OW33292   5.955   1.295   0.814
10798SOL    HW133293   5.982   1.338   0.727
10798SOL    HW233294   6.024   1.315   0.883
10799SOL     OW33295   5.325   1.367   1.127
10799SOL    HW133296   5.300   1.324   1.213
10799SOL    HW233297   5.337   1.297   1.057
10800SOL     OW33298   6.705   6.500   0.991
10800SOL    HW133299   6.632   6.525   0.927
10800SOL    HW233300   6.745   6.413   0.964
10801SOL     OW33301   2.163   0.579   1.260
10801SOL    HW133302   2.183   0.649   1.191
10801SOL    HW233303   2.180   0.616   1.351
10802SOL     OW33304   5.495   1.286   3.800
10802SOL    HW133305   5.432   1.350   3.756
10802SOL    HW233306   5.583   1.288   3.752
10803SOL     OW33307   2.242   5.021   4.960
10803SOL    HW133308   2.297   5.093   5.002
10803SOL    HW233309   2.209   4.958   5.031
10804SOL     OW33310   6.073   3.371   3.897
10804SOL    HW133311   6.034   3.328   3.816
10804SOL    HW233312   6.172   3.373   3.890
10805SOL     OW33313   0.025   6.756   6.802
10805SOL    HW133314   0.025   6.850   6.768
10805SOL    HW233315   6.965   6.743   6.863
10806SOL     OW33316   1.502   5.319   1.212
10806SOL    HW133317   1.564   5.327   1.135
10806SOL    HW233318   1.412   5.289   1.180
10807SOL     OW33319   3.319   5.254   4.968
10807SOL    HW133320   3.256   5.261   5.045
10807SOL    HW233321   3.274   5.289   4.885
10808SOL     OW33322   1.636   3.295   0.163
10808SOL    HW133323   1.666   3.253   0.249
10808SOL    HW233324   1.586   3.229   0.108
10809SOL     OW33325   1.298   0.771   4.772
10809SOL    HW133326   1.379   0.761   4.713
10809SOL    HW233327   1.324   0.815   4.857
10810SOL     OW33328   6.392   0.559   3.783
10810SOL    HW133329   6.315   0.527   3.728
10810SOL    HW233330   6.359   0.595   3.870
10811SOL     OW33331   5.424   5.582   5.106
10811SOL    HW133332   5.410   5.585   5.205
10811SOL    HW233333   5.431   5.675   5.070
10812SOL     OW33334   0.511   3.235   1.043
10812SOL    HW133335   0.554   3.325   1.049
10812SOL    HW233336   0.412   3.245   1.034
10813SOL     OW33337   0.993   3.523   6.765
10813SOL    HW133338   0.915   3.546   6.706
10813SOL    HW233339   0.996   3.424   6.778
10814SOL     OW33340   3.391   1.964   1.943
10814SOL    HW133341   3.317   2.006   1.995
10814SOL    HW233342   3.358   1.880   1.900
10815SOL     OW33343   5.281   1.104   4.636
10815SOL    HW133344   5.182   1.097   4.638
10815SOL    HW233345   5.309   1.173   4.569
10816SOL     OW33346   3.249   3.183   5.708
10816SOL    HW133347   3.183   3.255   5.686
10816SOL    HW233348   3.206   3.117   5.770
10817SOL     OW33349   1.458   6.383   4.455
10817SOL    HW133350   1.554   6.403   4.475
10817SOL    HW233351   1.409   6.469   4.441
10818SOL     OW33352   4.665   3.981   0.196
10818SOL    HW133353   4.688   4.013   0.104
10818SOL    HW233354   4.573   4.013   0.220
10819SOL     OW33355   6.174   5.733   5.477
10819SOL    HW133356   6.271   5.722   5.497
10819SOL    HW233357   6.133   5.797   5.542
10820SOL     OW33358   1.581   5.069   6.347
10820SOL    HW133359   1.550   5.063   6.252
10820SOL    HW233360   1.678   5.093   6.350
10821SOL     OW33361   4.065   5.746   4.022
10821SOL    HW133362   3.985   5.699   3.986
10821SOL    HW233363   4.038   5.805   4.098
10822SOL     OW33364   5.541   0.459   2.646
10822SOL    HW133365   5.511   0.551   2.621
10822SOL    HW233366   5.469   0.393   2.624
10823SOL     OW33367   5.368   6.596   2.546
10823SOL    HW133368   5.329   6.515   2.502
10823SOL    HW233369   5.312   6.676   2.524
10824SOL     OW33370   1.765   2.456   3.039
10824SOL    HW133371   1.791   2.551   3.023
10824SOL    HW233372   1.718   2.449   3.127
10825SOL     OW33373   6.714   1.331   0.306
10825SOL    HW133374   6.752   1.326   0.213
10825SOL    HW233375   6.620   1.364   0.303
10826SOL     OW33376   6.882   3.252   2.711
10826SOL    HW133377   6.951   3.206   2.767
10826SOL    HW233378   6.864   3.198   2.629
10827SOL     OW33379   0.077   3.273   4.012
10827SOL    HW133380   0.054   3.180   4.040
10827SOL    HW233381   0.176   3.280   4.000
10828SOL     OW33382   6.976   4.195   4.940
10828SOL    HW133383   6.948   4.289   4.920
10828SOL    HW233384   0.021   4.195   5.017
10829SOL     OW33385   4.099   3.063   5.279
10829SOL    HW133386   4.046   3.062   5.364
10829SOL    HW233387   4.039   3.083   5.202
10830SOL     OW33388   5.144   1.925   3.736
10830SOL    HW133389   5.203   1.923   3.816
10830SOL    HW233390   5.153   2.013   3.689
10831SOL     OW33391   4.227   0.100   3.309
10831SOL    HW133392   4.265   0.185   3.346
10831SOL    HW233393   4.137   0.118   3.271
10832SOL     OW33394   6.718   3.192   6.664
10832SOL    HW133395   6.642   3.168   6.723
10832SOL    HW233396   6.735   3.290   6.668
10833SOL     OW33397   0.874   1.216   6.682
10833SOL    HW133398   0.818   1.251   6.757
10833SOL    HW233399   0.900   1.292   6.622
10834SOL     OW33400   0.005   6.481   1.982
10834SOL    HW133401   6.984   6.402   2.028
10834SOL    HW233402   0.072   6.450   1.915
10835SOL     OW33403   6.681   2.632   5.726
10835SOL    HW133404   6.637   2.553   5.682
10835SOL    HW233405   6.611   2.698   5.755
10836SOL     OW33406   7.003   1.771   3.405
10836SOL    HW133407   0.050   1.786   3.331
10836SOL    HW233408   6.951   1.855   3.421
10837SOL     OW33409   6.928   3.233   3.483
10837SOL    HW133410   6.833   3.232   3.516
10837SOL    HW233411   6.928   3.243   3.384
10838SOL     OW33412   0.520   6.840   2.589
10838SOL    HW133413   0.547   6.867   2.681
10838SOL    HW233414   0.428   6.803   2.590
10839SOL     OW33415   4.532   2.530   7.012
10839SOL    HW133416   4.608   2.531   0.057
10839SOL    HW233417   4.530   2.616   6.960
10840SOL     OW33418   2.850   0.566   2.394
10840SOL    HW133419   2.839   0.472   2.363
10840SOL    HW233420   2.775   0.622   2.357
10841SOL     OW33421   2.037   5.250   4.866
10841SOL    HW133422   2.038   5.154   4.839
10841SOL    HW233423   2.083   5.305   4.796
10842SOL     OW33424   6.753   4.697   1.793
10842SOL    HW133425   6.808   4.628   1.840
10842SOL    HW233426   6.677   4.652   1.745
10843SOL     OW33427   2.963   1.278   1.473
10843SOL    HW133428   3.061   1.263   1.462
10843SOL    HW233429   2.915   1.237   1.395
10844SOL     OW33430   1.726   5.517   4.480
10844SOL    HW133431   1.724   5.446   4.550
10844SOL    HW233432   1.780   5.594   4.513
10845SOL     OW33433   3.877   1.088   4.163
10845SOL    HW133434   3.835   1.145   4.093
10845SOL    HW233435   3.834   1.108   4.252
10846SOL     OW33436   5.729   6.355   6.336
10846SOL    HW133437   5.818   6.386   6.306
10846SOL    HW233438   5.686   6.426   6.392
10847SOL     OW33439   3.402   6.899   0.043
10847SOL    HW133440   3.474   6.851   7.012
10847SOL    HW233441   3.321   6.841   0.047
10848SOL     OW33442   1.868   3.127   2.271
10848SOL    HW133443   1.819   3.215   2.273
10848SOL    HW233444   1.960   3.140   2.308
10849SOL     OW33445   1.320   6.271   3.328
10849SOL    HW133446   1.400   6.269   3.387
10849SOL    HW233447   1.278   6.181   3.324
10850SOL     OW33448   4.983   4.300   0.140
10850SOL    HW133449   4.964   4.209   0.176
10850SOL    HW233450   5.069   4.298   0.089
10851SOL     OW33451   1.527   4.794   0.623
10851SOL    HW133452   1.614   4.802   0.672
10851SOL    HW233453   1.516   4.872   0.561
10852SOL     OW33454   3.174   0.944   1.684
10852SOL    HW133455   3.078   0.923   1.663
10852SOL    HW233456   3.234   0.891   1.623
10853SOL     OW33457   3.316   0.963   5.942
10853SOL    HW133458   3.414   0.948   5.927
10853SOL    HW233459   3.266   0.945   5.858
10854SOL     OW33460   2.927   5.907   6.094
10854SOL    HW133461   2.960   5.813   6.104
10854SOL    HW233462   3.005   5.970   6.094
10855SOL     OW33463   4.206   1.031   6.681
10855SOL    HW133464   4.126   1.079   6.645
10855SOL    HW233465   4.225   1.064   6.774
10856SOL     OW33466   0.524   0.355   0.894
10856SOL    HW133467   0.609   0.311   0.866
10856SOL    HW233468   0.545   0.441   0.941
10857SOL     OW33469   6.705   1.608   2.068
10857SOL    HW133470   6.773   1.682   2.065
10857SOL    HW233471   6.742   1.527   2.021
10858SOL     OW33472   2.160   6.359   1.963
10858SOL    HW133473   2.213   6.358   1.878
10858SOL    HW233474   2.064   6.375   1.942
10859SOL     OW33475   1.713   5.041   3.794
10859SOL    HW133476   1.766   4.959   3.814
10859SOL    HW233477   1.764   5.099   3.731
10860SOL     OW33478   0.167   3.848   2.985
10860SOL    HW133479   0.259   3.812   2.980
10860SOL    HW233480   0.101   3.774   2.977
10861SOL     OW33481   4.707   3.374   5.362
10861SOL    HW133482   4.629   3.315   5.384
10861SOL    HW233483   4.678   3.444   5.297
10862SOL     OW33484   1.116   0.803   5.465
10862SOL    HW133485   1.062   0.759   5.536
10862SOL    HW233486   1.181   0.866   5.506
10863SOL     OW33487   1.958   6.794   4.357
10863SOL    HW133488   1.903   6.727   4.406
10863SOL    HW233489   1.954   6.776   4.258
10864SOL     OW33490   3.299   6.994   3.630
10864SOL    HW133491   3.199   6.992   3.632
10864SOL    HW233492   3.336   6.960   3.717
10865SOL     OW33493   6.632   1.010   6.146
10865SOL    HW133494   6.617   0.911   6.150
10865SOL    HW233495   6.686   1.038   6.225
10866SOL     OW33496   6.182   4.937   6.881
10866SOL    HW133497   6.234   4.971   6.803
10866SOL    HW233498   6.103   4.886   6.848
10867SOL     OW33499   3.201   2.077   7.007
10867SOL    HW133500   3.139   2.045   6.935
10867SOL    HW233501   3.285   2.022   7.005
10868SOL     OW33502   1.399   2.409   3.433
10868SOL    HW133503   1.414   2.482   3.366
10868SOL    HW233504   1.450   2.327   3.407
10869NA      NA33505   6.689   2.251   5.189
10870NA      NA33506   4.521   4.554   5.151
10871NA      NA33507   2.082   3.281   1.818
10872NA      NA33508   5.018   3.471   4.953
10873NA      NA33509   4.106   2.419   5.341
10874NA      NA33510   3.695   4.970   2.074
10875NA      NA33511   6.674   6.501   4.951
10876NA      NA33512   3.822   3.385   4.992
10877NA      NA33513   4.682   5.919   6.127
10878NA      NA33514   2.745   6.794   4.907
10879NA      NA33515   0.286   4.879   2.921
10880NA      NA33516   2.002   0.454   2.060
10881NA      NA33517   3.897   4.495   1.158
10882NA      NA33518   3.851   3.700   3.149
   7.01863   7.01863   7.01863
